 vasp.4.6.28 25Jul05 complex 
 executed on             LinuxIFC date 2016.07.06  18:23:14
 running on    8 nodes
 distr:  one band on    1 nodes,    8 groups


--------------------------------------------------------------------------------------------------------


 INCAR:
 POTCAR:   PAW_PBE Cu 05Jan2001                   
 POTCAR:   PAW_PBE Cu 05Jan2001                   
   VRHFIN =Cu: d10 p1                                                           
   LEXCH  = PE                                                                  
   EATOM  =  1390.9800 eV,  102.2341 Ry                                         
                                                                                
   TITEL  = PAW_PBE Cu 05Jan2001                                                
   LULTRA =        F    use ultrasoft PP ?                                      
   IUNSCR =        1    unscreen: 0-lin 1-nonlin 2-no                           
   RPACOR =    2.000    partial core radius                                     
   POMASS =   63.546; ZVAL   =   11.000    mass and valenz                      
   RCORE  =    2.300    outmost cutoff radius                                   
   RWIGS  =    2.480; RWIGS  =    1.312    wigner-seitz radius (au A)           
   ENMAX  =  273.214; ENMIN  =  204.910 eV                                      
   RCLOC  =    1.712    cutoff for local pot                                    
   LCOR   =        T    correct aug charges                                     
   LPAW   =        T    paw PP                                                  
   EAUG   =  516.456                                                            
   DEXC   =    -.008                                                            
   RMAX   =    2.789    core radius for proj-oper                               
   RAUG   =    1.300    factor for augmentation sphere                          
   RDEP   =    2.302    radius for radial grids                                 
   QCUT   =   -4.481; QGAM   =    8.962    optimization parameters              
                                                                                
   Description                                                                  
     l     E      TYP  RCUT    TYP  RCUT                                        
     2   .000     23  2.300                                                     
     2   .000     23  2.300                                                     
     0   .000     23  2.300                                                     
     0   .000     23  2.300                                                     
     1  -.200     23  2.300                                                     
     1   .000     23  2.300                                                     
     3   .000      7   .000                                                     
  local pseudopotential read in
  partial core-charges read in
  atomic valenz-charges read in
  non local Contribution for L=           2  read in
    real space projection operators read in
  non local Contribution for L=           2  read in
    real space projection operators read in
  non local Contribution for L=           0  read in
    real space projection operators read in
  non local Contribution for L=           0  read in
    real space projection operators read in
  non local Contribution for L=           1  read in
    real space projection operators read in
  non local Contribution for L=           1  read in
    real space projection operators read in
    PAW grid and wavefunctions read in
 
   number of l-projection  operators is LMAX  =           6
   number of lm-projection operators is LMMAX =          18
 
 PAW_PBE Cu 05Jan2001                   :
 energy of atom  1       EATOM=-1390.9800
 kinetic energy error for atom=    0.0032 (will be added to EATOM!!)
 
 EXHCAR: internal setup
 exchange correlation table for  LEXCH =        8
   RHO(1)=    0.500       N(1)  =     2000
   RHO(2)=  100.500       N(2)  =     4000
 
 POSCAR: Cu                                      
  positions in direct lattice
  velocities in cartesian coordinates
 


--------------------------------------------------------------------------------------------------------


 ion  position               nearest neighbor table
   1  0.000  0.000  0.000-   2 2.44   3 2.44   4 2.44   3 2.44   4 2.44   2 2.44   4 2.44   4 2.44
                             2 2.44   3 2.44   3 2.44   2 2.44
   2  0.500  0.500  0.000-   1 2.44   3 2.44   4 2.44   3 2.44   4 2.44   1 2.44   3 2.44   3 2.44
                             1 2.44   4 2.44   4 2.44   1 2.44
   3  0.500  0.000  0.500-   1 2.44   2 2.44   4 2.44   1 2.44   2 2.44   2 2.44   4 2.44   2 2.44
                             1 2.44   4 2.44   1 2.44   4 2.44
   4  0.000  0.500  0.500-   1 2.44   2 2.44   3 2.44   1 2.44   2 2.44   1 2.44   3 2.44   1 2.44
                             2 2.44   3 2.44   2 2.44   3 2.44
 
  LATTYP: Found a simple cubic cell.
 ALAT       =     3.4545950211
  
  Lattice vectors:
  
 A1 = (   3.4545950211,   0.0000000000,   0.0000000000)
 A2 = (   0.0000000000,   3.4545950211,   0.0000000000)
 A3 = (   0.0000000000,   0.0000000000,   3.4545950211)
 Subroutine PRICEL returns following result:
 
  LATTYP: Found a face centered cubic cell.
 ALAT       =     3.4545950211
  
  Lattice vectors:
  
 A1 = (   1.7272975106,   1.7272975106,   0.0000000000)
 A2 = (   1.7272975106,   0.0000000000,  -1.7272975106)
 A3 = (   0.0000000000,   1.7272975106,  -1.7272975106)
 
   4 primitive cells build up your supercell.
 

Analysis of symmetry for initial positions (statically):

 Routine SETGRP: Setting up the symmetry group for a 
 simple cubic supercell.


 Subroutine GETGRP returns: Found 48 space group operations
 (whereof 48 operations were pure point group operations)
 out of a pool of 48 trial point group operations.


The static configuration has the point symmetry O_h .

Analysis of symmetry for dynamics (positions and initial velocities):

 Subroutine DYNSYM returns: Found 48 space group operations
 (whereof 48 operations were pure point group operations)
 out of a pool of 48 trial space group operations
 (whereof 48 operations were pure point group operations)
 and found also     4 'primitive' translations


The dynamic configuration has the point symmetry O_h .
 
 
 KPOINTS: Automatic mesh                          

Automatic generation of k-mesh.
 generate k-points for:  14  14  14
 
 Subroutine IBZKPT returns following result:
 ===========================================
 
 Found    120 irreducible k-points:
 
 Following reciprocal coordinates:
            Coordinates               Weight
  0.000000  0.000000  0.000000      1.000000
  0.071429  0.000000  0.000000      6.000000
  0.142857  0.000000  0.000000      6.000000
  0.214286  0.000000  0.000000      6.000000
  0.285714  0.000000  0.000000      6.000000
  0.357143  0.000000  0.000000      6.000000
  0.428571  0.000000  0.000000      6.000000
  0.500000  0.000000  0.000000      3.000000
  0.071429  0.071429  0.000000     12.000000
  0.142857  0.071429  0.000000     24.000000
  0.214286  0.071429  0.000000     24.000000
  0.285714  0.071429  0.000000     24.000000
  0.357143  0.071429  0.000000     24.000000
  0.428571  0.071429  0.000000     24.000000
  0.500000  0.071429  0.000000     12.000000
  0.142857  0.142857  0.000000     12.000000
  0.214286  0.142857  0.000000     24.000000
  0.285714  0.142857  0.000000     24.000000
  0.357143  0.142857  0.000000     24.000000
  0.428571  0.142857  0.000000     24.000000
  0.500000  0.142857  0.000000     12.000000
  0.214286  0.214286  0.000000     12.000000
  0.285714  0.214286  0.000000     24.000000
  0.357143  0.214286  0.000000     24.000000
  0.428571  0.214286  0.000000     24.000000
  0.500000  0.214286  0.000000     12.000000
  0.285714  0.285714  0.000000     12.000000
  0.357143  0.285714  0.000000     24.000000
  0.428571  0.285714  0.000000     24.000000
  0.500000  0.285714  0.000000     12.000000
  0.357143  0.357143  0.000000     12.000000
  0.428571  0.357143  0.000000     24.000000
  0.500000  0.357143  0.000000     12.000000
  0.428571  0.428571  0.000000     12.000000
  0.500000  0.428571  0.000000     12.000000
  0.500000  0.500000  0.000000      3.000000
  0.071429  0.071429  0.071429      8.000000
  0.142857  0.071429  0.071429     24.000000
  0.214286  0.071429  0.071429     24.000000
  0.285714  0.071429  0.071429     24.000000
  0.357143  0.071429  0.071429     24.000000
  0.428571  0.071429  0.071429     24.000000
  0.500000  0.071429  0.071429     12.000000
  0.142857  0.142857  0.071429     24.000000
  0.214286  0.142857  0.071429     48.000000
  0.285714  0.142857  0.071429     48.000000
  0.357143  0.142857  0.071429     48.000000
  0.428571  0.142857  0.071429     48.000000
  0.500000  0.142857  0.071429     24.000000
  0.214286  0.214286  0.071429     24.000000
  0.285714  0.214286  0.071429     48.000000
  0.357143  0.214286  0.071429     48.000000
  0.428571  0.214286  0.071429     48.000000
  0.500000  0.214286  0.071429     24.000000
  0.285714  0.285714  0.071429     24.000000
  0.357143  0.285714  0.071429     48.000000
  0.428571  0.285714  0.071429     48.000000
  0.500000  0.285714  0.071429     24.000000
  0.357143  0.357143  0.071429     24.000000
  0.428571  0.357143  0.071429     48.000000
  0.500000  0.357143  0.071429     24.000000
  0.428571  0.428571  0.071429     24.000000
  0.500000  0.428571  0.071429     24.000000
  0.500000  0.500000  0.071429      6.000000
  0.142857  0.142857  0.142857      8.000000
  0.214286  0.142857  0.142857     24.000000
  0.285714  0.142857  0.142857     24.000000
  0.357143  0.142857  0.142857     24.000000
  0.428571  0.142857  0.142857     24.000000
  0.500000  0.142857  0.142857     12.000000
  0.214286  0.214286  0.142857     24.000000
  0.285714  0.214286  0.142857     48.000000
  0.357143  0.214286  0.142857     48.000000
  0.428571  0.214286  0.142857     48.000000
  0.500000  0.214286  0.142857     24.000000
  0.285714  0.285714  0.142857     24.000000
  0.357143  0.285714  0.142857     48.000000
  0.428571  0.285714  0.142857     48.000000
  0.500000  0.285714  0.142857     24.000000
  0.357143  0.357143  0.142857     24.000000
  0.428571  0.357143  0.142857     48.000000
  0.500000  0.357143  0.142857     24.000000
  0.428571  0.428571  0.142857     24.000000
  0.500000  0.428571  0.142857     24.000000
  0.500000  0.500000  0.142857      6.000000
  0.214286  0.214286  0.214286      8.000000
  0.285714  0.214286  0.214286     24.000000
  0.357143  0.214286  0.214286     24.000000
  0.428571  0.214286  0.214286     24.000000
  0.500000  0.214286  0.214286     12.000000
  0.285714  0.285714  0.214286     24.000000
  0.357143  0.285714  0.214286     48.000000
  0.428571  0.285714  0.214286     48.000000
  0.500000  0.285714  0.214286     24.000000
  0.357143  0.357143  0.214286     24.000000
  0.428571  0.357143  0.214286     48.000000
  0.500000  0.357143  0.214286     24.000000
  0.428571  0.428571  0.214286     24.000000
  0.500000  0.428571  0.214286     24.000000
  0.500000  0.500000  0.214286      6.000000
  0.285714  0.285714  0.285714      8.000000
  0.357143  0.285714  0.285714     24.000000
  0.428571  0.285714  0.285714     24.000000
  0.500000  0.285714  0.285714     12.000000
  0.357143  0.357143  0.285714     24.000000
  0.428571  0.357143  0.285714     48.000000
  0.500000  0.357143  0.285714     24.000000
  0.428571  0.428571  0.285714     24.000000
  0.500000  0.428571  0.285714     24.000000
  0.500000  0.500000  0.285714      6.000000
  0.357143  0.357143  0.357143      8.000000
  0.428571  0.357143  0.357143     24.000000
  0.500000  0.357143  0.357143     12.000000
  0.428571  0.428571  0.357143     24.000000
  0.500000  0.428571  0.357143     24.000000
  0.500000  0.500000  0.357143      6.000000
  0.428571  0.428571  0.428571      8.000000
  0.500000  0.428571  0.428571     12.000000
  0.500000  0.500000  0.428571      6.000000
  0.500000  0.500000  0.500000      1.000000
 
 Following cartesian coordinates:
            Coordinates               Weight
  0.000000  0.000000  0.000000      1.000000
  0.019643  0.000000  0.000000      6.000000
  0.039285  0.000000  0.000000      6.000000
  0.058928  0.000000  0.000000      6.000000
  0.078570  0.000000  0.000000      6.000000
  0.098213  0.000000  0.000000      6.000000
  0.117855  0.000000  0.000000      6.000000
  0.137498  0.000000  0.000000      3.000000
  0.019643  0.019643  0.000000     12.000000
  0.039285  0.019643  0.000000     24.000000
  0.058928  0.019643  0.000000     24.000000
  0.078570  0.019643  0.000000     24.000000
  0.098213  0.019643  0.000000     24.000000
  0.117855  0.019643  0.000000     24.000000
  0.137498  0.019643  0.000000     12.000000
  0.039285  0.039285  0.000000     12.000000
  0.058928  0.039285  0.000000     24.000000
  0.078570  0.039285  0.000000     24.000000
  0.098213  0.039285  0.000000     24.000000
  0.117855  0.039285  0.000000     24.000000
  0.137498  0.039285  0.000000     12.000000
  0.058928  0.058928  0.000000     12.000000
  0.078570  0.058928  0.000000     24.000000
  0.098213  0.058928  0.000000     24.000000
  0.117855  0.058928  0.000000     24.000000
  0.137498  0.058928  0.000000     12.000000
  0.078570  0.078570  0.000000     12.000000
  0.098213  0.078570  0.000000     24.000000
  0.117855  0.078570  0.000000     24.000000
  0.137498  0.078570  0.000000     12.000000
  0.098213  0.098213  0.000000     12.000000
  0.117855  0.098213  0.000000     24.000000
  0.137498  0.098213  0.000000     12.000000
  0.117855  0.117855  0.000000     12.000000
  0.137498  0.117855  0.000000     12.000000
  0.137498  0.137498  0.000000      3.000000
  0.019643  0.019643  0.019643      8.000000
  0.039285  0.019643  0.019643     24.000000
  0.058928  0.019643  0.019643     24.000000
  0.078570  0.019643  0.019643     24.000000
  0.098213  0.019643  0.019643     24.000000
  0.117855  0.019643  0.019643     24.000000
  0.137498  0.019643  0.019643     12.000000
  0.039285  0.039285  0.019643     24.000000
  0.058928  0.039285  0.019643     48.000000
  0.078570  0.039285  0.019643     48.000000
  0.098213  0.039285  0.019643     48.000000
  0.117855  0.039285  0.019643     48.000000
  0.137498  0.039285  0.019643     24.000000
  0.058928  0.058928  0.019643     24.000000
  0.078570  0.058928  0.019643     48.000000
  0.098213  0.058928  0.019643     48.000000
  0.117855  0.058928  0.019643     48.000000
  0.137498  0.058928  0.019643     24.000000
  0.078570  0.078570  0.019643     24.000000
  0.098213  0.078570  0.019643     48.000000
  0.117855  0.078570  0.019643     48.000000
  0.137498  0.078570  0.019643     24.000000
  0.098213  0.098213  0.019643     24.000000
  0.117855  0.098213  0.019643     48.000000
  0.137498  0.098213  0.019643     24.000000
  0.117855  0.117855  0.019643     24.000000
  0.137498  0.117855  0.019643     24.000000
  0.137498  0.137498  0.019643      6.000000
  0.039285  0.039285  0.039285      8.000000
  0.058928  0.039285  0.039285     24.000000
  0.078570  0.039285  0.039285     24.000000
  0.098213  0.039285  0.039285     24.000000
  0.117855  0.039285  0.039285     24.000000
  0.137498  0.039285  0.039285     12.000000
  0.058928  0.058928  0.039285     24.000000
  0.078570  0.058928  0.039285     48.000000
  0.098213  0.058928  0.039285     48.000000
  0.117855  0.058928  0.039285     48.000000
  0.137498  0.058928  0.039285     24.000000
  0.078570  0.078570  0.039285     24.000000
  0.098213  0.078570  0.039285     48.000000
  0.117855  0.078570  0.039285     48.000000
  0.137498  0.078570  0.039285     24.000000
  0.098213  0.098213  0.039285     24.000000
  0.117855  0.098213  0.039285     48.000000
  0.137498  0.098213  0.039285     24.000000
  0.117855  0.117855  0.039285     24.000000
  0.137498  0.117855  0.039285     24.000000
  0.137498  0.137498  0.039285      6.000000
  0.058928  0.058928  0.058928      8.000000
  0.078570  0.058928  0.058928     24.000000
  0.098213  0.058928  0.058928     24.000000
  0.117855  0.058928  0.058928     24.000000
  0.137498  0.058928  0.058928     12.000000
  0.078570  0.078570  0.058928     24.000000
  0.098213  0.078570  0.058928     48.000000
  0.117855  0.078570  0.058928     48.000000
  0.137498  0.078570  0.058928     24.000000
  0.098213  0.098213  0.058928     24.000000
  0.117855  0.098213  0.058928     48.000000
  0.137498  0.098213  0.058928     24.000000
  0.117855  0.117855  0.058928     24.000000
  0.137498  0.117855  0.058928     24.000000
  0.137498  0.137498  0.058928      6.000000
  0.078570  0.078570  0.078570      8.000000
  0.098213  0.078570  0.078570     24.000000
  0.117855  0.078570  0.078570     24.000000
  0.137498  0.078570  0.078570     12.000000
  0.098213  0.098213  0.078570     24.000000
  0.117855  0.098213  0.078570     48.000000
  0.137498  0.098213  0.078570     24.000000
  0.117855  0.117855  0.078570     24.000000
  0.137498  0.117855  0.078570     24.000000
  0.137498  0.137498  0.078570      6.000000
  0.098213  0.098213  0.098213      8.000000
  0.117855  0.098213  0.098213     24.000000
  0.137498  0.098213  0.098213     12.000000
  0.117855  0.117855  0.098213     24.000000
  0.137498  0.117855  0.098213     24.000000
  0.137498  0.137498  0.098213      6.000000
  0.117855  0.117855  0.117855      8.000000
  0.137498  0.117855  0.117855     12.000000
  0.137498  0.137498  0.117855      6.000000
  0.137498  0.137498  0.137498      1.000000
 


--------------------------------------------------------------------------------------------------------




 Dimension of arrays:
   k-Points           NKPTS =    120   number of bands    NBANDS=     32
   number of dos      NEDOS =    301   number of ions     NIONS =      4
   non local maximal  LDIM  =      6   non local SUM 2l+1 LMDIM =     18
   total plane-waves  NPLWV =  21952
   max r-space proj   IRMAX =      1   max aug-charges    IRDMAX= 149682
   dimension x,y,z NGX =    28 NGY =   28 NGZ =   28
   dimension x,y,z NGXF=    56 NGYF=   56 NGZF=   56
   support grid    NGXF=   112 NGYF=  112 NGZF=  112
   ions per type =               4
 NGX,Y,Z   is equivalent  to a cutoff of  13.47, 13.47, 13.47 a.u.
 NGXF,Y,Z  is equivalent  to a cutoff of  26.95, 26.95, 26.95 a.u.


 I would recommend the setting:
   dimension x,y,z NGX =    25 NGY =   25 NGZ =   25
 SYSTEM =  unknown system                          
 POSCAR =  Cu                                      

 Startparameter for this run:
   NWRITE =      2    write-flag & timer
   PREC   = accura    medium, high low
   ISTART =      0    job   : 0-new  1-cont  2-samecut
   ICHARG =      2    charge: 1-file 2-atom 10-const
   ISPIN  =      1    spin polarized calculation?
   LNONCOLLINEAR =      F non collinear calculations
   LSORBIT =      F    spin-orbit coupling
   INIWAV =      1    electr: 0-lowe 1-rand  2-diag
   LASPH  =      F    aspherical Exc in radial PAW
   METAGGA=      F    non-selfconsistent MetaGGA calc.

 Electronic Relaxation 1
   ENCUT  =  500.0 eV  36.75 Ry    6.06 a.u.   6.30  6.30  6.30*2*pi/ulx,y,z
   ENINI  =  500.0     initial cutoff
   ENAUG  =  516.5 eV  augmentation charge cutoff
   NELM   =     60;   NELMIN=  2; NELMDL=  0     # of ELM steps 
   EDIFF  = 0.1E-07   stopping-criterion for ELM
   LREAL  =      F    real-space projection
   LCOMPAT=      F    compatible to vasp.4.4
   LREAL_COMPAT= F    compatible to vasp.4.5.1-3
   GGA_COMPAT  = T    GGA compatible to vasp.4.4-vasp.4.6
   LMAXPAW     = -100 max onsite density
   LMAXMIX     =    2 max onsite mixed and CHGCAR
   VOSKOWN=      0    Vosko Wilk Nusair interpolation
   ROPT   =    0.00000
 Ionic relaxation
   EDIFFG = 0.1E-06   stopping-criterion for IOM
   NSW    =      0    number of steps for IOM
   NBLOCK =      1;   KBLOCK =      1    inner block; outer block 
   IBRION =     -1    ionic relax: 0-MD 1-quasi-New 2-CG
   NFREE  =      0    steps in history (QN), initial steepest desc. (CG)
   ISIF   =      2    stress and relaxation
   IWAVPR =     10    prediction:  0-non 1-charg 2-wave 3-comb
   ISYM   =      2    0-nonsym 1-usesym 2-fastsym
   LCORR  =      T    Harris-Foulkes like correction to forces

   POTIM  =   0.50    time-step for ionic-motion
   TEIN   =    0.0    initial temperature
   TEBEG  =    0.0;   TEEND  =   0.0 temperature during run
   SMASS  =  -3.00    Nose mass-parameter (am)
   estimated Nose-frequenzy (Omega)   =  0.10E-29 period in steps =****** mass=  -0.273E-27a.u.
   NPACO  =    256;   APACO  = 16.0  distance and # of slots for P.C.
   PSTRESS=    0.0 pullay stress

  Mass of Ions in am
   POMASS =  63.55
  Ionic Valenz
   ZVAL   =  11.00
  Atomic Wigner-Seitz radii
   RWIGS  =  -1.00
   NELECT =      44.0000    total number of electrons
   NUPDOWN=      -1.0000    fix difference up-down

 DOS related values:
   EMIN   =  10.00;   EMAX   =-10.00  energy-range for DOS
   ISMEAR =     0;   SIGMA  =   0.01  broadening in eV -4-tet -1-fermi 0-gaus

 Electronic relaxation 2 (details)
   IALGO  =     38    algorithm
   LDIAG  =      T    sub-space diagonalisation
   IMIX   =      4    mixing-type and parameters
     AMIX     =   0.40;   BMIX     =  1.00
     AMIX_MAG =   1.60;   BMIX_MAG =  1.00
     AMIN     =   0.10
     WC   =   100.;   INIMIX=   1;  MIXPRE=   1

 Intra band minimization:
   WEIMIN = 0.0000     energy-eigenvalue tresh-hold
   EBREAK =  0.96E-10  absolut break condition
   DEPER  =   0.30     relativ break condition  

   TIME   =   0.10     timestep for ELM

  volume/ion in A,a.u.               =      10.31        69.55
  Fermi-wavevector in a.u.,eV,Ry     =   1.672997 38.081619  2.798920

 Second variation
   LSECVAR=     F    do a second variation
 
 Write flags
   LWAVE  =      F    write WAVECAR
   LCHARG =      F    write CHGCAR
   LVTOT  =      F    write LOCPOT, local potential
   LELF   =      F    write electronic localiz. function (ELF)
   LORBIT =      0    0 simple, 1 ext, 2 COOP (PROOUT)


 Dipole corrections
   IDIPOL =      0    1-x, 2-y, 3-z
   LDIPOL =      F    correct potential



--------------------------------------------------------------------------------------------------------


 Static calculation
 charge density will be updated during run
 non-spin polarized calculation
 Variant of blocked Davidson
 Davidson routine will perform the subspace rotation
 performe sub-space diagonalisation
    after iterative eigenvector-optimisation
 modified Broyden-mixing scheme, WC =      100.0
 initial mixing is a Kerker type mixing with AMIX =  0.4000 and BMIX =      1.0000
 Hartree-type preconditioning will be used
 using additional bands           10
 reciprocal scheme for non local part
 use partial core corrections
 calculate Harris-corrections to forces 
   (improved forces if not selfconsistent)
 use gradient corrections 
 use of overlap-Matrix (Vanderbilt PP)
 Gauss-broadening in eV      SIGMA  =   0.01


--------------------------------------------------------------------------------------------------------


  energy-cutoff  :      500.00
  volume of cell :       41.23
      direct lattice vectors                 reciprocal lattice vectors
     3.454595021  0.000000000  0.000000000     0.289469531  0.000000000  0.000000000
     0.000000000  3.454595021  0.000000000     0.000000000  0.289469531  0.000000000
     0.000000000  0.000000000  3.454595021     0.000000000  0.000000000  0.289469531

  length of vectors
     3.454595021  3.454595021  3.454595021     0.289469531  0.289469531  0.289469531


 
 k-points in units of 2pi/SCALE and weight: Automatic mesh                          
   0.00000000  0.00000000  0.00000000       0.000
   0.01964258  0.00000000  0.00000000       0.002
   0.03928515  0.00000000  0.00000000       0.002
   0.05892773  0.00000000  0.00000000       0.002
   0.07857030  0.00000000  0.00000000       0.002
   0.09821288  0.00000000  0.00000000       0.002
   0.11785545  0.00000000  0.00000000       0.002
   0.13749803  0.00000000  0.00000000       0.001
   0.01964258  0.01964258  0.00000000       0.004
   0.03928515  0.01964258  0.00000000       0.009
   0.05892773  0.01964258  0.00000000       0.009
   0.07857030  0.01964258  0.00000000       0.009
   0.09821288  0.01964258  0.00000000       0.009
   0.11785545  0.01964258  0.00000000       0.009
   0.13749803  0.01964258  0.00000000       0.004
   0.03928515  0.03928515  0.00000000       0.004
   0.05892773  0.03928515  0.00000000       0.009
   0.07857030  0.03928515  0.00000000       0.009
   0.09821288  0.03928515  0.00000000       0.009
   0.11785545  0.03928515  0.00000000       0.009
   0.13749803  0.03928515  0.00000000       0.004
   0.05892773  0.05892773  0.00000000       0.004
   0.07857030  0.05892773  0.00000000       0.009
   0.09821288  0.05892773  0.00000000       0.009
   0.11785545  0.05892773  0.00000000       0.009
   0.13749803  0.05892773  0.00000000       0.004
   0.07857030  0.07857030  0.00000000       0.004
   0.09821288  0.07857030  0.00000000       0.009
   0.11785545  0.07857030  0.00000000       0.009
   0.13749803  0.07857030  0.00000000       0.004
   0.09821288  0.09821288  0.00000000       0.004
   0.11785545  0.09821288  0.00000000       0.009
   0.13749803  0.09821288  0.00000000       0.004
   0.11785545  0.11785545  0.00000000       0.004
   0.13749803  0.11785545  0.00000000       0.004
   0.13749803  0.13749803  0.00000000       0.001
   0.01964258  0.01964258  0.01964258       0.003
   0.03928515  0.01964258  0.01964258       0.009
   0.05892773  0.01964258  0.01964258       0.009
   0.07857030  0.01964258  0.01964258       0.009
   0.09821288  0.01964258  0.01964258       0.009
   0.11785545  0.01964258  0.01964258       0.009
   0.13749803  0.01964258  0.01964258       0.004
   0.03928515  0.03928515  0.01964258       0.009
   0.05892773  0.03928515  0.01964258       0.017
   0.07857030  0.03928515  0.01964258       0.017
   0.09821288  0.03928515  0.01964258       0.017
   0.11785545  0.03928515  0.01964258       0.017
   0.13749803  0.03928515  0.01964258       0.009
   0.05892773  0.05892773  0.01964258       0.009
   0.07857030  0.05892773  0.01964258       0.017
   0.09821288  0.05892773  0.01964258       0.017
   0.11785545  0.05892773  0.01964258       0.017
   0.13749803  0.05892773  0.01964258       0.009
   0.07857030  0.07857030  0.01964258       0.009
   0.09821288  0.07857030  0.01964258       0.017
   0.11785545  0.07857030  0.01964258       0.017
   0.13749803  0.07857030  0.01964258       0.009
   0.09821288  0.09821288  0.01964258       0.009
   0.11785545  0.09821288  0.01964258       0.017
   0.13749803  0.09821288  0.01964258       0.009
   0.11785545  0.11785545  0.01964258       0.009
   0.13749803  0.11785545  0.01964258       0.009
   0.13749803  0.13749803  0.01964258       0.002
   0.03928515  0.03928515  0.03928515       0.003
   0.05892773  0.03928515  0.03928515       0.009
   0.07857030  0.03928515  0.03928515       0.009
   0.09821288  0.03928515  0.03928515       0.009
   0.11785545  0.03928515  0.03928515       0.009
   0.13749803  0.03928515  0.03928515       0.004
   0.05892773  0.05892773  0.03928515       0.009
   0.07857030  0.05892773  0.03928515       0.017
   0.09821288  0.05892773  0.03928515       0.017
   0.11785545  0.05892773  0.03928515       0.017
   0.13749803  0.05892773  0.03928515       0.009
   0.07857030  0.07857030  0.03928515       0.009
   0.09821288  0.07857030  0.03928515       0.017
   0.11785545  0.07857030  0.03928515       0.017
   0.13749803  0.07857030  0.03928515       0.009
   0.09821288  0.09821288  0.03928515       0.009
   0.11785545  0.09821288  0.03928515       0.017
   0.13749803  0.09821288  0.03928515       0.009
   0.11785545  0.11785545  0.03928515       0.009
   0.13749803  0.11785545  0.03928515       0.009
   0.13749803  0.13749803  0.03928515       0.002
   0.05892773  0.05892773  0.05892773       0.003
   0.07857030  0.05892773  0.05892773       0.009
   0.09821288  0.05892773  0.05892773       0.009
   0.11785545  0.05892773  0.05892773       0.009
   0.13749803  0.05892773  0.05892773       0.004
   0.07857030  0.07857030  0.05892773       0.009
   0.09821288  0.07857030  0.05892773       0.017
   0.11785545  0.07857030  0.05892773       0.017
   0.13749803  0.07857030  0.05892773       0.009
   0.09821288  0.09821288  0.05892773       0.009
   0.11785545  0.09821288  0.05892773       0.017
   0.13749803  0.09821288  0.05892773       0.009
   0.11785545  0.11785545  0.05892773       0.009
   0.13749803  0.11785545  0.05892773       0.009
   0.13749803  0.13749803  0.05892773       0.002
   0.07857030  0.07857030  0.07857030       0.003
   0.09821288  0.07857030  0.07857030       0.009
   0.11785545  0.07857030  0.07857030       0.009
   0.13749803  0.07857030  0.07857030       0.004
   0.09821288  0.09821288  0.07857030       0.009
   0.11785545  0.09821288  0.07857030       0.017
   0.13749803  0.09821288  0.07857030       0.009
   0.11785545  0.11785545  0.07857030       0.009
   0.13749803  0.11785545  0.07857030       0.009
   0.13749803  0.13749803  0.07857030       0.002
   0.09821288  0.09821288  0.09821288       0.003
   0.11785545  0.09821288  0.09821288       0.009
   0.13749803  0.09821288  0.09821288       0.004
   0.11785545  0.11785545  0.09821288       0.009
   0.13749803  0.11785545  0.09821288       0.009
   0.13749803  0.13749803  0.09821288       0.002
   0.11785545  0.11785545  0.11785545       0.003
   0.13749803  0.11785545  0.11785545       0.004
   0.13749803  0.13749803  0.11785545       0.002
   0.13749803  0.13749803  0.13749803       0.000
 
 k-points in reciprocal lattice and weights: Automatic mesh                          
   0.00000000  0.00000000  0.00000000       0.000
   0.07142857  0.00000000  0.00000000       0.002
   0.14285714  0.00000000  0.00000000       0.002
   0.21428571  0.00000000  0.00000000       0.002
   0.28571429  0.00000000  0.00000000       0.002
   0.35714286  0.00000000  0.00000000       0.002
   0.42857143  0.00000000  0.00000000       0.002
   0.50000000  0.00000000  0.00000000       0.001
   0.07142857  0.07142857  0.00000000       0.004
   0.14285714  0.07142857  0.00000000       0.009
   0.21428571  0.07142857  0.00000000       0.009
   0.28571429  0.07142857  0.00000000       0.009
   0.35714286  0.07142857  0.00000000       0.009
   0.42857143  0.07142857  0.00000000       0.009
   0.50000000  0.07142857  0.00000000       0.004
   0.14285714  0.14285714  0.00000000       0.004
   0.21428571  0.14285714  0.00000000       0.009
   0.28571429  0.14285714  0.00000000       0.009
   0.35714286  0.14285714  0.00000000       0.009
   0.42857143  0.14285714  0.00000000       0.009
   0.50000000  0.14285714  0.00000000       0.004
   0.21428571  0.21428571  0.00000000       0.004
   0.28571429  0.21428571  0.00000000       0.009
   0.35714286  0.21428571  0.00000000       0.009
   0.42857143  0.21428571  0.00000000       0.009
   0.50000000  0.21428571  0.00000000       0.004
   0.28571429  0.28571429  0.00000000       0.004
   0.35714286  0.28571429  0.00000000       0.009
   0.42857143  0.28571429  0.00000000       0.009
   0.50000000  0.28571429  0.00000000       0.004
   0.35714286  0.35714286  0.00000000       0.004
   0.42857143  0.35714286  0.00000000       0.009
   0.50000000  0.35714286  0.00000000       0.004
   0.42857143  0.42857143  0.00000000       0.004
   0.50000000  0.42857143  0.00000000       0.004
   0.50000000  0.50000000  0.00000000       0.001
   0.07142857  0.07142857  0.07142857       0.003
   0.14285714  0.07142857  0.07142857       0.009
   0.21428571  0.07142857  0.07142857       0.009
   0.28571429  0.07142857  0.07142857       0.009
   0.35714286  0.07142857  0.07142857       0.009
   0.42857143  0.07142857  0.07142857       0.009
   0.50000000  0.07142857  0.07142857       0.004
   0.14285714  0.14285714  0.07142857       0.009
   0.21428571  0.14285714  0.07142857       0.017
   0.28571429  0.14285714  0.07142857       0.017
   0.35714286  0.14285714  0.07142857       0.017
   0.42857143  0.14285714  0.07142857       0.017
   0.50000000  0.14285714  0.07142857       0.009
   0.21428571  0.21428571  0.07142857       0.009
   0.28571429  0.21428571  0.07142857       0.017
   0.35714286  0.21428571  0.07142857       0.017
   0.42857143  0.21428571  0.07142857       0.017
   0.50000000  0.21428571  0.07142857       0.009
   0.28571429  0.28571429  0.07142857       0.009
   0.35714286  0.28571429  0.07142857       0.017
   0.42857143  0.28571429  0.07142857       0.017
   0.50000000  0.28571429  0.07142857       0.009
   0.35714286  0.35714286  0.07142857       0.009
   0.42857143  0.35714286  0.07142857       0.017
   0.50000000  0.35714286  0.07142857       0.009
   0.42857143  0.42857143  0.07142857       0.009
   0.50000000  0.42857143  0.07142857       0.009
   0.50000000  0.50000000  0.07142857       0.002
   0.14285714  0.14285714  0.14285714       0.003
   0.21428571  0.14285714  0.14285714       0.009
   0.28571429  0.14285714  0.14285714       0.009
   0.35714286  0.14285714  0.14285714       0.009
   0.42857143  0.14285714  0.14285714       0.009
   0.50000000  0.14285714  0.14285714       0.004
   0.21428571  0.21428571  0.14285714       0.009
   0.28571429  0.21428571  0.14285714       0.017
   0.35714286  0.21428571  0.14285714       0.017
   0.42857143  0.21428571  0.14285714       0.017
   0.50000000  0.21428571  0.14285714       0.009
   0.28571429  0.28571429  0.14285714       0.009
   0.35714286  0.28571429  0.14285714       0.017
   0.42857143  0.28571429  0.14285714       0.017
   0.50000000  0.28571429  0.14285714       0.009
   0.35714286  0.35714286  0.14285714       0.009
   0.42857143  0.35714286  0.14285714       0.017
   0.50000000  0.35714286  0.14285714       0.009
   0.42857143  0.42857143  0.14285714       0.009
   0.50000000  0.42857143  0.14285714       0.009
   0.50000000  0.50000000  0.14285714       0.002
   0.21428571  0.21428571  0.21428571       0.003
   0.28571429  0.21428571  0.21428571       0.009
   0.35714286  0.21428571  0.21428571       0.009
   0.42857143  0.21428571  0.21428571       0.009
   0.50000000  0.21428571  0.21428571       0.004
   0.28571429  0.28571429  0.21428571       0.009
   0.35714286  0.28571429  0.21428571       0.017
   0.42857143  0.28571429  0.21428571       0.017
   0.50000000  0.28571429  0.21428571       0.009
   0.35714286  0.35714286  0.21428571       0.009
   0.42857143  0.35714286  0.21428571       0.017
   0.50000000  0.35714286  0.21428571       0.009
   0.42857143  0.42857143  0.21428571       0.009
   0.50000000  0.42857143  0.21428571       0.009
   0.50000000  0.50000000  0.21428571       0.002
   0.28571429  0.28571429  0.28571429       0.003
   0.35714286  0.28571429  0.28571429       0.009
   0.42857143  0.28571429  0.28571429       0.009
   0.50000000  0.28571429  0.28571429       0.004
   0.35714286  0.35714286  0.28571429       0.009
   0.42857143  0.35714286  0.28571429       0.017
   0.50000000  0.35714286  0.28571429       0.009
   0.42857143  0.42857143  0.28571429       0.009
   0.50000000  0.42857143  0.28571429       0.009
   0.50000000  0.50000000  0.28571429       0.002
   0.35714286  0.35714286  0.35714286       0.003
   0.42857143  0.35714286  0.35714286       0.009
   0.50000000  0.35714286  0.35714286       0.004
   0.42857143  0.42857143  0.35714286       0.009
   0.50000000  0.42857143  0.35714286       0.009
   0.50000000  0.50000000  0.35714286       0.002
   0.42857143  0.42857143  0.42857143       0.003
   0.50000000  0.42857143  0.42857143       0.004
   0.50000000  0.50000000  0.42857143       0.002
   0.50000000  0.50000000  0.50000000       0.000
 
 position of ions in fractional coordinates (direct lattice) 
   0.00000000  0.00000000  0.00000000
   0.50000000  0.50000000  0.00000000
   0.50000000  0.00000000  0.50000000
   0.00000000  0.50000000  0.50000000
 
 position of ions in cartesian coordinates  (Angst):
   0.00000000  0.00000000  0.00000000
   1.72729751  1.72729751  0.00000000
   1.72729751  0.00000000  1.72729751
   0.00000000  1.72729751  1.72729751
 


--------------------------------------------------------------------------------------------------------


 k-point  1 :  0.00000.00000.0000  plane waves:   1021
 k-point  2 :  0.07140.00000.0000  plane waves:   1025
 k-point  3 :  0.14290.00000.0000  plane waves:   1037
 k-point  4 :  0.21430.00000.0000  plane waves:   1041
 k-point  5 :  0.28570.00000.0000  plane waves:   1041
 k-point  6 :  0.35710.00000.0000  plane waves:   1052
 k-point  7 :  0.42860.00000.0000  plane waves:   1056
 k-point  8 :  0.50000.00000.0000  plane waves:   1044
 k-point  9 :  0.07140.07140.0000  plane waves:   1029
 k-point 10 :  0.14290.07140.0000  plane waves:   1044
 k-point 11 :  0.21430.07140.0000  plane waves:   1042
 k-point 12 :  0.28570.07140.0000  plane waves:   1048
 k-point 13 :  0.35710.07140.0000  plane waves:   1054
 k-point 14 :  0.42860.07140.0000  plane waves:   1055
 k-point 15 :  0.50000.07140.0000  plane waves:   1046
 k-point 16 :  0.14290.14290.0000  plane waves:   1049
 k-point 17 :  0.21430.14290.0000  plane waves:   1046
 k-point 18 :  0.28570.14290.0000  plane waves:   1044
 k-point 19 :  0.35710.14290.0000  plane waves:   1050
 k-point 20 :  0.42860.14290.0000  plane waves:   1049
 k-point 21 :  0.50000.14290.0000  plane waves:   1052
 k-point 22 :  0.21430.21430.0000  plane waves:   1055
 k-point 23 :  0.28570.21430.0000  plane waves:   1046
 k-point 24 :  0.35710.21430.0000  plane waves:   1051
 k-point 25 :  0.42860.21430.0000  plane waves:   1058
 k-point 26 :  0.50000.21430.0000  plane waves:   1060
 k-point 27 :  0.28570.28570.0000  plane waves:   1051
 k-point 28 :  0.35710.28570.0000  plane waves:   1056
 k-point 29 :  0.42860.28570.0000  plane waves:   1054
 k-point 30 :  0.50000.28570.0000  plane waves:   1058
 k-point 31 :  0.35710.35710.0000  plane waves:   1049
 k-point 32 :  0.42860.35710.0000  plane waves:   1051
 k-point 33 :  0.50000.35710.0000  plane waves:   1050
 k-point 34 :  0.42860.42860.0000  plane waves:   1047
 k-point 35 :  0.50000.42860.0000  plane waves:   1044
 k-point 36 :  0.50000.50000.0000  plane waves:   1056
 k-point 37 :  0.07140.07140.0714  plane waves:   1036
 k-point 38 :  0.14290.07140.0714  plane waves:   1039
 k-point 39 :  0.21430.07140.0714  plane waves:   1046
 k-point 40 :  0.28570.07140.0714  plane waves:   1051
 k-point 41 :  0.35710.07140.0714  plane waves:   1051
 k-point 42 :  0.42860.07140.0714  plane waves:   1052
 k-point 43 :  0.50000.07140.0714  plane waves:   1044
 k-point 44 :  0.14290.14290.0714  plane waves:   1047
 k-point 45 :  0.21430.14290.0714  plane waves:   1051
 k-point 46 :  0.28570.14290.0714  plane waves:   1047
 k-point 47 :  0.35710.14290.0714  plane waves:   1050
 k-point 48 :  0.42860.14290.0714  plane waves:   1057
 k-point 49 :  0.50000.14290.0714  plane waves:   1056
 k-point 50 :  0.21430.21430.0714  plane waves:   1047
 k-point 51 :  0.28570.21430.0714  plane waves:   1047
 k-point 52 :  0.35710.21430.0714  plane waves:   1050
 k-point 53 :  0.42860.21430.0714  plane waves:   1053
 k-point 54 :  0.50000.21430.0714  plane waves:   1052
 k-point 55 :  0.28570.28570.0714  plane waves:   1047
 k-point 56 :  0.35710.28570.0714  plane waves:   1051
 k-point 57 :  0.42860.28570.0714  plane waves:   1047
 k-point 58 :  0.50000.28570.0714  plane waves:   1052
 k-point 59 :  0.35710.35710.0714  plane waves:   1041
 k-point 60 :  0.42860.35710.0714  plane waves:   1051
 k-point 61 :  0.50000.35710.0714  plane waves:   1050
 k-point 62 :  0.42860.42860.0714  plane waves:   1049
 k-point 63 :  0.50000.42860.0714  plane waves:   1044
 k-point 64 :  0.50000.50000.0714  plane waves:   1044
 k-point 65 :  0.14290.14290.1429  plane waves:   1048
 k-point 66 :  0.21430.14290.1429  plane waves:   1055
 k-point 67 :  0.28570.14290.1429  plane waves:   1054
 k-point 68 :  0.35710.14290.1429  plane waves:   1050
 k-point 69 :  0.42860.14290.1429  plane waves:   1050
 k-point 70 :  0.50000.14290.1429  plane waves:   1048
 k-point 71 :  0.21430.21430.1429  plane waves:   1048
 k-point 72 :  0.28570.21430.1429  plane waves:   1046
 k-point 73 :  0.35710.21430.1429  plane waves:   1047
 k-point 74 :  0.42860.21430.1429  plane waves:   1048
 k-point 75 :  0.50000.21430.1429  plane waves:   1046
 k-point 76 :  0.28570.28570.1429  plane waves:   1049
 k-point 77 :  0.35710.28570.1429  plane waves:   1046
 k-point 78 :  0.42860.28570.1429  plane waves:   1039
 k-point 79 :  0.50000.28570.1429  plane waves:   1050
 k-point 80 :  0.35710.35710.1429  plane waves:   1046
 k-point 81 :  0.42860.35710.1429  plane waves:   1043
 k-point 82 :  0.50000.35710.1429  plane waves:   1042
 k-point 83 :  0.42860.42860.1429  plane waves:   1043
 k-point 84 :  0.50000.42860.1429  plane waves:   1040
 k-point 85 :  0.50000.50000.1429  plane waves:   1040
 k-point 86 :  0.21430.21430.2143  plane waves:   1039
 k-point 87 :  0.28570.21430.2143  plane waves:   1046
 k-point 88 :  0.35710.21430.2143  plane waves:   1052
 k-point 89 :  0.42860.21430.2143  plane waves:   1047
 k-point 90 :  0.50000.21430.2143  plane waves:   1050
 k-point 91 :  0.28570.28570.2143  plane waves:   1046
 k-point 92 :  0.35710.28570.2143  plane waves:   1041
 k-point 93 :  0.42860.28570.2143  plane waves:   1044
 k-point 94 :  0.50000.28570.2143  plane waves:   1044
 k-point 95 :  0.35710.35710.2143  plane waves:   1043
 k-point 96 :  0.42860.35710.2143  plane waves:   1045
 k-point 97 :  0.50000.35710.2143  plane waves:   1042
 k-point 98 :  0.42860.42860.2143  plane waves:   1037
 k-point 99 :  0.50000.42860.2143  plane waves:   1038
 k-point ** :  0.50000.50000.2143  plane waves:   1020
 k-point ** :  0.28570.28570.2857  plane waves:   1039
 k-point ** :  0.35710.28570.2857  plane waves:   1032
 k-point ** :  0.42860.28570.2857  plane waves:   1037
 k-point ** :  0.50000.28570.2857  plane waves:   1042
 k-point ** :  0.35710.35710.2857  plane waves:   1039
 k-point ** :  0.42860.35710.2857  plane waves:   1039
 k-point ** :  0.50000.35710.2857  plane waves:   1040
 k-point ** :  0.42860.42860.2857  plane waves:   1037
 k-point ** :  0.50000.42860.2857  plane waves:   1038
 k-point ** :  0.50000.50000.2857  plane waves:   1032
 k-point ** :  0.35710.35710.3571  plane waves:   1033
 k-point ** :  0.42860.35710.3571  plane waves:   1038
 k-point ** :  0.50000.35710.3571  plane waves:   1046
 k-point ** :  0.42860.42860.3571  plane waves:   1044
 k-point ** :  0.50000.42860.3571  plane waves:   1042
 k-point ** :  0.50000.50000.3571  plane waves:   1048
 k-point ** :  0.42860.42860.4286  plane waves:   1052
 k-point ** :  0.50000.42860.4286  plane waves:   1050
 k-point ** :  0.50000.50000.4286  plane waves:   1064
 k-point ** :  0.50000.50000.5000  plane waves:   1064

 maximum and minimum number of plane-waves per node :   1064  1020

 maximum number of plane-waves:   1064
 maximal index in each direction: 
   IXMAX=  6   IYMAX=  6   IZMAX=  6
   IXMIN= -6   IYMIN= -6   IZMIN= -6

 NGX is ok and might be reduce to  26
 NGY is ok and might be reduce to  26
 NGZ is ok and might be reduce to  26

 parallel 3dFFT wavefunction:
    minimum data exchange during FFTs selected (reduces bandwidth)
 parallel 3dFFT charge:
    minimum data exchange during FFTs selected (reduces bandwidth)

 For storing wavefunctions   64.27 MBYTES are necessary
 For predicting wavefunctions    1.42 MBYTES are necessary
Broyden mixing: mesh for mixing (old mesh)
   NGX = 13   NGY = 13   NGZ = 13
  (NGX  = 56   NGY  = 56   NGZ  = 56)
 gives a total of   2197 points
 initial charge density was supplied:
 charge density of overlapping atoms calculated
 number of electron   44.0000000 magnetization 
 keeping initial charge density in first step


--------------------------------------------------------------------------------------------------------


 Maximum index for augmentation-charges        17989 (set IRDMAX)


--------------------------------------------------------------------------------------------------------


 First call to EWALD:  gamma=   0.513
 Maximum number of real-space cells 3x 3x 3
 Maximum number of reciprocal cells 3x 3x 3

    FEWALD:  VPU time    0.00: CPU time    0.00


----------------------------------------- Iteration    1(   1)  ---------------------------------------


    POTLOK:  VPU time    0.01: CPU time    0.02
    SETDIJ:  VPU time    0.02: CPU time    0.02
    EDDAV :  VPU time    1.96: CPU time    1.96
    DOS   :  VPU time    0.00: CPU time   -0.00
    ------------------------------------------
      LOOP:  VPU time    2.00: CPU time    2.01

 eigenvalue-minimisations  :  8224
 total energy-change (2. order) : 0.2726815E+03  (-0.2024801E+04)
 number of electron   44.0000000 magnetization 
 augmentation part    44.0000000 magnetization 

 Free energy of the ion-electron system (eV)
  ---------------------------------------------------
  alpha Z        PSCENC =       495.82904760
  Ewald energy   TEWEN  =     -4624.88114567
  -1/2 Hartree   DENC   =     -1200.04375066
  -V(xc)+E(xc)   XCENC  =       177.26458171
  PAW double counting   =      4328.20916945    -4904.30802700
  entropy T*S    EENTRO =        -0.00007600
  eigenvalues    EBANDS =       436.70440470
  atomic energy  EATOM  =      5563.90732063
  ---------------------------------------------------
  free energy    TOTEN  =       272.68152475 eV

  energy without entropy =      272.68160074  energy(sigma->0) =      272.68156274


--------------------------------------------------------------------------------------------------------




----------------------------------------- Iteration    1(   2)  ---------------------------------------


    EDDAV :  VPU time    1.80: CPU time    1.80
    DOS   :  VPU time    0.00: CPU time   -0.00
    ------------------------------------------
      LOOP:  VPU time    1.81: CPU time    1.81

 eigenvalue-minimisations  :  7736
 total energy-change (2. order) :-0.2721970E+03  (-0.2572759E+03)
 number of electron   44.0000000 magnetization 
 augmentation part    44.0000000 magnetization 

 Free energy of the ion-electron system (eV)
  ---------------------------------------------------
  alpha Z        PSCENC =       495.82904760
  Ewald energy   TEWEN  =     -4624.88114567
  -1/2 Hartree   DENC   =     -1200.04375066
  -V(xc)+E(xc)   XCENC  =       177.26458171
  PAW double counting   =      4328.20916945    -4904.30802700
  entropy T*S    EENTRO =        -0.00015768
  eigenvalues    EBANDS =       164.50745787
  atomic energy  EATOM  =      5563.90732063
  ---------------------------------------------------
  free energy    TOTEN  =         0.48449624 eV

  energy without entropy =        0.48465392  energy(sigma->0) =        0.48457508


--------------------------------------------------------------------------------------------------------




----------------------------------------- Iteration    1(   3)  ---------------------------------------


    EDDAV :  VPU time    1.96: CPU time    1.96
    DOS   :  VPU time    0.00: CPU time   -0.00
    ------------------------------------------
      LOOP:  VPU time    1.96: CPU time    1.96

 eigenvalue-minimisations  :  8592
 total energy-change (2. order) :-0.1816476E+02  (-0.1786046E+02)
 number of electron   44.0000000 magnetization 
 augmentation part    44.0000000 magnetization 

 Free energy of the ion-electron system (eV)
  ---------------------------------------------------
  alpha Z        PSCENC =       495.82904760
  Ewald energy   TEWEN  =     -4624.88114567
  -1/2 Hartree   DENC   =     -1200.04375066
  -V(xc)+E(xc)   XCENC  =       177.26458171
  PAW double counting   =      4328.20916945    -4904.30802700
  entropy T*S    EENTRO =        -0.00015990
  eigenvalues    EBANDS =       146.34270443
  atomic energy  EATOM  =      5563.90732063
  ---------------------------------------------------
  free energy    TOTEN  =       -17.68025943 eV

  energy without entropy =      -17.68009953  energy(sigma->0) =      -17.68017948


--------------------------------------------------------------------------------------------------------




----------------------------------------- Iteration    1(   4)  ---------------------------------------


    EDDAV :  VPU time    1.94: CPU time    1.94
    DOS   :  VPU time    0.00: CPU time   -0.00
    ------------------------------------------
      LOOP:  VPU time    1.94: CPU time    1.94

 eigenvalue-minimisations  :  8472
 total energy-change (2. order) :-0.1949319E+00  (-0.1948382E+00)
 number of electron   44.0000000 magnetization 
 augmentation part    44.0000000 magnetization 

 Free energy of the ion-electron system (eV)
  ---------------------------------------------------
  alpha Z        PSCENC =       495.82904760
  Ewald energy   TEWEN  =     -4624.88114567
  -1/2 Hartree   DENC   =     -1200.04375066
  -V(xc)+E(xc)   XCENC  =       177.26458171
  PAW double counting   =      4328.20916945    -4904.30802700
  entropy T*S    EENTRO =        -0.00015740
  eigenvalues    EBANDS =       146.14777001
  atomic energy  EATOM  =      5563.90732063
  ---------------------------------------------------
  free energy    TOTEN  =       -17.87519135 eV

  energy without entropy =      -17.87503394  energy(sigma->0) =      -17.87511265


--------------------------------------------------------------------------------------------------------




----------------------------------------- Iteration    1(   5)  ---------------------------------------


    EDDAV :  VPU time    1.95: CPU time    1.95
    DOS   :  VPU time   -0.00: CPU time   -0.00
    CHARGE:  VPU time    0.11: CPU time    0.11
    MIXING:  VPU time    0.00: CPU time    0.00
    ------------------------------------------
      LOOP:  VPU time    2.07: CPU time    2.07

 eigenvalue-minimisations  :  8576
 total energy-change (2. order) :-0.3659031E-03  (-0.3658996E-03)
 number of electron   44.0000001 magnetization 
 augmentation part    26.7528604 magnetization 

 Broyden mixing:
  rms(total) = 0.14118E+01    rms(broyden)= 0.14118E+01
  rms(prec ) = 0.34298E+01
  weight for this iteration     100.00

 Free energy of the ion-electron system (eV)
  ---------------------------------------------------
  alpha Z        PSCENC =       495.82904760
  Ewald energy   TEWEN  =     -4624.88114567
  -1/2 Hartree   DENC   =     -1200.04375066
  -V(xc)+E(xc)   XCENC  =       177.26458171
  PAW double counting   =      4328.20916945    -4904.30802700
  entropy T*S    EENTRO =        -0.00015743
  eigenvalues    EBANDS =       146.14740413
  atomic energy  EATOM  =      5563.90732063
  ---------------------------------------------------
  free energy    TOTEN  =       -17.87555725 eV

  energy without entropy =      -17.87539982  energy(sigma->0) =      -17.87547854


--------------------------------------------------------------------------------------------------------




----------------------------------------- Iteration    1(   6)  ---------------------------------------


    POTLOK:  VPU time    0.01: CPU time    0.01
    SETDIJ:  VPU time    0.02: CPU time    0.02
    EDDAV :  VPU time    1.92: CPU time    1.92
    DOS   :  VPU time    0.00: CPU time   -0.00
    CHARGE:  VPU time    0.11: CPU time    0.11
    MIXING:  VPU time    0.00: CPU time    0.00
    ------------------------------------------
      LOOP:  VPU time    2.07: CPU time    2.07

 eigenvalue-minimisations  :  8448
 total energy-change (2. order) : 0.2684333E+01  (-0.1935519E+01)
 number of electron   44.0000001 magnetization 
 augmentation part    29.4421915 magnetization 

 Broyden mixing:
  rms(total) = 0.45213E+00    rms(broyden)= 0.45210E+00
  rms(prec ) = 0.98575E+00
  weight for this iteration     100.00

 eigenvalues of (default mixing * dielectric matrix)
  average eigenvalue GAMMA=   0.7617
  0.7617

 Free energy of the ion-electron system (eV)
  ---------------------------------------------------
  alpha Z        PSCENC =       495.82904760
  Ewald energy   TEWEN  =     -4624.88114567
  -1/2 Hartree   DENC   =     -1106.45199402
  -V(xc)+E(xc)   XCENC  =       172.42467199
  PAW double counting   =      4293.06838617    -4840.33674896
  entropy T*S    EENTRO =        -0.00012717
  eigenvalues    EBANDS =        31.24936543
  atomic energy  EATOM  =      5563.90732063
  ---------------------------------------------------
  free energy    TOTEN  =       -15.19122401 eV

  energy without entropy =      -15.19109684  energy(sigma->0) =      -15.19116043


--------------------------------------------------------------------------------------------------------




----------------------------------------- Iteration    1(   7)  ---------------------------------------


    POTLOK:  VPU time    0.01: CPU time    0.01
    SETDIJ:  VPU time    0.02: CPU time    0.02
    EDDAV :  VPU time    1.97: CPU time    1.97
    DOS   :  VPU time    0.00: CPU time   -0.00
    CHARGE:  VPU time    0.11: CPU time    0.11
    MIXING:  VPU time    0.00: CPU time    0.00
    ------------------------------------------
      LOOP:  VPU time    2.11: CPU time    2.11

 eigenvalue-minimisations  :  8752
 total energy-change (2. order) : 0.8183185E+00  (-0.3027574E+00)
 number of electron   44.0000001 magnetization 
 augmentation part    28.5329771 magnetization 

 Broyden mixing:
  rms(total) = 0.14542E+00    rms(broyden)= 0.14542E+00
  rms(prec ) = 0.36518E+00
  weight for this iteration     100.00

 eigenvalues of (default mixing * dielectric matrix)
  average eigenvalue GAMMA=   1.3555
  0.6888  2.0221

 Free energy of the ion-electron system (eV)
  ---------------------------------------------------
  alpha Z        PSCENC =       495.82904760
  Ewald energy   TEWEN  =     -4624.88114567
  -1/2 Hartree   DENC   =     -1126.30025758
  -V(xc)+E(xc)   XCENC  =       173.49663186
  PAW double counting   =      4385.10960333    -4955.12055755
  entropy T*S    EENTRO =        -0.00010939
  eigenvalues    EBANDS =        73.58656125
  atomic energy  EATOM  =      5563.90732063
  ---------------------------------------------------
  free energy    TOTEN  =       -14.37290553 eV

  energy without entropy =      -14.37279614  energy(sigma->0) =      -14.37285083


--------------------------------------------------------------------------------------------------------




----------------------------------------- Iteration    1(   8)  ---------------------------------------


    POTLOK:  VPU time    0.01: CPU time    0.01
    SETDIJ:  VPU time    0.02: CPU time    0.02
    EDDAV :  VPU time    2.08: CPU time    2.08
    DOS   :  VPU time    0.00: CPU time   -0.00
    CHARGE:  VPU time    0.11: CPU time    0.11
    MIXING:  VPU time    0.00: CPU time    0.00
    ------------------------------------------
      LOOP:  VPU time    2.23: CPU time    2.23

 eigenvalue-minimisations  :  9408
 total energy-change (2. order) : 0.6190165E-01  (-0.2199315E-02)
 number of electron   44.0000001 magnetization 
 augmentation part    28.5679523 magnetization 

 Broyden mixing:
  rms(total) = 0.53065E-01    rms(broyden)= 0.53064E-01
  rms(prec ) = 0.13130E+00
  weight for this iteration     100.00

 eigenvalues of (default mixing * dielectric matrix)
  average eigenvalue GAMMA=   1.3902
  0.7138  0.9876  2.4692

 Free energy of the ion-electron system (eV)
  ---------------------------------------------------
  alpha Z        PSCENC =       495.82904760
  Ewald energy   TEWEN  =     -4624.88114567
  -1/2 Hartree   DENC   =     -1112.78635001
  -V(xc)+E(xc)   XCENC  =       172.83431525
  PAW double counting   =      4469.38783418    -5050.01325084
  entropy T*S    EENTRO =        -0.00009533
  eigenvalues    EBANDS =        71.41132032
  atomic energy  EATOM  =      5563.90732063
  ---------------------------------------------------
  free energy    TOTEN  =       -14.31100388 eV

  energy without entropy =      -14.31090855  energy(sigma->0) =      -14.31095621


--------------------------------------------------------------------------------------------------------




----------------------------------------- Iteration    1(   9)  ---------------------------------------


    POTLOK:  VPU time    0.01: CPU time    0.01
    SETDIJ:  VPU time    0.02: CPU time    0.02
    EDDAV :  VPU time    2.20: CPU time    2.20
    DOS   :  VPU time    0.00: CPU time   -0.00
    CHARGE:  VPU time    0.11: CPU time    0.11
    MIXING:  VPU time    0.00: CPU time    0.00
    ------------------------------------------
      LOOP:  VPU time    2.35: CPU time    2.35

 eigenvalue-minimisations  : 10016
 total energy-change (2. order) : 0.6295261E-02  (-0.4658749E-03)
 number of electron   44.0000001 magnetization 
 augmentation part    28.6188621 magnetization 

 Broyden mixing:
  rms(total) = 0.32208E-02    rms(broyden)= 0.32204E-02
  rms(prec ) = 0.59410E-02
  weight for this iteration     100.00

 eigenvalues of (default mixing * dielectric matrix)
  average eigenvalue GAMMA=   1.6799
  0.7132  0.9496  2.5285  2.5285

 Free energy of the ion-electron system (eV)
  ---------------------------------------------------
  alpha Z        PSCENC =       495.82904760
  Ewald energy   TEWEN  =     -4624.88114567
  -1/2 Hartree   DENC   =     -1107.93412366
  -V(xc)+E(xc)   XCENC  =       172.59207493
  PAW double counting   =      4491.04000287    -5073.73271030
  entropy T*S    EENTRO =        -0.00009531
  eigenvalues    EBANDS =        68.87492030
  atomic energy  EATOM  =      5563.90732063
  ---------------------------------------------------
  free energy    TOTEN  =       -14.30470861 eV

  energy without entropy =      -14.30461331  energy(sigma->0) =      -14.30466096


--------------------------------------------------------------------------------------------------------




----------------------------------------- Iteration    1(  10)  ---------------------------------------


    POTLOK:  VPU time    0.01: CPU time    0.01
    SETDIJ:  VPU time    0.02: CPU time    0.02
    EDDAV :  VPU time    1.93: CPU time    1.93
    DOS   :  VPU time    0.00: CPU time   -0.00
    CHARGE:  VPU time    0.11: CPU time    0.11
    MIXING:  VPU time    0.00: CPU time    0.00
    ------------------------------------------
      LOOP:  VPU time    2.07: CPU time    2.07

 eigenvalue-minimisations  :  8536
 total energy-change (2. order) :-0.8197985E-04  (-0.5954220E-04)
 number of electron   44.0000001 magnetization 
 augmentation part    28.6241886 magnetization 

 Broyden mixing:
  rms(total) = 0.66761E-03    rms(broyden)= 0.66744E-03
  rms(prec ) = 0.12005E-02
  weight for this iteration     100.00

 eigenvalues of (default mixing * dielectric matrix)
  average eigenvalue GAMMA=   1.5685
  2.4928  2.4928  0.7111  1.0257  1.1202

 Free energy of the ion-electron system (eV)
  ---------------------------------------------------
  alpha Z        PSCENC =       495.82904760
  Ewald energy   TEWEN  =     -4624.88114567
  -1/2 Hartree   DENC   =     -1107.96690215
  -V(xc)+E(xc)   XCENC  =       172.59248421
  PAW double counting   =      4491.86207065    -5074.28387274
  entropy T*S    EENTRO =        -0.00009531
  eigenvalues    EBANDS =        68.63630220
  atomic energy  EATOM  =      5563.90732063
  ---------------------------------------------------
  free energy    TOTEN  =       -14.30479059 eV

  energy without entropy =      -14.30469529  energy(sigma->0) =      -14.30474294


--------------------------------------------------------------------------------------------------------




----------------------------------------- Iteration    1(  11)  ---------------------------------------


    POTLOK:  VPU time    0.01: CPU time    0.01
    SETDIJ:  VPU time    0.02: CPU time    0.02
    EDDAV :  VPU time    1.94: CPU time    1.94
    DOS   :  VPU time    0.00: CPU time   -0.00
    CHARGE:  VPU time    0.11: CPU time    0.11
    MIXING:  VPU time    0.00: CPU time    0.00
    ------------------------------------------
      LOOP:  VPU time    2.08: CPU time    2.08

 eigenvalue-minimisations  :  8560
 total energy-change (2. order) : 0.2842690E-05  (-0.5391213E-05)
 number of electron   44.0000001 magnetization 
 augmentation part    28.6220937 magnetization 

 Broyden mixing:
  rms(total) = 0.55235E-03    rms(broyden)= 0.55230E-03
  rms(prec ) = 0.13142E-02
  weight for this iteration     100.00

 eigenvalues of (default mixing * dielectric matrix)
  average eigenvalue GAMMA=   1.5311
  2.5297  2.5297  1.5315  0.7105  0.9362  0.9493

 Free energy of the ion-electron system (eV)
  ---------------------------------------------------
  alpha Z        PSCENC =       495.82904760
  Ewald energy   TEWEN  =     -4624.88114567
  -1/2 Hartree   DENC   =     -1107.93714397
  -V(xc)+E(xc)   XCENC  =       172.59080752
  PAW double counting   =      4493.83852036    -5076.36069316
  entropy T*S    EENTRO =        -0.00009531
  eigenvalues    EBANDS =        68.70859425
  atomic energy  EATOM  =      5563.90732063
  ---------------------------------------------------
  free energy    TOTEN  =       -14.30478775 eV

  energy without entropy =      -14.30469244  energy(sigma->0) =      -14.30474010


--------------------------------------------------------------------------------------------------------




----------------------------------------- Iteration    1(  12)  ---------------------------------------


    POTLOK:  VPU time    0.01: CPU time    0.01
    SETDIJ:  VPU time    0.02: CPU time    0.02
    EDDAV :  VPU time    1.95: CPU time    1.95
    DOS   :  VPU time    0.00: CPU time   -0.00
    CHARGE:  VPU time    0.11: CPU time    0.11
    MIXING:  VPU time    0.00: CPU time    0.00
    ------------------------------------------
      LOOP:  VPU time    2.10: CPU time    2.10

 eigenvalue-minimisations  :  8664
 total energy-change (2. order) :-0.4017898E-05  (-0.8932012E-07)
 number of electron   44.0000001 magnetization 
 augmentation part    28.6227317 magnetization 

 Broyden mixing:
  rms(total) = 0.87347E-04    rms(broyden)= 0.87341E-04
  rms(prec ) = 0.21009E-03
  weight for this iteration     100.00

 eigenvalues of (default mixing * dielectric matrix)
  average eigenvalue GAMMA=   1.6173
  2.5577  2.5250  2.5250  0.7107  0.9908  0.9908  1.0213

 Free energy of the ion-electron system (eV)
  ---------------------------------------------------
  alpha Z        PSCENC =       495.82904760
  Ewald energy   TEWEN  =     -4624.88114567
  -1/2 Hartree   DENC   =     -1107.88103281
  -V(xc)+E(xc)   XCENC  =       172.58794215
  PAW double counting   =      4494.22432445    -5076.76971528
  entropy T*S    EENTRO =        -0.00009531
  eigenvalues    EBANDS =        68.67856247
  atomic energy  EATOM  =      5563.90732063
  ---------------------------------------------------
  free energy    TOTEN  =       -14.30479177 eV

  energy without entropy =      -14.30469646  energy(sigma->0) =      -14.30474412


--------------------------------------------------------------------------------------------------------




----------------------------------------- Iteration    1(  13)  ---------------------------------------


    POTLOK:  VPU time    0.01: CPU time    0.01
    SETDIJ:  VPU time    0.02: CPU time    0.02
    EDDAV :  VPU time    1.89: CPU time    1.88
    DOS   :  VPU time    0.00: CPU time   -0.00
    CHARGE:  VPU time    0.11: CPU time    0.11
    MIXING:  VPU time    0.00: CPU time    0.00
    ------------------------------------------
      LOOP:  VPU time    2.03: CPU time    2.03

 eigenvalue-minimisations  :  8232
 total energy-change (2. order) :-0.5198508E-06  (-0.4793158E-08)
 number of electron   44.0000001 magnetization 
 augmentation part    28.6226501 magnetization 

 Broyden mixing:
  rms(total) = 0.17263E-04    rms(broyden)= 0.17260E-04
  rms(prec ) = 0.42576E-04
  weight for this iteration     100.00

 eigenvalues of (default mixing * dielectric matrix)
  average eigenvalue GAMMA=   1.5628
  2.5579  2.5579  2.4684  0.7107  0.9744  0.9744  1.1293  1.1293

 Free energy of the ion-electron system (eV)
  ---------------------------------------------------
  alpha Z        PSCENC =       495.82904760
  Ewald energy   TEWEN  =     -4624.88114567
  -1/2 Hartree   DENC   =     -1107.88590661
  -V(xc)+E(xc)   XCENC  =       172.58814850
  PAW double counting   =      4494.30418574    -5076.84910398
  entropy T*S    EENTRO =        -0.00009531
  eigenvalues    EBANDS =        68.68275681
  atomic energy  EATOM  =      5563.90732063
  ---------------------------------------------------
  free energy    TOTEN  =       -14.30479229 eV

  energy without entropy =      -14.30469698  energy(sigma->0) =      -14.30474464


--------------------------------------------------------------------------------------------------------




----------------------------------------- Iteration    1(  14)  ---------------------------------------


    POTLOK:  VPU time    0.01: CPU time    0.01
    SETDIJ:  VPU time    0.02: CPU time    0.02
    EDDAV :  VPU time    1.33: CPU time    1.34
    DOS   :  VPU time    0.00: CPU time   -0.00
    ------------------------------------------
      LOOP:  VPU time    1.37: CPU time    1.37

 eigenvalue-minimisations  :  4784
 total energy-change (2. order) : 0.3215973E-08  (-0.2593162E-09)
 number of electron   44.0000001 magnetization 
 augmentation part    28.6226501 magnetization 

 Free energy of the ion-electron system (eV)
  ---------------------------------------------------
  alpha Z        PSCENC =       495.82904760
  Ewald energy   TEWEN  =     -4624.88114567
  -1/2 Hartree   DENC   =     -1107.88733300
  -V(xc)+E(xc)   XCENC  =       172.58821113
  PAW double counting   =      4494.31341396    -5076.85743738
  entropy T*S    EENTRO =        -0.00009531
  eigenvalues    EBANDS =        68.68322576
  atomic energy  EATOM  =      5563.90732063
  ---------------------------------------------------
  free energy    TOTEN  =       -14.30479229 eV

  energy without entropy =      -14.30469698  energy(sigma->0) =      -14.30474463


--------------------------------------------------------------------------------------------------------




 average (electrostatic) potential at core
  the test charge radii are     1.0053
  (the norm of the test charge is              1.0000)
       1 -39.0090       2 -39.0090       3 -39.0090       4 -39.0090
 
 
 
 E-fermi :   5.1074     XC(G=0): -13.6196     alpha+bet :-11.0355
   add alpha+bet to get absolut eigen values

 k-point   1 :       0.0000    0.0000    0.0000
  band No.  band energies     occupation 
      1      -5.3848      2.00000
      2      -0.7187      2.00000
      3      -0.7187      2.00000
      4      -0.7187      2.00000
      5      -0.1702      2.00000
      6      -0.1702      2.00000
      7      -0.1702      2.00000
      8       1.5491      2.00000
      9       1.5491      2.00000
     10       1.5491      2.00000
     11       2.5720      2.00000
     12       2.5720      2.00000
     13       3.2497      2.00000
     14       3.2497      2.00000
     15       3.2497      2.00000
     16       3.4408      2.00000
     17       3.4408      2.00000
     18       3.4408      2.00000
     19       3.4408      2.00000
     20       3.4408      2.00000
     21       3.4408      2.00000
     22       6.4710      0.00000
     23       6.4710      0.00000
     24       6.4710      0.00000
     25      13.1842      0.00000
     26      13.1842      0.00000
     27      13.1843      0.00000
     28      19.3681      0.00000
     29      19.3681      0.00000
     30      19.3681      0.00000
     31      19.3681      0.00000
     32      19.3681      0.00000

 k-point   2 :       0.0714    0.0000    0.0000
  band No.  band energies     occupation 
      1      -5.3163      2.00000
      2      -0.7160      2.00000
      3      -0.6844      2.00000
      4      -0.6844      2.00000
      5      -0.1500      2.00000
      6      -0.1487      2.00000
      7      -0.1487      2.00000
      8       1.5260      2.00000
      9       1.5671      2.00000
     10       1.5671      2.00000
     11       2.5510      2.00000
     12       2.5803      2.00000
     13       3.2226      2.00000
     14       3.2226      2.00000
     15       3.2411      2.00000
     16       3.2935      2.00000
     17       3.2935      2.00000
     18       3.4089      2.00000
     19       3.4089      2.00000
     20       3.4408      2.00000
     21       3.4408      2.00000
     22       6.0794      0.00000
     23       6.6772      0.00000
     24       6.6772      0.00000
     25      13.2041      0.00000
     26      13.2041      0.00000
     27      13.7033      0.00000
     28      18.9034      0.00000
     29      18.9034      0.00000
     30      19.1000      0.00000
     31      19.1000      0.00000
     32      19.4715      0.00000

 k-point   3 :       0.1429    0.0000    0.0000
  band No.  band energies     occupation 
      1      -5.1118      2.00000
      2      -0.7168      2.00000
      3      -0.5849      2.00000
      4      -0.5849      2.00000
      5      -0.0904      2.00000
      6      -0.0841      2.00000
      7      -0.0841      2.00000
      8       1.4583      2.00000
      9       1.6210      2.00000
     10       1.6210      2.00000
     11       2.4898      2.00000
     12       2.6048      2.00000
     13       2.9380      2.00000
     14       2.9380      2.00000
     15       3.1430      2.00000
     16       3.1430      2.00000
     17       3.2154      2.00000
     18       3.3166      2.00000
     19       3.3166      2.00000
     20       3.4410      2.00000
     21       3.4410      2.00000
     22       5.1690      0.00000
     23       7.2094      0.00000
     24       7.2094      0.00000
     25      13.2650      0.00000
     26      13.2650      0.00000
     27      15.0025      0.00000
     28      17.8650      0.00000
     29      17.8650      0.00000
     30      18.4333      0.00000
     31      18.4333      0.00000
     32      19.7781      0.00000

 k-point   4 :       0.2143    0.0000    0.0000
  band No.  band energies     occupation 
      1      -4.7755      2.00000
      2      -0.7522      2.00000
      3      -0.4310      2.00000
      4      -0.4310      2.00000
      5       0.0063      2.00000
      6       0.0244      2.00000
      7       0.0244      2.00000
      8       1.3498      2.00000
      9       1.7096      2.00000
     10       1.7096      2.00000
     11       2.3940      2.00000
     12       2.5024      2.00000
     13       2.5024      2.00000
     14       2.6443      2.00000
     15       3.0176      2.00000
     16       3.0176      2.00000
     17       3.1731      2.00000
     18       3.1731      2.00000
     19       3.1741      2.00000
     20       3.4412      2.00000
     21       3.4412      2.00000
     22       4.1222      2.00000
     23       7.9383      0.00000
     24       7.9383      0.00000
     25      13.3708      0.00000
     26      13.3708      0.00000
     27      16.6457      0.00000
     28      16.6457      0.00000
     29      16.7216      0.00000
     30      17.6054      0.00000
     31      17.6054      0.00000
     32      20.2772      0.00000

 k-point   5 :       0.2857    0.0000    0.0000
  band No.  band energies     occupation 
      1      -4.3150      2.00000
      2      -0.8831      2.00000
      3      -0.2427      2.00000
      4      -0.2427      2.00000
      5       0.1360      2.00000
      6       0.1776      2.00000
      7       0.1776      2.00000
      8       1.2071      2.00000
      9       1.8314      2.00000
     10       1.8314      2.00000
     11       2.0583      2.00000
     12       2.0583      2.00000
     13       2.2740      2.00000
     14       2.6970      2.00000
     15       2.8603      2.00000
     16       2.8603      2.00000
     17       2.9917      2.00000
     18       2.9917      2.00000
     19       3.1195      2.00000
     20       3.1764      2.00000
     21       3.4414      2.00000
     22       3.4414      2.00000
     23       8.7914      0.00000
     24       8.7914      0.00000
     25      13.5261      0.00000
     26      13.5261      0.00000
     27      15.3947      0.00000
     28      15.3947      0.00000
     29      16.7804      0.00000
     30      16.7804      0.00000
     31      18.6677      0.00000
     32      20.9536      0.00000

 k-point   6 :       0.3571    0.0000    0.0000
  band No.  band energies     occupation 
      1      -3.7441      2.00000
      2      -1.1929      2.00000
      3      -0.0516      2.00000
      4      -0.0516      2.00000
      5       0.2931      2.00000
      6       0.3766      2.00000
      7       0.3766      2.00000
      8       1.0382      2.00000
      9       1.6375      2.00000
     10       1.6375      2.00000
     11       1.9835      2.00000
     12       1.9835      2.00000
     13       2.1470      2.00000
     14       2.4865      2.00000
     15       2.6966      2.00000
     16       2.6966      2.00000
     17       2.7604      2.00000
     18       2.7868      2.00000
     19       2.7868      2.00000
     20       3.0544      2.00000
     21       3.4416      2.00000
     22       3.4416      2.00000
     23       9.7349      0.00000
     24       9.7349      0.00000
     25      13.7309      0.00000
     26      13.7309      0.00000
     27      14.1637      0.00000
     28      14.1637      0.00000
     29      16.0510      0.00000
     30      16.0510      0.00000
     31      20.7401      0.00000
     32      21.7896      0.00000

 k-point   7 :       0.4286    0.0000    0.0000
  band No.  band energies     occupation 
      1      -3.0863      2.00000
      2      -1.7175      2.00000
      3       0.0974      2.00000
      4       0.0974      2.00000
      5       0.4706      2.00000
      6       0.6223      2.00000
      7       0.6223      2.00000
      8       0.8526      2.00000
      9       1.2543      2.00000
     10       1.2543      2.00000
     11       2.0412      2.00000
     12       2.1166      2.00000
     13       2.1618      2.00000
     14       2.1618      2.00000
     15       2.5662      2.00000
     16       2.5662      2.00000
     17       2.5724      2.00000
     18       2.5724      2.00000
     19       2.8314      2.00000
     20       2.9822      2.00000
     21       3.4417      2.00000
     22       3.4417      2.00000
     23      10.7522      0.00000
     24      10.7522      0.00000
     25      12.9733      0.00000
     26      12.9733      0.00000
     27      13.9594      0.00000
     28      13.9594      0.00000
     29      15.4918      0.00000
     30      15.4918      0.00000
     31      22.7675      0.00000
     32      22.7788      0.00000

 k-point   8 :       0.5000    0.0000    0.0000
  band No.  band energies     occupation 
      1      -2.3851      2.00000
      2      -2.3851      2.00000
      3       0.1550      2.00000
      4       0.1550      2.00000
      5       0.6601      2.00000
      6       0.6601      2.00000
      7       0.9150      2.00000
      8       0.9150      2.00000
      9       0.9150      2.00000
     10       0.9150      2.00000
     11       2.0043      2.00000
     12       2.0043      2.00000
     13       2.3607      2.00000
     14       2.3607      2.00000
     15       2.3607      2.00000
     16       2.3607      2.00000
     17       2.5152      2.00000
     18       2.5152      2.00000
     19       2.9066      2.00000
     20       2.9066      2.00000
     21       3.4418      2.00000
     22       3.4418      2.00000
     23      11.8339      0.00000
     24      11.8339      0.00000
     25      11.8339      0.00000
     26      11.8339      0.00000
     27      14.0866      0.00000
     28      14.0866      0.00000
     29      15.2520      0.00000
     30      15.2520      0.00000
     31      23.8701      0.00000
     32      23.8701      0.00000

 k-point   9 :       0.0714    0.0714    0.0000
  band No.  band energies     occupation 
      1      -5.2479      2.00000
      2      -0.6811      2.00000
      3      -0.6811      2.00000
      4      -0.6506      2.00000
      5      -0.1289      2.00000
      6      -0.1289      2.00000
      7      -0.1278      2.00000
      8       1.5127      2.00000
      9       1.5758      2.00000
     10       1.5838      2.00000
     11       2.5450      2.00000
     12       2.5749      2.00000
     13       3.1818      2.00000
     14       3.1938      2.00000
     15       3.1938      2.00000
     16       3.1963      2.00000
     17       3.2757      2.00000
     18       3.2757      2.00000
     19       3.4089      2.00000
     20       3.4089      2.00000
     21       3.4206      2.00000
     22       6.2852      0.00000
     23       6.2852      0.00000
     24       6.8683      0.00000
     25      13.2233      0.00000
     26      13.7297      0.00000
     27      13.7297      0.00000
     28      17.9584      0.00000
     29      19.0011      0.00000
     30      19.0011      0.00000
     31      19.1999      0.00000
     32      19.1999      0.00000

 k-point  10 :       0.1429    0.0714    0.0000
  band No.  band energies     occupation 
      1      -5.0442      2.00000
      2      -0.6803      2.00000
      3      -0.5800      2.00000
      4      -0.5527      2.00000
      5      -0.0701      2.00000
      6      -0.0651      2.00000
      7      -0.0648      2.00000
      8       1.4511      2.00000
      9       1.6245      2.00000
     10       1.6334      2.00000
     11       2.4912      2.00000
     12       2.5962      2.00000
     13       2.8658      2.00000
     14       2.8765      2.00000
     15       3.0935      2.00000
     16       3.1192      2.00000
     17       3.1514      2.00000
     18       3.2361      2.00000
     19       3.3164      2.00000
     20       3.4088      2.00000
     21       3.4095      2.00000
     22       5.3873      0.00000
     23       6.8041      0.00000
     24       7.3723      0.00000
     25      13.2808      0.00000
     26      13.8106      0.00000
     27      15.0383      0.00000
     28      16.7620      0.00000
     29      17.9555      0.00000
     30      18.5258      0.00000
     31      19.2896      0.00000
     32      19.4087      0.00000

 k-point  11 :       0.2143    0.0714    0.0000
  band No.  band energies     occupation 
      1      -4.7092      2.00000
      2      -0.7130      2.00000
      3      -0.4234      2.00000
      4      -0.4011      2.00000
      5       0.0252      2.00000
      6       0.0404      2.00000
      7       0.0419      2.00000
      8       1.3459      2.00000
      9       1.7117      2.00000
     10       1.7140      2.00000
     11       2.4005      2.00000
     12       2.4430      2.00000
     13       2.4574      2.00000
     14       2.6389      2.00000
     15       2.9080      2.00000
     16       2.9975      2.00000
     17       3.0242      2.00000
     18       3.1728      2.00000
     19       3.1814      2.00000
     20       3.4068      2.00000
     21       3.4087      2.00000
     22       4.3902      2.00000
     23       7.4984      0.00000
     24       8.0774      0.00000
     25      13.3730      0.00000
     26      13.9505      0.00000
     27      15.5605      0.00000
     28      16.7326      0.00000
     29      16.7614      0.00000
     30      17.6909      0.00000
     31      18.7413      0.00000
     32      19.7567      0.00000

 k-point  12 :       0.2857    0.0714    0.0000
  band No.  band energies     occupation 
      1      -4.2506      2.00000
      2      -0.8403      2.00000
      3      -0.2313      2.00000
      4      -0.2148      2.00000
      5       0.1529      2.00000
      6       0.1879      2.00000
      7       0.1928      2.00000
      8       1.2062      2.00000
      9       1.8192      2.00000
     10       1.8326      2.00000
     11       2.0037      2.00000
[...]
     24       5.3199      0.00000
     25      10.4470      0.00000
     26      10.4470      0.00000
     27      10.4470      0.00000
     28      13.5726      0.00000
     29      23.3498      0.00000
     30      23.3498      0.00000
     31      23.3498      0.00000
     32      25.7639      0.00000

 k-point 112 :       0.4286    0.3571    0.3571
  band No.  band energies     occupation 
      1      -1.2156      2.00000
      2      -0.7215      2.00000
      3      -0.5260      2.00000
      4      -0.5260      2.00000
      5       1.2347      2.00000
      6       1.2347      2.00000
      7       1.3367      2.00000
      8       1.5630      2.00000
      9       1.6079      2.00000
     10       1.7050      2.00000
     11       1.7381      2.00000
     12       1.7381      2.00000
     13       1.9029      2.00000
     14       1.9639      2.00000
     15       1.9639      2.00000
     16       1.9730      2.00000
     17       3.1347      2.00000
     18       3.1544      2.00000
     19       3.2571      2.00000
     20       3.2571      2.00000
     21       3.2749      2.00000
     22       4.3961      2.00000
     23       5.4204      0.00000
     24       5.4204      0.00000
     25       9.8796      0.00000
     26       9.8796      0.00000
     27      11.0208      0.00000
     28      12.5926      0.00000
     29      23.8700      0.00000
     30      23.8700      0.00000
     31      25.3406      0.00000
     32      25.6595      0.00000

 k-point 113 :       0.5000    0.3571    0.3571
  band No.  band energies     occupation 
      1      -0.9639      2.00000
      2      -0.9639      2.00000
      3      -0.5394      2.00000
      4      -0.5394      2.00000
      5       1.2573      2.00000
      6       1.2573      2.00000
      7       1.4718      2.00000
      8       1.4718      2.00000
      9       1.6383      2.00000
     10       1.6383      2.00000
     11       1.7158      2.00000
     12       1.7158      2.00000
     13       1.9964      2.00000
     14       1.9964      2.00000
     15       2.0406      2.00000
     16       2.0406      2.00000
     17       3.2239      2.00000
     18       3.2239      2.00000
     19       3.2368      2.00000
     20       3.2368      2.00000
     21       3.6387      2.00000
     22       3.6387      2.00000
     23       5.4616      0.00000
     24       5.4616      0.00000
     25       9.6796      0.00000
     26       9.6796      0.00000
     27      11.7406      0.00000
     28      11.7406      0.00000
     29      24.1936      0.00000
     30      24.1936      0.00000
     31      25.3069      0.00000
     32      25.3069      0.00000

 k-point 114 :       0.4286    0.4286    0.3571
  band No.  band energies     occupation 
      1      -1.0558      2.00000
      2      -0.7141      2.00000
      3      -0.7141      2.00000
      4      -0.6182      2.00000
      5       1.3215      2.00000
      6       1.3727      2.00000
      7       1.3727      2.00000
      8       1.5453      2.00000
      9       1.5715      2.00000
     10       1.6471      2.00000
     11       1.6471      2.00000
     12       1.6629      2.00000
     13       2.1709      2.00000
     14       2.1709      2.00000
     15       2.1879      2.00000
     16       2.3064      2.00000
     17       3.0993      2.00000
     18       3.2440      2.00000
     19       3.2505      2.00000
     20       3.2505      2.00000
     21       3.3693      2.00000
     22       4.5747      2.00000
     23       4.5747      2.00000
     24       5.1644      0.00000
     25       9.6447      0.00000
     26      10.2785      0.00000
     27      10.2785      0.00000
     28      11.6635      0.00000
     29      24.4884      0.00000
     30      25.5391      0.00000
     31      25.5391      0.00000
     32      26.6960      0.00000

 k-point 115 :       0.5000    0.4286    0.3571
  band No.  band energies     occupation 
      1      -0.8898      2.00000
      2      -0.8898      2.00000
      3      -0.6808      2.00000
      4      -0.6808      2.00000
      5       1.3690      2.00000
      6       1.3690      2.00000
      7       1.4779      2.00000
      8       1.4779      2.00000
      9       1.5899      2.00000
     10       1.5899      2.00000
     11       1.6308      2.00000
     12       1.6308      2.00000
     13       2.2846      2.00000
     14       2.2846      2.00000
     15       2.3343      2.00000
     16       2.3343      2.00000
     17       3.1884      2.00000
     18       3.1884      2.00000
     19       3.2249      2.00000
     20       3.2249      2.00000
     21       3.8362      2.00000
     22       3.8362      2.00000
     23       4.8504      2.00000
     24       4.8504      2.00000
     25       9.7991      0.00000
     26       9.7991      0.00000
     27      10.8868      0.00000
     28      10.8868      0.00000
     29      25.1086      0.00000
     30      25.1086      0.00000
     31      26.5225      0.00000
     32      26.5225      0.00000

 k-point 116 :       0.5000    0.5000    0.3571
  band No.  band energies     occupation 
      1      -0.7970      2.00000
      2      -0.7970      2.00000
      3      -0.7970      2.00000
      4      -0.7970      2.00000
      5       1.4468      2.00000
      6       1.4468      2.00000
      7       1.4468      2.00000
      8       1.4468      2.00000
      9       1.5847      2.00000
     10       1.5847      2.00000
     11       1.5847      2.00000
     12       1.5847      2.00000
     13       2.4341      2.00000
     14       2.4341      2.00000
     15       2.4341      2.00000
     16       2.4341      2.00000
     17       3.1796      2.00000
     18       3.1796      2.00000
     19       3.1796      2.00000
     20       3.1796      2.00000
     21       4.2600      2.00000
     22       4.2600      2.00000
     23       4.2600      2.00000
     24       4.2600      2.00000
     25      10.2267      0.00000
     26      10.2267      0.00000
     27      10.2267      0.00000
     28      10.2267      0.00000
     29      25.8280      0.00000
     30      25.8280      0.00000
     31      25.8280      0.00000
     32      25.8280      0.00000

 k-point 117 :       0.4286    0.4286    0.4286
  band No.  band energies     occupation 
      1      -0.9807      2.00000
      2      -0.7648      2.00000
      3      -0.7648      2.00000
      4      -0.7648      2.00000
      5       1.4249      2.00000
      6       1.4249      2.00000
      7       1.4249      2.00000
      8       1.5367      2.00000
      9       1.5367      2.00000
     10       1.5837      2.00000
     11       1.5837      2.00000
     12       1.5837      2.00000
     13       2.4990      2.00000
     14       2.4990      2.00000
     15       2.4990      2.00000
     16       2.8695      2.00000
     17       3.1976      2.00000
     18       3.1976      2.00000
     19       3.2718      2.00000
     20       3.2718      2.00000
     21       3.2718      2.00000
     22       4.4593      2.00000
     23       4.4593      2.00000
     24       4.4593      2.00000
     25       9.7587      0.00000
     26       9.7587      0.00000
     27       9.7587      0.00000
     28      10.8202      0.00000
     29      26.3149      0.00000
     30      26.3149      0.00000
     31      26.3149      0.00000
     32      27.8440      0.00000

 k-point 118 :       0.5000    0.4286    0.4286
  band No.  band energies     occupation 
      1      -0.8851      2.00000
      2      -0.8851      2.00000
      3      -0.7822      2.00000
      4      -0.7822      2.00000
      5       1.4449      2.00000
      6       1.4449      2.00000
      7       1.4975      2.00000
      8       1.4975      2.00000
      9       1.5409      2.00000
     10       1.5409      2.00000
     11       1.5602      2.00000
     12       1.5602      2.00000
     13       2.6489      2.00000
     14       2.6489      2.00000
     15       2.7935      2.00000
     16       2.7935      2.00000
     17       3.2562      2.00000
     18       3.2562      2.00000
     19       3.2591      2.00000
     20       3.2591      2.00000
     21       3.7131      2.00000
     22       3.7131      2.00000
     23       4.4061      2.00000
     24       4.4061      2.00000
     25       9.5802      0.00000
     26       9.5802      0.00000
     27      10.1734      0.00000
     28      10.1734      0.00000
     29      26.5971      0.00000
     30      26.5971      0.00000
     31      27.4468      0.00000
     32      27.4468      0.00000

 k-point 119 :       0.5000    0.5000    0.4286
  band No.  band energies     occupation 
      1      -0.8502      2.00000
      2      -0.8502      2.00000
      3      -0.8502      2.00000
      4      -0.8502      2.00000
      5       1.4914      2.00000
      6       1.4914      2.00000
      7       1.4914      2.00000
      8       1.4914      2.00000
      9       1.5267      2.00000
     10       1.5267      2.00000
     11       1.5267      2.00000
     12       1.5267      2.00000
     13       2.9227      2.00000
     14       2.9227      2.00000
     15       2.9227      2.00000
     16       2.9227      2.00000
     17       3.2449      2.00000
     18       3.2449      2.00000
     19       3.2449      2.00000
     20       3.2449      2.00000
     21       3.9302      2.00000
     22       3.9302      2.00000
     23       3.9302      2.00000
     24       3.9302      2.00000
     25       9.7221      0.00000
     26       9.7221      0.00000
     27       9.7221      0.00000
     28       9.7221      0.00000
     29      27.2861      0.00000
     30      27.2861      0.00000
     31      27.2861      0.00000
     32      27.2861      0.00000

 k-point 120 :       0.5000    0.5000    0.5000
  band No.  band energies     occupation 
      1      -0.8684      2.00000
      2      -0.8684      2.00000
      3      -0.8684      2.00000
      4      -0.8684      2.00000
      5       1.5070      2.00000
      6       1.5070      2.00000
      7       1.5070      2.00000
      8       1.5070      2.00000
      9       1.5070      2.00000
     10       1.5070      2.00000
     11       1.5070      2.00000
     12       1.5070      2.00000
     13       3.2671      2.00000
     14       3.2671      2.00000
     15       3.2671      2.00000
     16       3.2671      2.00000
     17       3.2671      2.00000
     18       3.2671      2.00000
     19       3.2671      2.00000
     20       3.2671      2.00000
     21       3.6423      2.00000
     22       3.6423      2.00000
     23       3.6423      2.00000
     24       3.6423      2.00000
     25       9.5501      0.00000
     26       9.5501      0.00000
     27       9.5501      0.00000
     28       9.5501      0.00000
     29      27.6800      0.00000
     30      27.6800      0.00000
     31      27.6800      0.00000
     32      27.6800      0.00000


--------------------------------------------------------------------------------------------------------


 soft charge-density along one line, spin component           1
         0         1         2         3         4         5         6         7         8         9
 total charge-density along one line
 
 pseudopotential strength for first ion, spin component:           1
 -5.738   0.000  -0.000   0.000  -0.000  -0.575  -0.000   0.000
  0.000  -5.738  -0.000   0.000  -0.000  -0.000  -0.575   0.000
 -0.000  -0.000  -5.717  -0.000   0.000   0.000   0.000  -0.584
  0.000   0.000  -0.000  -5.738   0.000  -0.000  -0.000   0.000
 -0.000  -0.000   0.000   0.000  -5.717   0.000   0.000  -0.000
 -0.575  -0.000   0.000  -0.000   0.000   1.826   0.000  -0.000
 -0.000  -0.575   0.000  -0.000   0.000   0.000   1.826  -0.000
  0.000   0.000  -0.584   0.000  -0.000  -0.000  -0.000   1.831
 -0.000  -0.000   0.000  -0.575  -0.000   0.000   0.000  -0.000
  0.000   0.000  -0.000  -0.000  -0.584  -0.000  -0.000   0.000
 -0.000  -0.000  -0.000  -0.000   0.000  -0.000  -0.000  -0.000
  0.000   0.000   0.000   0.000  -0.000  -0.000  -0.000  -0.000
  0.000   0.000  -0.000   0.000  -0.000  -0.000  -0.000   0.000
  0.000   0.000   0.000   0.000   0.000   0.000  -0.000  -0.000
  0.000   0.000  -0.000   0.000   0.000  -0.000   0.000   0.000
 -0.000  -0.000   0.000  -0.000   0.000   0.000   0.000  -0.000
 -0.000  -0.000  -0.000  -0.000  -0.000   0.000   0.000   0.000
 -0.000  -0.000   0.000  -0.000  -0.000   0.000   0.000  -0.000
 total augmentation occupancy for first ion, spin component:           1
  1.885  -0.009  -0.015  -0.007  -0.009   0.062   0.009  -0.001   0.004   0.012   0.039  -0.002   0.000  -0.000   0.000   0.000
 -0.009   1.952   0.000  -0.007  -0.005   0.009  -0.019   0.002   0.012  -0.002   0.048   0.011   0.000  -0.000   0.000   0.000
 -0.015   0.000   1.917   0.004  -0.012  -0.001   0.002   0.020  -0.004   0.037  -0.001  -0.071   0.000   0.000  -0.000  -0.000
 -0.007  -0.007   0.004   1.943   0.002   0.004   0.012  -0.004   0.020   0.005   0.026   0.003  -0.000  -0.000  -0.000  -0.000
 -0.009  -0.005  -0.012   0.002   1.943   0.012  -0.002   0.037   0.005  -0.079   0.055   0.049  -0.000  -0.000   0.000   0.000
  0.062   0.009  -0.001   0.004   0.012   0.144  -0.005   0.028  -0.002  -0.011   0.021   0.025  -0.000  -0.000   0.000   0.000
  0.009  -0.019   0.002   0.012  -0.002  -0.005   0.119  -0.006  -0.009   0.014  -0.018   0.016   0.000   0.000  -0.000   0.000
 -0.001   0.002   0.020  -0.004   0.037   0.028  -0.006   0.127  -0.000  -0.002   0.146  -0.020   0.000   0.000   0.000  -0.000
  0.004   0.012  -0.004   0.020   0.005  -0.002  -0.009  -0.000   0.093  -0.015   0.000   0.013   0.000   0.000  -0.000  -0.000
  0.012  -0.002   0.037   0.005  -0.079  -0.011   0.014  -0.002  -0.015   0.095  -0.103   0.024  -0.000  -0.000   0.000   0.000
  0.039   0.048  -0.001   0.026   0.055   0.021  -0.018   0.146   0.000  -0.103   1.340  -0.441  -0.000   0.000   0.000  -0.000
 -0.002   0.011  -0.071   0.003   0.049   0.025   0.016  -0.020   0.013   0.024  -0.441   0.211  -0.000   0.000   0.000   0.000
  0.000   0.000   0.000  -0.000  -0.000  -0.000   0.000   0.000   0.000  -0.000  -0.000  -0.000   0.231   0.021  -0.017  -0.016
 -0.000  -0.000   0.000  -0.000  -0.000  -0.000   0.000   0.000   0.000  -0.000   0.000   0.000   0.021   0.170  -0.003  -0.002
  0.000   0.000  -0.000  -0.000   0.000   0.000  -0.000   0.000  -0.000   0.000   0.000   0.000  -0.017  -0.003   0.343  -0.001
  0.000   0.000  -0.000  -0.000   0.000   0.000   0.000  -0.000  -0.000   0.000  -0.000   0.000  -0.016  -0.002  -0.001   0.001
 -0.000  -0.000   0.000   0.000   0.000  -0.000  -0.000   0.000  -0.000  -0.000   0.000  -0.000  -0.002  -0.011  -0.001   0.000
 -0.000   0.000  -0.000  -0.000   0.000  -0.000   0.000   0.000  -0.000  -0.000   0.000  -0.000  -0.001  -0.001  -0.025   0.000


------------------------ aborting loop because EDIFF is reached ----------------------------------------




--------------------------------------------------------------------------------------------------------


    CHARGE:  VPU time    0.11: CPU time    0.11
    FORLOC:  VPU time    0.00: CPU time    0.00
    FORNL :  VPU time    0.28: CPU time    0.28
    STRESS:  VPU time    0.70: CPU time    0.70
    FORCOR:  VPU time    0.01: CPU time    0.01
    FORHAR:  VPU time    0.00: CPU time    0.00
    MIXING:  VPU time    0.00: CPU time    0.00


--------------------------------------------------------------------------------------------------------



  FREE ENERGIE OF THE ION-ELECTRON SYSTEM (eV)
  ---------------------------------------------------
  free  energy   TOTEN  =       -14.304792 eV

  energy  without entropy=      -14.304697  energy(sigma->0) =      -14.304745
 

  FORCE on cell =-STRESS in cart. coord.  units (eV/reduce length):
  Direction    X        Y        Z        XY       YZ       ZX
  --------------------------------------------------------------------------------------
  Alpha Z    495.83    495.83    495.83
  Ewald    -1541.63  -1541.63  -1541.63      0.00     -0.00     -0.00
  Hartree    369.30    369.30    369.30     -0.00     -0.00     -0.00
  E(xc)     -252.01   -252.01   -252.01      0.00      0.00     -0.00
  Local      530.08    530.08    530.08      0.00      0.00      0.00
  n-local   -134.64   -140.96   -142.51      0.33      1.80      0.63
  augment    226.40    226.40    226.40     -0.00     -0.00     -0.00
  Kinetic    327.67    318.59    312.13     -3.40     -0.31     -1.53
  -------------------------------------------------------------------------------------
  Total        8.05      8.05      8.05      0.00     -0.00     -0.00
  in kB      312.88    312.88    312.88      0.00     -0.00     -0.00
  external pressure =      312.88 kB  Pullay stress =        0.00 kB


 VOLUME and BASIS-vectors are now :
 -----------------------------------------------------------------------------
  energy-cutoff  :      500.00
  volume of cell :       41.23
      direct lattice vectors                 reciprocal lattice vectors
     3.454595021  0.000000000  0.000000000     0.289469531  0.000000000  0.000000000
     0.000000000  3.454595021  0.000000000     0.000000000  0.289469531  0.000000000
     0.000000000  0.000000000  3.454595021     0.000000000  0.000000000  0.289469531

  length of vectors
     3.454595021  3.454595021  3.454595021     0.289469531  0.289469531  0.289469531


 FORCES acting on ions
    electron-ion (+dipol)            ewald-force                    non-local-force                 convergence-correction
 -----------------------------------------------------------------------------------------------
   -.462E-13 -.507E-13 -.607E-13   -.241E-13 -.101E-13 -.196E-13   0.698E-25 0.109E-25 -.299E-25   0.576E-14 -.335E-14 0.366E-13
   0.476E-12 0.341E-11 0.215E-11   0.517E-14 -.465E-14 -.195E-13   -.593E-26 0.409E-25 -.332E-25   -.434E-13 -.585E-14 0.271E-13
   0.475E-12 -.538E-13 0.718E-11   0.730E-14 0.442E-14 0.194E-13   0.112E-24 0.758E-25 -.857E-26   -.417E-13 -.656E-15 -.947E-13
   -.468E-13 0.470E-12 0.466E-12   0.120E-13 0.990E-14 0.194E-13   0.112E-24 0.212E-25 -.226E-26   0.126E-13 -.179E-14 -.858E-13
 -----------------------------------------------------------------------------------------------
   0.858E-12 0.378E-11 0.973E-11   0.276E-15 -.472E-15 -.371E-15   0.288E-24 0.149E-24 -.739E-25   -.668E-13 -.116E-13 -.117E-12
 
 
 POSITION                                       TOTAL-FORCE (eV/Angst)
 -----------------------------------------------------------------------------------
      0.00000      0.00000      0.00000        -0.000000      0.000000     -0.000000
      1.72730      1.72730      0.00000         0.000000     -0.000000      0.000000
      1.72730      0.00000      1.72730        -0.000000     -0.000000     -0.000000
      0.00000      1.72730      1.72730         0.000000      0.000000     -0.000000
 -----------------------------------------------------------------------------------
    total drift:                                0.000000      0.000000      0.000000


--------------------------------------------------------------------------------------------------------



 mean value of Nose-termostat <S>:     1.000 mean value of <T> :     0.000
 mean temperature <T/S>/<1/S>  :     0.000

     LOOP+:  VPU time   29.30: CPU time   29.33
  
  
 General timing and accounting informations for this job:
 ========================================================
  
                  Total CPU time used (sec):       30.356
                            User time (sec):       20.209
                          System time (sec):       10.147
                         Elapsed time (sec):       30.401
  
                   Maximum memory used (kb):      412016.
                   Average memory used (kb):           0.
  
                          Minor page faults:        52780
                          Major page faults:            0
                 Voluntary context switches:          983
