 running on    8 nodes
 distr:  one band on    1 nodes,    8 groups
 vasp.4.6.28 25Jul05 complex 
 POSCAR found :  1 types and   32 ions

 ----------------------------------------------------------------------------- 
|                                                                             |
|  ADVICE TO THIS USER RUNNING 'VASP/VAMP'   (HEAR YOUR MASTER'S VOICE ...):  |
|                                                                             |
|      You have a (more or less) 'large supercell' and for larger cells       |
|      it might be more efficient to use real space projection operators      |
|      So try LREAL= Auto  in the INCAR   file.                               |
|      Mind: If you want to do an extremely accurate calculations keep the    |
|      reciprocal projection scheme          (i.e. LREAL=.FALSE.)             |
|                                                                             |
 ----------------------------------------------------------------------------- 

 LDA part: xc-table for Pade appr. of Perdew
 generate k-points for:   7   7   7
 POSCAR, INCAR and KPOINTS ok, starting setup
 FFT: planning ...           1
 reading WAVECAR
 WARNING: random wavefunctions but no delay for mixing, default for NELMDL
 entering main loop
       N       E                     dE             d eps       ncg     rms          rms(c)
DAV:   1     0.309999899596E+04    0.31000E+04   -0.14719E+05  8640   0.234E+03
DAV:   2     0.265471008128E+03   -0.28345E+04   -0.27253E+04  8640   0.517E+02
DAV:   3    -0.121668869756E+03   -0.38714E+03   -0.34648E+03  8640   0.199E+02
DAV:   4    -0.141162785286E+03   -0.19494E+02   -0.19079E+02  9296   0.537E+01
DAV:   5    -0.141314781508E+03   -0.15200E+00   -0.15169E+00  9272   0.470E+00    0.379E+01
DAV:   6    -0.129227558166E+03    0.12087E+02   -0.29046E+02  9312   0.938E+01    0.215E+01
DAV:   7    -0.116193334866E+03    0.13034E+02   -0.56444E+01  9632   0.418E+01    0.210E+00
DAV:   8    -0.116111642056E+03    0.81693E-01   -0.11319E+00  9344   0.412E+00    0.249E+00
DAV:   9    -0.115994078294E+03    0.11756E+00   -0.47526E-01  9096   0.373E+00    0.264E-01
DAV:  10    -0.115993714643E+03    0.36365E-03   -0.11748E-02  9080   0.503E-01    0.525E-02
DAV:  11    -0.115993649564E+03    0.65079E-04   -0.24803E-04  9192   0.727E-02    0.768E-03
DAV:  12    -0.115993675777E+03   -0.26213E-04   -0.67173E-06  9016   0.884E-03    0.135E-03
DAV:  13    -0.115993683518E+03   -0.77406E-05   -0.14891E-07  9360   0.213E-03    0.138E-03
DAV:  14    -0.115993682758E+03    0.76009E-06   -0.20439E-07  9080   0.248E-03    0.596E-05
DAV:  15    -0.115993682567E+03    0.19093E-06   -0.31429E-09  4816   0.181E-04    0.430E-05
DAV:  16    -0.115993682485E+03    0.81636E-07   -0.25213E-10  4800   0.541E-05    0.216E-05
DAV:  17    -0.115993682500E+03   -0.14494E-07   -0.19689E-11  4800   0.210E-05    0.196E-05
DAV:  18    -0.115993682503E+03   -0.26484E-08   -0.73670E-12  4800   0.644E-06
   1 F= -.11599368E+03 E0= -.11599349E+03  d E =-.388882E-03
