  32  32   0   0
  0.1391645E+02  0.7636473E-09  0.7636473E-09  0.7636473E-09  0.5000000E-15
  1.000000000000000E-004
  CAR 
 unknown system                          
     12.48101110     -6.53427713  301      2.53670966      1.00000000
     -6.534  0.0000E+00  0.0000E+00
     -6.471  0.0000E+00  0.0000E+00
     -6.408  0.0000E+00  0.0000E+00
     -6.344  0.0000E+00  0.0000E+00
     -6.281  0.0000E+00  0.0000E+00
     -6.217  0.0000E+00  0.0000E+00
     -6.154  0.0000E+00  0.0000E+00
     -6.091  0.0000E+00  0.0000E+00
     -6.027  0.0000E+00  0.0000E+00
     -5.964  0.0000E+00  0.0000E+00
     -5.900  0.0000E+00  0.0000E+00
     -5.837  0.0000E+00  0.0000E+00
     -5.774  0.0000E+00  0.0000E+00
     -5.710  0.5374E-09  0.3406E-10
     -5.647  0.9194E-01  0.5828E-02
     -5.584  0.5524E+00  0.4084E-01
     -5.520  0.1114E+01  0.1115E+00
     -5.457  0.8139E+00  0.1631E+00
     -5.393  0.1781E+01  0.2759E+00
     -5.330  0.2952E+01  0.4631E+00
     -5.267  0.1457E+00  0.4723E+00
     -5.203  0.1104E+01  0.5423E+00
     -5.140  0.2782E+01  0.7186E+00
     -5.076  0.2569E+01  0.8815E+00
     -5.013  0.2352E+01  0.1031E+01
     -4.950  0.2344E+01  0.1179E+01
     -4.886  0.4486E+01  0.1463E+01
     -4.823  0.7848E-03  0.1464E+01
     -4.760  0.1011E+01  0.1528E+01
     -4.696  0.5784E+01  0.1894E+01
     -4.633  0.3623E+01  0.2124E+01
     -4.569  0.2274E+01  0.2268E+01
     -4.506  0.4466E+01  0.2551E+01
     -4.443  0.2157E+01  0.2688E+01
     -4.379  0.1925E+01  0.2810E+01
     -4.316  0.3021E+01  0.3002E+01
     -4.252  0.6652E+01  0.3424E+01
     -4.189  0.2923E+01  0.3609E+01
     -4.126  0.5486E+01  0.3957E+01
     -4.062  0.5513E+01  0.4307E+01
     -3.999  0.3434E-02  0.4309E+01
     -3.936  0.2540E+01  0.4470E+01
     -3.872  0.7047E+01  0.4917E+01
     -3.809  0.4776E+01  0.5220E+01
     -3.745  0.2789E+01  0.5397E+01
     -3.682  0.7543E+01  0.5875E+01
     -3.619  0.1238E+01  0.5953E+01
     -3.555  0.4331E+01  0.6228E+01
     -3.492  0.1006E+02  0.6866E+01
     -3.428  0.3272E+01  0.7073E+01
     -3.365  0.5394E+01  0.7415E+01
     -3.302  0.7010E+01  0.7859E+01
     -3.238  0.1577E+01  0.7959E+01
     -3.175  0.4166E+01  0.8223E+01
     -3.112  0.8464E+01  0.8760E+01
     -3.048  0.4508E+01  0.9046E+01
     -2.985  0.8999E+01  0.9616E+01
     -2.921  0.8627E+01  0.1016E+02
     -2.858  0.6623E+01  0.1058E+02
     -2.795  0.4178E+01  0.1085E+02
     -2.731  0.6478E+01  0.1126E+02
     -2.668  0.4808E+01  0.1156E+02
     -2.604  0.1097E+02  0.1226E+02
     -2.541  0.4111E+01  0.1252E+02
     -2.478  0.1185E+02  0.1327E+02
     -2.414  0.8523E+01  0.1381E+02
     -2.351  0.1374E+02  0.1468E+02
     -2.288  0.6454E+00  0.1472E+02
     -2.224  0.1180E+02  0.1547E+02
     -2.161  0.1056E+02  0.1614E+02
     -2.097  0.1472E+02  0.1707E+02
     -2.034  0.9569E+01  0.1768E+02
     -1.971  0.1200E+02  0.1844E+02
     -1.907  0.1604E+02  0.1946E+02
     -1.844  0.1161E+02  0.2019E+02
     -1.780  0.3109E+02  0.2216E+02
     -1.717  0.1455E+02  0.2309E+02
     -1.654  0.3918E+02  0.2557E+02
     -1.590  0.1975E+02  0.2683E+02
     -1.527  0.2555E+02  0.2845E+02
     -1.464  0.4870E+02  0.3153E+02
     -1.400  0.5176E+02  0.3482E+02
     -1.337  0.3143E+02  0.3681E+02
     -1.273  0.5170E+02  0.4009E+02
     -1.210  0.4692E+02  0.4306E+02
     -1.147  0.5327E+02  0.4644E+02
     -1.083  0.7526E+02  0.5121E+02
     -1.020  0.7623E+02  0.5605E+02
     -0.956  0.8181E+02  0.6123E+02
     -0.893  0.9954E+02  0.6754E+02
     -0.830  0.8712E+02  0.7307E+02
     -0.766  0.8980E+02  0.7876E+02
     -0.703  0.7717E+02  0.8366E+02
     -0.640  0.9333E+02  0.8958E+02
     -0.576  0.8486E+02  0.9496E+02
     -0.513  0.7784E+02  0.9989E+02
     -0.449  0.1044E+03  0.1065E+03
     -0.386  0.1212E+03  0.1142E+03
     -0.323  0.9759E+02  0.1204E+03
     -0.259  0.1496E+03  0.1299E+03
     -0.196  0.1246E+03  0.1378E+03
     -0.132  0.1415E+03  0.1467E+03
     -0.069  0.1724E+03  0.1577E+03
     -0.006  0.1798E+03  0.1691E+03
      0.058  0.2067E+03  0.1822E+03
      0.121  0.1409E+03  0.1911E+03
      0.184  0.1262E+03  0.1991E+03
      0.248  0.1156E+03  0.2064E+03
      0.311  0.1075E+03  0.2133E+03
      0.375  0.1113E+03  0.2203E+03
      0.438  0.1465E+03  0.2296E+03
      0.501  0.1540E+03  0.2394E+03
      0.565  0.1676E+03  0.2500E+03
      0.628  0.1406E+03  0.2589E+03
      0.692  0.1258E+03  0.2669E+03
      0.755  0.1358E+03  0.2755E+03
      0.818  0.1284E+03  0.2837E+03
      0.882  0.1656E+03  0.2942E+03
      0.945  0.2080E+03  0.3073E+03
      1.008  0.2639E+03  0.3241E+03
      1.072  0.1295E+03  0.3323E+03
      1.135  0.3333E+02  0.3344E+03
      1.199  0.3110E+02  0.3364E+03
      1.262  0.1721E+02  0.3375E+03
      1.325  0.3370E+01  0.3377E+03
      1.389  0.1595E+02  0.3387E+03
      1.452  0.1787E+02  0.3398E+03
      1.516  0.1304E+02  0.3407E+03
      1.579  0.1081E+02  0.3413E+03
      1.642  0.8465E+01  0.3419E+03
      1.706  0.1812E+02  0.3430E+03
      1.769  0.1359E+02  0.3439E+03
      1.832  0.1515E+02  0.3449E+03
      1.896  0.8990E+01  0.3454E+03
      1.959  0.4940E+01  0.3457E+03
      2.023  0.9150E+01  0.3463E+03
      2.086  0.1032E+02  0.3470E+03
      2.149  0.1801E+02  0.3481E+03
      2.213  0.1670E+02  0.3492E+03
      2.276  0.8299E+01  0.3497E+03
      2.340  0.1670E+02  0.3508E+03
      2.403  0.5985E+01  0.3511E+03
      2.466  0.4350E+01  0.3514E+03
      2.530  0.8855E+01  0.3520E+03
      2.593  0.1044E+02  0.3526E+03
      2.656  0.1293E+02  0.3535E+03
      2.720  0.1630E+02  0.3545E+03
      2.783  0.8798E+01  0.3550E+03
      2.847  0.8124E+01  0.3556E+03
      2.910  0.1279E+02  0.3564E+03
      2.973  0.4619E+01  0.3567E+03
      3.037  0.1695E+02  0.3577E+03
      3.100  0.2554E+01  0.3579E+03
      3.164  0.1100E+02  0.3586E+03
      3.227  0.4366E+01  0.3589E+03
      3.290  0.6322E+01  0.3593E+03
      3.354  0.1663E+02  0.3603E+03
      3.417  0.1716E+02  0.3614E+03
      3.480  0.7099E+01  0.3619E+03
      3.544  0.6828E+01  0.3623E+03
      3.607  0.8620E+01  0.3629E+03
      3.671  0.8935E+01  0.3634E+03
      3.734  0.4777E+01  0.3637E+03
      3.797  0.6707E+01  0.3641E+03
      3.861  0.1529E+02  0.3651E+03
      3.924  0.5851E+01  0.3655E+03
      3.988  0.6362E+01  0.3659E+03
      4.051  0.1453E+02  0.3668E+03
      4.114  0.8730E+01  0.3674E+03
      4.178  0.7291E+01  0.3678E+03
      4.241  0.5315E+01  0.3682E+03
      4.304  0.1896E+02  0.3694E+03
      4.368  0.3302E+01  0.3696E+03
      4.431  0.3583E+01  0.3698E+03
      4.495  0.9271E+01  0.3704E+03
      4.558  0.5894E+01  0.3708E+03
      4.621  0.1226E+02  0.3715E+03
      4.685  0.5967E+01  0.3719E+03
      4.748  0.3672E+01  0.3722E+03
      4.812  0.1306E+02  0.3730E+03
      4.875  0.4266E+01  0.3732E+03
      4.938  0.1385E+02  0.3741E+03
      5.002  0.3965E+01  0.3744E+03
      5.065  0.7727E+01  0.3749E+03
      5.128  0.4604E+01  0.3752E+03
      5.192  0.7520E+01  0.3756E+03
      5.255  0.9545E+01  0.3762E+03
      5.319  0.1455E+01  0.3763E+03
      5.382  0.8810E+01  0.3769E+03
      5.445  0.6608E+01  0.3773E+03
      5.509  0.9915E+00  0.3774E+03
      5.572  0.8317E+01  0.3779E+03
      5.636  0.8860E+01  0.3785E+03
      5.699  0.1367E+02  0.3793E+03
      5.762  0.9827E+01  0.3800E+03
      5.826  0.8366E+01  0.3805E+03
      5.889  0.9779E+01  0.3811E+03
      5.952  0.1498E+02  0.3821E+03
      6.016  0.1142E+02  0.3828E+03
      6.079  0.6126E+01  0.3832E+03
      6.143  0.8121E+01  0.3837E+03
      6.206  0.1296E+02  0.3845E+03
      6.269  0.1061E+02  0.3852E+03
      6.333  0.9296E+01  0.3858E+03
      6.396  0.1026E+02  0.3864E+03
      6.460  0.1048E+02  0.3871E+03
      6.523  0.9284E+01  0.3877E+03
      6.586  0.7687E+01  0.3882E+03
      6.650  0.8581E+01  0.3887E+03
      6.713  0.1058E+02  0.3894E+03
      6.776  0.7396E+01  0.3898E+03
      6.840  0.1928E+02  0.3911E+03
      6.903  0.3030E+01  0.3913E+03
      6.967  0.1375E+02  0.3921E+03
      7.030  0.5613E+01  0.3925E+03
      7.093  0.1460E+02  0.3934E+03
      7.157  0.4398E+01  0.3937E+03
      7.220  0.6623E+01  0.3941E+03
      7.283  0.1830E+02  0.3953E+03
      7.347  0.7897E+01  0.3958E+03
      7.410  0.9945E+01  0.3964E+03
      7.474  0.4682E+01  0.3967E+03
      7.537  0.2200E+01  0.3968E+03
      7.600  0.7437E+01  0.3973E+03
      7.664  0.7357E+01  0.3978E+03
      7.727  0.2052E+02  0.3991E+03
      7.791  0.1324E+02  0.3999E+03
      7.854  0.4393E+01  0.4002E+03
      7.917  0.2250E+01  0.4003E+03
      7.981  0.1322E+02  0.4012E+03
      8.044  0.1322E+02  0.4020E+03
      8.107  0.1175E-06  0.4020E+03
      8.171  0.7404E+01  0.4025E+03
      8.234  0.7458E+01  0.4030E+03
      8.298  0.1238E+02  0.4037E+03
      8.361  0.7906E+01  0.4042E+03
      8.424  0.6911E+01  0.4047E+03
      8.488  0.1236E+02  0.4055E+03
      8.551  0.1214E+02  0.4062E+03
      8.615  0.2123E+01  0.4064E+03
      8.678  0.5926E+01  0.4067E+03
      8.741  0.8042E+01  0.4073E+03
      8.805  0.1336E+02  0.4081E+03
      8.868  0.1202E+02  0.4089E+03
      8.931  0.9346E+01  0.4095E+03
      8.995  0.9538E+01  0.4101E+03
      9.058  0.6141E+01  0.4105E+03
      9.122  0.1404E+02  0.4113E+03
      9.185  0.1293E+02  0.4122E+03
      9.248  0.2115E+02  0.4135E+03
      9.312  0.9566E+01  0.4141E+03
      9.375  0.1406E+02  0.4150E+03
      9.439  0.1087E+02  0.4157E+03
      9.502  0.9920E+01  0.4163E+03
      9.565  0.1082E+02  0.4170E+03
      9.629  0.1009E+02  0.4176E+03
      9.692  0.8923E+01  0.4182E+03
      9.755  0.1420E+02  0.4191E+03
      9.819  0.1131E+02  0.4198E+03
      9.882  0.8904E+01  0.4204E+03
      9.946  0.1757E+02  0.4215E+03
     10.009  0.5055E+01  0.4218E+03
     10.072  0.9413E+01  0.4224E+03
     10.136  0.1766E+02  0.4235E+03
     10.199  0.9033E+01  0.4241E+03
     10.263  0.6604E+01  0.4245E+03
     10.326  0.1642E+02  0.4256E+03
     10.389  0.1867E+02  0.4268E+03
     10.453  0.6813E+01  0.4272E+03
     10.516  0.1300E+02  0.4280E+03
     10.579  0.8138E+01  0.4285E+03
     10.643  0.1591E+02  0.4295E+03
     10.706  0.8539E+01  0.4301E+03
     10.770  0.4434E+01  0.4304E+03
     10.833  0.4454E+01  0.4306E+03
     10.896  0.7569E+01  0.4311E+03
     10.960  0.3429E+01  0.4313E+03
     11.023  0.8712E-03  0.4313E+03
     11.087  0.5289E+01  0.4317E+03
     11.150  0.1334E+01  0.4318E+03
     11.213  0.1322E-01  0.4318E+03
     11.277  0.1459E+01  0.4319E+03
     11.340  0.0000E+00  0.4319E+03
     11.403  0.0000E+00  0.4319E+03
     11.467  0.0000E+00  0.4319E+03
     11.530  0.1425E-07  0.4319E+03
     11.594  0.1104E+01  0.4319E+03
     11.657  0.1103E+01  0.4320E+03
     11.720  0.0000E+00  0.4320E+03
     11.784  0.0000E+00  0.4320E+03
     11.847  0.0000E+00  0.4320E+03
     11.911  0.0000E+00  0.4320E+03
     11.974  0.0000E+00  0.4320E+03
     12.037  0.0000E+00  0.4320E+03
     12.101  0.0000E+00  0.4320E+03
     12.164  0.0000E+00  0.4320E+03
     12.227  0.0000E+00  0.4320E+03
     12.291  0.0000E+00  0.4320E+03
     12.354  0.0000E+00  0.4320E+03
     12.418  0.0000E+00  0.4320E+03
     12.481  0.0000E+00  0.4320E+03
