   32   32    1    1
  0.1391645E+02  0.7636473E-09  0.7636473E-09  0.7636473E-09  0.5000000E-15
  1.000000000000000E-004
  CAR 
 unknown system                          
  352   20  216
 
  0.0000000E+00  0.0000000E+00  0.0000000E+00  0.2915452E-02
   1       -5.6699
   2       -3.1755
   3       -3.1755
   4       -3.1755
   5       -3.1755
   6       -3.1755
   7       -3.1755
   8       -1.7515
   9       -1.7515
  10       -1.7515
  11       -1.7515
  12       -1.5248
  13       -1.5248
  14       -1.5248
  15       -1.4574
  16       -1.4574
  17       -1.4574
  18       -1.4574
  19       -1.4574
  20       -1.4574
  21       -1.4574
  22       -1.4574
  23       -1.4574
  24       -1.4574
  25       -1.4574
  26       -1.4574
  27       -1.1693
  28       -1.1693
  29       -1.1693
  30       -0.9219
  31       -0.9219
  32       -0.9219
  33       -0.9219
  34       -0.9219
  35       -0.9219
  36       -0.6422
  37       -0.6422
  38       -0.6422
  39       -0.6422
  40       -0.6422
  41       -0.6422
  42       -0.4671
  43       -0.4671
  44       -0.4671
  45       -0.4671
  46       -0.4671
  47       -0.4671
  48       -0.4671
  49       -0.4671
  50       -0.4671
  51       -0.4671
  52       -0.4671
  53       -0.4671
  54       -0.4668
  55       -0.4668
  56       -0.4668
  57       -0.4668
  58       -0.4668
  59       -0.4668
  60       -0.4668
  61       -0.4668
  62       -0.4668
  63       -0.4668
  64       -0.4668
  65       -0.4668
  66       -0.2988
  67       -0.2988
  68       -0.2988
  69       -0.2988
  70       -0.2988
  71       -0.2988
  72       -0.2988
  73       -0.2988
  74       -0.2988
  75       -0.2988
  76       -0.2988
  77       -0.2988
  78       -0.1136
  79       -0.1136
  80       -0.1136
  81       -0.1136
  82       -0.1136
  83       -0.1136
  84       -0.1136
  85       -0.1136
  86       -0.0947
  87       -0.0947
  88       -0.0947
  89        0.2048
  90        0.2048
  91        0.2048
  92        0.2048
  93        0.2048
  94        0.2048
  95        0.3033
  96        0.3033
  97        0.3033
  98        0.3033
  99        0.3033
 100        0.3033
 101        0.3033
 102        0.3033
 103        0.3033
 104        0.3033
 105        0.3033
 106        0.3033
 107        0.4217
 108        0.4217
 109        0.4217
 110        0.4217
 111        0.4217
 112        0.4217
 113        0.4217
 114        0.4217
 115        0.4217
 116        0.4217
 117        0.4217
 118        0.4217
 119        0.5218
 120        0.5218
 121        0.5218
 122        0.5218
 123        0.5218
 124        0.5218
 125        0.5442
 126        0.5442
 127        0.5442
 128        0.5442
 129        0.5442
 130        0.5442
 131        0.5442
 132        0.5442
 133        0.5442
 134        0.5442
 135        0.5442
 136        0.5442
 137        0.5464
 138        0.5464
 139        0.7581
 140        0.7581
 141        0.7581
 142        0.7581
 143        0.7581
 144        0.7581
 145        0.9736
 146        0.9736
 147        0.9736
 148        0.9848
 149        0.9848
 150        0.9848
 151        0.9848
 152        0.9848
 153        0.9848
 154        0.9848
 155        0.9848
 156        1.0930
 157        1.0930
 158        1.0930
 159        1.0930
 160        1.0930
 161        1.0930
 162        1.0935
 163        1.0935
 164        1.0935
 165        1.0935
 166        1.0935
 167        1.0935
 168        1.9578
 169        1.9578
 170        1.9578
 171        1.9578
 172        2.1143
 173        2.1143
 174        2.1143
 175        2.1143
 176        2.1143
 177        2.1143
 178        2.1143
 179        2.1143
 180        2.1143
 181        2.1143
 182        2.1143
 183        2.1143
 184        4.1298
 185        4.1298
 186        4.1298
 187        5.4971
 188        5.4971
 189        5.4971
 190        5.4971
 191        8.1442
 192        8.1442
 193        8.1442
 194        8.1442
 195        8.1442
 196        8.1442
 197        8.1442
 198        8.1442
 199        8.1442
 200        8.1442
 201        8.1442
 202        8.1442
 203        8.5368
 204        8.5368
 205        8.5368
 206        9.9009
 207        9.9009
 208        9.9009
 209        9.9009
 210        9.9009
 211        9.9009
 212       10.0740
 213       10.0740
 214       10.0740
 215       10.0740
 216       10.0740
 
  0.1428571E+00  0.0000000E+00  0.0000000E+00  0.1749271E-01
   1       -5.6147
   2       -3.7799
   3       -3.1299
   4       -3.1299
   5       -3.1299
   6       -3.1299
   7       -2.5726
   8       -1.7947
   9       -1.7947
  10       -1.7947
  11       -1.7947
  12       -1.7408
  13       -1.7408
  14       -1.7408
  15       -1.7408
  16       -1.5268
  17       -1.5010
  18       -1.5010
  19       -1.4791
  20       -1.4791
  21       -1.4791
  22       -1.4791
  23       -1.1737
  24       -1.1737
  25       -1.1737
  26       -1.1737
  27       -1.1563
  28       -1.1556
  29       -1.1556
  30       -0.9617
  31       -0.9617
  32       -0.9041
  33       -0.9041
  34       -0.9041
  35       -0.9041
  36       -0.7612
  37       -0.6574
  38       -0.6574
  39       -0.6364
  40       -0.6364
  41       -0.6364
  42       -0.6364
  43       -0.5221
  44       -0.4928
  45       -0.4928
  46       -0.4928
  47       -0.4928
  48       -0.4868
  49       -0.4868
  50       -0.4868
  51       -0.4868
  52       -0.4650
  53       -0.4650
  54       -0.4650
  55       -0.4650
  56       -0.4514
  57       -0.4514
  58       -0.4514
  59       -0.4514
  60       -0.4098
  61       -0.4098
  62       -0.4098
  63       -0.4098
  64       -0.3977
  65       -0.3977
  66       -0.3977
  67       -0.3977
  68       -0.2887
  69       -0.2887
  70       -0.2887
  71       -0.2887
  72       -0.2459
  73       -0.2459
  74       -0.2297
  75       -0.2297
  76       -0.2297
  77       -0.2297
  78       -0.1220
  79       -0.1220
  80       -0.1220
  81       -0.1220
  82       -0.1087
  83       -0.1011
  84       -0.1011
  85       -0.1011
  86       -0.1011
  87       -0.0831
  88       -0.0831
  89        0.1446
  90        0.1446
  91        0.1446
  92        0.1446
  93        0.2252
  94        0.2549
  95        0.2549
  96        0.2549
  97        0.2549
  98        0.2854
  99        0.2959
 100        0.2959
 101        0.3126
 102        0.3126
 103        0.3126
 104        0.3126
 105        0.3453
 106        0.3453
 107        0.3453
 108        0.3453
 109        0.4215
 110        0.4215
 111        0.4215
 112        0.4215
 113        0.4711
 114        0.4711
 115        0.4711
 116        0.4711
 117        0.4882
 118        0.4882
 119        0.4882
 120        0.4882
 121        0.5222
 122        0.5222
 123        0.5222
 124        0.5222
 125        0.5337
 126        0.5516
 127        0.5541
 128        0.5541
 129        0.5550
 130        0.5550
 131        0.5938
 132        0.5938
 133        0.5938
 134        0.5938
 135        0.6216
 136        0.6216
 137        0.6216
 138        0.6216
 139        0.7107
 140        0.7745
 141        0.7745
 142        0.7745
 143        0.7745
 144        0.8057
 145        0.8704
 146        0.8704
 147        0.8704
 148        0.8704
 149        0.9573
 150        0.9573
 151        0.9681
 152        0.9711
 153        0.9711
 154        0.9711
 155        0.9711
 156        1.0152
 157        1.0152
 158        1.0725
 159        1.0725
 160        1.0725
 161        1.0725
 162        1.0735
 163        1.0735
 164        1.0930
 165        1.0930
 166        1.0935
 167        1.0935
 168        1.7287
 169        1.7287
 170        1.7287
 171        1.7287
 172        1.9885
 173        1.9885
 174        1.9885
 175        1.9885
 176        2.1133
 177        2.1133
 178        2.1133
 179        2.1133
 180        2.6304
 181        2.6304
 182        2.6304
 183        2.6304
 184        3.7267
 185        4.2585
 186        4.2585
 187        5.6802
 188        5.6802
 189        5.6802
 190        5.6802
 191        7.2807
 192        7.2807
 193        7.4020
 194        7.4020
 195        7.4020
 196        7.4020
 197        8.2168
 198        8.2168
 199        8.2168
 200        8.2168
 201        8.5609
 202        8.5609
 203        9.0550
 204        9.0675
 205        9.0675
 206        9.5470
 207        9.5470
 208       10.0154
 209       10.0154
 210       10.0154
 211       10.0154
 212       10.2697
 213       10.2697
 214       10.2697
 215       10.2697
 216       10.4958
 
  0.2857143E+00  0.0000000E+00  0.0000000E+00  0.1749271E-01
   1       -5.4497
   2       -4.3312
   3       -2.9952
   4       -2.9952
   5       -2.9952
   6       -2.9952
   7       -2.1518
   8       -2.1518
   9       -2.1518
  10       -2.1518
  11       -2.0659
  12       -1.7095
  13       -1.7095
  14       -1.7095
  15       -1.7095
  16       -1.5407
  17       -1.5330
  18       -1.5330
  19       -1.5330
  20       -1.5330
  21       -1.4322
  22       -1.4322
  23       -1.1180
  24       -1.1141
  25       -1.1141
  26       -1.0645
  27       -1.0645
  28       -0.9558
  29       -0.9558
  30       -0.9558
  31       -0.9558
  32       -0.8734
  33       -0.8532
  34       -0.8532
  35       -0.8532
  36       -0.8532
  37       -0.8170
  38       -0.8170
  39       -0.6197
  40       -0.6197
  41       -0.6197
  42       -0.6197
  43       -0.5433
  44       -0.5433
  45       -0.5433
  46       -0.5433
  47       -0.5256
  48       -0.5256
  49       -0.5256
  50       -0.5256
  51       -0.5142
  52       -0.5142
  53       -0.5142
  54       -0.5142
  55       -0.4598
  56       -0.4598
  57       -0.4598
  58       -0.4598
  59       -0.4455
  60       -0.4455
  61       -0.4455
  62       -0.4455
  63       -0.4071
  64       -0.2612
  65       -0.2612
  66       -0.2612
  67       -0.2612
  68       -0.2491
  69       -0.2491
  70       -0.2491
  71       -0.2491
  72       -0.1786
  73       -0.1786
  74       -0.1786
  75       -0.1786
  76       -0.1498
  77       -0.1459
  78       -0.1459
  79       -0.1459
  80       -0.1459
  81       -0.0641
  82       -0.0641
  83       -0.0641
  84       -0.0641
  85       -0.0487
  86       -0.0487
  87        0.0029
  88        0.0029
  89        0.0436
  90        0.0436
  91        0.0436
  92        0.0436
  93        0.1642
  94        0.1642
  95        0.1642
  96        0.1642
  97        0.1826
  98        0.1826
  99        0.2892
 100        0.3671
 101        0.3671
 102        0.3671
 103        0.3671
 104        0.4110
 105        0.4110
 106        0.4110
 107        0.4110
 108        0.4217
 109        0.4217
 110        0.4217
 111        0.4217
 112        0.4526
 113        0.4526
 114        0.4526
 115        0.4526
 116        0.4968
 117        0.5151
 118        0.5151
 119        0.5151
 120        0.5151
 121        0.5194
 122        0.5194
 123        0.5194
 124        0.5194
 125        0.5619
 126        0.5672
 127        0.6016
 128        0.6016
 129        0.6016
 130        0.6016
 131        0.6358
 132        0.6358
 133        0.6658
 134        0.6877
 135        0.6877
 136        0.6877
 137        0.6877
 138        0.6892
 139        0.6892
 140        0.7169
 141        0.7169
 142        0.7169
 143        0.7169
 144        0.8147
 145        0.8147
 146        0.8498
 147        0.8498
 148        0.8498
 149        0.8498
 150        0.8512
 151        0.9093
 152        0.9093
 153        0.9309
 154        0.9309
 155        0.9309
 156        0.9309
 157        0.9521
 158        1.0131
 159        1.0131
 160        1.0131
 161        1.0131
 162        1.0170
 163        1.0170
 164        1.0931
 165        1.0931
 166        1.0934
 167        1.0934
 168        1.4331
 169        1.4331
 170        1.4331
 171        1.4331
 172        2.0412
 173        2.0412
 174        2.0412
 175        2.0412
 176        2.1095
 177        2.1095
 178        2.1095
 179        2.1095
 180        2.8599
 181        3.3066
 182        3.3066
 183        3.3066
 184        3.3066
 185        4.6117
 186        4.6117
 187        6.1940
 188        6.1940
 189        6.1940
 190        6.1940
 191        6.2460
 192        6.2460
 193        6.2460
 194        6.2460
 195        6.4833
 196        6.4833
 197        8.4313
 198        8.4313
 199        8.4313
 200        8.4313
 201        8.6346
 202        8.6346
 203        9.0473
 204        9.0473
 205        9.0473
 206        9.0473
 207        9.2097
 208        9.2097
 209        9.8217
 210        9.8217
 211        9.8217
 212        9.8217
 213       10.0445
 214       10.0450
 215       10.1483
 216       10.1483
 
  0.4285714E+00  0.0000000E+00  0.0000000E+00  0.1749271E-01
   1       -5.1773
   2       -4.8018
   3       -2.7778
   4       -2.7778
   5       -2.7778
   6       -2.7778
   7       -2.4898
   8       -2.4898
   9       -2.4898
  10       -2.4898
  11       -1.7438
  12       -1.6604
  13       -1.6604
  14       -1.6604
  15       -1.6604
  16       -1.5985
  17       -1.5985
  18       -1.5985
  19       -1.5985
  20       -1.5941
  21       -1.3259
  22       -1.3259
  23       -1.1961
  24       -1.1961
  25       -1.0560
  26       -1.0445
  27       -1.0445
  28       -0.9732
  29       -0.9457
  30       -0.9457
  31       -0.8030
  32       -0.8030
  33       -0.8030
  34       -0.8030
  35       -0.7834
  36       -0.7834
  37       -0.7834
  38       -0.7834
  39       -0.6220
  40       -0.6220
  41       -0.6220
  42       -0.6220
  43       -0.6212
  44       -0.6212
  45       -0.6212
  46       -0.6212
  47       -0.5936
  48       -0.5936
  49       -0.5936
  50       -0.5936
  51       -0.5608
  52       -0.5608
  53       -0.5608
  54       -0.5608
  55       -0.4531
  56       -0.4531
  57       -0.4531
  58       -0.4531
  59       -0.4472
  60       -0.4472
  61       -0.4472
  62       -0.4472
  63       -0.3032
  64       -0.2225
  65       -0.2225
  66       -0.2225
  67       -0.2225
  68       -0.2159
  69       -0.1814
  70       -0.1814
  71       -0.1814
  72       -0.1814
  73       -0.1226
  74       -0.1226
  75       -0.1226
  76       -0.1226
  77       -0.0490
  78       -0.0490
  79       -0.0490
  80       -0.0490
  81       -0.0085
  82       -0.0085
  83       -0.0085
  84       -0.0085
  85       -0.0048
  86       -0.0048
  87       -0.0048
  88       -0.0048
  89        0.0080
  90        0.0080
  91        0.0733
  92        0.0733
  93        0.0733
  94        0.0733
  95        0.0857
  96        0.0857
  97        0.2732
  98        0.2732
  99        0.2871
 100        0.2871
 101        0.2871
 102        0.2871
 103        0.3662
 104        0.4244
 105        0.4244
 106        0.4244
 107        0.4244
 108        0.4331
 109        0.4331
 110        0.4331
 111        0.4331
 112        0.4371
 113        0.4371
 114        0.4371
 115        0.4371
 116        0.4389
 117        0.4688
 118        0.4688
 119        0.4688
 120        0.4688
 121        0.4953
 122        0.4953
 123        0.4953
 124        0.4953
 125        0.5045
 126        0.5045
 127        0.5045
 128        0.5045
 129        0.5522
 130        0.5522
 131        0.5923
 132        0.6257
 133        0.7371
 134        0.7371
 135        0.7834
 136        0.7834
 137        0.7834
 138        0.7834
 139        0.8167
 140        0.8167
 141        0.8220
 142        0.8220
 143        0.8220
 144        0.8220
 145        0.8333
 146        0.8333
 147        0.8668
 148        0.8668
 149        0.8668
 150        0.8668
 151        0.8920
 152        0.9253
 153        0.9253
 154        0.9253
 155        0.9253
 156        0.9263
 157        0.9289
 158        0.9289
 159        0.9983
 160        0.9983
 161        0.9983
 162        0.9983
 163        1.0932
 164        1.0932
 165        1.0933
 166        1.0933
 167        1.1180
 168        1.1949
 169        1.1949
 170        1.1949
 171        1.1949
 172        1.9250
 173        2.0791
 174        2.0791
 175        2.0791
 176        2.0791
 177        2.0997
 178        2.0997
 179        2.0997
 180        2.0997
 181        4.1476
 182        4.1476
 183        4.1476
 184        4.1476
 185        5.1279
 186        5.1279
 187        5.1374
 188        5.1374
 189        5.1374
 190        5.1374
 191        5.7607
 192        5.7607
 193        6.9660
 194        6.9660
 195        6.9660
 196        6.9660
 197        7.9320
 198        7.9320
 199        7.9320
 200        7.9320
 201        8.7623
 202        8.7623
 203        8.7783
 204        8.7783
 205        8.7783
 206        8.7783
 207        8.9510
 208        8.9510
 209        9.2459
 210        9.2459
 211        9.2459
 212        9.2459
 213       10.3647
 214       10.3647
 215       10.3647
 216       10.3647
 
  0.1428571E+00  0.1428571E+00  0.0000000E+00  0.3498542E-01
   1       -5.5596
   2       -3.7312
   3       -3.7312
   4       -3.0852
   5       -3.0852
   6       -2.5311
   7       -2.5311
   8       -2.2238
   9       -1.7952
  10       -1.7952
  11       -1.7952
  12       -1.7952
  13       -1.7753
  14       -1.7753
  15       -1.6876
  16       -1.6876
  17       -1.5026
  18       -1.5026
  19       -1.4777
  20       -1.4069
  21       -1.4069
  22       -1.2150
  23       -1.2150
  24       -1.2150
  25       -1.2150
  26       -1.1428
  27       -1.1428
  28       -1.1421
  29       -1.0037
  30       -0.9477
  31       -0.9477
  32       -0.9431
  33       -0.9431
  34       -0.8860
  35       -0.8860
  36       -0.7536
  37       -0.7536
  38       -0.6673
  39       -0.6673
  40       -0.6522
  41       -0.6522
  42       -0.6301
  43       -0.6301
  44       -0.5320
  45       -0.5320
  46       -0.5183
  47       -0.5183
  48       -0.5183
  49       -0.5183
  50       -0.4772
  51       -0.4768
  52       -0.4479
  53       -0.4479
  54       -0.4479
  55       -0.4479
  56       -0.4368
  57       -0.4368
  58       -0.3967
  59       -0.3967
  60       -0.3967
  61       -0.3967
  62       -0.3895
  63       -0.3762
  64       -0.3762
  65       -0.3762
  66       -0.3762
  67       -0.3370
  68       -0.3370
  69       -0.2733
  70       -0.2733
  71       -0.2484
  72       -0.2484
  73       -0.2223
  74       -0.2223
  75       -0.2223
  76       -0.2223
  77       -0.1480
  78       -0.1480
  79       -0.1446
  80       -0.1181
  81       -0.1181
  82       -0.1163
  83       -0.0923
  84       -0.0923
  85       -0.0797
  86       -0.0797
  87       -0.0777
  88       -0.0724
  89        0.1077
  90        0.1077
  91        0.1573
  92        0.1573
  93        0.1988
  94        0.1988
  95        0.2537
  96        0.2537
  97        0.2537
  98        0.2537
  99        0.2870
 100        0.2959
 101        0.2959
 102        0.3003
 103        0.3003
 104        0.3003
 105        0.3003
 106        0.3590
 107        0.3590
 108        0.3620
 109        0.3808
 110        0.3808
 111        0.3818
 112        0.3818
 113        0.4093
 114        0.5198
 115        0.5198
 116        0.5302
 117        0.5459
 118        0.5459
 119        0.5486
 120        0.5508
 121        0.5508
 122        0.5509
 123        0.5509
 124        0.5509
 125        0.5509
 126        0.5546
 127        0.5546
 128        0.5576
 129        0.5576
 130        0.5872
 131        0.5872
 132        0.6198
 133        0.6198
 134        0.6654
 135        0.6654
 136        0.6654
 137        0.6654
 138        0.6746
 139        0.7166
 140        0.7166
 141        0.7202
 142        0.7202
 143        0.7819
 144        0.7819
 145        0.8125
 146        0.8125
 147        0.8349
 148        0.8349
 149        0.9414
 150        0.9424
 151        0.9424
 152        0.9555
 153        0.9780
 154        0.9780
 155        0.9799
 156        0.9799
 157        1.0022
 158        1.0022
 159        1.0544
 160        1.0544
 161        1.0722
 162        1.0722
 163        1.0728
 164        1.0728
 165        1.0735
 166        1.0735
 167        1.0804
 168        1.4247
 169        1.6998
 170        1.6998
 171        1.7225
 172        1.7225
 173        1.7225
 174        1.7225
 175        2.1545
 176        2.1545
 177        2.3414
 178        2.3414
 179        2.6385
 180        2.6385
 181        2.6385
 182        2.6385
 183        3.2323
 184        3.8520
 185        3.8520
 186        4.3818
 187        5.5323
 188        5.5323
 189        6.1343
 190        6.1343
 191        6.6304
 192        6.6304
 193        7.3574
 194        7.3574
 195        7.3673
 196        7.3673
 197        7.5682
 198        7.5682
 199        8.2295
 200        8.2295
 201        8.5854
 202        9.0853
 203        9.0853
 204        9.1372
 205        9.1372
 206        9.5627
 207        9.5627
 208        9.5627
 209        9.5627
 210        9.5862
 211        9.5862
 212        9.7171
 213       10.2782
 214       10.2782
 215       10.6049
 216       10.6049
 
  0.2857143E+00  0.1428571E+00  0.0000000E+00  0.6997085E-01
   1       -5.3951
   2       -4.2802
   3       -3.5866
   4       -2.9531
   5       -2.9531
   6       -2.6490
   7       -2.4091
   8       -2.1348
   9       -2.1348
  10       -2.0291
  11       -1.7971
  12       -1.7971
  13       -1.7938
  14       -1.7938
  15       -1.6833
  16       -1.6152
  17       -1.6152
  18       -1.5150
  19       -1.4323
  20       -1.4103
  21       -1.3103
  22       -1.3103
  23       -1.1050
  24       -1.1019
  25       -1.1016
  26       -1.1010
  27       -1.0551
  28       -1.0472
  29       -1.0090
  30       -1.0090
  31       -0.9110
  32       -0.8894
  33       -0.8888
  34       -0.8640
  35       -0.8344
  36       -0.8344
  37       -0.8164
  38       -0.8091
  39       -0.7309
  40       -0.6955
  41       -0.6368
  42       -0.6114
  43       -0.6114
  44       -0.6062
  45       -0.6062
  46       -0.5844
  47       -0.5796
  48       -0.5499
  49       -0.5080
  50       -0.5059
  51       -0.5059
  52       -0.4946
  53       -0.4946
  54       -0.4736
  55       -0.4401
  56       -0.4113
  57       -0.4113
  58       -0.4053
  59       -0.3767
  60       -0.3767
  61       -0.3510
  62       -0.3510
  63       -0.3480
  64       -0.3379
  65       -0.3129
  66       -0.3129
  67       -0.2725
  68       -0.2568
  69       -0.2253
  70       -0.2253
  71       -0.2022
  72       -0.2022
  73       -0.1895
  74       -0.1895
  75       -0.1738
  76       -0.1738
  77       -0.1536
  78       -0.1276
  79       -0.1276
  80       -0.0897
  81       -0.0613
  82       -0.0613
  83       -0.0465
  84       -0.0406
  85       -0.0347
  86       -0.0347
  87       -0.0302
  88       -0.0056
  89        0.0283
  90        0.0283
  91        0.0564
  92        0.0738
  93        0.1454
  94        0.1580
  95        0.1580
  96        0.1829
  97        0.2108
  98        0.2108
  99        0.2833
 100        0.2833
 101        0.2973
 102        0.3134
 103        0.3264
 104        0.3538
 105        0.3549
 106        0.3549
 107        0.3695
 108        0.3695
 109        0.3776
 110        0.4130
 111        0.4144
 112        0.4524
 113        0.4593
 114        0.4898
 115        0.4898
 116        0.4978
 117        0.5093
 118        0.5093
 119        0.5390
 120        0.5440
 121        0.5440
 122        0.5474
 123        0.5474
 124        0.5541
 125        0.5618
 126        0.5622
 127        0.5676
 128        0.6113
 129        0.6113
 130        0.6292
 131        0.6410
 132        0.6468
 133        0.6578
 134        0.6578
 135        0.6701
 136        0.6888
 137        0.6995
 138        0.7471
 139        0.7511
 140        0.7511
 141        0.7528
 142        0.7528
 143        0.7648
 144        0.7738
 145        0.7745
 146        0.7936
 147        0.8415
 148        0.8415
 149        0.8886
 150        0.8949
 151        0.9173
 152        0.9384
 153        0.9384
 154        0.9407
 155        0.9591
 156        0.9591
 157        0.9731
 158        0.9739
 159        1.0039
 160        1.0039
 161        1.0130
 162        1.0137
 163        1.0169
 164        1.0719
 165        1.0731
 166        1.0735
 167        1.0737
 168        1.1957
 169        1.4249
 170        1.4249
 171        1.6131
 172        1.6131
 173        1.7036
 174        1.7036
 175        1.7750
 176        2.5849
 177        2.5849
 178        2.6600
 179        2.6600
 180        2.7474
 181        2.9879
 182        3.3256
 183        3.3256
 184        3.9775
 185        4.1902
 186        4.7232
 187        5.5346
 188        5.7700
 189        5.7700
 190        5.9142
 191        6.2846
 192        6.2846
 193        6.5655
 194        6.8169
 195        6.8169
 196        7.0278
 197        7.5831
 198        7.6840
 199        7.6840
 200        8.3616
 201        8.3616
 202        8.6602
 203        8.9448
 204        8.9448
 205        9.0262
 206        9.1159
 207        9.1780
 208        9.2436
 209        9.3436
 210        9.7011
 211        9.8262
 212        9.8262
 213        9.8915
 214       10.1123
 215       10.3114
 216       10.5413
 
  0.4285714E+00  0.1428571E+00  0.0000000E+00  0.6997085E-01
   1       -5.1234
   2       -4.7491
   3       -3.3509
   4       -3.0331
   5       -2.7405
   6       -2.7405
   7       -2.4605
   8       -2.4605
   9       -2.2151
  10       -1.9646
  11       -1.8003
  12       -1.8003
  13       -1.7998
  14       -1.7998
  15       -1.7117
  16       -1.5657
  17       -1.5247
  18       -1.5247
  19       -1.4201
  20       -1.4201
  21       -1.3238
  22       -1.3062
  23       -1.1908
  24       -1.1785
  25       -1.0439
  26       -1.0337
  27       -1.0332
  28       -0.9624
  29       -0.9384
  30       -0.9359
  31       -0.9138
  32       -0.8748
  33       -0.8521
  34       -0.8521
  35       -0.8104
  36       -0.8101
  37       -0.7723
  38       -0.7723
  39       -0.7353
  40       -0.6940
  41       -0.6900
  42       -0.6839
  43       -0.6839
  44       -0.6443
  45       -0.6229
  46       -0.6229
  47       -0.6129
  48       -0.5828
  49       -0.5812
  50       -0.5812
  51       -0.5411
  52       -0.5411
  53       -0.4938
  54       -0.4929
  55       -0.4806
  56       -0.4438
  57       -0.3929
  58       -0.3929
  59       -0.3809
  60       -0.3809
  61       -0.3033
  62       -0.2992
  63       -0.2989
  64       -0.2989
  65       -0.2729
  66       -0.2420
  67       -0.2420
  68       -0.2177
  69       -0.1873
  70       -0.1750
  71       -0.1750
  72       -0.1479
  73       -0.1479
  74       -0.1212
  75       -0.1212
  76       -0.0915
  77       -0.0915
  78       -0.0767
  79       -0.0534
  80       -0.0534
  81       -0.0466
  82       -0.0110
  83       -0.0110
  84       -0.0096
  85       -0.0096
  86        0.0052
  87        0.0092
  88        0.0110
  89        0.0307
  90        0.0307
  91        0.0703
  92        0.0703
  93        0.0786
  94        0.0864
  95        0.1188
  96        0.1188
  97        0.2138
  98        0.2138
  99        0.2361
 100        0.2395
 101        0.2395
 102        0.2568
 103        0.3035
 104        0.3139
 105        0.3139
 106        0.3202
 107        0.3360
 108        0.3360
 109        0.3663
 110        0.3773
 111        0.4102
 112        0.4356
 113        0.4356
 114        0.4430
 115        0.4711
 116        0.4831
 117        0.4831
 118        0.5131
 119        0.5137
 120        0.5204
 121        0.5253
 122        0.5338
 123        0.5533
 124        0.5545
 125        0.5580
 126        0.5687
 127        0.5687
 128        0.5892
 129        0.6036
 130        0.6036
 131        0.6047
 132        0.6155
 133        0.6259
 134        0.7275
 135        0.7427
 136        0.7650
 137        0.7650
 138        0.7841
 139        0.8156
 140        0.8164
 141        0.8211
 142        0.8353
 143        0.8376
 144        0.8376
 145        0.8391
 146        0.8438
 147        0.8438
 148        0.8611
 149        0.8611
 150        0.8656
 151        0.8889
 152        0.9097
 153        0.9097
 154        0.9243
 155        0.9287
 156        0.9288
 157        0.9302
 158        0.9302
 159        0.9369
 160        0.9886
 161        0.9886
 162        1.0124
 163        1.0717
 164        1.0720
 165        1.0733
 166        1.0734
 167        1.1861
 168        1.1861
 169        1.1962
 170        1.3347
 171        1.4623
 172        1.6343
 173        1.6343
 174        1.6726
 175        1.6726
 176        2.0748
 177        2.6783
 178        2.6783
 179        2.6832
 180        2.6832
 181        3.5241
 182        4.1764
 183        4.1764
 184        4.4670
 185        4.6747
 186        4.8672
 187        5.1732
 188        5.1732
 189        5.2274
 190        5.2580
 191        5.8504
 192        5.8906
 193        6.3842
 194        6.3842
 195        7.2782
 196        7.2782
 197        7.6788
 198        7.6788
 199        7.9462
 200        7.9960
 201        7.9960
 202        8.4201
 203        8.4201
 204        8.4319
 205        8.6892
 206        8.6892
 207        8.7898
 208        8.9811
 209        9.3381
 210        9.5732
 211        9.6789
 212        9.8955
 213       10.0651
 214       10.1328
 215       10.1738
 216       10.9350
 
  0.2857143E+00  0.2857143E+00  0.0000000E+00  0.3498542E-01
   1       -5.2319
   2       -4.1284
   3       -4.1284
   4       -3.1232
   5       -2.8292
   6       -2.8292
   7       -2.0882
   8       -2.0882
   9       -2.0882
  10       -2.0882
  11       -1.9215
  12       -1.9215
  13       -1.8722
  14       -1.8722
  15       -1.5084
  16       -1.5084
  17       -1.4404
  18       -1.4404
  19       -1.3471
  20       -1.3094
  21       -1.3094
  22       -1.1258
  23       -1.1258
  24       -1.1258
  25       -1.1258
  26       -1.0658
  27       -1.0658
  28       -1.0639
  29       -1.0335
  30       -1.0335