 vasp.4.6.28 25Jul05 complex 
 executed on             LinuxIFC date 2016.01.16  21:07:28
 running on    8 nodes
 distr:  one band on    1 nodes,    8 groups


--------------------------------------------------------------------------------------------------------


 INCAR:
 POTCAR:   PAW_PBE Cu 05Jan2001                   
 POTCAR:   PAW_PBE Cu 05Jan2001                   
   VRHFIN =Cu: d10 p1                                                           
   LEXCH  = PE                                                                  
   EATOM  =  1390.9800 eV,  102.2341 Ry                                         
                                                                                
   TITEL  = PAW_PBE Cu 05Jan2001                                                
   LULTRA =        F    use ultrasoft PP ?                                      
   IUNSCR =        1    unscreen: 0-lin 1-nonlin 2-no                           
   RPACOR =    2.000    partial core radius                                     
   POMASS =   63.546; ZVAL   =   11.000    mass and valenz                      
   RCORE  =    2.300    outmost cutoff radius                                   
   RWIGS  =    2.480; RWIGS  =    1.312    wigner-seitz radius (au A)           
   ENMAX  =  273.214; ENMIN  =  204.910 eV                                      
   RCLOC  =    1.712    cutoff for local pot                                    
   LCOR   =        T    correct aug charges                                     
   LPAW   =        T    paw PP                                                  
   EAUG   =  516.456                                                            
   DEXC   =    -.008                                                            
   RMAX   =    2.789    core radius for proj-oper                               
   RAUG   =    1.300    factor for augmentation sphere                          
   RDEP   =    2.302    radius for radial grids                                 
   QCUT   =   -4.481; QGAM   =    8.962    optimization parameters              
                                                                                
   Description                                                                  
     l     E      TYP  RCUT    TYP  RCUT                                        
     2   .000     23  2.300                                                     
     2   .000     23  2.300                                                     
     0   .000     23  2.300                                                     
     0   .000     23  2.300                                                     
     1  -.200     23  2.300                                                     
     1   .000     23  2.300                                                     
     3   .000      7   .000                                                     
  local pseudopotential read in
  partial core-charges read in
  atomic valenz-charges read in
  non local Contribution for L=           2  read in
    real space projection operators read in
  non local Contribution for L=           2  read in
    real space projection operators read in
  non local Contribution for L=           0  read in
    real space projection operators read in
  non local Contribution for L=           0  read in
    real space projection operators read in
  non local Contribution for L=           1  read in
    real space projection operators read in
  non local Contribution for L=           1  read in
    real space projection operators read in
    PAW grid and wavefunctions read in
 
   number of l-projection  operators is LMAX  =           6
   number of lm-projection operators is LMMAX =          18
 

 ----------------------------------------------------------------------------- 
|                                                                             |
|  ADVICE TO THIS USER RUNNING 'VASP/VAMP'   (HEAR YOUR MASTER'S VOICE ...):  |
|                                                                             |
|      You have a (more or less) 'large supercell' and for larger cells       |
|      it might be more efficient to use real space projection operators      |
|      So try LREAL= Auto  in the INCAR   file.                               |
|      Mind: If you want to do an extremely accurate calculations keep the    |
|      reciprocal projection scheme          (i.e. LREAL=.FALSE.)             |
|                                                                             |
 ----------------------------------------------------------------------------- 

 PAW_PBE Cu 05Jan2001                   :
 energy of atom  1       EATOM=-1390.9800
 kinetic energy error for atom=    0.0032 (will be added to EATOM!!)
 
 EXHCAR: internal setup
 exchange correlation table for  LEXCH =        8
   RHO(1)=    0.500       N(1)  =     2000
   RHO(2)=  100.500       N(2)  =     4000
 
 POSCAR: Cu                                      
  positions in direct lattice
  No initial velocities read in
 


--------------------------------------------------------------------------------------------------------


 ion  position               nearest neighbor table
   1  0.000  0.000  0.000-   9 2.70  10 2.70  11 2.70  12 2.70  17 2.70  18 2.70  21 2.70  22 2.70
                            25 2.70  27 2.70  29 2.70  31 2.70
   2  0.500  0.000  0.000-   9 2.70  10 2.70  11 2.70  12 2.70  17 2.70  18 2.70  21 2.70  22 2.70
                            26 2.70  28 2.70  30 2.70  32 2.70
   3  0.000  0.500  0.000-   9 2.70  10 2.70  11 2.70  12 2.70  19 2.70  20 2.70  23 2.70  24 2.70
                            25 2.70  27 2.70  29 2.70  31 2.70
   4  0.500  0.500  0.000-   9 2.70  10 2.70  11 2.70  12 2.70  19 2.70  20 2.70  23 2.70  24 2.70
                            26 2.70  28 2.70  30 2.70  32 2.70
   5  0.000  0.000  0.500-  13 2.70  14 2.70  15 2.70  16 2.70  17 2.70  18 2.70  21 2.70  22 2.70
                            25 2.70  27 2.70  29 2.70  31 2.70
   6  0.500  0.000  0.500-  13 2.70  14 2.70  15 2.70  16 2.70  17 2.70  18 2.70  21 2.70  22 2.70
                            26 2.70  28 2.70  30 2.70  32 2.70
   7  0.000  0.500  0.500-  13 2.70  14 2.70  15 2.70  16 2.70  19 2.70  20 2.70  23 2.70  24 2.70
                            25 2.70  27 2.70  29 2.70  31 2.70
   8  0.500  0.500  0.500-  13 2.70  14 2.70  15 2.70  16 2.70  19 2.70  20 2.70  23 2.70  24 2.70
                            26 2.70  28 2.70  30 2.70  32 2.70
   9  0.250  0.250  0.000-   1 2.70   2 2.70   3 2.70   4 2.70  17 2.70  19 2.70  21 2.70  23 2.70
                            25 2.70  26 2.70  29 2.70  30 2.70
  10  0.750  0.250  0.000-   1 2.70   2 2.70   3 2.70   4 2.70  18 2.70  20 2.70  22 2.70  24 2.70
                            25 2.70  26 2.70  29 2.70  30 2.70
  11  0.250  0.750  0.000-   1 2.70   2 2.70   3 2.70   4 2.70  17 2.70  19 2.70  21 2.70  23 2.70
                            27 2.70  28 2.70  31 2.70  32 2.70
  12  0.750  0.750  0.000-   1 2.70   2 2.70   3 2.70   4 2.70  18 2.70  20 2.70  22 2.70  24 2.70
                            27 2.70  28 2.70  31 2.70  32 2.70
  13  0.250  0.250  0.500-   5 2.70   6 2.70   7 2.70   8 2.70  17 2.70  19 2.70  21 2.70  23 2.70
                            25 2.70  26 2.70  29 2.70  30 2.70
  14  0.750  0.250  0.500-   5 2.70   6 2.70   7 2.70   8 2.70  18 2.70  20 2.70  22 2.70  24 2.70
                            25 2.70  26 2.70  29 2.70  30 2.70
  15  0.250  0.750  0.500-   5 2.70   6 2.70   7 2.70   8 2.70  17 2.70  19 2.70  21 2.70  23 2.70
                            27 2.70  28 2.70  31 2.70  32 2.70
  16  0.750  0.750  0.500-   5 2.70   6 2.70   7 2.70   8 2.70  18 2.70  20 2.70  22 2.70  24 2.70
                            27 2.70  28 2.70  31 2.70  32 2.70
  17  0.250  0.000  0.250-   1 2.70   2 2.70   5 2.70   6 2.70   9 2.70  11 2.70  13 2.70  15 2.70
                            25 2.70  26 2.70  27 2.70  28 2.70
  18  0.750  0.000  0.250-   1 2.70   2 2.70   5 2.70   6 2.70  10 2.70  12 2.70  14 2.70  16 2.70
                            25 2.70  26 2.70  27 2.70  28 2.70
  19  0.250  0.500  0.250-   3 2.70   4 2.70   7 2.70   8 2.70   9 2.70  11 2.70  13 2.70  15 2.70
                            25 2.70  26 2.70  27 2.70  28 2.70
  20  0.750  0.500  0.250-   3 2.70   4 2.70   7 2.70   8 2.70  10 2.70  12 2.70  14 2.70  16 2.70
                            25 2.70  26 2.70  27 2.70  28 2.70
  21  0.250  0.000  0.750-   1 2.70   2 2.70   5 2.70   6 2.70   9 2.70  11 2.70  13 2.70  15 2.70
                            29 2.70  30 2.70  31 2.70  32 2.70
  22  0.750  0.000  0.750-   1 2.70   2 2.70   5 2.70   6 2.70  10 2.70  12 2.70  14 2.70  16 2.70
                            29 2.70  30 2.70  31 2.70  32 2.70
  23  0.250  0.500  0.750-   3 2.70   4 2.70   7 2.70   8 2.70   9 2.70  11 2.70  13 2.70  15 2.70
                            29 2.70  30 2.70  31 2.70  32 2.70
  24  0.750  0.500  0.750-   3 2.70   4 2.70   7 2.70   8 2.70  10 2.70  12 2.70  14 2.70  16 2.70
                            29 2.70  30 2.70  31 2.70  32 2.70
  25  0.000  0.250  0.250-   1 2.70   3 2.70   5 2.70   7 2.70   9 2.70  10 2.70  13 2.70  14 2.70
                            17 2.70  18 2.70  19 2.70  20 2.70
  26  0.500  0.250  0.250-   2 2.70   4 2.70   6 2.70   8 2.70   9 2.70  10 2.70  13 2.70  14 2.70
                            17 2.70  18 2.70  19 2.70  20 2.70
  27  0.000  0.750  0.250-   1 2.70   3 2.70   5 2.70   7 2.70  11 2.70  12 2.70  15 2.70  16 2.70
                            17 2.70  18 2.70  19 2.70  20 2.70
  28  0.500  0.750  0.250-   2 2.70   4 2.70   6 2.70   8 2.70  11 2.70  12 2.70  15 2.70  16 2.70
                            17 2.70  18 2.70  19 2.70  20 2.70
  29  0.000  0.250  0.750-   1 2.70   3 2.70   5 2.70   7 2.70   9 2.70  10 2.70  13 2.70  14 2.70
                            21 2.70  22 2.70  23 2.70  24 2.70
  30  0.500  0.250  0.750-   2 2.70   4 2.70   6 2.70   8 2.70   9 2.70  10 2.70  13 2.70  14 2.70
                            21 2.70  22 2.70  23 2.70  24 2.70
  31  0.000  0.750  0.750-   1 2.70   3 2.70   5 2.70   7 2.70  11 2.70  12 2.70  15 2.70  16 2.70
                            21 2.70  22 2.70  23 2.70  24 2.70
  32  0.500  0.750  0.750-   2 2.70   4 2.70   6 2.70   8 2.70  11 2.70  12 2.70  15 2.70  16 2.70
                            21 2.70  22 2.70  23 2.70  24 2.70
 
  LATTYP: Found a simple cubic cell.
 ALAT       =     7.6364732046
  
  Lattice vectors:
  
 A1 = (   7.6364732046,   0.0000000000,   0.0000000000)
 A2 = (   0.0000000000,   7.6364732046,   0.0000000000)
 A3 = (   0.0000000000,   0.0000000000,   7.6364732046)
 Subroutine PRICEL returns following result:
 
  LATTYP: Found a face centered cubic cell.
 ALAT       =     3.8182366023
  
  Lattice vectors:
  
 A1 = (   1.9091183012,   1.9091183012,  -0.0000000000)
 A2 = (   1.9091183012,   0.0000000000,  -1.9091183012)
 A3 = (   0.0000000000,   1.9091183012,  -1.9091183012)
 
  32 primitive cells build up your supercell.
 

Analysis of symmetry for initial positions (statically):

 Routine SETGRP: Setting up the symmetry group for a 
 simple cubic supercell.


 Subroutine GETGRP returns: Found 48 space group operations
 (whereof 48 operations were pure point group operations)
 out of a pool of 48 trial point group operations.


The static configuration has the point symmetry O_h .

Analysis of symmetry for dynamics (positions and initial velocities):

 Subroutine DYNSYM returns: Found 48 space group operations
 (whereof 48 operations were pure point group operations)
 out of a pool of 48 trial space group operations
 (whereof 48 operations were pure point group operations)
 and found also    32 'primitive' translations


The dynamic configuration has the point symmetry O_h .
 
 
 KPOINTS: Automatic mesh                          

Automatic generation of k-mesh.
 generate k-points for:   7   7   7
 
 Subroutine IBZKPT returns following result:
 ===========================================
 
 Found     20 irreducible k-points:
 
 Following reciprocal coordinates:
            Coordinates               Weight
  0.000000  0.000000  0.000000      1.000000
  0.142857  0.000000  0.000000      6.000000
  0.285714  0.000000  0.000000      6.000000
  0.428571  0.000000  0.000000      6.000000
  0.142857  0.142857  0.000000     12.000000
  0.285714  0.142857  0.000000     24.000000
  0.428571  0.142857  0.000000     24.000000
  0.285714  0.285714  0.000000     12.000000
  0.428571  0.285714  0.000000     24.000000
  0.428571  0.428571  0.000000     12.000000
  0.142857  0.142857  0.142857      8.000000
  0.285714  0.142857  0.142857     24.000000
  0.428571  0.142857  0.142857     24.000000
  0.285714  0.285714  0.142857     24.000000
  0.428571  0.285714  0.142857     48.000000
  0.428571  0.428571  0.142857     24.000000
  0.285714  0.285714  0.285714      8.000000
  0.428571  0.285714  0.285714     24.000000
  0.428571  0.428571  0.285714     24.000000
  0.428571  0.428571  0.428571      8.000000
 
 Following cartesian coordinates:
            Coordinates               Weight
  0.000000  0.000000  0.000000      1.000000
  0.018707  0.000000  0.000000      6.000000
  0.037414  0.000000  0.000000      6.000000
  0.056122  0.000000  0.000000      6.000000
  0.018707  0.018707  0.000000     12.000000
  0.037414  0.018707  0.000000     24.000000
  0.056122  0.018707  0.000000     24.000000
  0.037414  0.037414  0.000000     12.000000
  0.056122  0.037414  0.000000     24.000000
  0.056122  0.056122  0.000000     12.000000
  0.018707  0.018707  0.018707      8.000000
  0.037414  0.018707  0.018707     24.000000
  0.056122  0.018707  0.018707     24.000000
  0.037414  0.037414  0.018707     24.000000
  0.056122  0.037414  0.018707     48.000000
  0.056122  0.056122  0.018707     24.000000
  0.037414  0.037414  0.037414      8.000000
  0.056122  0.037414  0.037414     24.000000
  0.056122  0.056122  0.037414     24.000000
  0.056122  0.056122  0.056122      8.000000
 


--------------------------------------------------------------------------------------------------------




 Dimension of arrays:
   k-Points           NKPTS =     20   number of bands    NBANDS=    216
   number of dos      NEDOS =    301   number of ions     NIONS =     32
   non local maximal  LDIM  =      6   non local SUM 2l+1 LMDIM =     18
   total plane-waves  NPLWV = 175616
   max r-space proj   IRMAX =      1   max aug-charges    IRDMAX= 110911
   dimension x,y,z NGX =    56 NGY =   56 NGZ =   56
   dimension x,y,z NGXF=   112 NGYF=  112 NGZF=  112
   support grid    NGXF=   224 NGYF=  224 NGZF=  224
   ions per type =              32
 NGX,Y,Z   is equivalent  to a cutoff of  12.19, 12.19, 12.19 a.u.
 NGXF,Y,Z  is equivalent  to a cutoff of  24.38, 24.38, 24.38 a.u.


 I would recommend the setting:
   dimension x,y,z NGX =    56 NGY =   56 NGZ =   56
 SYSTEM =  unknown system                          
 POSCAR =  Cu                                      

 Startparameter for this run:
   NWRITE =      2    write-flag & timer
   PREC   = accura    medium, high low
   ISTART =      0    job   : 0-new  1-cont  2-samecut
   ICHARG =      2    charge: 1-file 2-atom 10-const
   ISPIN  =      1    spin polarized calculation?
   LNONCOLLINEAR =      F non collinear calculations
   LSORBIT =      F    spin-orbit coupling
   INIWAV =      1    electr: 0-lowe 1-rand  2-diag
   LASPH  =      F    aspherical Exc in radial PAW
   METAGGA=      F    non-selfconsistent MetaGGA calc.

 Electronic Relaxation 1
   ENCUT  =  500.0 eV  36.75 Ry    6.06 a.u.  13.92 13.92 13.92*2*pi/ulx,y,z
   ENINI  =  500.0     initial cutoff
   ENAUG  =  516.5 eV  augmentation charge cutoff
   NELM   =     60;   NELMIN=  2; NELMDL=  0     # of ELM steps 
   EDIFF  = 0.1E-07   stopping-criterion for ELM
   LREAL  =      F    real-space projection
   LCOMPAT=      F    compatible to vasp.4.4
   LREAL_COMPAT= F    compatible to vasp.4.5.1-3
   GGA_COMPAT  = T    GGA compatible to vasp.4.4-vasp.4.6
   LMAXPAW     = -100 max onsite density
   LMAXMIX     =    2 max onsite mixed and CHGCAR
   VOSKOWN=      0    Vosko Wilk Nusair interpolation
   ROPT   =    0.00000
 Ionic relaxation
   EDIFFG = 0.1E-06   stopping-criterion for IOM
   NSW    =      0    number of steps for IOM
   NBLOCK =      1;   KBLOCK =      1    inner block; outer block 
   IBRION =     -1    ionic relax: 0-MD 1-quasi-New 2-CG
   NFREE  =      0    steps in history (QN), initial steepest desc. (CG)
   ISIF   =      2    stress and relaxation
   IWAVPR =     10    prediction:  0-non 1-charg 2-wave 3-comb
   ISYM   =      2    0-nonsym 1-usesym 2-fastsym
   LCORR  =      T    Harris-Foulkes like correction to forces

   POTIM  =   0.50    time-step for ionic-motion
   TEIN   =    0.0    initial temperature
   TEBEG  =    0.0;   TEEND  =   0.0 temperature during run
   SMASS  =  -3.00    Nose mass-parameter (am)
   estimated Nose-frequenzy (Omega)   =  0.10E-29 period in steps =****** mass=  -0.133E-26a.u.
   NPACO  =    256;   APACO  = 16.0  distance and # of slots for P.C.
   PSTRESS=    0.0 pullay stress

  Mass of Ions in am
   POMASS =  63.55
  Ionic Valenz
   ZVAL   =  11.00
  Atomic Wigner-Seitz radii
   RWIGS  =  -1.00
   NELECT =     352.0000    total number of electrons
   NUPDOWN=      -1.0000    fix difference up-down

 DOS related values:
   EMIN   =  10.00;   EMAX   =-10.00  energy-range for DOS
   ISMEAR =     0;   SIGMA  =   0.01  broadening in eV -4-tet -1-fermi 0-gaus

 Electronic relaxation 2 (details)
   IALGO  =     38    algorithm
   LDIAG  =      T    sub-space diagonalisation
   IMIX   =      4    mixing-type and parameters
     AMIX     =   0.40;   BMIX     =  1.00
     AMIX_MAG =   1.60;   BMIX_MAG =  1.00
     AMIN     =   0.10
     WC   =   100.;   INIMIX=   1;  MIXPRE=   1

 Intra band minimization:
   WEIMIN = 0.0000     energy-eigenvalue tresh-hold
   EBREAK =  0.12E-10  absolut break condition
   DEPER  =   0.30     relativ break condition  

   TIME   =   0.10     timestep for ELM

  volume/ion in A,a.u.               =      13.92        93.91
  Fermi-wavevector in a.u.,eV,Ry     =   1.513664 31.173389  2.291179

 Second variation
   LSECVAR=     F    do a second variation
 
 Write flags
   LWAVE  =      F    write WAVECAR
   LCHARG =      F    write CHGCAR
   LVTOT  =      F    write LOCPOT, local potential
   LELF   =      F    write electronic localiz. function (ELF)
   LORBIT =      0    0 simple, 1 ext, 2 COOP (PROOUT)


 Dipole corrections
   IDIPOL =      0    1-x, 2-y, 3-z
   LDIPOL =      F    correct potential



--------------------------------------------------------------------------------------------------------


 Static calculation
 charge density will be updated during run
 non-spin polarized calculation
 Variant of blocked Davidson
 Davidson routine will perform the subspace rotation
 performe sub-space diagonalisation
    after iterative eigenvector-optimisation
 modified Broyden-mixing scheme, WC =      100.0
 initial mixing is a Kerker type mixing with AMIX =  0.4000 and BMIX =      1.0000
 Hartree-type preconditioning will be used
 using additional bands           40
 reciprocal scheme for non local part
 use partial core corrections
 calculate Harris-corrections to forces 
   (improved forces if not selfconsistent)
 use gradient corrections 
 use of overlap-Matrix (Vanderbilt PP)
 Gauss-broadening in eV      SIGMA  =   0.01


--------------------------------------------------------------------------------------------------------


  energy-cutoff  :      500.00
  volume of cell :      445.33
      direct lattice vectors                 reciprocal lattice vectors
     7.636473205  0.000000000  0.000000000     0.130950502  0.000000000  0.000000000
     0.000000000  7.636473205  0.000000000     0.000000000  0.130950502  0.000000000
     0.000000000  0.000000000  7.636473205     0.000000000  0.000000000  0.130950502

  length of vectors
     7.636473205  7.636473205  7.636473205     0.130950502  0.130950502  0.130950502


 
 k-points in units of 2pi/SCALE and weight: Automatic mesh                          
   0.00000000  0.00000000  0.00000000       0.003
   0.01870721  0.00000000  0.00000000       0.017
   0.03741443  0.00000000  0.00000000       0.017
   0.05612164  0.00000000  0.00000000       0.017
   0.01870721  0.01870721  0.00000000       0.035
   0.03741443  0.01870721  0.00000000       0.070
   0.05612164  0.01870721  0.00000000       0.070
   0.03741443  0.03741443  0.00000000       0.035
   0.05612164  0.03741443  0.00000000       0.070
   0.05612164  0.05612164  0.00000000       0.035
   0.01870721  0.01870721  0.01870721       0.023
   0.03741443  0.01870721  0.01870721       0.070
   0.05612164  0.01870721  0.01870721       0.070
   0.03741443  0.03741443  0.01870721       0.070
   0.05612164  0.03741443  0.01870721       0.140
   0.05612164  0.05612164  0.01870721       0.070
   0.03741443  0.03741443  0.03741443       0.023
   0.05612164  0.03741443  0.03741443       0.070
   0.05612164  0.05612164  0.03741443       0.070
   0.05612164  0.05612164  0.05612164       0.023
 
 k-points in reciprocal lattice and weights: Automatic mesh                          
   0.00000000  0.00000000  0.00000000       0.003
   0.14285714  0.00000000  0.00000000       0.017
   0.28571429  0.00000000  0.00000000       0.017
   0.42857143  0.00000000  0.00000000       0.017
   0.14285714  0.14285714  0.00000000       0.035
   0.28571429  0.14285714  0.00000000       0.070
   0.42857143  0.14285714  0.00000000       0.070
   0.28571429  0.28571429  0.00000000       0.035
   0.42857143  0.28571429  0.00000000       0.070
   0.42857143  0.42857143  0.00000000       0.035
   0.14285714  0.14285714  0.14285714       0.023
   0.28571429  0.14285714  0.14285714       0.070
   0.42857143  0.14285714  0.14285714       0.070
   0.28571429  0.28571429  0.14285714       0.070
   0.42857143  0.28571429  0.14285714       0.140
   0.42857143  0.42857143  0.14285714       0.070
   0.28571429  0.28571429  0.28571429       0.023
   0.42857143  0.28571429  0.28571429       0.070
   0.42857143  0.42857143  0.28571429       0.070
   0.42857143  0.42857143  0.42857143       0.023
 
 position of ions in fractional coordinates (direct lattice) 
   0.00000000  0.00000000  0.00000000
   0.50000000  0.00000000  0.00000000
   0.00000000  0.50000000  0.00000000
   0.50000000  0.50000000  0.00000000
   0.00000000  0.00000000  0.50000000
   0.50000000  0.00000000  0.50000000
   0.00000000  0.50000000  0.50000000
   0.50000000  0.50000000  0.50000000
   0.25000000  0.25000000  0.00000000
   0.75000000  0.25000000  0.00000000
   0.25000000  0.75000000  0.00000000
   0.75000000  0.75000000  0.00000000
   0.25000000  0.25000000  0.50000000
   0.75000000  0.25000000  0.50000000
   0.25000000  0.75000000  0.50000000
   0.75000000  0.75000000  0.50000000
   0.25000000  0.00000000  0.25000000
   0.75000000  0.00000000  0.25000000
   0.25000000  0.50000000  0.25000000
   0.75000000  0.50000000  0.25000000
   0.25000000  0.00000000  0.75000000
   0.75000000  0.00000000  0.75000000
   0.25000000  0.50000000  0.75000000
   0.75000000  0.50000000  0.75000000
   0.00000000  0.25000000  0.25000000
   0.50000000  0.25000000  0.25000000
   0.00000000  0.75000000  0.25000000
   0.50000000  0.75000000  0.25000000
   0.00000000  0.25000000  0.75000000
   0.50000000  0.25000000  0.75000000
   0.00000000  0.75000000  0.75000000
   0.50000000  0.75000000  0.75000000
 
 position of ions in cartesian coordinates  (Angst):
   0.00000000  0.00000000  0.00000000
   3.81823660  0.00000000  0.00000000
   0.00000000  3.81823660  0.00000000
   3.81823660  3.81823660  0.00000000
   0.00000000  0.00000000  3.81823660
   3.81823660  0.00000000  3.81823660
   0.00000000  3.81823660  3.81823660
   3.81823660  3.81823660  3.81823660
   1.90911830  1.90911830  0.00000000
   5.72735490  1.90911830  0.00000000
   1.90911830  5.72735490  0.00000000
   5.72735490  5.72735490  0.00000000
   1.90911830  1.90911830  3.81823660
   5.72735490  1.90911830  3.81823660
   1.90911830  5.72735490  3.81823660
   5.72735490  5.72735490  3.81823660
   1.90911830  0.00000000  1.90911830
   5.72735490  0.00000000  1.90911830
   1.90911830  3.81823660  1.90911830
   5.72735490  3.81823660  1.90911830
   1.90911830  0.00000000  5.72735490
   5.72735490  0.00000000  5.72735490
   1.90911830  3.81823660  5.72735490
   5.72735490  3.81823660  5.72735490
   0.00000000  1.90911830  1.90911830
   3.81823660  1.90911830  1.90911830
   0.00000000  5.72735490  1.90911830
   3.81823660  5.72735490  1.90911830
   0.00000000  1.90911830  5.72735490
   3.81823660  1.90911830  5.72735490
   0.00000000  5.72735490  5.72735490
   3.81823660  5.72735490  5.72735490
 


--------------------------------------------------------------------------------------------------------


 k-point  1 :  0.00000.00000.0000  plane waves:  11123
 k-point  2 :  0.14290.00000.0000  plane waves:  11276
 k-point  3 :  0.28570.00000.0000  plane waves:  11304
 k-point  4 :  0.42860.00000.0000  plane waves:  11316
 k-point  5 :  0.14290.14290.0000  plane waves:  11301
 k-point  6 :  0.28570.14290.0000  plane waves:  11311
 k-point  7 :  0.42860.14290.0000  plane waves:  11297
 k-point  8 :  0.28570.28570.0000  plane waves:  11292
 k-point  9 :  0.42860.28570.0000  plane waves:  11311
 k-point 10 :  0.42860.42860.0000  plane waves:  11308
 k-point 11 :  0.14290.14290.1429  plane waves:  11296
 k-point 12 :  0.28570.14290.1429  plane waves:  11316
 k-point 13 :  0.42860.14290.1429  plane waves:  11312
 k-point 14 :  0.28570.28570.1429  plane waves:  11304
 k-point 15 :  0.42860.28570.1429  plane waves:  11286
 k-point 16 :  0.42860.42860.1429  plane waves:  11315
 k-point 17 :  0.28570.28570.2857  plane waves:  11320
 k-point 18 :  0.42860.28570.2857  plane waves:  11306
 k-point 19 :  0.42860.42860.2857  plane waves:  11326
 k-point 20 :  0.42860.42860.4286  plane waves:  11353

 maximum and minimum number of plane-waves per node :  11353 11123

 maximum number of plane-waves:  11353
 maximal index in each direction: 
   IXMAX= 13   IYMAX= 13   IZMAX= 13
   IXMIN=-14   IYMIN=-14   IZMIN=-14

 NGX is ok and might be reduce to  56
 NGY is ok and might be reduce to  56
 NGZ is ok and might be reduce to  56

 parallel 3dFFT wavefunction:
    minimum data exchange during FFTs selected (reduces bandwidth)
 parallel 3dFFT charge:
    minimum data exchange during FFTs selected (reduces bandwidth)

 For storing wavefunctions  780.96 MBYTES are necessary
 For predicting wavefunctions   84.66 MBYTES are necessary
Broyden mixing: mesh for mixing (old mesh)
   NGX = 27   NGY = 27   NGZ = 27
  (NGX  =112   NGY  =112   NGZ  =112)
 gives a total of  19683 points
 initial charge density was supplied:
 charge density of overlapping atoms calculated
 number of electron  352.0000000 magnetization 
 keeping initial charge density in first step


--------------------------------------------------------------------------------------------------------


 Maximum index for augmentation-charges        13539 (set IRDMAX)


--------------------------------------------------------------------------------------------------------


 First call to EWALD:  gamma=   0.232
 Maximum number of real-space cells 3x 3x 3
 Maximum number of reciprocal cells 3x 3x 3

    FEWALD:  VPU time    0.00: CPU time    0.01


----------------------------------------- Iteration    1(   1)  ---------------------------------------


    POTLOK:  VPU time    0.12: CPU time    0.13
    SETDIJ:  VPU time    0.15: CPU time    0.15
    EDDAV :  VPU time   39.28: CPU time   39.28
    DOS   :  VPU time    0.00: CPU time   -0.00
    ------------------------------------------
      LOOP:  VPU time   39.58: CPU time   39.58

 eigenvalue-minimisations  :  8640
 total energy-change (2. order) : 0.3099999E+04  (-0.1471928E+05)
 number of electron  352.0000000 magnetization 
 augmentation part   352.0000000 magnetization 

 Free energy of the ion-electron system (eV)
  ---------------------------------------------------
  alpha Z        PSCENC =      2937.81789222
  Ewald energy   TEWEN  =    -33475.33379338
  -1/2 Hartree   DENC   =    -11458.26736173
  -V(xc)+E(xc)   XCENC  =      1391.34917453
  PAW double counting   =     34625.67335558   -39234.46421604
  entropy T*S    EENTRO =        -0.00021751
  eigenvalues    EBANDS =      3801.96559728
  atomic energy  EATOM  =     44511.25856501
  ---------------------------------------------------
  free energy    TOTEN  =      3099.99899596 eV

  energy without entropy =     3099.99921347  energy(sigma->0) =     3099.99910471


--------------------------------------------------------------------------------------------------------




----------------------------------------- Iteration    1(   2)  ---------------------------------------


    EDDAV :  VPU time   39.15: CPU time   39.15
    DOS   :  VPU time    0.00: CPU time   -0.00
    ------------------------------------------
      LOOP:  VPU time   39.17: CPU time   39.16

 eigenvalue-minimisations  :  8640
 total energy-change (2. order) :-0.2834528E+04  (-0.2725253E+04)
 number of electron  352.0000000 magnetization 
 augmentation part   352.0000000 magnetization 

 Free energy of the ion-electron system (eV)
  ---------------------------------------------------
  alpha Z        PSCENC =      2937.81789222
  Ewald energy   TEWEN  =    -33475.33379338
  -1/2 Hartree   DENC   =    -11458.26736173
  -V(xc)+E(xc)   XCENC  =      1391.34917453
  PAW double counting   =     34625.67335558   -39234.46421604
  entropy T*S    EENTRO =        -0.00045997
  eigenvalues    EBANDS =       967.43785191
  atomic energy  EATOM  =     44511.25856501
  ---------------------------------------------------
  free energy    TOTEN  =       265.47100813 eV

  energy without entropy =      265.47146809  energy(sigma->0) =      265.47123811


--------------------------------------------------------------------------------------------------------




----------------------------------------- Iteration    1(   3)  ---------------------------------------


    EDDAV :  VPU time   36.31: CPU time   36.31
    DOS   :  VPU time    0.00: CPU time   -0.00
    ------------------------------------------
      LOOP:  VPU time   36.33: CPU time   36.33

 eigenvalue-minimisations  :  8640
 total energy-change (2. order) :-0.3871399E+03  (-0.3464848E+03)
 number of electron  352.0000000 magnetization 
 augmentation part   352.0000000 magnetization 

 Free energy of the ion-electron system (eV)
  ---------------------------------------------------
  alpha Z        PSCENC =      2937.81789222
  Ewald energy   TEWEN  =    -33475.33379338
  -1/2 Hartree   DENC   =    -11458.26736173
  -V(xc)+E(xc)   XCENC  =      1391.34917453
  PAW double counting   =     34625.67335558   -39234.46421604
  entropy T*S    EENTRO =        -0.00127051
  eigenvalues    EBANDS =       580.29878457
  atomic energy  EATOM  =     44511.25856501
  ---------------------------------------------------
  free energy    TOTEN  =      -121.66886976 eV

  energy without entropy =     -121.66759924  energy(sigma->0) =     -121.66823450


--------------------------------------------------------------------------------------------------------




----------------------------------------- Iteration    1(   4)  ---------------------------------------


    EDDAV :  VPU time   36.34: CPU time   36.34
    DOS   :  VPU time    0.00: CPU time   -0.00
    ------------------------------------------
      LOOP:  VPU time   36.36: CPU time   36.36

 eigenvalue-minimisations  :  9296
 total energy-change (2. order) :-0.1949392E+02  (-0.1907881E+02)
 number of electron  352.0000000 magnetization 
 augmentation part   352.0000000 magnetization 

 Free energy of the ion-electron system (eV)
  ---------------------------------------------------
  alpha Z        PSCENC =      2937.81789222
  Ewald energy   TEWEN  =    -33475.33379338
  -1/2 Hartree   DENC   =    -11458.26736173
  -V(xc)+E(xc)   XCENC  =      1391.34917453
  PAW double counting   =     34625.67335558   -39234.46421604
  entropy T*S    EENTRO =        -0.00163582
  eigenvalues    EBANDS =       560.80523435
  atomic energy  EATOM  =     44511.25856501
  ---------------------------------------------------
  free energy    TOTEN  =      -141.16278529 eV

  energy without entropy =     -141.16114946  energy(sigma->0) =     -141.16196737


--------------------------------------------------------------------------------------------------------




----------------------------------------- Iteration    1(   5)  ---------------------------------------


    EDDAV :  VPU time   34.42: CPU time   34.41
    DOS   :  VPU time    0.00: CPU time   -0.00
    CHARGE:  VPU time    1.24: CPU time    1.24
    MIXING:  VPU time    0.00: CPU time    0.00
    ------------------------------------------
      LOOP:  VPU time   35.67: CPU time   35.67

 eigenvalue-minimisations  :  9272
 total energy-change (2. order) :-0.1519962E+00  (-0.1516852E+00)
 number of electron  352.0000007 magnetization 
 augmentation part   215.1126138 magnetization 

 Broyden mixing:
  rms(total) = 0.37883E+01    rms(broyden)= 0.37882E+01
  rms(prec ) = 0.55385E+01
  weight for this iteration     100.00

 Free energy of the ion-electron system (eV)
  ---------------------------------------------------
  alpha Z        PSCENC =      2937.81789222
  Ewald energy   TEWEN  =    -33475.33379338
  -1/2 Hartree   DENC   =    -11458.26736173
  -V(xc)+E(xc)   XCENC  =      1391.34917453
  PAW double counting   =     34625.67335558   -39234.46421604
  entropy T*S    EENTRO =        -0.00162152
  eigenvalues    EBANDS =       560.65322382
  atomic energy  EATOM  =     44511.25856501
  ---------------------------------------------------
  free energy    TOTEN  =      -141.31478151 eV

  energy without entropy =     -141.31315999  energy(sigma->0) =     -141.31397075


--------------------------------------------------------------------------------------------------------




----------------------------------------- Iteration    1(   6)  ---------------------------------------


    POTLOK:  VPU time    0.10: CPU time    0.10
    SETDIJ:  VPU time    0.13: CPU time    0.13
    EDDAV :  VPU time   34.30: CPU time   34.29
    DOS   :  VPU time    0.00: CPU time   -0.00
    CHARGE:  VPU time    1.20: CPU time    1.20
    MIXING:  VPU time    0.00: CPU time    0.00
    ------------------------------------------
      LOOP:  VPU time   35.74: CPU time   35.74

 eigenvalue-minimisations  :  9312
 total energy-change (2. order) : 0.1208722E+02  (-0.2904565E+02)
 number of electron  352.0000008 magnetization 
 augmentation part   241.1882680 magnetization 

 Broyden mixing:
  rms(total) = 0.21462E+01    rms(broyden)= 0.21460E+01
  rms(prec ) = 0.29545E+01
  weight for this iteration     100.00

 eigenvalues of (default mixing * dielectric matrix)
  average eigenvalue GAMMA=   0.6389
  0.6389

 Free energy of the ion-electron system (eV)
  ---------------------------------------------------
  alpha Z        PSCENC =      2937.81789222
  Ewald energy   TEWEN  =    -33475.33379338
  -1/2 Hartree   DENC   =    -10641.92733865
  -V(xc)+E(xc)   XCENC  =      1350.81724436
  PAW double counting   =     33525.47488960   -37865.50464413
  entropy T*S    EENTRO =        -0.00050035
  eigenvalues    EBANDS =      -471.82987284
  atomic energy  EATOM  =     44511.25856501
  ---------------------------------------------------
  free energy    TOTEN  =      -129.22755817 eV

  energy without entropy =     -129.22705782  energy(sigma->0) =     -129.22730799


--------------------------------------------------------------------------------------------------------




----------------------------------------- Iteration    1(   7)  ---------------------------------------


    POTLOK:  VPU time    0.10: CPU time    0.10
    SETDIJ:  VPU time    0.12: CPU time    0.12
    EDDAV :  VPU time   35.04: CPU time   35.04
    DOS   :  VPU time    0.00: CPU time   -0.00
    CHARGE:  VPU time    1.21: CPU time    1.21
    MIXING:  VPU time    0.00: CPU time    0.00
    ------------------------------------------
      LOOP:  VPU time   36.50: CPU time   36.50

 eigenvalue-minimisations  :  9632
 total energy-change (2. order) : 0.1303422E+02  (-0.5644435E+01)
 number of electron  352.0000007 magnetization 
 augmentation part   231.2464207 magnetization 

 Broyden mixing:
  rms(total) = 0.21006E+00    rms(broyden)= 0.20988E+00
  rms(prec ) = 0.31091E+00
  weight for this iteration     100.00

 eigenvalues of (default mixing * dielectric matrix)
  average eigenvalue GAMMA=   1.2467
  1.8647  0.6287

 Free energy of the ion-electron system (eV)
  ---------------------------------------------------
  alpha Z        PSCENC =      2937.81789222
  Ewald energy   TEWEN  =    -33475.33379338
  -1/2 Hartree   DENC   =    -10904.37155935
  -V(xc)+E(xc)   XCENC  =      1364.43729131
  PAW double counting   =     34162.72765148   -38695.63973262
  entropy T*S    EENTRO =        -0.00039228
  eigenvalues    EBANDS =       -17.08925725
  atomic energy  EATOM  =     44511.25856501
  ---------------------------------------------------
  free energy    TOTEN  =      -116.19333487 eV

  energy without entropy =     -116.19294258  energy(sigma->0) =     -116.19313872


--------------------------------------------------------------------------------------------------------




----------------------------------------- Iteration    1(   8)  ---------------------------------------


    POTLOK:  VPU time    0.10: CPU time    0.10
    SETDIJ:  VPU time    0.13: CPU time    0.13
    EDDAV :  VPU time   34.34: CPU time   34.34
    DOS   :  VPU time    0.00: CPU time   -0.00
    CHARGE:  VPU time    1.22: CPU time    1.22
    MIXING:  VPU time    0.00: CPU time    0.00
    ------------------------------------------
      LOOP:  VPU time   35.81: CPU time   35.81

 eigenvalue-minimisations  :  9344
 total energy-change (2. order) : 0.8169281E-01  (-0.1131898E+00)
 number of electron  352.0000007 magnetization 
 augmentation part   230.2698960 magnetization 

 Broyden mixing:
  rms(total) = 0.24923E+00    rms(broyden)= 0.24921E+00
  rms(prec ) = 0.36826E+00
  weight for this iteration     100.00

 eigenvalues of (default mixing * dielectric matrix)
  average eigenvalue GAMMA=   1.4210
  0.6616  0.9795  2.6218

 Free energy of the ion-electron system (eV)
  ---------------------------------------------------
  alpha Z        PSCENC =      2937.81789222
  Ewald energy   TEWEN  =    -33475.33379338
  -1/2 Hartree   DENC   =    -10851.86877848
  -V(xc)+E(xc)   XCENC  =      1362.34832662
  PAW double counting   =     34445.50127688   -39051.82491873
  entropy T*S    EENTRO =        -0.00043922
  eigenvalues    EBANDS =         5.99022703
  atomic energy  EATOM  =     44511.25856501
  ---------------------------------------------------
  free energy    TOTEN  =      -116.11164206 eV

  energy without entropy =     -116.11120283  energy(sigma->0) =     -116.11142244


--------------------------------------------------------------------------------------------------------




----------------------------------------- Iteration    1(   9)  ---------------------------------------


    POTLOK:  VPU time    0.10: CPU time    0.10
    SETDIJ:  VPU time    0.12: CPU time    0.12
    EDDAV :  VPU time   33.72: CPU time   33.72
    DOS   :  VPU time    0.00: CPU time   -0.00
    CHARGE:  VPU time    1.22: CPU time    1.22
    MIXING:  VPU time    0.00: CPU time    0.00
    ------------------------------------------
      LOOP:  VPU time   35.19: CPU time   35.18

 eigenvalue-minimisations  :  9096
 total energy-change (2. order) : 0.1175638E+00  (-0.4752636E-01)
 number of electron  352.0000007 magnetization 
 augmentation part   231.3513881 magnetization 

 Broyden mixing:
  rms(total) = 0.26389E-01    rms(broyden)= 0.26379E-01
  rms(prec ) = 0.38129E-01
  weight for this iteration     100.00

 eigenvalues of (default mixing * dielectric matrix)
  average eigenvalue GAMMA=   1.5602
  2.7440  0.6706  0.8803  1.9460

 Free energy of the ion-electron system (eV)
  ---------------------------------------------------
  alpha Z        PSCENC =      2937.81789222
  Ewald energy   TEWEN  =    -33475.33379338
  -1/2 Hartree   DENC   =    -10793.06641741
  -V(xc)+E(xc)   XCENC  =      1359.59521644
  PAW double counting   =     34488.76778200   -39103.52210015
  entropy T*S    EENTRO =        -0.00038862
  eigenvalues    EBANDS =       -41.51083441
  atomic energy  EATOM  =     44511.25856501
  ---------------------------------------------------
  free energy    TOTEN  =      -115.99407829 eV

  energy without entropy =     -115.99368968  energy(sigma->0) =     -115.99388399


--------------------------------------------------------------------------------------------------------




----------------------------------------- Iteration    1(  10)  ---------------------------------------


    POTLOK:  VPU time    0.10: CPU time    0.10
    SETDIJ:  VPU time    0.13: CPU time    0.13
    EDDAV :  VPU time   33.61: CPU time   33.61
    DOS   :  VPU time    0.00: CPU time   -0.00
    CHARGE:  VPU time    1.22: CPU time    1.22
    MIXING:  VPU time    0.00: CPU time    0.00
    ------------------------------------------
      LOOP:  VPU time   35.08: CPU time   35.08

 eigenvalue-minimisations  :  9080
 total energy-change (2. order) : 0.3636515E-03  (-0.1174829E-02)
 number of electron  352.0000007 magnetization 
 augmentation part   231.2668471 magnetization 

 Broyden mixing:
  rms(total) = 0.52498E-02    rms(broyden)= 0.52494E-02
  rms(prec ) = 0.74305E-02
  weight for this iteration     100.00

 eigenvalues of (default mixing * dielectric matrix)
  average eigenvalue GAMMA=   1.5502
  2.5763  2.5763  0.6682  0.9650  0.9650

 Free energy of the ion-electron system (eV)
  ---------------------------------------------------
  alpha Z        PSCENC =      2937.81789222
  Ewald energy   TEWEN  =    -33475.33379338
  -1/2 Hartree   DENC   =    -10797.42218601
  -V(xc)+E(xc)   XCENC  =      1359.80569873
  PAW double counting   =     34497.83499343   -39112.41800114
  entropy T*S    EENTRO =        -0.00038878
  eigenvalues    EBANDS =       -37.53649471
  atomic energy  EATOM  =     44511.25856501
  ---------------------------------------------------
  free energy    TOTEN  =      -115.99371464 eV

  energy without entropy =     -115.99332586  energy(sigma->0) =     -115.99352025


--------------------------------------------------------------------------------------------------------




----------------------------------------- Iteration    1(  11)  ---------------------------------------


    POTLOK:  VPU time    0.10: CPU time    0.10
    SETDIJ:  VPU time    0.13: CPU time    0.13
    EDDAV :  VPU time   34.01: CPU time   34.00
    DOS   :  VPU time    0.00: CPU time   -0.00
    CHARGE:  VPU time    1.22: CPU time    1.22
    MIXING:  VPU time    0.00: CPU time    0.00
    ------------------------------------------
      LOOP:  VPU time   35.48: CPU time   35.47

 eigenvalue-minimisations  :  9192
 total energy-change (2. order) : 0.6507884E-04  (-0.2480250E-04)
 number of electron  352.0000007 magnetization 
 augmentation part   231.2499293 magnetization 

 Broyden mixing:
  rms(total) = 0.76813E-03    rms(broyden)= 0.76755E-03
  rms(prec ) = 0.11076E-02
  weight for this iteration     100.00

 eigenvalues of (default mixing * dielectric matrix)
  average eigenvalue GAMMA=   1.5059
  2.5608  2.5608  0.6684  0.9192  1.1117  1.2142

 Free energy of the ion-electron system (eV)
  ---------------------------------------------------
  alpha Z        PSCENC =      2937.81789222
  Ewald energy   TEWEN  =    -33475.33379338
  -1/2 Hartree   DENC   =    -10799.05683361
  -V(xc)+E(xc)   XCENC  =      1359.88025445
  PAW double counting   =     34504.77979986   -39118.54487372
  entropy T*S    EENTRO =        -0.00038889
  eigenvalues    EBANDS =       -36.79427150
  atomic energy  EATOM  =     44511.25856501
  ---------------------------------------------------
  free energy    TOTEN  =      -115.99364956 eV

  energy without entropy =     -115.99326067  energy(sigma->0) =     -115.99345512


--------------------------------------------------------------------------------------------------------




----------------------------------------- Iteration    1(  12)  ---------------------------------------


    POTLOK:  VPU time    0.10: CPU time    0.10
    SETDIJ:  VPU time    0.13: CPU time    0.13
    EDDAV :  VPU time   33.48: CPU time   33.48
    DOS   :  VPU time    0.00: CPU time   -0.00
    CHARGE:  VPU time    1.23: CPU time    1.23
    MIXING:  VPU time    0.00: CPU time    0.00
    ------------------------------------------
      LOOP:  VPU time   34.96: CPU time   34.95

 eigenvalue-minimisations  :  9016
 total energy-change (2. order) :-0.2621346E-04  (-0.6717266E-06)
 number of electron  352.0000007 magnetization 
 augmentation part   231.2508504 magnetization 

 Broyden mixing:
  rms(total) = 0.13539E-03    rms(broyden)= 0.13530E-03
  rms(prec ) = 0.16811E-03
  weight for this iteration     100.00

 eigenvalues of (default mixing * dielectric matrix)
  average eigenvalue GAMMA=   1.6555
  2.7456  2.6123  2.6123  0.6684  0.9182  1.0156  1.0156

 Free energy of the ion-electron system (eV)
  ---------------------------------------------------
  alpha Z        PSCENC =      2937.81789222
  Ewald energy   TEWEN  =    -33475.33379338
  -1/2 Hartree   DENC   =    -10798.74011905
  -V(xc)+E(xc)   XCENC  =      1359.86605827
  PAW double counting   =     34505.82884493   -39119.83516575
  entropy T*S    EENTRO =        -0.00038888
  eigenvalues    EBANDS =       -36.85556913
  atomic energy  EATOM  =     44511.25856501
  ---------------------------------------------------
  free energy    TOTEN  =      -115.99367578 eV

  energy without entropy =     -115.99328690  energy(sigma->0) =     -115.99348134


--------------------------------------------------------------------------------------------------------




----------------------------------------- Iteration    1(  13)  ---------------------------------------


    POTLOK:  VPU time    0.10: CPU time    0.10
    SETDIJ:  VPU time    0.13: CPU time    0.13
    EDDAV :  VPU time   34.66: CPU time   34.66
    DOS   :  VPU time    0.00: CPU time   -0.00
    CHARGE:  VPU time    1.21: CPU time    1.21
    MIXING:  VPU time    0.00: CPU time    0.00
    ------------------------------------------
      LOOP:  VPU time   36.12: CPU time   36.12

 eigenvalue-minimisations  :  9360
 total energy-change (2. order) :-0.7740644E-05  (-0.1489052E-07)
 number of electron  352.0000007 magnetization 
 augmentation part   231.2502046 magnetization 

 Broyden mixing:
  rms(total) = 0.13788E-03    rms(broyden)= 0.13787E-03
  rms(prec ) = 0.19279E-03
  weight for this iteration     100.00

 eigenvalues of (default mixing * dielectric matrix)
  average eigenvalue GAMMA=   1.5777
  2.7209  2.5755  2.5755  0.6684  0.9346  0.9346  1.1576  1.0546

 Free energy of the ion-electron system (eV)
  ---------------------------------------------------
  alpha Z        PSCENC =      2937.81789222
  Ewald energy   TEWEN  =    -33475.33379338
  -1/2 Hartree   DENC   =    -10798.74815976
  -V(xc)+E(xc)   XCENC  =      1359.86600746
  PAW double counting   =     34505.97881534   -39120.01174159
  entropy T*S    EENTRO =        -0.00038889
  eigenvalues    EBANDS =       -36.82087992
  atomic energy  EATOM  =     44511.25856501
  ---------------------------------------------------
  free energy    TOTEN  =      -115.99368352 eV

  energy without entropy =     -115.99329463  energy(sigma->0) =     -115.99348908


--------------------------------------------------------------------------------------------------------




----------------------------------------- Iteration    1(  14)  ---------------------------------------


    POTLOK:  VPU time    0.10: CPU time    0.10
    SETDIJ:  VPU time    0.12: CPU time    0.13
    EDDAV :  VPU time   33.58: CPU time   33.58
    DOS   :  VPU time    0.00: CPU time   -0.00
    CHARGE:  VPU time    1.21: CPU time    1.21
    MIXING:  VPU time    0.00: CPU time    0.00
    ------------------------------------------
      LOOP:  VPU time   35.04: CPU time   35.03

 eigenvalue-minimisations  :  9080
 total energy-change (2. order) : 0.7600902E-06  (-0.2043882E-07)
 number of electron  352.0000007 magnetization 
 augmentation part   231.2508591 magnetization 

 Broyden mixing:
  rms(total) = 0.59576E-05    rms(broyden)= 0.59300E-05
  rms(prec ) = 0.66667E-05
  weight for this iteration     100.00

 eigenvalues of (default mixing * dielectric matrix)
  average eigenvalue GAMMA=   1.6246
  2.8671  2.6484  2.4821  2.0493  0.6684  0.9343  1.0131  0.9792  0.9792

 Free energy of the ion-electron system (eV)
  ---------------------------------------------------
  alpha Z        PSCENC =      2937.81789222
  Ewald energy   TEWEN  =    -33475.33379338
  -1/2 Hartree   DENC   =    -10798.73858305
  -V(xc)+E(xc)   XCENC  =      1359.86545626
  PAW double counting   =     34505.93196652   -39119.94783742
  entropy T*S    EENTRO =        -0.00038888
  eigenvalues    EBANDS =       -36.84696003
  atomic energy  EATOM  =     44511.25856501
  ---------------------------------------------------
  free energy    TOTEN  =      -115.99368276 eV

  energy without entropy =     -115.99329388  energy(sigma->0) =     -115.99348832


--------------------------------------------------------------------------------------------------------




----------------------------------------- Iteration    1(  15)  ---------------------------------------


    POTLOK:  VPU time    0.10: CPU time    0.10
    SETDIJ:  VPU time    0.12: CPU time    0.13
    EDDAV :  VPU time   21.92: CPU time   21.92
    DOS   :  VPU time    0.00: CPU time   -0.00
    CHARGE:  VPU time    1.21: CPU time    1.22
    MIXING:  VPU time    0.00: CPU time    0.00
    ------------------------------------------
      LOOP:  VPU time   23.38: CPU time   23.38

 eigenvalue-minimisations  :  4816
 total energy-change (2. order) : 0.1909284E-06  (-0.3142889E-09)
 number of electron  352.0000007 magnetization 
 augmentation part   231.2508599 magnetization 

 Broyden mixing:
  rms(total) = 0.42980E-05    rms(broyden)= 0.42970E-05
  rms(prec ) = 0.50414E-05
  weight for this iteration     100.00

 eigenvalues of (default mixing * dielectric matrix)
  average eigenvalue GAMMA=   1.6197
  2.7351  2.6731  2.5451  2.5451  0.6684  1.1625  0.9331  0.9331  1.0006  1.0006

 Free energy of the ion-electron system (eV)
  ---------------------------------------------------
  alpha Z        PSCENC =      2937.81789222
  Ewald energy   TEWEN  =    -33475.33379338
  -1/2 Hartree   DENC   =    -10798.73901758
  -V(xc)+E(xc)   XCENC  =      1359.86547619
  PAW double counting   =     34505.91697801   -39119.93267415
  entropy T*S    EENTRO =        -0.00038888
  eigenvalues    EBANDS =       -36.84672000
  atomic energy  EATOM  =     44511.25856501
  ---------------------------------------------------
  free energy    TOTEN  =      -115.99368257 eV

  energy without entropy =     -115.99329369  energy(sigma->0) =     -115.99348813


--------------------------------------------------------------------------------------------------------




----------------------------------------- Iteration    1(  16)  ---------------------------------------


    POTLOK:  VPU time    0.10: CPU time    0.10
    SETDIJ:  VPU time    0.13: CPU time    0.13
    EDDAV :  VPU time   21.96: CPU time   21.96
    DOS   :  VPU time    0.00: CPU time   -0.00
    CHARGE:  VPU time    1.22: CPU time    1.22
    MIXING:  VPU time    0.00: CPU time    0.00
    ------------------------------------------
      LOOP:  VPU time   23.43: CPU time   23.42

 eigenvalue-minimisations  :  4800
 total energy-change (2. order) : 0.8163624E-07  (-0.2521321E-10)
 number of electron  352.0000007 magnetization 
 augmentation part   231.2508601 magnetization 

 Broyden mixing:
  rms(total) = 0.21609E-05    rms(broyden)= 0.21607E-05
  rms(prec ) = 0.29875E-05
  weight for this iteration     100.00

 eigenvalues of (default mixing * dielectric matrix)
  average eigenvalue GAMMA=   1.5674
  2.7158  2.6517  2.4176  2.4176  0.6684  1.4711  1.0446  1.0446  0.9201  0.9451
  0.9451

 Free energy of the ion-electron system (eV)
  ---------------------------------------------------
  alpha Z        PSCENC =      2937.81789222
  Ewald energy   TEWEN  =    -33475.33379338
  -1/2 Hartree   DENC   =    -10798.73762689
  -V(xc)+E(xc)   XCENC  =      1359.86542183
  PAW double counting   =     34505.90843908   -39119.92522921
  entropy T*S    EENTRO =        -0.00038888
  eigenvalues    EBANDS =       -36.84696226
  atomic energy  EATOM  =     44511.25856501
  ---------------------------------------------------
  free energy    TOTEN  =      -115.99368249 eV

  energy without entropy =     -115.99329360  energy(sigma->0) =     -115.99348804


--------------------------------------------------------------------------------------------------------




----------------------------------------- Iteration    1(  17)  ---------------------------------------


    POTLOK:  VPU time    0.10: CPU time    0.10
    SETDIJ:  VPU time    0.13: CPU time    0.13
    EDDAV :  VPU time   21.98: CPU time   21.98
    DOS   :  VPU time    0.00: CPU time   -0.00
    CHARGE:  VPU time    1.23: CPU time    1.23
    MIXING:  VPU time    0.00: CPU time    0.00
    ------------------------------------------
      LOOP:  VPU time   23.45: CPU time   23.45

 eigenvalue-minimisations  :  4800
 total energy-change (2. order) :-0.1449371E-07  (-0.1968921E-11)
 number of electron  352.0000007 magnetization 
 augmentation part   231.2508581 magnetization 

 Broyden mixing:
  rms(total) = 0.19616E-05    rms(broyden)= 0.19616E-05
  rms(prec ) = 0.28130E-05
  weight for this iteration     100.00

 eigenvalues of (default mixing * dielectric matrix)
  average eigenvalue GAMMA=   1.6558
  2.9989  2.6819  2.5543  2.5543  2.5082  0.6684  1.1037  1.0107  1.0107  0.9322
  0.9322  0.9135

 Free energy of the ion-electron system (eV)
  ---------------------------------------------------
  alpha Z        PSCENC =      2937.81789222
  Ewald energy   TEWEN  =    -33475.33379338
  -1/2 Hartree   DENC   =    -10798.73752271
  -V(xc)+E(xc)   XCENC  =      1359.86541771
  PAW double counting   =     34505.90987186   -39119.92683350
  entropy T*S    EENTRO =        -0.00038888
  eigenvalues    EBANDS =       -36.84689082
  atomic energy  EATOM  =     44511.25856501
  ---------------------------------------------------
  free energy    TOTEN  =      -115.99368250 eV

  energy without entropy =     -115.99329362  energy(sigma->0) =     -115.99348806


--------------------------------------------------------------------------------------------------------




----------------------------------------- Iteration    1(  18)  ---------------------------------------


    POTLOK:  VPU time    0.10: CPU time    0.10
    SETDIJ:  VPU time    0.13: CPU time    0.13
    EDDAV :  VPU time   21.88: CPU time   21.87
    DOS   :  VPU time    0.00: CPU time   -0.00
    ------------------------------------------
      LOOP:  VPU time   22.12: CPU time   22.12

 eigenvalue-minimisations  :  4800
 total energy-change (2. order) :-0.2648449E-08  (-0.7367018E-12)
 number of electron  352.0000007 magnetization 
 augmentation part   231.2508581 magnetization 

 Free energy of the ion-electron system (eV)
  ---------------------------------------------------
  alpha Z        PSCENC =      2937.81789222
  Ewald energy   TEWEN  =    -33475.33379338
  -1/2 Hartree   DENC   =    -10798.73748990
  -V(xc)+E(xc)   XCENC  =      1359.86541542
  PAW double counting   =     34505.91047109   -39119.92744163
  entropy T*S    EENTRO =        -0.00038888
  eigenvalues    EBANDS =       -36.84691244
  atomic energy  EATOM  =     44511.25856501
  ---------------------------------------------------
  free energy    TOTEN  =      -115.99368250 eV

  energy without entropy =     -115.99329362  energy(sigma->0) =     -115.99348806


--------------------------------------------------------------------------------------------------------




 average (electrostatic) potential at core
  the test charge radii are     1.0053
  (the norm of the test charge is              1.0000)
       1 -40.8793       2 -40.8793       3 -40.8793       4 -40.8793       5 -40.8793
       6 -40.8793       7 -40.8793       8 -40.8793       9 -40.8793      10 -40.8793
      11 -40.8793      12 -40.8793      13 -40.8793      14 -40.8793      15 -40.8793
      16 -40.8793      17 -40.8793      18 -40.8793      19 -40.8793      20 -40.8793
      21 -40.8793      22 -40.8793      23 -40.8793      24 -40.8793      25 -40.8793
      26 -40.8793      27 -40.8793      28 -40.8793      29 -40.8793      30 -40.8793
      31 -40.8793      32 -40.8793
 
 
 
 E-fermi :   2.5367     XC(G=0): -11.8681     alpha+bet : -8.1732
   add alpha+bet to get absolut eigen values

 k-point   1 :       0.0000    0.0000    0.0000
  band No.  band energies     occupation 
      1      -5.6699      2.00000
      2      -3.1755      2.00000
      3      -3.1755      2.00000
      4      -3.1755      2.00000
      5      -3.1755      2.00000
      6      -3.1755      2.00000
      7      -3.1755      2.00000
      8      -1.7515      2.00000
      9      -1.7515      2.00000
     10      -1.7515      2.00000
     11      -1.7515      2.00000
     12      -1.5248      2.00000
     13      -1.5248      2.00000
     14      -1.5248      2.00000
     15      -1.4574      2.00000
     16      -1.4574      2.00000
     17      -1.4574      2.00000
     18      -1.4574      2.00000
     19      -1.4574      2.00000
     20      -1.4574      2.00000
     21      -1.4574      2.00000
     22      -1.4574      2.00000
     23      -1.4574      2.00000
     24      -1.4574      2.00000
     25      -1.4574      2.00000
     26      -1.4574      2.00000
     27      -1.1693      2.00000
     28      -1.1693      2.00000
     29      -1.1693      2.00000
     30      -0.9219      2.00000
     31      -0.9219      2.00000
     32      -0.9219      2.00000
     33      -0.9219      2.00000
     34      -0.9219      2.00000
     35      -0.9219      2.00000
     36      -0.6422      2.00000
     37      -0.6422      2.00000
     38      -0.6422      2.00000
     39      -0.6422      2.00000
     40      -0.6422      2.00000
     41      -0.6422      2.00000
     42      -0.4671      2.00000
     43      -0.4671      2.00000
     44      -0.4671      2.00000
     45      -0.4671      2.00000
     46      -0.4671      2.00000
     47      -0.4671      2.00000
     48      -0.4671      2.00000
     49      -0.4671      2.00000
     50      -0.4671      2.00000
     51      -0.4671      2.00000
     52      -0.4671      2.00000
     53      -0.4671      2.00000
     54      -0.4668      2.00000
     55      -0.4668      2.00000
     56      -0.4668      2.00000
     57      -0.4668      2.00000
     58      -0.4668      2.00000
     59      -0.4668      2.00000
     60      -0.4668      2.00000
     61      -0.4668      2.00000
     62      -0.4668      2.00000
     63      -0.4668      2.00000
     64      -0.4668      2.00000
     65      -0.4668      2.00000
     66      -0.2988      2.00000
     67      -0.2988      2.00000
     68      -0.2988      2.00000
     69      -0.2988      2.00000
     70      -0.2988      2.00000
     71      -0.2988      2.00000
     72      -0.2988      2.00000
     73      -0.2988      2.00000
     74      -0.2988      2.00000
     75      -0.2988      2.00000
     76      -0.2988      2.00000
     77      -0.2988      2.00000
     78      -0.1136      2.00000
     79      -0.1136      2.00000
     80      -0.1136      2.00000
     81      -0.1136      2.00000
     82      -0.1136      2.00000
     83      -0.1136      2.00000
     84      -0.1136      2.00000
     85      -0.1136      2.00000
     86      -0.0947      2.00000
     87      -0.0947      2.00000
     88      -0.0947      2.00000
     89       0.2048      2.00000
     90       0.2048      2.00000
     91       0.2048      2.00000
     92       0.2048      2.00000
     93       0.2048      2.00000
     94       0.2048      2.00000
     95       0.3033      2.00000
     96       0.3033      2.00000
     97       0.3033      2.00000
     98       0.3033      2.00000
     99       0.3033      2.00000
    100       0.3033      2.00000
    101       0.3033      2.00000
    102       0.3033      2.00000
    103       0.3033      2.00000
    104       0.3033      2.00000
    105       0.3033      2.00000
    106       0.3033      2.00000
    107       0.4217      2.00000
    108       0.4217      2.00000
    109       0.4217      2.00000
    110       0.4217      2.00000
    111       0.4217      2.00000
    112       0.4217      2.00000
    113       0.4217      2.00000
    114       0.4217      2.00000
    115       0.4217      2.00000
    116       0.4217      2.00000
    117       0.4217      2.00000
    118       0.4217      2.00000
    119       0.5218      2.00000
    120       0.5218      2.00000
    121       0.5218      2.00000
    122       0.5218      2.00000
    123       0.5218      2.00000
    124       0.5218      2.00000
    125       0.5442      2.00000
    126       0.5442      2.00000
    127       0.5442      2.00000
    128       0.5442      2.00000
    129       0.5442      2.00000
    130       0.5442      2.00000
    131       0.5442      2.00000
    132       0.5442      2.00000
    133       0.5442      2.00000
    134       0.5442      2.00000
    135       0.5442      2.00000
    136       0.5442      2.00000
    137       0.5464      2.00000
    138       0.5464      2.00000
    139       0.7581      2.00000
    140       0.7581      2.00000
    141       0.7581      2.00000
    142       0.7581      2.00000
    143       0.7581      2.00000
    144       0.7581      2.00000
    145       0.9736      2.00000
    146       0.9736      2.00000
    147       0.9736      2.00000
    148       0.9848      2.00000
    149       0.9848      2.00000
    150       0.9848      2.00000
    151       0.9848      2.00000
    152       0.9848      2.00000
    153       0.9848      2.00000
    154       0.9848      2.00000
    155       0.9848      2.00000
    156       1.0930      2.00000
    157       1.0930      2.00000
    158       1.0930      2.00000
    159       1.0930      2.00000
    160       1.0930      2.00000
    161       1.0930      2.00000
    162       1.0935      2.00000
    163       1.0935      2.00000
    164       1.0935      2.00000
    165       1.0935      2.00000
    166       1.0935      2.00000
    167       1.0935      2.00000
    168       1.9578      2.00000
    169       1.9578      2.00000
    170       1.9578      2.00000
    171       1.9578      2.00000
    172       2.1143      2.00000
    173       2.1143      2.00000
    174       2.1143      2.00000
    175       2.1143      2.00000
    176       2.1143      2.00000
    177       2.1143      2.00000
    178       2.1143      2.00000
    179       2.1143      2.00000
    180       2.1143      2.00000
    181       2.1143      2.00000
    182       2.1143      2.00000
    183       2.1143      2.00000
    184       4.1298      0.00000
    185       4.1298      0.00000
    186       4.1298      0.00000
    187       5.4971      0.00000
    188       5.4971      0.00000
    189       5.4971      0.00000
    190       5.4971      0.00000
    191       8.1442      0.00000
    192       8.1442      0.00000
    193       8.1442      0.00000
    194       8.1442      0.00000
    195       8.1442      0.00000
    196       8.1442      0.00000
    197       8.1442      0.00000
    198       8.1442      0.00000
    199       8.1442      0.00000
    200       8.1442      0.00000
    201       8.1442      0.00000
    202       8.1442      0.00000
    203       8.5368      0.00000
    204       8.5368      0.00000
    205       8.5368      0.00000
    206       9.9009      0.00000
    207       9.9009      0.00000
    208       9.9009      0.00000
    209       9.9009      0.00000
    210       9.9009      0.00000
    211       9.9009      0.00000
    212      10.0740      0.00000
    213      10.0740      0.00000
    214      10.0740      0.00000
    215      10.0740      0.00000
    216      10.0740      0.00000

 k-point   2 :       0.1429    0.0000    0.0000
  band No.  band energies     occupation 
      1      -5.6147      2.00000
      2      -3.7799      2.00000
      3      -3.1299      2.00000
      4      -3.1299      2.00000
      5      -3.1299      2.00000
      6      -3.1299      2.00000
      7      -2.5726      2.00000
      8      -1.7947      2.00000
      9      -1.7947      2.00000
     10      -1.7947      2.00000
     11      -1.7947      2.00000
     12      -1.7408      2.00000
     13      -1.7408      2.00000
     14      -1.7408      2.00000
     15      -1.7408      2.00000
     16      -1.5268      2.00000
     17      -1.5010      2.00000
     18      -1.5010      2.00000
     19      -1.4791      2.00000
     20      -1.4791      2.00000
     21      -1.4791      2.00000
     22      -1.4791      2.00000
     23      -1.1737      2.00000
     24      -1.1737      2.00000
     25      -1.1737      2.00000
     26      -1.1737      2.00000
     27      -1.1563      2.00000
     28      -1.1556      2.00000
     29      -1.1556      2.00000
     30      -0.9617      2.00000
     31      -0.9617      2.00000
     32      -0.9041      2.00000
     33      -0.9041      2.00000
     34      -0.9041      2.00000
     35      -0.9041      2.00000
     36      -0.7612      2.00000
     37      -0.6574      2.00000
     38      -0.6574      2.00000
     39      -0.6364      2.00000
     40      -0.6364      2.00000
     41      -0.6364      2.00000
     42      -0.6364      2.00000
     43      -0.5221      2.00000
     44      -0.4928      2.00000
     45      -0.4928      2.00000
     46      -0.4928      2.00000
     47      -0.4928      2.00000
     48      -0.4868      2.00000
     49      -0.4868      2.00000
     50      -0.4868      2.00000
     51      -0.4868      2.00000
     52      -0.4650      2.00000
     53      -0.4650      2.00000
     54      -0.4650      2.00000
     55      -0.4650      2.00000
     56      -0.4514      2.00000
     57      -0.4514      2.00000
     58      -0.4514      2.00000
     59      -0.4514      2.00000
     60      -0.4098      2.00000
     61      -0.4098      2.00000
     62      -0.4098      2.00000
     63      -0.4098      2.00000
     64      -0.3977      2.00000
     65      -0.3977      2.00000
     66      -0.3977      2.00000
     67      -0.3977      2.00000
     68      -0.2887      2.00000
     69      -0.2887      2.00000
     70      -0.2887      2.00000
     71      -0.2887      2.00000
     72      -0.2459      2.00000
     73      -0.2459      2.00000
     74      -0.2297      2.00000
     75      -0.2297      2.00000
     76      -0.2297      2.00000
     77      -0.2297      2.00000
     78      -0.1220      2.00000
     79      -0.1220      2.00000
     80      -0.1220      2.00000
     81      -0.1220      2.00000
     82      -0.1087      2.00000
     83      -0.1011      2.00000
     84      -0.1011      2.00000
     85      -0.1011      2.00000
     86      -0.1011      2.00000
     87      -0.0831      2.00000
     88      -0.0831      2.00000
     89       0.1446      2.00000
     90       0.1446      2.00000
     91       0.1446      2.00000
     92       0.1446      2.00000
     93       0.2252      2.00000
     94       0.2549      2.00000
     95       0.2549      2.00000
     96       0.2549      2.00000
     97       0.2549      2.00000
     98       0.2854      2.00000
     99       0.2959      2.00000
    100       0.2959      2.00000
    101       0.3126      2.00000
    102       0.3126      2.00000
    103       0.3126      2.00000
    104       0.3126      2.00000
    105       0.3453      2.00000
    106       0.3453      2.00000
    107       0.3453      2.00000
    108       0.3453      2.00000
    109       0.4215      2.00000
    110       0.4215      2.00000
    111       0.4215      2.00000
    112       0.4215      2.00000
    113       0.4711      2.00000
    114       0.4711      2.00000
    115       0.4711      2.00000
    116       0.4711      2.00000
    117       0.4882      2.00000
    118       0.4882      2.00000
    119       0.4882      2.00000
    120       0.4882      2.00000
    121       0.5222      2.00000
    122       0.5222      2.00000
    123       0.5222      2.00000
    124       0.5222      2.00000
    125       0.5337      2.00000
    126       0.5516      2.00000
    127       0.5541      2.00000
    128       0.5541      2.00000
    129       0.5550      2.00000
    130       0.5550      2.00000
    131       0.5938      2.00000
    132       0.5938      2.00000
    133       0.5938      2.00000
    134       0.5938      2.00000
    135       0.6216      2.00000
    136       0.6216      2.00000
    137       0.6216      2.00000
    138       0.6216      2.00000
    139       0.7107      2.00000
    140       0.7745      2.00000
    141       0.7745      2.00000
    142       0.7745      2.00000
    143       0.7745      2.00000
    144       0.8057      2.00000
    145       0.8704      2.00000
    146       0.8704      2.00000
    147       0.8704      2.00000
    148       0.8704      2.00000
    149       0.9573      2.00000
    150       0.9573      2.00000
    151       0.9681      2.00000
    152       0.9711      2.00000
    153       0.9711      2.00000
    154       0.9711      2.00000
    155       0.9711      2.00000
    156       1.0152      2.00000
    157       1.0152      2.00000
    158       1.0725      2.00000
    159       1.0725      2.00000
    160       1.0725      2.00000
    161       1.0725      2.00000
    162       1.0735      2.00000
    163       1.0735      2.00000
    164       1.0930      2.00000
    165       1.0930      2.00000
    166       1.0935      2.00000
    167       1.0935      2.00000
    168       1.7287      2.00000
    169       1.7287      2.00000
    170       1.7287      2.00000
    171       1.7287      2.00000
    172       1.9885      2.00000
    173       1.9885      2.00000
    174       1.9885      2.00000
    175       1.9885      2.00000
    176       2.1133      2.00000
    177       2.1133      2.00000
    178       2.1133      2.00000
    179       2.1133      2.00000
    180       2.6304      0.00000
    181       2.6304      0.00000
    182       2.6304      0.00000
    183       2.6304      0.00000
    184       3.7267      0.00000
    185       4.2585      0.00000
    186       4.2585      0.00000
    187       5.6802      0.00000
    188       5.6802      0.00000
    189       5.6802      0.00000
    190       5.6802      0.00000
    191       7.2807      0.00000
    192       7.2807      0.00000
    193       7.4020      0.00000
    194       7.4020      0.00000
    195       7.4020      0.00000
    196       7.4020      0.00000
    197       8.2168      0.00000
    198       8.2168      0.00000
    199       8.2168      0.00000
    200       8.2168      0.00000
    201       8.5609      0.00000
    202       8.5609      0.00000
    203       9.0550      0.00000
    204       9.0675      0.00000
    205       9.0675      0.00000
    206       9.5470      0.00000
    207       9.5470      0.00000
    208      10.0154      0.00000
    209      10.0154      0.00000
    210      10.0154      0.00000
    211      10.0154      0.00000
    212      10.2697      0.00000
    213      10.2697      0.00000
    214      10.2697      0.00000
    215      10.2697      0.00000
    216      10.4958      0.00000

 k-point   3 :       0.2857    0.0000    0.0000
  band No.  band energies     occupation 
      1      -5.4497      2.00000
      2      -4.3312      2.00000
      3      -2.9952      2.00000
      4      -2.9952      2.00000
      5      -2.9952      2.00000
      6      -2.9952      2.00000
      7      -2.1518      2.00000
      8      -2.1518      2.00000
      9      -2.1518      2.00000
     10      -2.1518      2.00000
     11      -2.0659      2.00000
     12      -1.7095      2.00000
     13      -1.7095      2.00000
     14      -1.7095      2.00000
     15      -1.7095      2.00000
     16      -1.5407      2.00000
     17      -1.5330      2.00000
     18      -1.5330      2.00000
     19      -1.5330      2.00000
     20      -1.5330      2.00000
     21      -1.4322      2.00000
     22      -1.4322      2.00000
     23      -1.1180      2.00000
     24      -1.1141      2.00000
     25      -1.1141      2.00000
     26      -1.0645      2.00000
     27      -1.0645      2.00000
     28      -0.9558      2.00000
     29      -0.9558      2.00000
     30      -0.9558      2.00000
     31      -0.9558      2.00000
     32      -0.8734      2.00000
     33      -0.8532      2.00000
     34      -0.8532      2.00000
     35      -0.8532      2.00000
     36      -0.8532      2.00000
     37      -0.8170      2.00000
     38      -0.8170      2.00000
     39      -0.6197      2.00000
     40      -0.6197      2.00000
     41      -0.6197      2.00000
     42      -0.6197      2.00000
     43      -0.5433      2.00000
     44      -0.5433      2.00000
     45      -0.5433      2.00000
     46      -0.5433      2.00000
     47      -0.5256      2.00000
     48      -0.5256      2.00000
     49      -0.5256      2.00000
     50      -0.5256      2.00000
     51      -0.5142      2.00000
     52      -0.5142      2.00000
     53      -0.5142      2.00000
     54      -0.5142      2.00000
     55      -0.4598      2.00000
     56      -0.4598      2.00000
     57      -0.4598      2.00000
     58      -0.4598      2.00000
     59      -0.4455      2.00000
     60      -0.4455      2.00000
     61      -0.4455      2.00000
     62      -0.4455      2.00000
     63      -0.4071      2.00000
     64      -0.2612      2.00000
     65      -0.2612      2.00000
     66      -0.2612      2.00000
     67      -0.2612      2.00000
     68      -0.2491      2.00000
     69      -0.2491      2.00000
     70      -0.2491      2.00000
     71      -0.2491      2.00000
     72      -0.1786      2.00000
     73      -0.1786      2.00000
     74      -0.1786      2.00000
     75      -0.1786      2.00000
     76      -0.1498      2.00000
     77      -0.1459      2.00000
     78      -0.1459      2.00000
     79      -0.1459      2.00000
     80      -0.1459      2.00000
     81      -0.0641      2.00000
     82      -0.0641      2.00000
     83      -0.0641      2.00000
     84      -0.0641      2.00000
     85      -0.0487      2.00000
     86      -0.0487      2.00000
     87       0.0029      2.00000
     88       0.0029      2.00000
     89       0.0436      2.00000
     90       0.0436      2.00000
     91       0.0436      2.00000
     92       0.0436      2.00000
     93       0.1642      2.00000
     94       0.1642      2.00000
     95       0.1642      2.00000
     96       0.1642      2.00000
     97       0.1826      2.00000
     98       0.1826      2.00000
     99       0.2892      2.00000
    100       0.3671      2.00000
    101       0.3671      2.00000
    102       0.3671      2.00000
    103       0.3671      2.00000
    104       0.4110      2.00000
    105       0.4110      2.00000
    106       0.4110      2.00000
    107       0.4110      2.00000
    108       0.4217      2.00000
    109       0.4217      2.00000
    110       0.4217      2.00000
    111       0.4217      2.00000
    112       0.4526      2.00000
    113       0.4526      2.00000
    114       0.4526      2.00000
    115       0.4526      2.00000
    116       0.4968      2.00000
    117       0.5151      2.00000
    118       0.5151      2.00000
    119       0.5151      2.00000
    120       0.5151      2.00000
    121       0.5194      2.00000
    122       0.5194      2.00000
    123       0.5194      2.00000
    124       0.5194      2.00000
    125       0.5619      2.00000
    126       0.5672      2.00000
    127       0.6016      2.00000
    128       0.6016      2.00000
    129       0.6016      2.00000
    130       0.6016      2.00000
    131       0.6358      2.00000
    132       0.6358      2.00000
    133       0.6658      2.00000
    134       0.6877      2.00000
    135       0.6877      2.00000
    136       0.6877      2.00000
    137       0.6877      2.00000
    138       0.6892      2.00000
    139       0.6892      2.00000
    140       0.7169      2.00000
    141       0.7169      2.00000
    142       0.7169      2.00000
    143       0.7169      2.00000
    144       0.8147      2.00000
    145       0.8147      2.00000
    146       0.8498      2.00000
    147       0.8498      2.00000
    148       0.8498      2.00000
    149       0.8498      2.00000
    150       0.8512      2.00000
    151       0.9093      2.00000
    152       0.9093      2.00000
    153       0.9309      2.00000
    154       0.9309      2.00000
    155       0.9309      2.00000
    156       0.9309      2.00000
    157       0.9521      2.00000
    158       1.0131      2.00000
    159       1.0131      2.00000
    160       1.0131      2.00000
    161       1.0131      2.00000
    162       1.0170      2.00000
    163       1.0170      2.00000
    164       1.0931      2.00000
    165       1.0931      2.00000
    166       1.0934      2.00000
    167       1.0934      2.00000
    168       1.4331      2.00000
    169       1.4331      2.00000
    170       1.4331      2.00000
    171       1.4331      2.00000
    172       2.0412      2.00000
    173       2.0412      2.00000
    174       2.0412      2.00000
    175       2.0412      2.00000
    176       2.1095      2.00000
    177       2.1095      2.00000
    178       2.1095      2.00000
    179       2.1095      2.00000
    180       2.8599      0.00000
    181       3.3066      0.00000
    182       3.3066      0.00000
    183       3.3066      0.00000
    184       3.3066      0.00000
    185       4.6117      0.00000
    186       4.6117      0.00000
    187       6.1940      0.00000
    188       6.1940      0.00000
    189       6.1940      0.00000
    190       6.1940      0.00000
    191       6.2460      0.00000
    192       6.2460      0.00000
    193       6.2460      0.00000
    194       6.2460      0.00000
    195       6.4833      0.00000
    196       6.4833      0.00000
    197       8.4313      0.00000
    198       8.4313      0.00000
    199       8.4313      0.00000
    200       8.4313      0.00000
    201       8.6346      0.00000
    202       8.6346      0.00000
    203       9.0473      0.00000
    204       9.0473      0.00000
    205       9.0473      0.00000
    206       9.0473      0.00000
    207       9.2097      0.00000
    208       9.2097      0.00000
    209       9.8217      0.00000
    210       9.8217      0.00000
    211       9.8217      0.00000
    212       9.8217      0.00000
    213      10.0445      0.00000
    214      10.0450      0.00000
    215      10.1483      0.00000
    216      10.1483      0.00000

 k-point   4 :       0.4286    0.0000    0.0000
  band No.  band energies     occupation 
      1      -5.1773      2.00000
      2      -4.8018      2.00000
      3      -2.7778      2.00000
      4      -2.7778      2.00000
      5      -2.7778      2.00000
      6      -2.7778      2.00000
      7      -2.4898      2.00000
      8      -2.4898      2.00000
      9      -2.4898      2.00000
     10      -2.4898      2.00000
     11      -1.7438      2.00000
     12      -1.6604      2.00000
[...]
     72      -0.0987      2.00000
     73      -0.0987      2.00000
     74      -0.0716      2.00000
     75      -0.0716      2.00000
     76      -0.0716      2.00000
     77      -0.0385      2.00000
     78      -0.0385      2.00000
     79      -0.0385      2.00000
     80      -0.0385      2.00000
     81      -0.0385      2.00000
     82      -0.0385      2.00000
     83      -0.0337      2.00000
     84      -0.0337      2.00000
     85      -0.0337      2.00000
     86       0.0105      2.00000
     87       0.0105      2.00000
     88       0.0236      2.00000
     89       0.0236      2.00000
     90       0.0236      2.00000
     91       0.0348      2.00000
     92       0.0348      2.00000
     93       0.0358      2.00000
     94       0.0358      2.00000
     95       0.0358      2.00000
     96       0.0358      2.00000
     97       0.0358      2.00000
     98       0.0358      2.00000
     99       0.0438      2.00000
    100       0.0438      2.00000
    101       0.0438      2.00000
    102       0.0842      2.00000
    103       0.0842      2.00000
    104       0.0842      2.00000
    105       0.2865      2.00000
    106       0.2865      2.00000
    107       0.2865      2.00000
    108       0.3725      2.00000
    109       0.3725      2.00000
    110       0.3725      2.00000
    111       0.3725      2.00000
    112       0.3725      2.00000
    113       0.3725      2.00000
    114       0.3829      2.00000
    115       0.3829      2.00000
    116       0.3829      2.00000
    117       0.4365      2.00000
    118       0.4365      2.00000
    119       0.4365      2.00000
    120       0.4682      2.00000
    121       0.4682      2.00000
    122       0.4682      2.00000
    123       0.4682      2.00000
    124       0.4682      2.00000
    125       0.4682      2.00000
    126       0.5349      2.00000
    127       0.5349      2.00000
    128       0.5349      2.00000
    129       0.5523      2.00000
    130       0.5523      2.00000
    131       0.5523      2.00000
    132       0.5621      2.00000
    133       0.5621      2.00000
    134       0.5801      2.00000
    135       0.5801      2.00000
    136       0.5801      2.00000
    137       0.6430      2.00000
    138       0.6430      2.00000
    139       0.6430      2.00000
    140       0.6793      2.00000
    141       0.6793      2.00000
    142       0.6986      2.00000
    143       0.6986      2.00000
    144       0.6986      2.00000
    145       0.9917      2.00000
    146       0.9917      2.00000
    147       0.9917      2.00000
    148       1.0033      2.00000
    149       1.0033      2.00000
    150       1.0033      2.00000
    151       1.0033      2.00000
    152       1.0033      2.00000
    153       1.0033      2.00000
    154       1.0045      2.00000
    155       1.0045      2.00000
    156       1.0045      2.00000
    157       1.0045      2.00000
    158       1.0045      2.00000
    159       1.0045      2.00000
    160       1.0084      2.00000
    161       1.0084      2.00000
    162       1.0084      2.00000
    163       1.0161      2.00000
    164       1.0161      2.00000
    165       1.0161      2.00000
    166       1.0235      2.00000
    167       1.0235      2.00000
    168       1.0235      2.00000
    169       2.5496      0.06801
    170       2.5496      0.06801
    171       2.5496      0.06800
    172       2.8884      0.00000
    173       2.8884      0.00000
    174       2.8884      0.00000
    175       2.8884      0.00000
    176       2.8884      0.00000
    177       2.8884      0.00000
    178       3.1712      0.00000
    179       3.1712      0.00000
    180       3.1712      0.00000
    181       3.4316      0.00000
    182       3.4316      0.00000
    183       3.4316      0.00000
    184       3.8244      0.00000
    185       3.8244      0.00000
    186       3.8244      0.00000
    187       3.8244      0.00000
    188       3.8244      0.00000
    189       3.8244      0.00000
    190       4.1554      0.00000
    191       4.1554      0.00000
    192       4.1554      0.00000
    193       7.2622      0.00000
    194       7.2622      0.00000
    195       7.2622      0.00000
    196       7.6609      0.00000
    197       7.6609      0.00000
    198       7.6609      0.00000
    199       8.2644      0.00000
    200       8.2644      0.00000
    201       8.2644      0.00000
    202       8.2644      0.00000
    203       8.2644      0.00000
    204       8.2644      0.00000
    205       8.6772      0.00000
    206       8.6772      0.00000
    207       8.6772      0.00000
    208       8.6772      0.00000
    209       8.6772      0.00000
    210       8.6772      0.00000
    211       9.2937      0.00000
    212       9.2937      0.00000
    213       9.2937      0.00000
    214       9.7129      0.00000
    215       9.7129      0.00000
    216       9.7129      0.00000


--------------------------------------------------------------------------------------------------------


 soft charge-density along one line, spin component           1
         0         1         2         3         4         5         6         7         8         9
 total charge-density along one line
 
 pseudopotential strength for first ion, spin component:           1
 -7.122  -0.000  -0.000  -0.000  -0.000   0.052   0.000   0.000
 -0.000  -7.122  -0.000   0.000   0.000   0.000   0.052   0.000
 -0.000  -0.000  -7.107  -0.000  -0.000   0.000   0.000   0.045
 -0.000   0.000  -0.000  -7.122  -0.000   0.000  -0.000   0.000
 -0.000   0.000  -0.000  -0.000  -7.107   0.000  -0.000   0.000
  0.052   0.000   0.000   0.000   0.000   1.545  -0.000  -0.000
  0.000   0.052   0.000  -0.000  -0.000  -0.000   1.545  -0.000
  0.000   0.000   0.045   0.000   0.000  -0.000  -0.000   1.548
  0.000  -0.000   0.000   0.052   0.000  -0.000   0.000  -0.000
  0.000  -0.000   0.000   0.000   0.045  -0.000   0.000  -0.000
 -0.000   0.000  -0.000   0.000  -0.000  -0.000   0.000  -0.000
  0.000  -0.000   0.000  -0.000   0.000  -0.000   0.000  -0.000
  0.000   0.000   0.000   0.000   0.000  -0.000  -0.000  -0.000
  0.000  -0.000   0.000   0.000   0.000   0.000   0.000  -0.000
 -0.000   0.000  -0.000   0.000   0.000   0.000   0.000   0.000
 -0.000  -0.000  -0.000  -0.000  -0.000   0.000   0.000   0.000
 -0.000   0.000  -0.000  -0.000  -0.000   0.000  -0.000   0.000
  0.000  -0.000   0.000  -0.000  -0.000  -0.000   0.000  -0.000
 total augmentation occupancy for first ion, spin component:           1
  1.893  -0.001  -0.003   0.001   0.001  -0.038   0.000   0.001  -0.001  -0.000   0.007   0.000  -0.000  -0.000   0.000   0.000
 -0.001   1.899  -0.002  -0.001  -0.001   0.000  -0.045   0.002   0.001  -0.000   0.001  -0.001   0.000   0.000   0.000  -0.000
 -0.003  -0.002   1.918  -0.000   0.004   0.001   0.002  -0.079   0.001  -0.002   0.019   0.002  -0.000   0.000  -0.000  -0.000
  0.001  -0.001  -0.000   1.899   0.002  -0.001   0.001   0.001  -0.041  -0.001   0.004   0.000  -0.000  -0.000   0.000  -0.000
  0.001  -0.001   0.004   0.002   1.901  -0.000  -0.000  -0.002  -0.001  -0.067  -0.008  -0.001  -0.000  -0.000   0.000  -0.000
 -0.038   0.000   0.001  -0.001  -0.000   0.051  -0.000   0.001   0.000   0.000  -0.001   0.001  -0.000  -0.000   0.000  -0.000
  0.000  -0.045   0.002   0.001  -0.000  -0.000   0.055  -0.002  -0.000   0.001   0.002   0.001  -0.000   0.000   0.000  -0.000
  0.001   0.002  -0.079   0.001  -0.002   0.001  -0.002   0.051  -0.001  -0.000  -0.009   0.001  -0.000  -0.000  -0.000  -0.000
 -0.001   0.001   0.001  -0.041  -0.001   0.000  -0.000  -0.001   0.051  -0.000  -0.001   0.000  -0.000  -0.000   0.000   0.000
 -0.000  -0.000  -0.002  -0.001  -0.067   0.000   0.001  -0.000  -0.000   0.047   0.005   0.000   0.000  -0.000   0.000   0.000
  0.007   0.001   0.019   0.004  -0.008  -0.001   0.002  -0.009  -0.001   0.005   1.097  -0.282  -0.000   0.000   0.000   0.000
  0.000  -0.001   0.002   0.000  -0.001   0.001   0.001   0.001   0.000   0.000  -0.282   0.107  -0.000  -0.000  -0.000  -0.000
 -0.000   0.000  -0.000  -0.000  -0.000  -0.000  -0.000  -0.000  -0.000   0.000  -0.000  -0.000   0.141  -0.003   0.002  -0.009
 -0.000   0.000   0.000  -0.000  -0.000  -0.000   0.000  -0.000  -0.000  -0.000   0.000  -0.000  -0.003   0.144   0.000  -0.000
  0.000   0.000  -0.000   0.000   0.000   0.000   0.000  -0.000   0.000   0.000   0.000  -0.000   0.002   0.000   0.143  -0.000
  0.000  -0.000  -0.000  -0.000  -0.000  -0.000  -0.000  -0.000   0.000   0.000   0.000  -0.000  -0.009  -0.000  -0.000   0.001
  0.000   0.000   0.000  -0.000  -0.000   0.000  -0.000   0.000   0.000   0.000   0.000   0.000  -0.000  -0.010  -0.000   0.000
  0.000   0.000  -0.000   0.000   0.000  -0.000   0.000   0.000  -0.000   0.000   0.000   0.000  -0.000  -0.000  -0.009   0.000


------------------------ aborting loop because EDIFF is reached ----------------------------------------




--------------------------------------------------------------------------------------------------------


    CHARGE:  VPU time    1.24: CPU time    1.24
    FORLOC:  VPU time    0.02: CPU time    0.02
    FORNL :  VPU time   17.90: CPU time   17.89
    STRESS:  VPU time   29.51: CPU time   29.51
    FORCOR:  VPU time    0.12: CPU time    0.12
    FORHAR:  VPU time    0.04: CPU time    0.04
    MIXING:  VPU time    0.00: CPU time    0.00


--------------------------------------------------------------------------------------------------------



  FREE ENERGIE OF THE ION-ELECTRON SYSTEM (eV)
  ---------------------------------------------------
  free  energy   TOTEN  =      -115.993683 eV

  energy  without entropy=     -115.993294  energy(sigma->0) =     -115.993488
 

  FORCE on cell =-STRESS in cart. coord.  units (eV/reduce length):
  Direction    X        Y        Z        XY       YZ       ZX
  --------------------------------------------------------------------------------------
  Alpha Z   2937.82   2937.82   2937.82
  Ewald   -11158.49 -11158.49 -11158.49      0.00     -0.00     -0.00
  Hartree   3599.58   3599.58   3599.58     -0.00     -0.00     -0.00
  E(xc)    -1996.46  -1996.46  -1996.46     -0.00      0.00     -0.00
  Local     3505.47   3505.47   3505.47      0.00      0.00      0.00
  n-local  -1218.28  -1215.45  -1210.33      1.89     -0.46      0.95
  augment   1801.77   1801.77   1801.77     -0.00      0.00     -0.00
  Kinetic   2483.80   2484.75   2490.75      0.85     -3.33     -0.27
  -------------------------------------------------------------------------------------
  Total      -38.57    -38.57    -38.57     -0.00     -0.00      0.00
  in kB     -138.77   -138.77   -138.77     -0.00     -0.00      0.00
  external pressure =     -138.77 kB  Pullay stress =        0.00 kB


 VOLUME and BASIS-vectors are now :
 -----------------------------------------------------------------------------
  energy-cutoff  :      500.00
  volume of cell :      445.33
      direct lattice vectors                 reciprocal lattice vectors
     7.636473205  0.000000000  0.000000000     0.130950502  0.000000000  0.000000000
     0.000000000  7.636473205  0.000000000     0.000000000  0.130950502  0.000000000
     0.000000000  0.000000000  7.636473205     0.000000000  0.000000000  0.130950502

  length of vectors
     7.636473205  7.636473205  7.636473205     0.130950502  0.130950502  0.130950502


 FORCES acting on ions
    electron-ion (+dipol)            ewald-force                    non-local-force                 convergence-correction
 -----------------------------------------------------------------------------------------------
   -.145E-12 -.166E-12 -.124E-12   0.126E-12 0.888E-15 0.000E+00   -.412E-25 0.792E-25 -.283E-26   0.141E-12 0.267E-12 0.193E-12
   0.104E-11 -.134E-12 0.133E-10   0.137E-12 -.266E-14 -.266E-14   0.620E-25 0.105E-25 0.670E-25   -.133E-12 0.295E-12 0.219E-12
   -.145E-12 0.106E-11 -.119E-12   0.104E-12 -.293E-13 -.639E-13   0.969E-25 -.254E-25 -.808E-26   0.148E-12 -.315E-12 0.193E-12
   0.103E-11 0.668E-11 -.595E-12   0.116E-12 -.258E-13 -.116E-12   -.872E-25 -.485E-26 -.404E-25   -.119E-12 -.298E-12 0.168E-12
   -.145E-12 -.165E-12 0.102E-11   0.944E-13 0.888E-15 -.171E-12   0.000E+00 -.646E-26 -.275E-25   0.166E-12 0.250E-12 -.255E-12
   0.104E-11 -.151E-12 0.226E-11   0.105E-12 -.266E-14 -.168E-12   -.368E-25 0.848E-26 -.713E-25   -.152E-12 0.287E-12 -.313E-12
   -.145E-12 0.106E-11 0.102E-11   0.133E-12 -.506E-13 -.107E-12   0.277E-25 -.267E-25 -.614E-25   0.161E-12 -.302E-12 -.223E-12
   0.104E-11 -.439E-11 0.411E-11   0.145E-12 -.542E-13 -.542E-13   -.889E-26 0.945E-25 -.258E-25   -.133E-12 -.302E-12 -.300E-12
   0.420E-12 0.324E-11 -.354E-12   -.329E-13 -.315E-13 -.746E-13   0.501E-25 0.889E-26 0.128E-25   0.201E-12 -.749E-13 0.232E-12
   0.165E-11 -.169E-10 -.589E-11   -.382E-13 -.280E-13 0.355E-13   0.202E-25 -.166E-24 -.634E-26   -.319E-12 -.517E-13 0.232E-12
   0.401E-12 -.117E-11 -.367E-12   -.249E-13 0.322E-13 -.173E-12   -.549E-25 -.129E-25 0.194E-25   0.195E-12 -.128E-12 0.195E-12
   0.167E-11 0.259E-11 -.471E-11   -.320E-13 0.287E-13 -.595E-13   -.404E-25 0.150E-24 0.194E-25   -.314E-12 -.735E-13 0.171E-12
   0.421E-12 -.241E-11 0.769E-12   -.364E-13 0.402E-14 -.206E-12   0.404E-26 0.359E-25 -.969E-25   0.191E-12 -.603E-13 -.263E-12
   0.165E-11 0.727E-11 -.680E-11   -.417E-13 0.471E-15 -.206E-12   -.889E-25 0.242E-25 -.485E-25   -.308E-12 -.230E-13 -.265E-12
   0.401E-12 0.466E-11 0.849E-12   -.249E-13 0.606E-13 -.111E-12   0.210E-25 -.111E-24 -.287E-25   0.179E-12 -.144E-12 -.256E-12
   0.167E-11 -.986E-11 0.564E-11   -.320E-13 0.571E-13 -.111E-12   0.210E-25 0.428E-25 0.244E-25   -.305E-12 -.984E-13 -.229E-12
   0.400E-12 -.150E-12 0.103E-11   0.204E-13 0.107E-13 -.707E-13   0.372E-25 -.364E-25 -.247E-24   0.222E-12 0.278E-12 -.459E-13
   0.166E-11 -.152E-12 -.148E-10   0.151E-13 0.142E-13 -.185E-13   -.598E-25 0.104E-24 -.161E-24   -.311E-12 0.321E-12 -.101E-12
   0.405E-12 0.103E-11 -.461E-11   0.204E-13 -.284E-13 0.357E-13   0.153E-25 -.103E-24 -.200E-24   0.197E-12 -.292E-12 -.322E-13
   0.166E-11 -.436E-11 0.921E-11   0.151E-13 -.320E-13 0.951E-13   -.485E-26 0.937E-25 -.209E-24   -.290E-12 -.322E-12 -.897E-13
   0.415E-12 -.168E-12 -.338E-11   0.320E-13 -.355E-14 0.221E-12   -.291E-25 0.105E-25 0.304E-24   0.185E-12 0.262E-12 -.942E-13
   0.165E-11 -.153E-12 0.992E-11   0.249E-13 -.355E-14 0.168E-12   0.111E-24 -.740E-25 0.314E-24   -.268E-12 0.282E-12 -.106E-12
   0.422E-12 0.111E-11 0.244E-11   0.320E-13 -.533E-13 0.114E-12   -.137E-24 0.541E-25 0.228E-24   0.171E-12 -.280E-12 -.115E-12
   0.165E-11 0.738E-11 -.365E-11   0.249E-13 -.533E-13 0.545E-13   0.145E-25 -.792E-25 0.239E-24   -.259E-12 -.276E-12 -.141E-12
   -.145E-12 0.412E-12 0.419E-12   -.140E-12 -.176E-13 0.742E-13   0.132E-24 0.364E-26 -.226E-24   0.157E-12 -.378E-13 -.668E-13
   0.104E-11 -.101E-11 0.743E-11   -.126E-12 -.212E-13 -.361E-13   0.533E-25 -.840E-25 -.275E-24   -.115E-12 -.979E-13 -.960E-13
   -.145E-12 0.167E-11 0.418E-12   -.132E-12 0.311E-13 0.173E-12   0.889E-26 -.586E-25 -.254E-24   0.185E-12 -.114E-12 -.749E-13
   0.103E-11 0.284E-11 -.410E-11   -.890E-13 0.346E-13 0.588E-13   0.414E-26 0.798E-25 -.251E-24   -.146E-12 -.900E-13 -.838E-13
   -.144E-12 0.411E-12 0.167E-11   -.128E-12 0.134E-14 0.227E-12   0.775E-25 0.331E-25 0.254E-24   0.153E-12 -.315E-13 -.115E-12
   0.103E-11 -.553E-12 -.702E-12   -.112E-12 0.126E-14 0.227E-12   -.331E-25 0.226E-25 0.270E-24   -.117E-12 -.680E-13 -.116E-12
   -.144E-12 0.167E-11 0.167E-11   -.148E-12 0.607E-13 0.132E-12   0.121E-25 0.137E-25 0.276E-24   0.162E-12 -.118E-12 -.131E-12
   0.103E-11 -.982E-11 -.136E-11   -.132E-12 0.606E-13 0.132E-12   0.800E-25 0.153E-25 0.160E-24   -.132E-12 -.121E-12 -.124E-12
 -----------------------------------------------------------------------------------------------
   0.237E-10 -.863E-11 0.116E-10   -.126E-12 -.383E-13 -.265E-15   0.227E-24 0.965E-25 -.530E-25   -.607E-12 -.148E-11 -.204E-11
 
 
 POSITION                                       TOTAL-FORCE (eV/Angst)
 -----------------------------------------------------------------------------------
      0.00000      0.00000      0.00000        -0.000000      0.000000      0.000000
      3.81824      0.00000      0.00000         0.000000     -0.000000      0.000000
      0.00000      3.81824      0.00000         0.000000     -0.000000     -0.000000
      3.81824      3.81824      0.00000         0.000000      0.000000      0.000000
      0.00000      0.00000      3.81824         0.000000     -0.000000      0.000000
      3.81824      0.00000      3.81824        -0.000000      0.000000     -0.000000
      0.00000      3.81824      3.81824        -0.000000      0.000000      0.000000
      3.81824      3.81824      3.81824         0.000000      0.000000     -0.000000
      1.90912      1.90912      0.00000        -0.000000     -0.000000      0.000000
      5.72735      1.90912      0.00000         0.000000      0.000000     -0.000000
      1.90912      5.72735      0.00000         0.000000     -0.000000      0.000000
      5.72735      5.72735      0.00000         0.000000      0.000000      0.000000
      1.90912      1.90912      3.81824         0.000000     -0.000000     -0.000000
      5.72735      1.90912      3.81824        -0.000000      0.000000     -0.000000
      1.90912      5.72735      3.81824         0.000000     -0.000000     -0.000000
      5.72735      5.72735      3.81824         0.000000      0.000000     -0.000000
      1.90912      0.00000      1.90912         0.000000     -0.000000     -0.000000
      5.72735      0.00000      1.90912         0.000000     -0.000000      0.000000
      1.90912      3.81824      1.90912         0.000000     -0.000000     -0.000000
      5.72735      3.81824      1.90912         0.000000     -0.000000     -0.000000
      1.90912      0.00000      5.72735        -0.000000      0.000000      0.000000
      5.72735      0.00000      5.72735         0.000000      0.000000      0.000000
      1.90912      3.81824      5.72735         0.000000     -0.000000      0.000000
      5.72735      3.81824      5.72735        -0.000000     -0.000000      0.000000
      0.00000      1.90912      1.90912         0.000000     -0.000000     -0.000000
      3.81824      1.90912      1.90912         0.000000     -0.000000     -0.000000
      0.00000      5.72735      1.90912         0.000000     -0.000000     -0.000000
      3.81824      5.72735      1.90912         0.000000     -0.000000     -0.000000
      0.00000      1.90912      5.72735         0.000000     -0.000000     -0.000000
      3.81824      1.90912      5.72735        -0.000000      0.000000     -0.000000
      0.00000      5.72735      5.72735        -0.000000     -0.000000      0.000000
      3.81824      5.72735      5.72735        -0.000000      0.000000     -0.000000
 -----------------------------------------------------------------------------------
    total drift:                                0.000000     -0.000000      0.000000


--------------------------------------------------------------------------------------------------------



 mean value of Nose-termostat <S>:     1.000 mean value of <T> :     0.000
 mean temperature <T/S>/<1/S>  :     0.000

     LOOP+:  VPU time  648.26: CPU time  648.20
  
  
 General timing and accounting informations for this job:
 ========================================================
  
                  Total CPU time used (sec):      660.721
                            User time (sec):      619.420
                          System time (sec):       41.301
                         Elapsed time (sec):      660.675
  
                   Maximum memory used (kb):     1252508.
                   Average memory used (kb):           0.
  
                          Minor page faults:       220044
                          Major page faults:            0
                 Voluntary context switches:          902
