       N       E                     dE             d eps       ncg     rms          rms(c)
DAV:   1    -0.887963106602E+02   -0.88796E+02   -0.34871E+00   432   0.443E+00    0.846E-01
DAV:   2    -0.887486052901E+02    0.47705E-01   -0.16511E-01   476   0.301E+00    0.419E-01
DAV:   3    -0.887463626545E+02    0.22426E-02   -0.25382E-02   456   0.868E-01    0.211E-01
DAV:   4    -0.887465500508E+02   -0.18740E-03   -0.34087E-03   448   0.193E-01    0.101E-01
DAV:   5    -0.887465739406E+02   -0.23890E-04   -0.28418E-04   448   0.111E-01    0.346E-02
DAV:   6    -0.887465817981E+02   -0.78574E-05   -0.51917E-05   448   0.375E-02
   1 F= -.88746582E+02 E0= -.88690420E+02  d E =-.168487E+00
