 running on    4 nodes
 distr:  one band on    1 nodes,    4 groups
 vasp.4.6.28 25Jul05 complex 
 POSCAR found :  1 types and   32 ions

 ----------------------------------------------------------------------------- 
|                                                                             |
|  ADVICE TO THIS USER RUNNING 'VASP/VAMP'   (HEAR YOUR MASTER'S VOICE ...):  |
|                                                                             |
|      You have a (more or less) 'large supercell' and for larger cells       |
|      it might be more efficient to use real space projection operators      |
|      So try LREAL= Auto  in the INCAR   file.                               |
|      Mind: If you want to do an extremely accurate calculations keep the    |
|      reciprocal projection scheme          (i.e. LREAL=.FALSE.)             |
|                                                                             |
 ----------------------------------------------------------------------------- 

 LDA part: xc-table for Pade appr. of Perdew
 POSCAR, INCAR and KPOINTS ok, starting setup
 WARNING: wrap around errors must be expected
 FFT: planning ...           4
 reading WAVECAR
 entering main loop
       N       E                     dE             d eps       ncg     rms          rms(c)
DAV:   1     0.214141881256E+04    0.21414E+04   -0.11550E+05   432   0.980E+02
DAV:   2    -0.233559627733E+01   -0.21438E+04   -0.20388E+04   428   0.338E+02
DAV:   3    -0.948013914772E+02   -0.92466E+02   -0.89952E+02   464   0.774E+01
DAV:   4    -0.957917525321E+02   -0.99036E+00   -0.98612E+00   456   0.792E+00
DAV:   5    -0.957969202470E+02   -0.51677E-02   -0.51650E-02   448   0.508E-01    0.157E+01
DAV:   6    -0.890983151040E+02    0.66986E+01   -0.23408E+01   444   0.172E+01    0.298E+00
DAV:   7    -0.888509332885E+02    0.24738E+00   -0.41141E-01   440   0.150E+00    0.148E+00
DAV:   8    -0.887472238527E+02    0.10371E+00   -0.21995E-02   432   0.458E-01    0.950E-02
DAV:   9    -0.887477669441E+02   -0.54309E-03   -0.16099E-03   448   0.121E-01    0.687E-02
DAV:  10    -0.887475735540E+02    0.19339E-03   -0.15100E-04   432   0.364E-02    0.675E-03
DAV:  11    -0.887475654295E+02    0.81245E-05   -0.37654E-06   240   0.498E-03
   1 F= -.88747565E+02 E0= -.88691388E+02  d E =-.887476E+02
 curvature:   0.00 expect dE= 0.000E+00 dE for cont linesearch  0.000E+00
 trial: gam= 0.00000 g(F)=  0.195E-57 g(S)=  0.000E+00 ort = 0.000E+00 (trialstep = 0.100E+01)
 search vector abs. value=  0.100E-09
 reached required accuracy - stopping structural energy minimisation
 writing wavefunctions

 ----------------------------------------------------------------------------- 
|                                                                             |
|           W    W    AA    RRRRR   N    N  II  N    N   GGGG   !!!           |
|           W    W   A  A   R    R  NN   N  II  NN   N  G    G  !!!           |
|           W    W  A    A  R    R  N N  N  II  N N  N  G       !!!           |
|           W WW W  AAAAAA  RRRRR   N  N N  II  N  N N  G  GGG   !            |
|           WW  WW  A    A  R   R   N   NN  II  N   NN  G    G                |
|           W    W  A    A  R    R  N    N  II  N    N   GGGG   !!!           |
|                                                                             |
|      The partial DOS and the PROCAR file are not evaluated for NPAR/=1      |
|      please rerun with NPAR=1                                               |
|                                                                             |
 ----------------------------------------------------------------------------- 

