   4   4   0   0
  0.2029222E+02  0.4329754E-09  0.4329754E-09  0.4329754E-09  0.5000000E-15
  1.000000000000000E-004
  CAR 
 unknown system                          
     12.85841600     -5.29175901  301      2.17705784      1.00000000
     -5.292  0.0000E+00  0.0000E+00
     -5.231  0.0000E+00  0.0000E+00
     -5.171  0.0000E+00  0.0000E+00
     -5.110  0.0000E+00  0.0000E+00
     -5.050  0.0000E+00  0.0000E+00
     -4.989  0.0000E+00  0.0000E+00
     -4.929  0.0000E+00  0.0000E+00
     -4.868  0.0000E+00  0.0000E+00
     -4.808  0.0000E+00  0.0000E+00
     -4.747  0.0000E+00  0.0000E+00
     -4.687  0.0000E+00  0.0000E+00
     -4.626  0.0000E+00  0.0000E+00
     -4.566  0.0000E+00  0.0000E+00
     -4.505  0.4962E-09  0.3002E-10
     -4.445  0.1911E-01  0.1156E-02
     -4.384  0.1144E+00  0.8078E-02
     -4.324  0.2282E+00  0.2188E-01
     -4.263  0.1531E+00  0.3114E-01
     -4.203  0.1134E+00  0.3801E-01
     -4.142  0.4520E+00  0.6535E-01
     -4.082  0.4649E+00  0.9348E-01
     -4.021  0.4496E-02  0.9375E-01
     -3.961  0.2290E+00  0.1076E+00
     -3.900  0.5731E+00  0.1423E+00
     -3.840  0.4597E+00  0.1701E+00
     -3.779  0.5075E+00  0.2008E+00
     -3.719  0.1083E+00  0.2074E+00
     -3.658  0.1022E+01  0.2692E+00
     -3.598  0.3515E+00  0.2905E+00
     -3.537  0.4509E+00  0.3178E+00
     -3.477  0.5714E+00  0.3524E+00
     -3.416  0.1152E+01  0.4220E+00
     -3.356  0.6360E+00  0.4605E+00
     -3.295  0.3128E+01  0.6498E+00
     -3.235  0.4103E+01  0.8980E+00
     -3.174  0.8897E+01  0.1436E+01
     -3.114  0.1128E+02  0.2119E+01
     -3.053  0.1143E+02  0.2811E+01
     -2.993  0.1636E+02  0.3801E+01
     -2.932  0.2082E+02  0.5060E+01
     -2.872  0.1878E+02  0.6196E+01
     -2.811  0.1633E+02  0.7184E+01
     -2.751  0.1738E+02  0.8236E+01
     -2.690  0.1026E+02  0.8857E+01
     -2.630  0.1456E+02  0.9738E+01
     -2.569  0.1011E+02  0.1035E+02
     -2.509  0.1312E+02  0.1114E+02
     -2.448  0.1127E+02  0.1182E+02
     -2.388  0.1505E+02  0.1274E+02
     -2.327  0.1729E+02  0.1378E+02
     -2.267  0.1455E+02  0.1466E+02
     -2.206  0.1225E+02  0.1540E+02
     -2.146  0.1348E+02  0.1622E+02
     -2.085  0.1760E+02  0.1728E+02
     -2.025  0.1800E+02  0.1837E+02
     -1.964  0.2755E+02  0.2004E+02
     -1.904  0.2075E+02  0.2130E+02
     -1.843  0.1528E+02  0.2222E+02
     -1.783  0.1722E+02  0.2326E+02
     -1.722  0.1140E+02  0.2395E+02
     -1.662  0.1906E+02  0.2510E+02
     -1.601  0.1227E+02  0.2585E+02
     -1.541  0.1480E+02  0.2674E+02
     -1.480  0.1730E+02  0.2779E+02
     -1.420  0.1794E+02  0.2888E+02
     -1.359  0.1852E+02  0.3000E+02
     -1.299  0.1944E+02  0.3117E+02
     -1.238  0.1221E+02  0.3191E+02
     -1.178  0.1794E+02  0.3300E+02
     -1.117  0.1156E+02  0.3370E+02
     -1.057  0.1466E+02  0.3458E+02
     -0.996  0.1716E+02  0.3562E+02
     -0.936  0.1705E+02  0.3665E+02
     -0.875  0.2029E+02  0.3788E+02
     -0.815  0.2487E+02  0.3938E+02
     -0.754  0.1593E+02  0.4035E+02
     -0.694  0.1275E+02  0.4112E+02
     -0.633  0.2856E+01  0.4129E+02
     -0.573  0.7282E+00  0.4134E+02
     -0.512  0.1026E-05  0.4134E+02
     -0.452  0.4591E+00  0.4136E+02
     -0.391  0.4591E+00  0.4139E+02
     -0.331  0.3736E+00  0.4141E+02
     -0.270  0.3298E+01  0.4161E+02
     -0.210  0.1370E+01  0.4170E+02
     -0.149  0.5419E+00  0.4173E+02
     -0.089  0.3834E+00  0.4175E+02
     -0.028  0.9122E+00  0.4181E+02
      0.032  0.6653E+00  0.4185E+02
      0.093  0.7175E+00  0.4189E+02
      0.153  0.3765E-05  0.4189E+02
      0.214  0.1134E+01  0.4196E+02
      0.274  0.2196E+01  0.4209E+02
      0.335  0.1145E+01  0.4216E+02
      0.395  0.6957E-04  0.4216E+02
      0.456  0.1769E+01  0.4227E+02
      0.516  0.1445E+01  0.4236E+02
      0.577  0.4588E+00  0.4239E+02
      0.637  0.8932E+00  0.4244E+02
      0.698  0.2510E-01  0.4244E+02
      0.758  0.4465E+00  0.4247E+02
      0.819  0.1490E+01  0.4256E+02
      0.879  0.1323E+01  0.4264E+02
      0.940  0.1388E+01  0.4272E+02
      1.000  0.2084E+01  0.4285E+02
      1.061  0.3082E+00  0.4287E+02
      1.121  0.9040E+00  0.4292E+02
      1.182  0.4734E+00  0.4295E+02
      1.242  0.8979E+00  0.4300E+02
      1.303  0.5824E+00  0.4304E+02
      1.363  0.1848E+01  0.4315E+02
      1.424  0.9746E-01  0.4316E+02
      1.484  0.6908E+00  0.4320E+02
      1.545  0.7797E+00  0.4325E+02
      1.605  0.3181E+01  0.4344E+02
      1.666  0.5101E+00  0.4347E+02
      1.726  0.1398E+01  0.4355E+02
      1.787  0.3518E+00  0.4358E+02
      1.847  0.5885E+00  0.4361E+02
      1.908  0.3650E+01  0.4383E+02
      1.968  0.0000E+00  0.4383E+02
      2.029  0.1507E-02  0.4383E+02
      2.089  0.1546E+01  0.4393E+02
      2.150  0.7688E+00  0.4397E+02
      2.210  0.5147E+00  0.4400E+02
      2.271  0.7837E+00  0.4405E+02
      2.331  0.1970E+01  0.4417E+02
      2.392  0.2372E+01  0.4431E+02
      2.452  0.2287E+00  0.4433E+02
      2.513  0.2425E+01  0.4447E+02
      2.573  0.6044E+00  0.4451E+02
      2.634  0.2218E+01  0.4464E+02
      2.694  0.1449E+01  0.4473E+02
      2.755  0.0000E+00  0.4473E+02
      2.815  0.8266E-04  0.4473E+02
      2.876  0.1829E+01  0.4484E+02
      2.936  0.9262E+00  0.4490E+02
      2.997  0.1659E+01  0.4500E+02
      3.057  0.1317E+01  0.4508E+02
      3.118  0.1138E+01  0.4515E+02
      3.178  0.9200E+00  0.4520E+02
      3.239  0.1706E+01  0.4531E+02
      3.299  0.8353E+00  0.4536E+02
      3.360  0.1114E+01  0.4543E+02
      3.420  0.9334E+00  0.4548E+02
      3.481  0.2446E+01  0.4563E+02
      3.541  0.1084E+01  0.4570E+02
      3.602  0.5042E+00  0.4573E+02
      3.662  0.4240E+00  0.4575E+02
      3.723  0.1382E+01  0.4583E+02
      3.783  0.9462E+00  0.4589E+02
      3.844  0.2220E-02  0.4589E+02
      3.904  0.1389E+01  0.4598E+02
      3.965  0.1848E+01  0.4609E+02
      4.025  0.1985E+01  0.4621E+02
      4.086  0.1650E+01  0.4631E+02
      4.146  0.7615E+00  0.4635E+02
      4.207  0.6875E+00  0.4640E+02
      4.267  0.1642E+01  0.4650E+02
      4.328  0.6544E+00  0.4653E+02
      4.388  0.1274E+01  0.4661E+02
      4.449  0.7725E+00  0.4666E+02
      4.509  0.1750E-01  0.4666E+02
      4.570  0.1348E+01  0.4674E+02
      4.630  0.1398E+01  0.4683E+02
      4.691  0.7200E+00  0.4687E+02
      4.751  0.2080E+00  0.4688E+02
      4.812  0.4579E+00  0.4691E+02
      4.872  0.1250E+01  0.4699E+02
      4.933  0.2023E+01  0.4711E+02
      4.993  0.1839E+01  0.4722E+02
      5.054  0.1621E+01  0.4732E+02
      5.114  0.8087E+00  0.4737E+02
      5.175  0.1693E+01  0.4747E+02
      5.235  0.2028E+01  0.4759E+02
      5.296  0.5483E+00  0.4762E+02
      5.356  0.1791E+01  0.4773E+02
      5.417  0.9412E+00  0.4779E+02
      5.477  0.2291E+01  0.4793E+02
      5.538  0.1435E+01  0.4802E+02
      5.598  0.8603E+00  0.4807E+02
      5.659  0.4585E+00  0.4809E+02
      5.719  0.9797E+00  0.4815E+02
      5.780  0.1398E+01  0.4824E+02
      5.840  0.2593E+01  0.4840E+02
      5.901  0.2604E+01  0.4855E+02
      5.961  0.6314E+00  0.4859E+02
      6.022  0.1314E+01  0.4867E+02
      6.082  0.1735E+01  0.4878E+02
      6.143  0.1464E+01  0.4886E+02
      6.203  0.2890E+01  0.4904E+02
      6.264  0.0000E+00  0.4904E+02
      6.324  0.0000E+00  0.4904E+02
      6.385  0.1487E+00  0.4905E+02
      6.445  0.1841E+01  0.4916E+02
      6.506  0.1691E+01  0.4926E+02
      6.566  0.2867E+01  0.4944E+02
      6.627  0.2631E+00  0.4945E+02
      6.687  0.2115E+01  0.4958E+02
      6.748  0.3599E+00  0.4960E+02
      6.808  0.1887E+01  0.4972E+02
      6.869  0.1431E+01  0.4980E+02
      6.929  0.4030E+00  0.4983E+02
      6.990  0.1352E+01  0.4991E+02
      7.050  0.1861E+01  0.5002E+02
      7.111  0.1376E+01  0.5010E+02
      7.171  0.1866E-11  0.5010E+02
      7.232  0.1650E+01  0.5020E+02
      7.292  0.2165E+01  0.5033E+02
      7.353  0.2671E+00  0.5035E+02
      7.413  0.1205E+01  0.5042E+02
      7.474  0.1858E+01  0.5054E+02
      7.534  0.2097E+00  0.5055E+02
      7.595  0.9988E+00  0.5061E+02
      7.655  0.3601E+01  0.5083E+02
      7.716  0.1326E+01  0.5091E+02
      7.776  0.1851E+01  0.5102E+02
      7.837  0.1504E+01  0.5111E+02
      7.897  0.1327E+01  0.5119E+02
      7.958  0.2091E-01  0.5119E+02
      8.018  0.1674E+01  0.5129E+02
      8.079  0.1341E+01  0.5137E+02
      8.139  0.1883E+01  0.5149E+02
      8.200  0.5813E+00  0.5152E+02
      8.260  0.1540E+01  0.5162E+02
      8.321  0.2824E+01  0.5179E+02
      8.381  0.4135E+01  0.5204E+02
      8.442  0.1740E+01  0.5214E+02
      8.502  0.2326E+01  0.5228E+02
      8.563  0.1913E+01  0.5240E+02
      8.623  0.1795E+01  0.5251E+02
      8.684  0.4918E+00  0.5254E+02
      8.744  0.1179E+01  0.5261E+02
      8.805  0.9914E+00  0.5267E+02
      8.865  0.1268E+01  0.5275E+02
      8.926  0.1078E+01  0.5281E+02
      8.986  0.4251E+00  0.5284E+02
      9.047  0.2698E+01  0.5300E+02
      9.107  0.3064E+01  0.5319E+02
      9.168  0.2372E+01  0.5333E+02
      9.228  0.1786E+01  0.5344E+02
      9.289  0.1666E+01  0.5354E+02
      9.349  0.1973E+01  0.5366E+02
      9.410  0.2778E+01  0.5383E+02
      9.470  0.1368E+01  0.5391E+02
      9.531  0.6790E+00  0.5395E+02
      9.591  0.2986E+01  0.5413E+02
      9.652  0.1263E+01  0.5421E+02
      9.712  0.3367E+01  0.5441E+02
      9.773  0.5515E+00  0.5444E+02
      9.833  0.2243E+01  0.5458E+02
      9.894  0.4280E-01  0.5458E+02
      9.954  0.1236E+01  0.5466E+02
     10.015  0.1460E+00  0.5467E+02
     10.075  0.1594E+01  0.5476E+02
     10.136  0.1771E+01  0.5487E+02
     10.196  0.2712E+01  0.5503E+02
     10.257  0.2708E+01  0.5520E+02
     10.317  0.1847E+01  0.5531E+02
     10.378  0.5339E+00  0.5534E+02
     10.438  0.1445E+01  0.5543E+02
     10.499  0.5919E+00  0.5546E+02
     10.559  0.7171E+00  0.5551E+02
     10.620  0.1236E+01  0.5558E+02
     10.680  0.5990E+00  0.5562E+02
     10.741  0.2642E-01  0.5562E+02
     10.801  0.2719E+01  0.5579E+02
     10.862  0.4548E+00  0.5581E+02
     10.922  0.1379E-01  0.5581E+02
     10.983  0.2085E+00  0.5583E+02
     11.043  0.1084E+00  0.5583E+02
     11.104  0.1119E+01  0.5590E+02
     11.164  0.4525E+00  0.5593E+02
     11.225  0.9042E+00  0.5598E+02
     11.285  0.0000E+00  0.5598E+02
     11.346  0.0000E+00  0.5598E+02
     11.406  0.0000E+00  0.5598E+02
     11.467  0.0000E+00  0.5598E+02
     11.527  0.0000E+00  0.5598E+02
     11.588  0.0000E+00  0.5598E+02
     11.648  0.0000E+00  0.5598E+02
     11.709  0.2549E-16  0.5598E+02
     11.769  0.7655E-01  0.5599E+02
     11.830  0.3824E-01  0.5599E+02
     11.890  0.0000E+00  0.5599E+02
     11.951  0.0000E+00  0.5599E+02
     12.011  0.6547E-03  0.5599E+02
     12.072  0.1715E+00  0.5600E+02
     12.132  0.0000E+00  0.5600E+02
     12.193  0.0000E+00  0.5600E+02
     12.253  0.0000E+00  0.5600E+02
     12.314  0.0000E+00  0.5600E+02
     12.374  0.0000E+00  0.5600E+02
     12.435  0.0000E+00  0.5600E+02
     12.495  0.0000E+00  0.5600E+02
     12.556  0.0000E+00  0.5600E+02
     12.616  0.0000E+00  0.5600E+02
     12.677  0.0000E+00  0.5600E+02
     12.737  0.0000E+00  0.5600E+02
     12.798  0.0000E+00  0.5600E+02
     12.858  0.0000E+00  0.5600E+02
