    4    4    1    1
  0.2029222E+02  0.4329754E-09  0.4329754E-09  0.4329754E-09  0.5000000E-15
  1.000000000000000E-004
  CAR 
 unknown system                          
   44   84   28
 
  0.0000000E+00  0.0000000E+00  0.0000000E+00  0.5787037E-03
   1       -4.4668
   2       -3.3517
   3       -3.3517
   4       -3.3517
   5       -3.2706
   6       -3.2706
   7       -3.2706
   8       -2.1695
   9       -2.1695
  10       -2.1695
  11       -1.4126
  12       -1.4126
  13       -0.8528
  14       -0.8528
  15       -0.8528
  16       -0.6758
  17       -0.6758
  18       -0.6758
  19       -0.6758
  20       -0.6758
  21       -0.6758
  22        3.8803
  23        3.8803
  24        3.8803
  25        7.6203
  26        7.6203
  27        7.6203
  28       12.0251
 
  0.8333333E-01  0.0000000E+00  0.0000000E+00  0.3472222E-02
   1       -4.4034
   2       -3.3286
   3       -3.3218
   4       -3.3218
   5       -3.2534
   6       -3.2439
   7       -3.2439
   8       -2.1900
   9       -2.1495
  10       -2.1495
  11       -1.4329
  12       -1.4034
  13       -0.8796
  14       -0.8796
  15       -0.8627
  16       -0.7655
  17       -0.7655
  18       -0.7090
  19       -0.7090
  20       -0.6758
  21       -0.6758
  22        3.3849
  23        4.0256
  24        4.0256
  25        7.6347
  26        7.6347
  27        8.2227
  28       11.7664
 
  0.1666667E+00  0.0000000E+00  0.0000000E+00  0.3472222E-02
   1       -4.2163
   2       -3.2621
   3       -3.2359
   4       -3.2359
   5       -3.2025
   6       -3.1642
   7       -3.1642
   8       -2.2497
   9       -2.0900
  10       -2.0900
  11       -1.4894
  12       -1.3765
  13       -1.0028
  14       -1.0028
  15       -0.9573
  16       -0.9573
  17       -0.8918
  18       -0.8041
  19       -0.8041
  20       -0.6757
  21       -0.6757
  22        2.3774
  23        4.4292
  24        4.4292
  25        7.6790
  26        7.6790
  27        9.5515
  28       11.1120
 
  0.2500000E+00  0.0000000E+00  0.0000000E+00  0.3472222E-02
   1       -3.9175
   2       -3.1614
   3       -3.1209
   4       -3.1065
   5       -3.1065
   6       -3.0318
   7       -3.0318
   8       -2.3434
   9       -1.9929
  10       -1.9929
  11       -1.5665
  12       -1.3334
  13       -1.3241
  14       -1.3241
  15       -1.0758
  16       -1.0758
  17       -0.9490
  18       -0.9490
  19       -0.9377
  20       -0.6755
  21       -0.6755
  22        1.2947
  23        5.0251
  24        5.0251
  25        7.7545
  26        7.7545
  27       10.2623
  28       10.2623
 
  0.3333333E+00  0.0000000E+00  0.0000000E+00  0.3472222E-02
   1       -3.5389
   2       -3.0450
   3       -3.0128
   4       -2.9577
   5       -2.9577
   6       -2.8479
   7       -2.8479
   8       -2.4635
   9       -1.8614
  10       -1.8614
  11       -1.6744
  12       -1.6744
  13       -1.6263
  14       -1.2768
  15       -1.2142
  16       -1.2142
  17       -1.1274
  18       -1.1274
  19       -0.9971
  20       -0.6753
  21       -0.6753
  22        0.2796
  23        5.7546
  24        5.7546
  25        7.8580
  26        7.8580
  27        9.3354
  28        9.3354
 
  0.4166667E+00  0.0000000E+00  0.0000000E+00  0.3472222E-02
   1       -3.1660
   2       -2.9499
   3       -2.8847
   4       -2.8301
   5       -2.8301
   6       -2.6147
   7       -2.6147
   8       -2.6005
   9       -2.0186
  10       -2.0186
  11       -1.7004
  12       -1.7004
  13       -1.5755
  14       -1.3345
  15       -1.3345
  16       -1.3221
  17       -1.3221
  18       -1.2104
  19       -1.0656
  20       -0.6752
  21       -0.6752
  22       -0.5970
  23        6.5771
  24        6.5771
  25        7.9673
  26        7.9673
  27        8.3912
  28        8.3912
 
  0.5000000E+00  0.0000000E+00  0.0000000E+00  0.1736111E-02
   1       -2.9547
   2       -2.9547
   3       -2.7776
   4       -2.7776
   5       -2.7442
   6       -2.7442
   7       -2.3360
   8       -2.3360
   9       -2.3360
  10       -2.3360
  11       -1.5174
  12       -1.5174
  13       -1.5174
  14       -1.5174
  15       -1.3845
  16       -1.3845
  17       -1.2497
  18       -1.2497
  19       -1.1384
  20       -1.1384
  21       -0.6752
  22       -0.6752
  23        7.4636
  24        7.4636
  25        7.4636
  26        7.4636
  27        8.0204
  28        8.0204
 
  0.8333333E-01  0.8333333E-01  0.0000000E+00  0.6944444E-02
   1       -4.3408
   2       -3.2988
   3       -3.2985
   4       -3.2985
   5       -3.2271
   6       -3.2271
   7       -3.2115
   8       -2.1970
   9       -2.1424
  10       -2.1308
  11       -1.4381
  12       -1.4074
  13       -0.9054
  14       -0.9026
  15       -0.9026
  16       -0.8270
  17       -0.7858
  18       -0.7858
  19       -0.7091
  20       -0.7091
  21       -0.6990
  22        3.5212
  23        3.5212
  24        4.1662
  25        7.6487
  26        8.2453
  27        8.2453
  28       10.9735
 
  0.1666667E+00  0.8333333E-01  0.0000000E+00  0.1388889E-01
   1       -4.1564
   2       -3.2314
   3       -3.2294
   4       -3.2120
   5       -3.1773
   6       -3.1484
   7       -3.1185
   8       -2.2488
   9       -2.0893
  10       -2.0756
  11       -1.4868
  12       -1.3822
  13       -1.0784
  14       -1.0416
  15       -0.9802
  16       -0.9781
  17       -0.9238
  18       -0.8355
  19       -0.8045
  20       -0.7106
  21       -0.7093
  22        2.5082
  23        3.8953
  24        4.5591
  25        7.6895
  26        8.3134
  27        9.5768
  28       10.0757
 
  0.2500000E+00  0.8333333E-01  0.0000000E+00  0.1388889E-01
   1       -3.8624
   2       -3.1295
   3       -3.1158
   4       -3.0973
   5       -3.0817
   6       -3.0178
   7       -2.9759
   8       -2.3388
   9       -1.9937
  10       -1.9896
  11       -1.5552
  12       -1.3825
  13       -1.3481
  14       -1.3336
  15       -1.1099
  16       -1.0945
  17       -1.0552
  18       -0.9498
  19       -0.8986
  20       -0.7127
  21       -0.7096
  22        1.4295
  23        4.4363
  24        5.1433
  25        7.7457
  26        8.4242
  27        9.2039
  28       10.3531
 
  0.3333333E+00  0.8333333E-01  0.0000000E+00  0.1388889E-01
   1       -3.4908
   2       -3.0113
   3       -2.9916
   4       -2.9692
   5       -2.9319
   6       -2.8367
   7       -2.7977
   8       -2.4554
   9       -1.8960
  10       -1.8627
  11       -1.7203
  12       -1.6872
  13       -1.5818
  14       -1.2848
  15       -1.2676
  16       -1.2279
  17       -1.1992
  18       -1.1285
  19       -0.9719
  20       -0.7128
  21       -0.7101
  22        0.4274
  23        5.0818
  24        5.8628
  25        7.7175
  26        8.5038
  27        8.5531
  28        9.4251
 
  0.4166667E+00  0.8333333E-01  0.0000000E+00  0.1388889E-01
   1       -3.1246
   2       -2.9135
   3       -2.8663
   4       -2.8255
   5       -2.8040
   6       -2.6072
   7       -2.5912
   8       -2.5888
   9       -2.0487
  10       -2.0228
  11       -1.8255
  12       -1.7019
  13       -1.4873
  14       -1.4545
  15       -1.3426
  16       -1.3264
  17       -1.3234
  18       -1.1838
  19       -1.0571
  20       -0.7123
  21       -0.7108
  22       -0.4222
  23        5.7877
  24        6.6774
  25        7.2420
  26        8.3443
  27        8.4824
  28        8.6057
 
  0.5000000E+00  0.8333333E-01  0.0000000E+00  0.6944444E-02
   1       -2.9159
   2       -2.9159
   3       -2.7565
   4       -2.7565
   5       -2.7291
   6       -2.7291
   7       -2.3436
   8       -2.3436
   9       -2.3335
  10       -2.3335
  11       -1.6916
  12       -1.6916
  13       -1.5189
  14       -1.5189
  15       -1.3850
  16       -1.3850
  17       -1.1856
  18       -1.1856
  19       -1.0076
  20       -1.0076
  21       -0.7115
  22       -0.7115
  23        6.5226
  24        6.5226
  25        7.5584
  26        7.5584
  27        8.4897
  28        8.4897
 
  0.1666667E+00  0.1666667E+00  0.0000000E+00  0.6944444E-02
   1       -3.9804
   2       -3.1875
   3       -3.1432
   4       -3.1432
   5       -3.1018
   6       -3.1018
   7       -3.0081
   8       -2.2692
   9       -2.0633
  10       -2.0339
  11       -1.5058
  12       -1.3674
  13       -1.2102
  14       -1.2102
  15       -1.1839
  16       -1.0468
  17       -0.9148
  18       -0.9148
  19       -0.8055
  20       -0.8055
  21       -0.7676
  22        2.8608
  23        2.8608
  24        4.9264
  25        7.7039
  26        9.0589
  27        9.6428
  28        9.6428
 
  0.2500000E+00  0.1666667E+00  0.0000000E+00  0.1388889E-01
   1       -3.7017
   2       -3.0989
   3       -3.0380
   4       -3.0271
   5       -3.0100
   6       -2.9768
   7       -2.8566
   8       -2.3354
   9       -1.9846
  10       -1.9756
  11       -1.5532
  12       -1.5148
  13       -1.4311
  14       -1.3750
  15       -1.3015
  16       -1.1495
  17       -1.0340
  18       -0.9518
  19       -0.9440
  20       -0.8071
  21       -0.7981
  22        1.7817
  23        3.3611
  24        5.4816
  25        7.5491
  26        8.3247
  27        9.6905
  28       10.6192
 
  0.3333333E+00  0.1666667E+00  0.0000000E+00  0.1388889E-01
   1       -3.3527
   2       -2.9676
   3       -2.9286
   4       -2.9140
   5       -2.8564
   6       -2.8038
   7       -2.6853
   8       -2.4362
   9       -1.9420
  10       -1.8608
  11       -1.8329
  12       -1.7301
  13       -1.5630
  14       -1.5493
  15       -1.2698
  16       -1.1909
  17       -1.1782
  18       -1.1314
  19       -1.0082
  20       -0.8095
  21       -0.8091
  22        0.7911
  23        3.9542
  24        6.1752
  25        6.8771
  26        8.2475
  27        9.5337
  28        9.6881
 
  0.4166667E+00  0.1666667E+00  0.0000000E+00  0.1388889E-01
   1       -3.0085
   2       -2.8123
   3       -2.8122
   4       -2.8083
   5       -2.7279
   6       -2.5858
   7       -2.5566
   8       -2.5204
   9       -2.1253
  10       -2.0374
  11       -1.9571
  12       -1.7589
  13       -1.7034
  14       -1.4221
  15       -1.3695
  16       -1.3267
  17       -1.3154
  18       -1.1062
  19       -1.0099
  20       -0.8129
  21       -0.8112
  22       -0.0442
  23        4.6109
  24        6.0805
  25        6.9692
  26        8.4458
  27        8.7492
  28        9.1500
 
  0.5000000E+00  0.1666667E+00  0.0000000E+00  0.6944444E-02
   1       -2.8057
   2       -2.8057
   3       -2.7005
   4       -2.7005
   5       -2.6852
   6       -2.6852
   7       -2.3556
   8       -2.3556
   9       -2.3274
  10       -2.3274
  11       -1.9151
  12       -1.9151
  13       -1.5218
  14       -1.5218
  15       -1.3929
  16       -1.3929
  17       -1.2448
  18       -1.2448
  19       -0.8128
  20       -0.8128
  21       -0.6573
  22       -0.6573
  23        5.3204
  24        5.3204
  25        7.8349
  26        7.8349
  27        8.7581
  28        8.7581
 
  0.2500000E+00  0.2500000E+00  0.0000000E+00  0.6944444E-02
   1       -3.4515
   2       -3.0377
   3       -2.9113
   4       -2.9113
   5       -2.8991
   6       -2.8991
   7       -2.7033
   8       -2.3588
   9       -1.9514
  10       -1.9381
  11       -1.6793
  12       -1.6793
  13       -1.5919
  14       -1.5903
  15       -1.2361
  16       -1.1903
  17       -1.0470
  18       -1.0470
  19       -0.9548
  20       -0.9548
  21       -0.8784
  22        2.2683
  23        2.2683
  24        6.0018
  25        6.7445
  26        8.2005
  27       10.7546
  28       10.7546
 
  0.3333333E+00  0.2500000E+00  0.0000000E+00  0.1388889E-01
   1       -3.1457
   2       -2.9322
   3       -2.8254
   4       -2.7655
   5       -2.7520
   6       -2.7380
   7       -2.5401
   8       -2.4212
   9       -1.9755
  10       -1.9559
  11       -1.8557
  12       -1.8391
  13       -1.8147
  14       -1.6006
  15       -1.3390
  16       -1.1847
  17       -1.1350
  18       -1.1035
  19       -0.9988
  20       -0.9579
  21       -0.9270
  22        1.2713
  23        2.8406
  24        5.8220
  25        6.6625
  26        8.3625
  27       10.1074
  28       10.1180
 
  0.4166667E+00  0.2500000E+00  0.0000000E+00  0.1388889E-01
   1       -2.8454
   2       -2.7882
   3       -2.7249
   4       -2.6473
   5       -2.6088
   6       -2.5532
   7       -2.5123
   8       -2.4070
   9       -2.2217
  10       -2.0689
  11       -2.0308
  12       -2.0184
  13       -1.6956
  14       -1.5023
  15       -1.4210
  16       -1.3295
  17       -1.3268
  18       -1.2052
  19       -0.9599
  20       -0.9499
  21       -0.7029
  22        0.4209
  23        3.4801
  24        4.9643
  25        7.4289
  26        8.6405
  27        9.1740
  28        9.5209
 
  0.5000000E+00  0.2500000E+00  0.0000000E+00  0.6944444E-02
   1       -2.6473
   2       -2.6473
   3       -2.6354
   4       -2.6354
   5       -2.6175
   6       -2.6175
   7       -2.3391
   8       -2.3391
   9       -2.3216
  10       -2.3216
  11       -2.0919
  12       -2.0919
  13       -1.5212
  14       -1.5212
  15       -1.4227
  16       -1.4227
  17       -1.3473
  18       -1.3473
  19       -0.9585
  20       -0.9585
  21       -0.2427
  22       -0.2427
  23        4.1857
  24        4.1857
  25        8.2736
  26        8.2736
  27        9.0255
  28        9.0255
 
  0.3333333E+00  0.3333333E+00  0.0000000E+00  0.6944444E-02
   1       -2.9080
   2       -2.8588
   3       -2.6854
   4       -2.6854
   5       -2.5896
   6       -2.5896
   7       -2.4300
   8       -2.3860
   9       -2.1241
  10       -2.1241
  11       -1.9523
  12       -1.9497
  13       -1.7763
  14       -1.6661
  15       -1.4266
  16       -1.2361
  17       -1.2361
  18       -1.1373
  19       -1.1373
  20       -1.0258
  21       -0.7098
  22        1.8283
  23        1.8283
  24        4.8359
  25        7.2903
  26        8.5942
  27       10.6257
  28       10.6285
 
  0.4166667E+00  0.3333333E+00  0.0000000E+00  0.1388889E-01
   1       -2.7459
   2       -2.6858
   3       -2.6102
   4       -2.5145
   5       -2.4705
   6       -2.4651
   7       -2.4540
   8       -2.3086
   9       -2.2680
  10       -2.2415
  11       -2.1269
  12       -2.0266
  13       -1.6633
  14       -1.6206
  15       -1.4984
  16       -1.3799
  17       -1.3376
  18       -1.3271
  19       -1.1347
  20       -1.0890
  21       -0.3096
  22        0.9528
  23        2.4548
  24        3.9480
  25        8.0276
  26        8.9288
  27        9.7335
  28        9.9386
 
  0.5000000E+00  0.3333333E+00  0.0000000E+00  0.6944444E-02
   1       -2.5959
   2       -2.5959
   3       -2.5349
   4       -2.5349
   5       -2.5089
   6       -2.5089
   7       -2.3229
   8       -2.3229
   9       -2.2562
  10       -2.2562
  11       -2.1719
  12       -2.1719
  13       -1.5083
  14       -1.5083
  15       -1.4877
  16       -1.4877
  17       -1.4796
  18       -1.4796
  19       -1.1216
  20       -1.1216
  21        0.2377
  22        0.2377
  23        3.1575
  24        3.1575
  25        8.8492
  26        8.8492
  27        9.3741
  28        9.3741
 
  0.4166667E+00  0.4166667E+00  0.0000000E+00  0.6944444E-02
   1       -2.6768
   2       -2.5743
   3       -2.4772
   4       -2.4772
   5       -2.4476
   6       -2.4332
   7       -2.4332
   8       -2.2525
   9       -2.2525
  10       -2.2186
  11       -2.1437
  12       -1.9924
  13       -1.7001
  14       -1.5903
  15       -1.5804
  16       -1.4818
  17       -1.4818
  18       -1.3123
  19       -1.3123
  20       -1.2014
  21        0.1834
  22        1.5578
  23        1.5578
  24        3.0434
  25        8.7380
  26        9.3200
  27       10.4039
  28       10.4184
 
  0.5000000E+00  0.4166667E+00  0.0000000E+00  0.6944444E-02
   1       -2.5737
   2       -2.5737
   3       -2.4991
   4       -2.4991
   5       -2.4514
   6       -2.4514
   7       -2.3405
   8       -2.3405
   9       -2.1249
  10       -2.1249
  11       -2.0898
  12       -2.0898
  13       -1.6170
  14       -1.6170
  15       -1.5882
  16       -1.5882
  17       -1.4703
  18       -1.4703
  19       -1.2743
  20       -1.2743
  21        0.8007
  22        0.8007
  23        2.2498
  24        2.2498
  25        9.5366
  26        9.5366
  27        9.8240
  28        9.8240
 
  0.5000000E+00  0.5000000E+00  0.0000000E+00  0.1736111E-02
   1       -2.5422
   2       -2.5422
   3       -2.5422
   4       -2.5422
   5       -2.3831
   6       -2.3831
   7       -2.3831
   8       -2.3831
   9       -2.0273
  10       -2.0273
  11       -2.0273
  12       -2.0273
  13       -1.6739
  14       -1.6739
  15       -1.6739
  16       -1.6739
  17       -1.3939
  18       -1.3939
  19       -1.3939
  20       -1.3939
  21        1.4663
  22        1.4663
  23        1.4663
  24        1.4663
  25       10.3142
  26       10.3142
  27       10.3142
  28       10.3142
 
  0.8333333E-01  0.8333333E-01  0.8333333E-01  0.4629630E-02
   1       -4.2793
   2       -3.2764
   3       -3.2764
   4       -3.2764
   5       -3.1940
   6       -3.1940
   7       -3.1940
   8       -2.2008
   9       -2.1255
  10       -2.1255
  11       -1.4265
  12       -1.4265
  13       -0.9288
  14       -0.9288
  15       -0.9288
  16       -0.8626
  17       -0.8626
  18       -0.8626
  19       -0.7164
  20       -0.7164
  21       -0.7164
  22        3.6522
  23        3.6522
  24        3.6522
  25        8.2662
  26        8.2662
  27        8.2662
  28       11.0702
 
  0.1666667E+00  0.8333333E-01  0.8333333E-01  0.1388889E-01
   1       -4.0983
   2       -3.2127
   3       -3.2086
   4       -3.2086
   5       -3.1415
   6       -3.1002
   7       -3.1002
   8       -2.2440
   9       -2.0782
  10       -2.0752
  11       -1.4781
  12       -1.3925
  13       -1.1008
  14       -1.1008
  15       -0.9988
  16       -0.9790
  17       -0.9790
  18       -0.9653
  19       -0.7638
  20       -0.7269
  21       -0.7269
  22        2.6321
  23        4.0141
  24        4.0141
  25        8.3236
  26        8.3236
  27        9.5930
  28       10.1797
 
  0.2500000E+00  0.8333333E-01  0.8333333E-01  0.1388889E-01
   1       -3.8105
   2       -3.1195
   3       -3.0962
   4       -3.0962
   5       -3.0538
   6       -2.9578
   7       -2.9578
   8       -2.3281
   9       -1.9928
  10       -1.9918
  11       -1.5381
  12       -1.4006
  13       -1.4006
  14       -1.3382
  15       -1.1241
  16       -1.1123
  17       -1.0897
  18       -1.0897
  19       -0.8315
  20       -0.7344
  21       -0.7344
  22        1.5532
  23        4.5419
  24        4.5419
  25        8.3671
  26        8.3671
  27        9.3682
  28        9.3682
 
  0.3333333E+00  0.8333333E-01  0.8333333E-01  0.1388889E-01
   1       -3.4489
   2       -3.0134
   3       -2.9491
   4       -2.9491
   5       -2.9368
   6       -2.7828
   7       -2.7828
   8       -2.4386
   9       -1.9120
  10       -1.8809
  11       -1.7287
  12       -1.7287
  13       -1.5325
  14       -1.3248
  15       -1.2671
  16       -1.2584
  17       -1.2223
  18       -1.2223
  19       -0.9121
  20       -0.7386
  21       -0.7386
  22        0.5541
  23        5.1762
  24        5.1762
  25        8.0684
  26        8.0684
  27        9.0090
  28        9.0090
 
  0.4166667E+00  0.8333333E-01  0.8333333E-01  0.1388889E-01
   1       -3.0960
   2       -2.9160
   3       -2.8116
   4       -2.8022
   5       -2.8022
   6       -2.5868
   7       -2.5868
   8       -2.5638
   9       -2.0452
  10       -2.0452
  11       -1.8728
  12       -1.7437
  13       -1.5506
  14       -1.4218
  15       -1.3451
  16       -1.3411
  17       -1.3411
  18       -1.1837
  19       -1.0009
  20       -0.7406
  21       -0.7406
  22       -0.2974
  23        5.8743
  24        5.8743
  25        7.3677
  26        7.3677
  27        9.1485
  28        9.1485
 
  0.5000000E+00  0.8333333E-01  0.8333333E-01  0.6944444E-02
   1       -2.9022
   2       -2.9022
   3       -2.7357
   4       -2.7357
   5       -2.6907
   6       -2.6907
   7       -2.4056
   8       -2.4056
   9       -2.2749
  10       -2.2749
  11       -1.7615
  12       -1.7615
  13       -1.5876
  14       -1.5876
  15       -1.3915
  16       -1.3915
  17       -1.0932
  18       -1.0932
  19       -0.9402
  20       -0.9402
  21       -0.7412
  22       -0.7412
  23        6.5575
  24        6.5575
  25        6.6680
  26        6.6680
  27        9.2858
  28        9.2858
 
  0.1666667E+00  0.1666667E+00  0.8333333E-01  0.1388889E-01
   1       -3.9279
   2       -3.1698
   3       -3.1506
   4       -3.1506
   5       -3.0442
   6       -3.0442
   7       -2.9880
   8       -2.2528
   9       -2.0574
  10       -2.0388
  11       -1.4852
  12       -1.3844
  13       -1.2250
  14       -1.2250
  15       -1.2195
  16       -1.0877
  17       -1.0284
  18       -1.0284
  19       -0.7679
  20       -0.7679
  21       -0.7609
  22        2.9696
  23        2.9696
  24        4.3470
  25        8.2902
  26        9.2409
  27        9.5851
  28        9.5851
 
  0.2500000E+00  0.1666667E+00  0.8333333E-01  0.2777778E-01
   1       -3.6604
   2       -3.0840
   3       -3.0677
   4       -3.0427
   5       -2.9494
   6       -2.9014
   7       -2.8369
   8       -2.3063
   9       -1.9906
  10       -1.9818
  11       -1.5249
  12       -1.5224
  13       -1.4681
  14       -1.3878
  15       -1.3165
  16       -1.1809
  17       -1.1407
  18       -1.1105
  19       -0.8252
  20       -0.7912
  21       -0.7898
  22        1.8840
  23        3.4550
  24        4.8417
  25        7.8053
  26        8.8910
  27        9.1831
  28       10.1839
 
  0.3333333E+00  0.1666667E+00  0.8333333E-01  0.2777778E-01
   1       -3.3315
   2       -2.9740
   3       -2.9546
   4       -2.8958
   5       -2.8231
   6       -2.7345
   7       -2.6702
   8       -2.3920
   9       -1.9497
  10       -1.8920
  11       -1.8314
  12       -1.7583
  13       -1.5777
  14       -1.4842
  15       -1.2936
  16       -1.2890
  17       -1.2278
  18       -1.2080
  19       -0.9010
  20       -0.8109
  21       -0.8079
  22        0.8843
  23        4.0364
  24        5.4464
  25        6.9763
  26        8.4088
  27        9.0519
  28       10.2814
 
  0.4166667E+00  0.1666667E+00  0.8333333E-01  0.2777778E-01
   1       -3.0215
   2       -2.8879
   3       -2.7976
   4       -2.7379
   5       -2.6889
   6       -2.5740
   7       -2.5261
   8       -2.4879
   9       -2.0985
  10       -2.0367
  11       -1.9718
  12       -1.7773
  13       -1.7695
  14       -1.4613
  15       -1.3865
  16       -1.3487
  17       -1.3053
  18       -1.0273
  19       -0.9982
  20       -0.8205
  21       -0.8184
  22        0.0282
  23        4.6855
  24        6.1106
  25        6.1687
  26        7.6125
  27        9.3804
  28       10.2316
 
  0.5000000E+00  0.1666667E+00  0.8333333E-01  0.1388889E-01
   1       -2.8651
   2       -2.8651
   3       -2.6802
   4       -2.6802
   5       -2.5791
   6       -2.5791
   7       -2.4677
   8       -2.4677
   9       -2.2145
  10       -2.2145
  11       -1.9347
  12       -1.9347
  13       -1.6240
  14       -1.6240
  15       -1.4160
  16       -1.4160
  17       -1.1235
  18       -1.1235
  19       -0.8225
  20       -0.8225
  21       -0.6304
  22       -0.6304
  23        5.3918
  24        5.3918
  25        6.8488
  26        6.8488
  27        9.8127
  28        9.8127
 
  0.2500000E+00  0.2500000E+00  0.8333333E-01  0.1388889E-01
   1       -3.4316
   2       -3.0274
   3       -2.9694
   4       -2.9694
   5       -2.8033
   6       -2.8033
   7       -2.6856
   8       -2.3025
   9       -1.9590
  10       -1.9570
  11       -1.6831
  12       -1.6831
  13       -1.6131
  14       -1.5479
  15       -1.2876
  16       -1.2095
  17       -1.1918
  18       -1.1918
  19       -0.8610
  20       -0.8610
  21       -0.8520
  22        2.3520
  23        2.3520
  24        5.2950
  25        6.8372
  26        8.9909
  27        9.6948
  28        9.6948
 
  0.3333333E+00  0.2500000E+00  0.8333333E-01  0.2777778E-01
   1       -3.1645
   2       -2.9268
   3       -2.8913
   4       -2.8300
   5       -2.6687
   6       -2.6428
   7       -2.5318
   8       -2.3322
   9       -1.9601
  10       -1.9580
  11       -1.8879
  12       -1.8535
  13       -1.8210
  14       -1.5250
  15       -1.3855
  16       -1.3269
  17       -1.2790
  18       -1.0192
  19       -0.9464
  20       -0.9021
  21       -0.9000
  22        1.3410
  23        2.9111
  24        5.7969
  25        5.9579
  26        8.8134
  27        9.2608
  28       10.2472
 
  0.4166667E+00  0.2500000E+00  0.8333333E-01  0.2777778E-01
   1       -2.9291
   2       -2.8253
   3       -2.7871
   4       -2.6612
   5       -2.5414
   6       -2.5203
   7       -2.4357
   8       -2.3715
   9       -2.1512
  10       -2.0353
  11       -2.0267
  12       -2.0120
  13       -1.7821
  14       -1.4868
  15       -1.4622
  16       -1.3886
  17       -1.3826
  18       -1.0581
  19       -0.9286
  20       -0.9284
  21       -0.7148
  22        0.4684
  23        3.5422
  24        5.0200
  25        6.5190
  26        7.9897
  27        9.6558
  28       10.7850
 
  0.5000000E+00  0.2500000E+00  0.8333333E-01  0.1388889E-01
   1       -2.8134
   2       -2.8134
   3       -2.6286
   4       -2.6286
   5       -2.4917
   6       -2.4917
   7       -2.4107
   8       -2.4107
   9       -2.1516
  10       -2.1516
  11       -2.0942
  12       -2.0942
  13       -1.6449
  14       -1.6449
  15       -1.4689
  16       -1.4689
  17       -1.2055
  18       -1.2055
  19       -0.9373
  20       -0.9373
  21       -0.2269
  22       -0.2269
  23        4.2433
  24        4.2433
  25        7.2256
  26        7.2256
  27       10.1701
  28       10.1701
 
  0.3333333E+00  0.3333333E+00  0.8333333E-01  0.1388889E-01
   1       -2.9886
   2       -2.8626
   3       -2.7732
   4       -2.7732
   5       -2.5052
   6       -2.5052
   7       -2.4002
   8       -2.2922
   9       -2.0885
  10       -2.0885
  11       -1.9356
  12       -1.9190
  13       -1.8652
  14       -1.5591
  15       -1.4849
  16       -1.3852
  17       -1.3852
  18       -1.0099
  19       -1.0099
  20       -0.9825
  21       -0.7277
  22        1.8841
  23        1.8841
  24        4.8842
  25        6.4081
  26        9.3284
  27        9.3284
  28        9.5873
 
  0.4166667E+00  0.3333333E+00  0.8333333E-01  0.2777778E-01
   1       -2.8446
   2       -2.7628
   3       -2.7418
   4       -2.6409
   5       -2.4513
   6       -2.3512
   7       -2.3373
   8       -2.2801
   9       -2.1943
  10       -2.1672
  11       -2.0082
  12       -2.0033
  13       -1.7920
  14       -1.5575
  15       -1.5255
  16       -1.4727
  17       -1.4664
  18       -1.1392
  19       -1.0562
  20       -1.0419
  21       -0.3170
  22        0.9891
  23        2.5030
  24        3.9938
  25        7.0274
  26        8.4872
  27        9.9470
  28       10.0333
 
  0.5000000E+00  0.3333333E+00  0.8333333E-01  0.1388889E-01
   1       -2.7596
   2       -2.7596
   3       -2.6411
   4       -2.6411
   5       -2.4328
   6       -2.4328
   7       -2.2603
   8       -2.2603
   9       -2.1578
  10       -2.1578
  11       -2.0759
  12       -2.0759
  13       -1.6696
  14       -1.6696
  15       -1.5539
  16       -1.5539
  17       -1.2983
  18       -1.2983
  19       -1.0676
  20       -1.0676
  21        0.2508
  22        0.2508
  23        3.2028
  24        3.2028
  25        7.7216
  26        7.7216
  27       10.5993
  28       10.5993
 
  0.4166667E+00  0.4166667E+00  0.8333333E-01  0.1388889E-01
   1       -2.7760
   2       -2.7200
   3       -2.6702
   4       -2.6702
   5       -2.3521
   6       -2.3521
   7       -2.3299
   8       -2.2680
   9       -2.1132
  10       -2.1132
  11       -1.9658
  12       -1.9124
  13       -1.8110
  14       -1.6459
  15       -1.5896
  16       -1.5896
  17       -1.4676
  18       -1.1986
  19       -1.1986
  20       -1.1408
  21        0.1852
  22        1.5903
  23        1.5903
  24        3.0819
  25        7.6313
  26        9.0906
  27        9.0906
  28       10.5259
 
  0.5000000E+00  0.4166667E+00  0.8333333E-01  0.1388889E-01
   1       -2.7186
   2       -2.7186
   3       -2.6703
   4       -2.6703
   5       -2.3645
   6       -2.3645
   7       -2.2944
   8       -2.2944
   9       -1.9951
  10       -1.9951
  11       -1.9784
  12       -1.9784
  13       -1.7158
  14       -1.7158
  15       -1.6602
  16       -1.6602
  17       -1.3510
  18       -1.3510
  19       -1.2003
  20       -1.2003
  21        0.8168
  22        0.8168
  23        2.2836
  24        2.2836
  25        8.3196
  26        8.3196
  27        9.7895
  28        9.7895
 
  0.5000000E+00  0.5000000E+00  0.8333333E-01  0.3472222E-02
   1       -2.6931
   2       -2.6931
   3       -2.6931
   4       -2.6931
   5       -2.3249
   6       -2.3249
   7       -2.3249
   8       -2.3249
   9       -1.8964
  10       -1.8964
  11       -1.8964
  12       -1.8964
  13       -1.7527
  14       -1.7527
  15       -1.7527
  16       -1.7527
  17       -1.3111
  18       -1.3111
  19       -1.3111
  20       -1.3111
  21        1.4898
  22        1.4898
  23        1.4898
  24        1.4898
  25        9.0099
  26        9.0099
  27        9.0099
  28        9.0099
 
  0.1666667E+00  0.1666667E+00  0.1666667E+00  0.4629630E-02
   1       -3.7759
   2       -3.1214
   3       -3.1214
   4       -3.1214
   5       -2.9270
   6       -2.9270
   7       -2.9270
   8       -2.2209
   9       -2.0374
  10       -2.0374
  11       -1.4270
  12       -1.4270
  13       -1.3212
  14       -1.3212
  15       -1.3212
  16       -1.1890
  17       -1.1890
  18       -1.1890
  19       -0.7586
  20       -0.7586
  21       -0.7586
  22        3.2728
  23        3.2728
  24        3.2728
  25        9.0450
  26        9.0450
  27        9.0450
  28       10.1213
 
  0.2500000E+00  0.1666667E+00  0.1666667E+00  0.1388889E-01