 vasp.4.6.28 25Jul05 complex 
 executed on             LinuxIFC date 2017.01.06  05:43:12
 running on    4 nodes
 distr:  one band on    1 nodes,    4 groups


--------------------------------------------------------------------------------------------------------


 INCAR:
 POTCAR:   PAW_PBE Ag 06Sep2000                   
 POTCAR:   PAW_PBE Ag 06Sep2000                   
   VRHFIN =Ag : s1 d10                                                          
   LEXCH  = PE                                                                  
   EATOM  =  1037.4134 eV,   76.2477 Ry                                         
                                                                                
   TITEL  = PAW_PBE Ag 06Sep2000                                                
   LULTRA =        F    use ultrasoft PP ?                                      
   IUNSCR =        1    unscreen: 0-lin 1-nonlin 2-no                           
   RPACOR =    2.000    partial core radius                                     
   POMASS =  107.868; ZVAL   =   11.000    mass and valenz                      
   RCORE  =    2.400    outmost cutoff radius                                   
   RWIGS  =    2.840; RWIGS  =    1.503    wigner-seitz radius (au A)           
   ENMAX  =  249.846; ENMIN  =  187.385 eV                                      
   RCLOC  =    1.962    cutoff for local pot                                    
   LCOR   =        T    correct aug charges                                     
   LPAW   =        T    paw PP                                                  
   EAUG   =  412.496                                                            
   DEXC   =    -.047                                                            
   RMAX   =    2.917    core radius for proj-oper                               
   RAUG   =    1.300    factor for augmentation sphere                          
   RDEP   =    2.416    radius for radial grids                                 
   QCUT   =   -4.285; QGAM   =    8.570    optimization parameters              
                                                                                
   Description                                                                  
     l     E      TYP  RCUT    TYP  RCUT                                        
     2   .000     23  2.400                                                     
     2   .000     23  2.400                                                     
     0   .000     23  2.400                                                     
     0   .000     23  2.400                                                     
     1  -.200     23  2.400                                                     
     1  1.500     23  2.400                                                     
     3   .000      7   .000                                                     
  local pseudopotential read in
  partial core-charges read in
  atomic valenz-charges read in
  non local Contribution for L=           2  read in
    real space projection operators read in
  non local Contribution for L=           2  read in
    real space projection operators read in
  non local Contribution for L=           0  read in
    real space projection operators read in
  non local Contribution for L=           0  read in
    real space projection operators read in
  non local Contribution for L=           1  read in
    real space projection operators read in
  non local Contribution for L=           1  read in
    real space projection operators read in
    PAW grid and wavefunctions read in
 
   number of l-projection  operators is LMAX  =           6
   number of lm-projection operators is LMMAX =          18
 
 PAW_PBE Ag 06Sep2000                   :
 energy of atom  1       EATOM=-1037.4134
 kinetic energy error for atom=    0.0010 (will be added to EATOM!!)
 
 EXHCAR: internal setup
 exchange correlation table for  LEXCH =        8
   RHO(1)=    0.500       N(1)  =     2000
   RHO(2)=  100.500       N(2)  =     4000
 
 POSCAR: Ag                                      
  positions in direct lattice
  velocities in cartesian coordinates
 


--------------------------------------------------------------------------------------------------------


 ion  position               nearest neighbor table
   1  0.000  0.000  0.000-   2 3.06   3 3.06   4 3.06   3 3.06   4 3.06   2 3.06   4 3.06   4 3.06
                             2 3.06   3 3.06   3 3.06   2 3.06
   2  0.500  0.500  0.000-   1 3.06   3 3.06   4 3.06   3 3.06   4 3.06   1 3.06   3 3.06   3 3.06
                             1 3.06   4 3.06   4 3.06   1 3.06
   3  0.500  0.000  0.500-   1 3.06   2 3.06   4 3.06   1 3.06   2 3.06   2 3.06   4 3.06   2 3.06
                             1 3.06   4 3.06   1 3.06   4 3.06
   4  0.000  0.500  0.500-   1 3.06   2 3.06   3 3.06   1 3.06   2 3.06   1 3.06   3 3.06   1 3.06
                             2 3.06   3 3.06   2 3.06   3 3.06
 
  LATTYP: Found a simple cubic cell.
 ALAT       =     4.3297537729
  
  Lattice vectors:
  
 A1 = (   4.3297537729,   0.0000000000,   0.0000000000)
 A2 = (   0.0000000000,   4.3297537729,   0.0000000000)
 A3 = (   0.0000000000,   0.0000000000,   4.3297537729)
 Subroutine PRICEL returns following result:
 
  LATTYP: Found a face centered cubic cell.
 ALAT       =     4.3297537729
  
  Lattice vectors:
  
 A1 = (   2.1648768864,   2.1648768864,  -0.0000000000)
 A2 = (   2.1648768864,   0.0000000000,  -2.1648768864)
 A3 = (   0.0000000000,   2.1648768864,  -2.1648768864)
 
   4 primitive cells build up your supercell.
 

Analysis of symmetry for initial positions (statically):

 Routine SETGRP: Setting up the symmetry group for a 
 simple cubic supercell.


 Subroutine GETGRP returns: Found 48 space group operations
 (whereof 48 operations were pure point group operations)
 out of a pool of 48 trial point group operations.


The static configuration has the point symmetry O_h .

Analysis of symmetry for dynamics (positions and initial velocities):

 Subroutine DYNSYM returns: Found 48 space group operations
 (whereof 48 operations were pure point group operations)
 out of a pool of 48 trial space group operations
 (whereof 48 operations were pure point group operations)
 and found also     4 'primitive' translations


The dynamic configuration has the point symmetry O_h .
 
 
 KPOINTS: Automatic mesh                          

Automatic generation of k-mesh.
 
 Subroutine IBZKPT returns following result:
 ===========================================
 
 Found     84 irreducible k-points:
 
 Following reciprocal coordinates:
            Coordinates               Weight
  0.000000  0.000000  0.000000      1.000000
  0.083333  0.000000  0.000000      6.000000
  0.166667  0.000000  0.000000      6.000000
  0.250000  0.000000  0.000000      6.000000
  0.333333  0.000000  0.000000      6.000000
  0.416667  0.000000  0.000000      6.000000
  0.500000  0.000000  0.000000      3.000000
  0.083333  0.083333  0.000000     12.000000
  0.166667  0.083333  0.000000     24.000000
  0.250000  0.083333  0.000000     24.000000
  0.333333  0.083333  0.000000     24.000000
  0.416667  0.083333  0.000000     24.000000
  0.500000  0.083333  0.000000     12.000000
  0.166667  0.166667  0.000000     12.000000
  0.250000  0.166667  0.000000     24.000000
  0.333333  0.166667  0.000000     24.000000
  0.416667  0.166667  0.000000     24.000000
  0.500000  0.166667  0.000000     12.000000
  0.250000  0.250000  0.000000     12.000000
  0.333333  0.250000  0.000000     24.000000
  0.416667  0.250000  0.000000     24.000000
  0.500000  0.250000  0.000000     12.000000
  0.333333  0.333333  0.000000     12.000000
  0.416667  0.333333  0.000000     24.000000
  0.500000  0.333333  0.000000     12.000000
  0.416667  0.416667  0.000000     12.000000
  0.500000  0.416667  0.000000     12.000000
  0.500000  0.500000  0.000000      3.000000
  0.083333  0.083333  0.083333      8.000000
  0.166667  0.083333  0.083333     24.000000
  0.250000  0.083333  0.083333     24.000000
  0.333333  0.083333  0.083333     24.000000
  0.416667  0.083333  0.083333     24.000000
  0.500000  0.083333  0.083333     12.000000
  0.166667  0.166667  0.083333     24.000000
  0.250000  0.166667  0.083333     48.000000
  0.333333  0.166667  0.083333     48.000000
  0.416667  0.166667  0.083333     48.000000
  0.500000  0.166667  0.083333     24.000000
  0.250000  0.250000  0.083333     24.000000
  0.333333  0.250000  0.083333     48.000000
  0.416667  0.250000  0.083333     48.000000
  0.500000  0.250000  0.083333     24.000000
  0.333333  0.333333  0.083333     24.000000
  0.416667  0.333333  0.083333     48.000000
  0.500000  0.333333  0.083333     24.000000
  0.416667  0.416667  0.083333     24.000000
  0.500000  0.416667  0.083333     24.000000
  0.500000  0.500000  0.083333      6.000000
  0.166667  0.166667  0.166667      8.000000
  0.250000  0.166667  0.166667     24.000000
  0.333333  0.166667  0.166667     24.000000
  0.416667  0.166667  0.166667     24.000000
  0.500000  0.166667  0.166667     12.000000
  0.250000  0.250000  0.166667     24.000000
  0.333333  0.250000  0.166667     48.000000
  0.416667  0.250000  0.166667     48.000000
  0.500000  0.250000  0.166667     24.000000
  0.333333  0.333333  0.166667     24.000000
  0.416667  0.333333  0.166667     48.000000
  0.500000  0.333333  0.166667     24.000000
  0.416667  0.416667  0.166667     24.000000
  0.500000  0.416667  0.166667     24.000000
  0.500000  0.500000  0.166667      6.000000
  0.250000  0.250000  0.250000      8.000000
  0.333333  0.250000  0.250000     24.000000
  0.416667  0.250000  0.250000     24.000000
  0.500000  0.250000  0.250000     12.000000
  0.333333  0.333333  0.250000     24.000000
  0.416667  0.333333  0.250000     48.000000
  0.500000  0.333333  0.250000     24.000000
  0.416667  0.416667  0.250000     24.000000
  0.500000  0.416667  0.250000     24.000000
  0.500000  0.500000  0.250000      6.000000
  0.333333  0.333333  0.333333      8.000000
  0.416667  0.333333  0.333333     24.000000
  0.500000  0.333333  0.333333     12.000000
  0.416667  0.416667  0.333333     24.000000
  0.500000  0.416667  0.333333     24.000000
  0.500000  0.500000  0.333333      6.000000
  0.416667  0.416667  0.416667      8.000000
  0.500000  0.416667  0.416667     12.000000
  0.500000  0.500000  0.416667      6.000000
  0.500000  0.500000  0.500000      1.000000
 
 Following cartesian coordinates:
            Coordinates               Weight
  0.000000  0.000000  0.000000      1.000000
  0.020017  0.000000  0.000000      6.000000
  0.040033  0.000000  0.000000      6.000000
  0.060050  0.000000  0.000000      6.000000
  0.080066  0.000000  0.000000      6.000000
  0.100083  0.000000  0.000000      6.000000
  0.120099  0.000000  0.000000      3.000000
  0.020017  0.020017  0.000000     12.000000
  0.040033  0.020017  0.000000     24.000000
  0.060050  0.020017  0.000000     24.000000
  0.080066  0.020017  0.000000     24.000000
  0.100083  0.020017  0.000000     24.000000
  0.120099  0.020017  0.000000     12.000000
  0.040033  0.040033  0.000000     12.000000
  0.060050  0.040033  0.000000     24.000000
  0.080066  0.040033  0.000000     24.000000
  0.100083  0.040033  0.000000     24.000000
  0.120099  0.040033  0.000000     12.000000
  0.060050  0.060050  0.000000     12.000000
  0.080066  0.060050  0.000000     24.000000
  0.100083  0.060050  0.000000     24.000000
  0.120099  0.060050  0.000000     12.000000
  0.080066  0.080066  0.000000     12.000000
  0.100083  0.080066  0.000000     24.000000
  0.120099  0.080066  0.000000     12.000000
  0.100083  0.100083  0.000000     12.000000
  0.120099  0.100083  0.000000     12.000000
  0.120099  0.120099  0.000000      3.000000
  0.020017  0.020017  0.020017      8.000000
  0.040033  0.020017  0.020017     24.000000
  0.060050  0.020017  0.020017     24.000000
  0.080066  0.020017  0.020017     24.000000
  0.100083  0.020017  0.020017     24.000000
  0.120099  0.020017  0.020017     12.000000
  0.040033  0.040033  0.020017     24.000000
  0.060050  0.040033  0.020017     48.000000
  0.080066  0.040033  0.020017     48.000000
  0.100083  0.040033  0.020017     48.000000
  0.120099  0.040033  0.020017     24.000000
  0.060050  0.060050  0.020017     24.000000
  0.080066  0.060050  0.020017     48.000000
  0.100083  0.060050  0.020017     48.000000
  0.120099  0.060050  0.020017     24.000000
  0.080066  0.080066  0.020017     24.000000
  0.100083  0.080066  0.020017     48.000000
  0.120099  0.080066  0.020017     24.000000
  0.100083  0.100083  0.020017     24.000000
  0.120099  0.100083  0.020017     24.000000
  0.120099  0.120099  0.020017      6.000000
  0.040033  0.040033  0.040033      8.000000
  0.060050  0.040033  0.040033     24.000000
  0.080066  0.040033  0.040033     24.000000
  0.100083  0.040033  0.040033     24.000000
  0.120099  0.040033  0.040033     12.000000
  0.060050  0.060050  0.040033     24.000000
  0.080066  0.060050  0.040033     48.000000
  0.100083  0.060050  0.040033     48.000000
  0.120099  0.060050  0.040033     24.000000
  0.080066  0.080066  0.040033     24.000000
  0.100083  0.080066  0.040033     48.000000
  0.120099  0.080066  0.040033     24.000000
  0.100083  0.100083  0.040033     24.000000
  0.120099  0.100083  0.040033     24.000000
  0.120099  0.120099  0.040033      6.000000
  0.060050  0.060050  0.060050      8.000000
  0.080066  0.060050  0.060050     24.000000
  0.100083  0.060050  0.060050     24.000000
  0.120099  0.060050  0.060050     12.000000
  0.080066  0.080066  0.060050     24.000000
  0.100083  0.080066  0.060050     48.000000
  0.120099  0.080066  0.060050     24.000000
  0.100083  0.100083  0.060050     24.000000
  0.120099  0.100083  0.060050     24.000000
  0.120099  0.120099  0.060050      6.000000
  0.080066  0.080066  0.080066      8.000000
  0.100083  0.080066  0.080066     24.000000
  0.120099  0.080066  0.080066     12.000000
  0.100083  0.100083  0.080066     24.000000
  0.120099  0.100083  0.080066     24.000000
  0.120099  0.120099  0.080066      6.000000
  0.100083  0.100083  0.100083      8.000000
  0.120099  0.100083  0.100083     12.000000
  0.120099  0.120099  0.100083      6.000000
  0.120099  0.120099  0.120099      1.000000
 


--------------------------------------------------------------------------------------------------------




 Dimension of arrays:
   k-Points           NKPTS =     84   number of bands    NBANDS=     28
   number of dos      NEDOS =    301   number of ions     NIONS =      4
   non local maximal  LDIM  =      6   non local SUM 2l+1 LMDIM =     18
   total plane-waves  NPLWV =  64000
   max r-space proj   IRMAX =      1   max aug-charges    IRDMAX= 310312
   dimension x,y,z NGX =    40 NGY =   40 NGZ =   40
   dimension x,y,z NGXF=    80 NGYF=   80 NGZF=   80
   support grid    NGXF=   160 NGYF=  160 NGZF=  160
   ions per type =               4
 NGX,Y,Z   is equivalent  to a cutoff of  15.36, 15.36, 15.36 a.u.
 NGXF,Y,Z  is equivalent  to a cutoff of  30.72, 30.72, 30.72 a.u.


 I would recommend the setting:
   dimension x,y,z NGX =    39 NGY =   39 NGZ =   39
 SYSTEM =  unknown system                          
 POSCAR =  Ag                                      

 Startparameter for this run:
   NWRITE =      2    write-flag & timer
   PREC   = accura    medium, high low
   ISTART =      0    job   : 0-new  1-cont  2-samecut
   ICHARG =      2    charge: 1-file 2-atom 10-const
   ISPIN  =      1    spin polarized calculation?
   LNONCOLLINEAR =      F non collinear calculations
   LSORBIT =      F    spin-orbit coupling
   INIWAV =      1    electr: 0-lowe 1-rand  2-diag
   LASPH  =      F    aspherical Exc in radial PAW
   METAGGA=      F    non-selfconsistent MetaGGA calc.

 Electronic Relaxation 1
   ENCUT  =  750.0 eV  55.12 Ry    7.42 a.u.   9.67  9.67  9.67*2*pi/ulx,y,z
   ENINI  =  750.0     initial cutoff
   ENAUG  =  412.5 eV  augmentation charge cutoff
   NELM   =     60;   NELMIN=  2; NELMDL=  0     # of ELM steps 
   EDIFF  = 0.1E-07   stopping-criterion for ELM
   LREAL  =      F    real-space projection
   LCOMPAT=      F    compatible to vasp.4.4
   LREAL_COMPAT= F    compatible to vasp.4.5.1-3
   GGA_COMPAT  = T    GGA compatible to vasp.4.4-vasp.4.6
   LMAXPAW     = -100 max onsite density
   LMAXMIX     =    2 max onsite mixed and CHGCAR
   VOSKOWN=      0    Vosko Wilk Nusair interpolation
   ROPT   =    0.00000
 Ionic relaxation
   EDIFFG = 0.1E-06   stopping-criterion for IOM
   NSW    =      0    number of steps for IOM
   NBLOCK =      1;   KBLOCK =      1    inner block; outer block 
   IBRION =     -1    ionic relax: 0-MD 1-quasi-New 2-CG
   NFREE  =      0    steps in history (QN), initial steepest desc. (CG)
   ISIF   =      2    stress and relaxation
   IWAVPR =     10    prediction:  0-non 1-charg 2-wave 3-comb
   ISYM   =      2    0-nonsym 1-usesym 2-fastsym
   LCORR  =      T    Harris-Foulkes like correction to forces

   POTIM  =   0.50    time-step for ionic-motion
   TEIN   =    0.0    initial temperature
   TEBEG  =    0.0;   TEEND  =   0.0 temperature during run
   SMASS  =  -3.00    Nose mass-parameter (am)
   estimated Nose-frequenzy (Omega)   =  0.10E-29 period in steps =****** mass=  -0.428E-27a.u.
   NPACO  =    256;   APACO  = 16.0  distance and # of slots for P.C.
   PSTRESS=    0.0 pullay stress

  Mass of Ions in am
   POMASS = 107.87
  Ionic Valenz
   ZVAL   =  11.00
  Atomic Wigner-Seitz radii
   RWIGS  =  -1.00
   NELECT =      44.0000    total number of electrons
   NUPDOWN=      -1.0000    fix difference up-down

 DOS related values:
   EMIN   =  10.00;   EMAX   =-10.00  energy-range for DOS
   ISMEAR =     0;   SIGMA  =   0.01  broadening in eV -4-tet -1-fermi 0-gaus

 Electronic relaxation 2 (details)
   IALGO  =     38    algorithm
   LDIAG  =      T    sub-space diagonalisation
   IMIX   =      4    mixing-type and parameters
     AMIX     =   0.40;   BMIX     =  1.00
     AMIX_MAG =   1.60;   BMIX_MAG =  1.00
     AMIN     =   0.10
     WC   =   100.;   INIMIX=   1;  MIXPRE=   1

 Intra band minimization:
   WEIMIN = 0.0000     energy-eigenvalue tresh-hold
   EBREAK =  0.96E-10  absolut break condition
   DEPER  =   0.30     relativ break condition  

   TIME   =   0.10     timestep for ELM

  volume/ion in A,a.u.               =      20.29       136.94
  Fermi-wavevector in a.u.,eV,Ry     =   1.334840 24.242829  1.781798

 Second variation
   LSECVAR=     F    do a second variation
 
 Write flags
   LWAVE  =      F    write WAVECAR
   LCHARG =      F    write CHGCAR
   LVTOT  =      F    write LOCPOT, local potential
   LELF   =      F    write electronic localiz. function (ELF)
   LORBIT =      0    0 simple, 1 ext, 2 COOP (PROOUT)


 Dipole corrections
   IDIPOL =      0    1-x, 2-y, 3-z
   LDIPOL =      F    correct potential



--------------------------------------------------------------------------------------------------------


 Static calculation
 charge density will be updated during run
 non-spin polarized calculation
 Variant of blocked Davidson
 Davidson routine will perform the subspace rotation
 performe sub-space diagonalisation
    after iterative eigenvector-optimisation
 modified Broyden-mixing scheme, WC =      100.0
 initial mixing is a Kerker type mixing with AMIX =  0.4000 and BMIX =      1.0000
 Hartree-type preconditioning will be used
 using additional bands            6
 reciprocal scheme for non local part
 use partial core corrections
 calculate Harris-corrections to forces 
   (improved forces if not selfconsistent)
 use gradient corrections 
 use of overlap-Matrix (Vanderbilt PP)
 Gauss-broadening in eV      SIGMA  =   0.01


--------------------------------------------------------------------------------------------------------


  energy-cutoff  :      750.00
  volume of cell :       81.17
      direct lattice vectors                 reciprocal lattice vectors
     4.329753773  0.000000000  0.000000000     0.230960016  0.000000000  0.000000000
     0.000000000  4.329753773  0.000000000     0.000000000  0.230960016  0.000000000
     0.000000000  0.000000000  4.329753773     0.000000000  0.000000000  0.230960016

  length of vectors
     4.329753773  4.329753773  4.329753773     0.230960016  0.230960016  0.230960016


 
 k-points in units of 2pi/SCALE and weight: Automatic mesh                          
   0.00000000  0.00000000  0.00000000       0.001
   0.02001653  0.00000000  0.00000000       0.003
   0.04003307  0.00000000  0.00000000       0.003
   0.06004960  0.00000000  0.00000000       0.003
   0.08006614  0.00000000  0.00000000       0.003
   0.10008267  0.00000000  0.00000000       0.003
   0.12009921  0.00000000  0.00000000       0.002
   0.02001653  0.02001653  0.00000000       0.007
   0.04003307  0.02001653  0.00000000       0.014
   0.06004960  0.02001653  0.00000000       0.014
   0.08006614  0.02001653  0.00000000       0.014
   0.10008267  0.02001653  0.00000000       0.014
   0.12009921  0.02001653  0.00000000       0.007
   0.04003307  0.04003307  0.00000000       0.007
   0.06004960  0.04003307  0.00000000       0.014
   0.08006614  0.04003307  0.00000000       0.014
   0.10008267  0.04003307  0.00000000       0.014
   0.12009921  0.04003307  0.00000000       0.007
   0.06004960  0.06004960  0.00000000       0.007
   0.08006614  0.06004960  0.00000000       0.014
   0.10008267  0.06004960  0.00000000       0.014
   0.12009921  0.06004960  0.00000000       0.007
   0.08006614  0.08006614  0.00000000       0.007
   0.10008267  0.08006614  0.00000000       0.014
   0.12009921  0.08006614  0.00000000       0.007
   0.10008267  0.10008267  0.00000000       0.007
   0.12009921  0.10008267  0.00000000       0.007
   0.12009921  0.12009921  0.00000000       0.002
   0.02001653  0.02001653  0.02001653       0.005
   0.04003307  0.02001653  0.02001653       0.014
   0.06004960  0.02001653  0.02001653       0.014
   0.08006614  0.02001653  0.02001653       0.014
   0.10008267  0.02001653  0.02001653       0.014
   0.12009921  0.02001653  0.02001653       0.007
   0.04003307  0.04003307  0.02001653       0.014
   0.06004960  0.04003307  0.02001653       0.028
   0.08006614  0.04003307  0.02001653       0.028
   0.10008267  0.04003307  0.02001653       0.028
   0.12009921  0.04003307  0.02001653       0.014
   0.06004960  0.06004960  0.02001653       0.014
   0.08006614  0.06004960  0.02001653       0.028
   0.10008267  0.06004960  0.02001653       0.028
   0.12009921  0.06004960  0.02001653       0.014
   0.08006614  0.08006614  0.02001653       0.014
   0.10008267  0.08006614  0.02001653       0.028
   0.12009921  0.08006614  0.02001653       0.014
   0.10008267  0.10008267  0.02001653       0.014
   0.12009921  0.10008267  0.02001653       0.014
   0.12009921  0.12009921  0.02001653       0.003
   0.04003307  0.04003307  0.04003307       0.005
   0.06004960  0.04003307  0.04003307       0.014
   0.08006614  0.04003307  0.04003307       0.014
   0.10008267  0.04003307  0.04003307       0.014
   0.12009921  0.04003307  0.04003307       0.007
   0.06004960  0.06004960  0.04003307       0.014
   0.08006614  0.06004960  0.04003307       0.028
   0.10008267  0.06004960  0.04003307       0.028
   0.12009921  0.06004960  0.04003307       0.014
   0.08006614  0.08006614  0.04003307       0.014
   0.10008267  0.08006614  0.04003307       0.028
   0.12009921  0.08006614  0.04003307       0.014
   0.10008267  0.10008267  0.04003307       0.014
   0.12009921  0.10008267  0.04003307       0.014
   0.12009921  0.12009921  0.04003307       0.003
   0.06004960  0.06004960  0.06004960       0.005
   0.08006614  0.06004960  0.06004960       0.014
   0.10008267  0.06004960  0.06004960       0.014
   0.12009921  0.06004960  0.06004960       0.007
   0.08006614  0.08006614  0.06004960       0.014
   0.10008267  0.08006614  0.06004960       0.028
   0.12009921  0.08006614  0.06004960       0.014
   0.10008267  0.10008267  0.06004960       0.014
   0.12009921  0.10008267  0.06004960       0.014
   0.12009921  0.12009921  0.06004960       0.003
   0.08006614  0.08006614  0.08006614       0.005
   0.10008267  0.08006614  0.08006614       0.014
   0.12009921  0.08006614  0.08006614       0.007
   0.10008267  0.10008267  0.08006614       0.014
   0.12009921  0.10008267  0.08006614       0.014
   0.12009921  0.12009921  0.08006614       0.003
   0.10008267  0.10008267  0.10008267       0.005
   0.12009921  0.10008267  0.10008267       0.007
   0.12009921  0.12009921  0.10008267       0.003
   0.12009921  0.12009921  0.12009921       0.001
 
 k-points in reciprocal lattice and weights: Automatic mesh                          
   0.00000000  0.00000000  0.00000000       0.001
   0.08333333  0.00000000  0.00000000       0.003
   0.16666667  0.00000000  0.00000000       0.003
   0.25000000  0.00000000  0.00000000       0.003
   0.33333333  0.00000000  0.00000000       0.003
   0.41666667  0.00000000  0.00000000       0.003
   0.50000000  0.00000000  0.00000000       0.002
   0.08333333  0.08333333  0.00000000       0.007
   0.16666667  0.08333333  0.00000000       0.014
   0.25000000  0.08333333  0.00000000       0.014
   0.33333333  0.08333333  0.00000000       0.014
   0.41666667  0.08333333  0.00000000       0.014
   0.50000000  0.08333333  0.00000000       0.007
   0.16666667  0.16666667  0.00000000       0.007
   0.25000000  0.16666667  0.00000000       0.014
   0.33333333  0.16666667  0.00000000       0.014
   0.41666667  0.16666667  0.00000000       0.014
   0.50000000  0.16666667  0.00000000       0.007
   0.25000000  0.25000000  0.00000000       0.007
   0.33333333  0.25000000  0.00000000       0.014
   0.41666667  0.25000000  0.00000000       0.014
   0.50000000  0.25000000  0.00000000       0.007
   0.33333333  0.33333333  0.00000000       0.007
   0.41666667  0.33333333  0.00000000       0.014
   0.50000000  0.33333333  0.00000000       0.007
   0.41666667  0.41666667  0.00000000       0.007
   0.50000000  0.41666667  0.00000000       0.007
   0.50000000  0.50000000  0.00000000       0.002
   0.08333333  0.08333333  0.08333333       0.005
   0.16666667  0.08333333  0.08333333       0.014
   0.25000000  0.08333333  0.08333333       0.014
   0.33333333  0.08333333  0.08333333       0.014
   0.41666667  0.08333333  0.08333333       0.014
   0.50000000  0.08333333  0.08333333       0.007
   0.16666667  0.16666667  0.08333333       0.014
   0.25000000  0.16666667  0.08333333       0.028
   0.33333333  0.16666667  0.08333333       0.028
   0.41666667  0.16666667  0.08333333       0.028
   0.50000000  0.16666667  0.08333333       0.014
   0.25000000  0.25000000  0.08333333       0.014
   0.33333333  0.25000000  0.08333333       0.028
   0.41666667  0.25000000  0.08333333       0.028
   0.50000000  0.25000000  0.08333333       0.014
   0.33333333  0.33333333  0.08333333       0.014
   0.41666667  0.33333333  0.08333333       0.028
   0.50000000  0.33333333  0.08333333       0.014
   0.41666667  0.41666667  0.08333333       0.014
   0.50000000  0.41666667  0.08333333       0.014
   0.50000000  0.50000000  0.08333333       0.003
   0.16666667  0.16666667  0.16666667       0.005
   0.25000000  0.16666667  0.16666667       0.014
   0.33333333  0.16666667  0.16666667       0.014
   0.41666667  0.16666667  0.16666667       0.014
   0.50000000  0.16666667  0.16666667       0.007
   0.25000000  0.25000000  0.16666667       0.014
   0.33333333  0.25000000  0.16666667       0.028
   0.41666667  0.25000000  0.16666667       0.028
   0.50000000  0.25000000  0.16666667       0.014
   0.33333333  0.33333333  0.16666667       0.014
   0.41666667  0.33333333  0.16666667       0.028
   0.50000000  0.33333333  0.16666667       0.014
   0.41666667  0.41666667  0.16666667       0.014
   0.50000000  0.41666667  0.16666667       0.014
   0.50000000  0.50000000  0.16666667       0.003
   0.25000000  0.25000000  0.25000000       0.005
   0.33333333  0.25000000  0.25000000       0.014
   0.41666667  0.25000000  0.25000000       0.014
   0.50000000  0.25000000  0.25000000       0.007
   0.33333333  0.33333333  0.25000000       0.014
   0.41666667  0.33333333  0.25000000       0.028
   0.50000000  0.33333333  0.25000000       0.014
   0.41666667  0.41666667  0.25000000       0.014
   0.50000000  0.41666667  0.25000000       0.014
   0.50000000  0.50000000  0.25000000       0.003
   0.33333333  0.33333333  0.33333333       0.005
   0.41666667  0.33333333  0.33333333       0.014
   0.50000000  0.33333333  0.33333333       0.007
   0.41666667  0.41666667  0.33333333       0.014
   0.50000000  0.41666667  0.33333333       0.014
   0.50000000  0.50000000  0.33333333       0.003
   0.41666667  0.41666667  0.41666667       0.005
   0.50000000  0.41666667  0.41666667       0.007
   0.50000000  0.50000000  0.41666667       0.003
   0.50000000  0.50000000  0.50000000       0.001
 
 position of ions in fractional coordinates (direct lattice) 
   0.00000000  0.00000000  0.00000000
   0.50000000  0.50000000  0.00000000
   0.50000000  0.00000000  0.50000000
   0.00000000  0.50000000  0.50000000
 
 position of ions in cartesian coordinates  (Angst):
   0.00000000  0.00000000  0.00000000
   2.16487689  2.16487689  0.00000000
   2.16487689  0.00000000  2.16487689
   0.00000000  2.16487689  2.16487689
 


--------------------------------------------------------------------------------------------------------


 k-point  1 :  0.00000.00000.0000  plane waves:   3791
 k-point  2 :  0.08330.00000.0000  plane waves:   3799
 k-point  3 :  0.16670.00000.0000  plane waves:   3811
 k-point  4 :  0.25000.00000.0000  plane waves:   3791
 k-point  5 :  0.33330.00000.0000  plane waves:   3812
 k-point  6 :  0.41670.00000.0000  plane waves:   3784
 k-point  7 :  0.50000.00000.0000  plane waves:   3804
 k-point  8 :  0.08330.08330.0000  plane waves:   3803
 k-point  9 :  0.16670.08330.0000  plane waves:   3803
 k-point 10 :  0.25000.08330.0000  plane waves:   3795
 k-point 11 :  0.33330.08330.0000  plane waves:   3790
 k-point 12 :  0.41670.08330.0000  plane waves:   3783
 k-point 13 :  0.50000.08330.0000  plane waves:   3800
 k-point 14 :  0.16670.16670.0000  plane waves:   3796
 k-point 15 :  0.25000.16670.0000  plane waves:   3793
 k-point 16 :  0.33330.16670.0000  plane waves:   3795
 k-point 17 :  0.41670.16670.0000  plane waves:   3782
 k-point 18 :  0.50000.16670.0000  plane waves:   3784
 k-point 19 :  0.25000.25000.0000  plane waves:   3784
 k-point 20 :  0.33330.25000.0000  plane waves:   3782
 k-point 21 :  0.41670.25000.0000  plane waves:   3788
 k-point 22 :  0.50000.25000.0000  plane waves:   3782
 k-point 23 :  0.33330.33330.0000  plane waves:   3764
 k-point 24 :  0.41670.33330.0000  plane waves:   3774
 k-point 25 :  0.50000.33330.0000  plane waves:   3778
 k-point 26 :  0.41670.41670.0000  plane waves:   3778
 k-point 27 :  0.50000.41670.0000  plane waves:   3780
 k-point 28 :  0.50000.50000.0000  plane waves:   3724
 k-point 29 :  0.08330.08330.0833  plane waves:   3818
 k-point 30 :  0.16670.08330.0833  plane waves:   3807
 k-point 31 :  0.25000.08330.0833  plane waves:   3787
 k-point 32 :  0.33330.08330.0833  plane waves:   3785
 k-point 33 :  0.41670.08330.0833  plane waves:   3785
 k-point 34 :  0.50000.08330.0833  plane waves:   3796
 k-point 35 :  0.16670.16670.0833  plane waves:   3792
 k-point 36 :  0.25000.16670.0833  plane waves:   3789
 k-point 37 :  0.33330.16670.0833  plane waves:   3775
 k-point 38 :  0.41670.16670.0833  plane waves:   3787
 k-point 39 :  0.50000.16670.0833  plane waves:   3782
 k-point 40 :  0.25000.25000.0833  plane waves:   3786
 k-point 41 :  0.33330.25000.0833  plane waves:   3778
 k-point 42 :  0.41670.25000.0833  plane waves:   3786
 k-point 43 :  0.50000.25000.0833  plane waves:   3788
 k-point 44 :  0.33330.33330.0833  plane waves:   3782
 k-point 45 :  0.41670.33330.0833  plane waves:   3784
 k-point 46 :  0.50000.33330.0833  plane waves:   3782
 k-point 47 :  0.41670.41670.0833  plane waves:   3784
 k-point 48 :  0.50000.41670.0833  plane waves:   3784
 k-point 49 :  0.50000.50000.0833  plane waves:   3780
 k-point 50 :  0.16670.16670.1667  plane waves:   3809
 k-point 51 :  0.25000.16670.1667  plane waves:   3780
 k-point 52 :  0.33330.16670.1667  plane waves:   3779
 k-point 53 :  0.41670.16670.1667  plane waves:   3790
 k-point 54 :  0.50000.16670.1667  plane waves:   3768
 k-point 55 :  0.25000.25000.1667  plane waves:   3777
 k-point 56 :  0.33330.25000.1667  plane waves:   3785
 k-point 57 :  0.41670.25000.1667  plane waves:   3791
 k-point 58 :  0.50000.25000.1667  plane waves:   3786
 k-point 59 :  0.33330.33330.1667  plane waves:   3782
 k-point 60 :  0.41670.33330.1667  plane waves:   3778
 k-point 61 :  0.50000.33330.1667  plane waves:   3786
 k-point 62 :  0.41670.41670.1667  plane waves:   3783
 k-point 63 :  0.50000.41670.1667  plane waves:   3786
 k-point 64 :  0.50000.50000.1667  plane waves:   3780
 k-point 65 :  0.25000.25000.2500  plane waves:   3785
 k-point 66 :  0.33330.25000.2500  plane waves:   3793
 k-point 67 :  0.41670.25000.2500  plane waves:   3796
 k-point 68 :  0.50000.25000.2500  plane waves:   3808
 k-point 69 :  0.33330.33330.2500  plane waves:   3784
 k-point 70 :  0.41670.33330.2500  plane waves:   3775
 k-point 71 :  0.50000.33330.2500  plane waves:   3788
 k-point 72 :  0.41670.41670.2500  plane waves:   3771
 k-point 73 :  0.50000.41670.2500  plane waves:   3772
 k-point 74 :  0.50000.50000.2500  plane waves:   3772
 k-point 75 :  0.33330.33330.3333  plane waves:   3764
 k-point 76 :  0.41670.33330.3333  plane waves:   3781
 k-point 77 :  0.50000.33330.3333  plane waves:   3794
 k-point 78 :  0.41670.41670.3333  plane waves:   3779
 k-point 79 :  0.50000.41670.3333  plane waves:   3778
 k-point 80 :  0.50000.50000.3333  plane waves:   3776
 k-point 81 :  0.41670.41670.4167  plane waves:   3782
 k-point 82 :  0.50000.41670.4167  plane waves:   3796
 k-point 83 :  0.50000.50000.4167  plane waves:   3788
 k-point 84 :  0.50000.50000.5000  plane waves:   3840

 maximum and minimum number of plane-waves per node :   3840  3724

 maximum number of plane-waves:   3840
 maximal index in each direction: 
   IXMAX=  9   IYMAX=  9   IZMAX=  9
   IXMIN=-10   IYMIN=-10   IZMIN=-10

 NGX is ok and might be reduce to  40
 NGY is ok and might be reduce to  40
 NGZ is ok and might be reduce to  40

 parallel 3dFFT wavefunction:
    minimum data exchange during FFTs selected (reduces bandwidth)
 parallel 3dFFT charge:
    minimum data exchange during FFTs selected (reduces bandwidth)

 For storing wavefunctions  142.49 MBYTES are necessary
 For predicting wavefunctions    4.81 MBYTES are necessary
Broyden mixing: mesh for mixing (old mesh)
   NGX = 19   NGY = 19   NGZ = 19
  (NGX  = 80   NGY  = 80   NGZ  = 80)
 gives a total of   6859 points
 initial charge density was supplied:
 charge density of overlapping atoms calculated
 number of electron   44.0000000 magnetization 
 keeping initial charge density in first step


--------------------------------------------------------------------------------------------------------


 Maximum index for augmentation-charges        75261 (set IRDMAX)


--------------------------------------------------------------------------------------------------------


 First call to EWALD:  gamma=   0.409
 Maximum number of real-space cells 3x 3x 3
 Maximum number of reciprocal cells 3x 3x 3

    FEWALD:  VPU time    0.00: CPU time    0.00


----------------------------------------- Iteration    1(   1)  ---------------------------------------


    POTLOK:  VPU time    0.15: CPU time    0.15
    SETDIJ:  VPU time    0.34: CPU time    0.34
    EDDAV :  VPU time   12.69: CPU time   12.73
    DOS   :  VPU time    0.00: CPU time   -0.00
    ------------------------------------------
      LOOP:  VPU time   13.18: CPU time   13.23

 eigenvalue-minimisations  :  4704
 total energy-change (2. order) : 0.4629023E+03  (-0.2711757E+04)
 number of electron   44.0000000 magnetization 
 augmentation part    44.0000000 magnetization 

 Free energy of the ion-electron system (eV)
  ---------------------------------------------------
  alpha Z        PSCENC =       350.04093152
  Ewald energy   TEWEN  =     -3690.06927814
  -1/2 Hartree   DENC   =      -919.34727204
  -V(xc)+E(xc)   XCENC  =       -44.52818545
  PAW double counting   =      3482.67677651    -3297.07979946
  entropy T*S    EENTRO =        -0.00008033
  eigenvalues    EBANDS =       431.55961871
  atomic energy  EATOM  =      4149.64961272
  ---------------------------------------------------
  free energy    TOTEN  =       462.90232404 eV

  energy without entropy =      462.90240437  energy(sigma->0) =      462.90236421


--------------------------------------------------------------------------------------------------------




----------------------------------------- Iteration    1(   2)  ---------------------------------------


    EDDAV :  VPU time   12.64: CPU time   12.65
    DOS   :  VPU time    0.00: CPU time   -0.00
    ------------------------------------------
      LOOP:  VPU time   12.64: CPU time   12.66

 eigenvalue-minimisations  :  4724
 total energy-change (2. order) :-0.4588292E+03  (-0.4357616E+03)
 number of electron   44.0000000 magnetization 
 augmentation part    44.0000000 magnetization 

 Free energy of the ion-electron system (eV)
  ---------------------------------------------------
  alpha Z        PSCENC =       350.04093152
  Ewald energy   TEWEN  =     -3690.06927814
  -1/2 Hartree   DENC   =      -919.34727204
  -V(xc)+E(xc)   XCENC  =       -44.52818545
  PAW double counting   =      3482.67677651    -3297.07979946
  entropy T*S    EENTRO =        -0.00009796
  eigenvalues    EBANDS =       -27.26957957
  atomic energy  EATOM  =      4149.64961272
  ---------------------------------------------------
  free energy    TOTEN  =         4.07310812 eV

  energy without entropy =        4.07320609  energy(sigma->0) =        4.07315710


--------------------------------------------------------------------------------------------------------




----------------------------------------- Iteration    1(   3)  ---------------------------------------


    EDDAV :  VPU time   13.32: CPU time   13.33
    DOS   :  VPU time    0.00: CPU time   -0.00
    ------------------------------------------
      LOOP:  VPU time   13.32: CPU time   13.34

 eigenvalue-minimisations  :  5088
 total energy-change (2. order) :-0.1576187E+02  (-0.1555866E+02)
 number of electron   44.0000000 magnetization 
 augmentation part    44.0000000 magnetization 

 Free energy of the ion-electron system (eV)
  ---------------------------------------------------
  alpha Z        PSCENC =       350.04093152
  Ewald energy   TEWEN  =     -3690.06927814
  -1/2 Hartree   DENC   =      -919.34727204
  -V(xc)+E(xc)   XCENC  =       -44.52818545
  PAW double counting   =      3482.67677651    -3297.07979946
  entropy T*S    EENTRO =        -0.00010651
  eigenvalues    EBANDS =       -43.03144511
  atomic energy  EATOM  =      4149.64961272
  ---------------------------------------------------
  free energy    TOTEN  =       -11.68876596 eV

  energy without entropy =      -11.68865945  energy(sigma->0) =      -11.68871270


--------------------------------------------------------------------------------------------------------




----------------------------------------- Iteration    1(   4)  ---------------------------------------


    EDDAV :  VPU time   13.12: CPU time   13.13
    DOS   :  VPU time    0.00: CPU time   -0.00
    ------------------------------------------
      LOOP:  VPU time   13.13: CPU time   13.14

 eigenvalue-minimisations  :  4972
 total energy-change (2. order) :-0.1221690E+00  (-0.1220603E+00)
 number of electron   44.0000000 magnetization 
 augmentation part    44.0000000 magnetization 

 Free energy of the ion-electron system (eV)
  ---------------------------------------------------
  alpha Z        PSCENC =       350.04093152
  Ewald energy   TEWEN  =     -3690.06927814
  -1/2 Hartree   DENC   =      -919.34727204
  -V(xc)+E(xc)   XCENC  =       -44.52818545
  PAW double counting   =      3482.67677651    -3297.07979946
  entropy T*S    EENTRO =        -0.00009990
  eigenvalues    EBANDS =       -43.15362075
  atomic energy  EATOM  =      4149.64961272
  ---------------------------------------------------
  free energy    TOTEN  =       -11.81093499 eV

  energy without entropy =      -11.81083509  energy(sigma->0) =      -11.81088504


--------------------------------------------------------------------------------------------------------




----------------------------------------- Iteration    1(   5)  ---------------------------------------


    EDDAV :  VPU time   12.87: CPU time   12.89
    DOS   :  VPU time   -0.00: CPU time   -0.00
    CHARGE:  VPU time    1.06: CPU time    1.07
    MIXING:  VPU time    0.00: CPU time    0.00
    ------------------------------------------
      LOOP:  VPU time   13.94: CPU time   13.96

 eigenvalue-minimisations  :  4992
 total energy-change (2. order) :-0.4764672E-03  (-0.4764524E-03)
 number of electron   44.0000001 magnetization 
 augmentation part    20.5304759 magnetization 

 Broyden mixing:
  rms(total) = 0.49441E+00    rms(broyden)= 0.49441E+00
  rms(prec ) = 0.12165E+01
  weight for this iteration     100.00

 Free energy of the ion-electron system (eV)
  ---------------------------------------------------
  alpha Z        PSCENC =       350.04093152
  Ewald energy   TEWEN  =     -3690.06927814
  -1/2 Hartree   DENC   =      -919.34727204
  -V(xc)+E(xc)   XCENC  =       -44.52818545
  PAW double counting   =      3482.67677651    -3297.07979946
  entropy T*S    EENTRO =        -0.00009988
  eigenvalues    EBANDS =       -43.15409724
  atomic energy  EATOM  =      4149.64961272
  ---------------------------------------------------
  free energy    TOTEN  =       -11.81141146 eV

  energy without entropy =      -11.81131158  energy(sigma->0) =      -11.81136152


--------------------------------------------------------------------------------------------------------




----------------------------------------- Iteration    1(   6)  ---------------------------------------


    POTLOK:  VPU time    0.16: CPU time    0.16
    SETDIJ:  VPU time    0.36: CPU time    0.36
    EDDAV :  VPU time   10.34: CPU time   10.35
    DOS   :  VPU time   -0.00: CPU time   -0.00
    CHARGE:  VPU time    1.02: CPU time    1.02
    MIXING:  VPU time    0.00: CPU time    0.00
    ------------------------------------------
      LOOP:  VPU time   11.89: CPU time   11.90

 eigenvalue-minimisations  :  4892
 total energy-change (2. order) : 0.7156339E+00  (-0.2785527E+00)
 number of electron   44.0000001 magnetization 
 augmentation part    21.1690900 magnetization 

 Broyden mixing:
  rms(total) = 0.93679E-01    rms(broyden)= 0.93679E-01
  rms(prec ) = 0.18635E+00
  weight for this iteration     100.00

 eigenvalues of (default mixing * dielectric matrix)
  average eigenvalue GAMMA=   1.0168
  1.0168

 Free energy of the ion-electron system (eV)
  ---------------------------------------------------
  alpha Z        PSCENC =       350.04093152
  Ewald energy   TEWEN  =     -3690.06927814
  -1/2 Hartree   DENC   =      -884.15418290
  -V(xc)+E(xc)   XCENC  =       -45.81330681
  PAW double counting   =      3425.85376682    -3242.40600004
  entropy T*S    EENTRO =        -0.00004043
  eigenvalues    EBANDS =       -74.19728032
  atomic energy  EATOM  =      4149.64961272
  ---------------------------------------------------
  free energy    TOTEN  =       -11.09577760 eV

  energy without entropy =      -11.09573716  energy(sigma->0) =      -11.09575738


--------------------------------------------------------------------------------------------------------




----------------------------------------- Iteration    1(   7)  ---------------------------------------


    POTLOK:  VPU time    0.15: CPU time    0.15
    SETDIJ:  VPU time    0.33: CPU time    0.33
    EDDAV :  VPU time   13.09: CPU time   13.10
    DOS   :  VPU time    0.00: CPU time   -0.00
    CHARGE:  VPU time    1.23: CPU time    1.23
    MIXING:  VPU time    0.00: CPU time    0.00
    ------------------------------------------
      LOOP:  VPU time   14.81: CPU time   14.83

 eigenvalue-minimisations  :  4864
 total energy-change (2. order) : 0.1185207E-01  (-0.4424858E-02)
 number of electron   44.0000001 magnetization 
 augmentation part    21.1883712 magnetization 

 Broyden mixing:
  rms(total) = 0.52831E-01    rms(broyden)= 0.52831E-01
  rms(prec ) = 0.10123E+00
  weight for this iteration     100.00

 eigenvalues of (default mixing * dielectric matrix)
  average eigenvalue GAMMA=   1.7312
  1.0195  2.4430

 Free energy of the ion-electron system (eV)
  ---------------------------------------------------
  alpha Z        PSCENC =       350.04093152
  Ewald energy   TEWEN  =     -3690.06927814
  -1/2 Hartree   DENC   =      -880.28178001
  -V(xc)+E(xc)   XCENC  =       -45.97251880
  PAW double counting   =      3430.75914857    -3249.19252048
  entropy T*S    EENTRO =        -0.00004045
  eigenvalues    EBANDS =       -76.01748046
  atomic energy  EATOM  =      4149.64961272
  ---------------------------------------------------
  free energy    TOTEN  =       -11.08392553 eV

  energy without entropy =      -11.08388508  energy(sigma->0) =      -11.08390530


--------------------------------------------------------------------------------------------------------




----------------------------------------- Iteration    1(   8)  ---------------------------------------


    POTLOK:  VPU time    0.15: CPU time    0.15
    SETDIJ:  VPU time    0.33: CPU time    0.33
    EDDAV :  VPU time   12.38: CPU time   12.39
    DOS   :  VPU time    0.00: CPU time   -0.00
    CHARGE:  VPU time    1.27: CPU time    1.27
    MIXING:  VPU time    0.01: CPU time    0.01
    ------------------------------------------
      LOOP:  VPU time   14.14: CPU time   14.16

 eigenvalue-minimisations  :  4844
 total energy-change (2. order) : 0.5878943E-02  (-0.4781539E-03)
 number of electron   44.0000001 magnetization 
 augmentation part    21.1912618 magnetization 

 Broyden mixing:
  rms(total) = 0.36764E-02    rms(broyden)= 0.36761E-02
  rms(prec ) = 0.66422E-02
  weight for this iteration     100.00

 eigenvalues of (default mixing * dielectric matrix)
  average eigenvalue GAMMA=   1.7192
  2.7012  1.0243  1.4321

 Free energy of the ion-electron system (eV)
  ---------------------------------------------------
  alpha Z        PSCENC =       350.04093152
  Ewald energy   TEWEN  =     -3690.06927814
  -1/2 Hartree   DENC   =      -876.06717912
  -V(xc)+E(xc)   XCENC  =       -46.14888040
  PAW double counting   =      3442.10899039    -3262.91553107
  entropy T*S    EENTRO =        -0.00004048
  eigenvalues    EBANDS =       -77.67667200
  atomic energy  EATOM  =      4149.64961272
  ---------------------------------------------------
  free energy    TOTEN  =       -11.07804658 eV

  energy without entropy =      -11.07800610  energy(sigma->0) =      -11.07802634


--------------------------------------------------------------------------------------------------------




----------------------------------------- Iteration    1(   9)  ---------------------------------------


    POTLOK:  VPU time    0.16: CPU time    0.16
    SETDIJ:  VPU time    0.40: CPU time    0.40
    EDDAV :  VPU time    9.94: CPU time    9.94
    DOS   :  VPU time    0.00: CPU time   -0.00
    CHARGE:  VPU time    0.98: CPU time    0.98
    MIXING:  VPU time    0.00: CPU time    0.00
    ------------------------------------------
      LOOP:  VPU time   11.49: CPU time   11.49

 eigenvalue-minimisations  :  5024
 total energy-change (2. order) :-0.1152157E-03  (-0.1950906E-04)
 number of electron   44.0000001 magnetization 
 augmentation part    21.1958629 magnetization 

 Broyden mixing:
  rms(total) = 0.24697E-02    rms(broyden)= 0.24696E-02
  rms(prec ) = 0.49223E-02
  weight for this iteration     100.00

 eigenvalues of (default mixing * dielectric matrix)
  average eigenvalue GAMMA=   1.7727
  0.9880  0.9880  2.3971  2.7175

 Free energy of the ion-electron system (eV)
  ---------------------------------------------------
  alpha Z        PSCENC =       350.04093152
  Ewald energy   TEWEN  =     -3690.06927814
  -1/2 Hartree   DENC   =      -875.77175026
  -V(xc)+E(xc)   XCENC  =       -46.16125067
  PAW double counting   =      3443.42011625    -3264.21012629
  entropy T*S    EENTRO =        -0.00004052
  eigenvalues    EBANDS =       -77.97637641
  atomic energy  EATOM  =      4149.64961272
  ---------------------------------------------------
  free energy    TOTEN  =       -11.07816180 eV

  energy without entropy =      -11.07812128  energy(sigma->0) =      -11.07814154


--------------------------------------------------------------------------------------------------------




----------------------------------------- Iteration    1(  10)  ---------------------------------------


    POTLOK:  VPU time    0.12: CPU time    0.12
    SETDIJ:  VPU time    0.26: CPU time    0.26
    EDDAV :  VPU time   12.90: CPU time   12.90
    DOS   :  VPU time    0.00: CPU time   -0.00
    CHARGE:  VPU time    1.22: CPU time    1.23
    MIXING:  VPU time    0.00: CPU time    0.00
    ------------------------------------------
      LOOP:  VPU time   14.52: CPU time   14.53

 eigenvalue-minimisations  :  4812
 total energy-change (2. order) : 0.8803487E-05  (-0.1693413E-05)
 number of electron   44.0000001 magnetization 
 augmentation part    21.1948284 magnetization 

 Broyden mixing:
  rms(total) = 0.36742E-03    rms(broyden)= 0.36741E-03
  rms(prec ) = 0.79026E-03
  weight for this iteration     100.00

 eigenvalues of (default mixing * dielectric matrix)
  average eigenvalue GAMMA=   1.7825
  1.0073  1.0073  2.8609  2.4265  1.6103

 Free energy of the ion-electron system (eV)
  ---------------------------------------------------
  alpha Z        PSCENC =       350.04093152
  Ewald energy   TEWEN  =     -3690.06927814
  -1/2 Hartree   DENC   =      -875.97346553
  -V(xc)+E(xc)   XCENC  =       -46.15429226
  PAW double counting   =      3444.23266799    -3264.89697868
  entropy T*S    EENTRO =        -0.00004049
  eigenvalues    EBANDS =       -77.90731013
  atomic energy  EATOM  =      4149.64961272
  ---------------------------------------------------
  free energy    TOTEN  =       -11.07815299 eV

  energy without entropy =      -11.07811250  energy(sigma->0) =      -11.07813275


--------------------------------------------------------------------------------------------------------




----------------------------------------- Iteration    1(  11)  ---------------------------------------


    POTLOK:  VPU time    0.15: CPU time    0.15
    SETDIJ:  VPU time    0.33: CPU time    0.33
    EDDAV :  VPU time   13.23: CPU time   13.24
    DOS   :  VPU time    0.00: CPU time   -0.00
    CHARGE:  VPU time    1.22: CPU time    1.22
    MIXING:  VPU time    0.00: CPU time    0.00
    ------------------------------------------
      LOOP:  VPU time   14.94: CPU time   14.96

 eigenvalue-minimisations  :  5004
 total energy-change (2. order) : 0.9855212E-06  (-0.9928454E-07)
 number of electron   44.0000001 magnetization 
 augmentation part    21.1945437 magnetization 

 Broyden mixing:
  rms(total) = 0.59400E-04    rms(broyden)= 0.59399E-04
  rms(prec ) = 0.11168E-03
  weight for this iteration     100.00

 eigenvalues of (default mixing * dielectric matrix)
  average eigenvalue GAMMA=   1.8761
  3.1420  2.6425  2.4911  0.9790  1.0009  1.0009

 Free energy of the ion-electron system (eV)
  ---------------------------------------------------
  alpha Z        PSCENC =       350.04093152
  Ewald energy   TEWEN  =     -3690.06927814
  -1/2 Hartree   DENC   =      -876.00113251
  -V(xc)+E(xc)   XCENC  =       -46.15339218
  PAW double counting   =      3444.30038713    -3264.95207341
  entropy T*S    EENTRO =        -0.00004049
  eigenvalues    EBANDS =       -77.89316666
  atomic energy  EATOM  =      4149.64961272
  ---------------------------------------------------
  free energy    TOTEN  =       -11.07815201 eV

  energy without entropy =      -11.07811152  energy(sigma->0) =      -11.07813177


--------------------------------------------------------------------------------------------------------




----------------------------------------- Iteration    1(  12)  ---------------------------------------


    POTLOK:  VPU time    0.15: CPU time    0.15
    SETDIJ:  VPU time    0.33: CPU time    0.33
    EDDAV :  VPU time   12.05: CPU time   12.06
    DOS   :  VPU time    0.00: CPU time   -0.00
    CHARGE:  VPU time    1.24: CPU time    1.25
    MIXING:  VPU time    0.00: CPU time    0.00
    ------------------------------------------
      LOOP:  VPU time   13.79: CPU time   13.80

 eigenvalue-minimisations  :  4348
 total energy-change (2. order) : 0.5273478E-06  (-0.3510069E-08)
 number of electron   44.0000001 magnetization 
 augmentation part    21.1945357 magnetization 

 Broyden mixing:
  rms(total) = 0.11573E-04    rms(broyden)= 0.11573E-04
  rms(prec ) = 0.19923E-04
  weight for this iteration     100.00

 eigenvalues of (default mixing * dielectric matrix)
  average eigenvalue GAMMA=   1.7799
  2.9383  2.6126  2.4681  1.0110  1.0110  1.0696  1.3487

 Free energy of the ion-electron system (eV)
  ---------------------------------------------------
  alpha Z        PSCENC =       350.04093152
  Ewald energy   TEWEN  =     -3690.06927814
  -1/2 Hartree   DENC   =      -876.00424401
  -V(xc)+E(xc)   XCENC  =       -46.15329067
  PAW double counting   =      3444.22113313    -3264.87165596
  entropy T*S    EENTRO =        -0.00004049
  eigenvalues    EBANDS =       -77.89131958
  atomic energy  EATOM  =      4149.64961272
  ---------------------------------------------------
  free energy    TOTEN  =       -11.07815148 eV

  energy without entropy =      -11.07811099  energy(sigma->0) =      -11.07813124


--------------------------------------------------------------------------------------------------------




----------------------------------------- Iteration    1(  13)  ---------------------------------------


    POTLOK:  VPU time    0.15: CPU time    0.15
    SETDIJ:  VPU time    0.33: CPU time    0.33
    EDDAV :  VPU time    8.74: CPU time    8.75
    DOS   :  VPU time    0.00: CPU time   -0.00
    CHARGE:  VPU time    1.15: CPU time    1.15
    MIXING:  VPU time    0.01: CPU time    0.01
    ------------------------------------------
      LOOP:  VPU time   10.38: CPU time   10.39

 eigenvalue-minimisations  :  2560
 total energy-change (2. order) : 0.3671448E-07  (-0.8450581E-10)
 number of electron   44.0000001 magnetization 
 augmentation part    21.1945358 magnetization 

 Broyden mixing:
  rms(total) = 0.68654E-05    rms(broyden)= 0.68654E-05
  rms(prec ) = 0.13881E-04
  weight for this iteration     100.00

 eigenvalues of (default mixing * dielectric matrix)
  average eigenvalue GAMMA=   1.8378
  2.7250  2.7250  2.7225  2.5198  1.0089  1.0089  0.9855  1.0071

 Free energy of the ion-electron system (eV)
  ---------------------------------------------------
  alpha Z        PSCENC =       350.04093152
  Ewald energy   TEWEN  =     -3690.06927814
  -1/2 Hartree   DENC   =      -876.00435160
  -V(xc)+E(xc)   XCENC  =       -46.15328279
  PAW double counting   =      3444.22098907    -3264.87147576
  entropy T*S    EENTRO =        -0.00004049
  eigenvalues    EBANDS =       -77.89125597
  atomic energy  EATOM  =      4149.64961272
  ---------------------------------------------------
  free energy    TOTEN  =       -11.07815145 eV

  energy without entropy =      -11.07811096  energy(sigma->0) =      -11.07813120


--------------------------------------------------------------------------------------------------------




----------------------------------------- Iteration    1(  14)  ---------------------------------------


    POTLOK:  VPU time    0.17: CPU time    0.17
    SETDIJ:  VPU time    0.35: CPU time    0.35
    EDDAV :  VPU time    8.63: CPU time    8.64
    DOS   :  VPU time    0.00: CPU time   -0.00
    ------------------------------------------
      LOOP:  VPU time    9.16: CPU time    9.17

 eigenvalue-minimisations  :  2488
 total energy-change (2. order) :-0.5106813E-08  (-0.3352483E-10)
 number of electron   44.0000001 magnetization 
 augmentation part    21.1945358 magnetization 

 Free energy of the ion-electron system (eV)
  ---------------------------------------------------
  alpha Z        PSCENC =       350.04093152
  Ewald energy   TEWEN  =     -3690.06927814
  -1/2 Hartree   DENC   =      -876.00376929
  -V(xc)+E(xc)   XCENC  =       -46.15330156
  PAW double counting   =      3444.22462519    -3264.87528003
  entropy T*S    EENTRO =        -0.00004049
  eigenvalues    EBANDS =       -77.89165137
  atomic energy  EATOM  =      4149.64961272
  ---------------------------------------------------
  free energy    TOTEN  =       -11.07815145 eV

  energy without entropy =      -11.07811096  energy(sigma->0) =      -11.07813121


--------------------------------------------------------------------------------------------------------




 average (electrostatic) potential at core
  the test charge radii are     1.1249
  (the norm of the test charge is              1.0000)
       1 -42.2977       2 -42.2977       3 -42.2977       4 -42.2977
 
 
 
 E-fermi :   2.1771     XC(G=0): -11.2032     alpha+bet : -7.1756
   add alpha+bet to get absolut eigen values

 k-point   1 :       0.0000    0.0000    0.0000
  band No.  band energies     occupation 
      1      -4.4668      2.00000
      2      -3.3517      2.00000
      3      -3.3517      2.00000
      4      -3.3517      2.00000
      5      -3.2706      2.00000
      6      -3.2706      2.00000
      7      -3.2706      2.00000
      8      -2.1695      2.00000
      9      -2.1695      2.00000
     10      -2.1695      2.00000
     11      -1.4126      2.00000
     12      -1.4126      2.00000
     13      -0.8528      2.00000
     14      -0.8528      2.00000
     15      -0.8528      2.00000
     16      -0.6758      2.00000
     17      -0.6758      2.00000
     18      -0.6758      2.00000
     19      -0.6758      2.00000
     20      -0.6758      2.00000
     21      -0.6758      2.00000
     22       3.8803      0.00000
     23       3.8803      0.00000
     24       3.8803      0.00000
     25       7.6203      0.00000
     26       7.6203      0.00000
     27       7.6203      0.00000
     28      12.0251      0.00000

 k-point   2 :       0.0833    0.0000    0.0000
  band No.  band energies     occupation 
      1      -4.4034      2.00000
      2      -3.3286      2.00000
      3      -3.3218      2.00000
      4      -3.3218      2.00000
      5      -3.2534      2.00000
      6      -3.2439      2.00000
      7      -3.2439      2.00000
      8      -2.1900      2.00000
      9      -2.1495      2.00000
     10      -2.1495      2.00000
     11      -1.4329      2.00000
     12      -1.4034      2.00000
     13      -0.8796      2.00000
     14      -0.8796      2.00000
     15      -0.8627      2.00000
     16      -0.7655      2.00000
     17      -0.7655      2.00000
     18      -0.7090      2.00000
     19      -0.7090      2.00000
     20      -0.6758      2.00000
     21      -0.6758      2.00000
     22       3.3849      0.00000
     23       4.0256      0.00000
     24       4.0256      0.00000
     25       7.6347      0.00000
     26       7.6347      0.00000
     27       8.2227      0.00000
     28      11.7664      0.00000

 k-point   3 :       0.1667    0.0000    0.0000
  band No.  band energies     occupation 
      1      -4.2163      2.00000
      2      -3.2621      2.00000
      3      -3.2359      2.00000
      4      -3.2359      2.00000
      5      -3.2025      2.00000
      6      -3.1642      2.00000
      7      -3.1642      2.00000
      8      -2.2497      2.00000
      9      -2.0900      2.00000
     10      -2.0900      2.00000
     11      -1.4894      2.00000
     12      -1.3765      2.00000
     13      -1.0028      2.00000
     14      -1.0028      2.00000
     15      -0.9573      2.00000
     16      -0.9573      2.00000
     17      -0.8918      2.00000
     18      -0.8041      2.00000
     19      -0.8041      2.00000
     20      -0.6757      2.00000
     21      -0.6757      2.00000
     22       2.3774      0.00000
     23       4.4292      0.00000
     24       4.4292      0.00000
     25       7.6790      0.00000
     26       7.6790      0.00000
     27       9.5515      0.00000
     28      11.1120      0.00000

 k-point   4 :       0.2500    0.0000    0.0000
  band No.  band energies     occupation 
      1      -3.9175      2.00000
      2      -3.1614      2.00000
      3      -3.1209      2.00000
      4      -3.1065      2.00000
      5      -3.1065      2.00000
      6      -3.0318      2.00000
      7      -3.0318      2.00000
      8      -2.3434      2.00000
      9      -1.9929      2.00000
     10      -1.9929      2.00000
     11      -1.5665      2.00000
     12      -1.3334      2.00000
     13      -1.3241      2.00000
     14      -1.3241      2.00000
     15      -1.0758      2.00000
     16      -1.0758      2.00000
     17      -0.9490      2.00000
     18      -0.9490      2.00000
     19      -0.9377      2.00000
     20      -0.6755      2.00000
     21      -0.6755      2.00000
     22       1.2947      2.00000
     23       5.0251      0.00000
     24       5.0251      0.00000
     25       7.7545      0.00000
     26       7.7545      0.00000
     27      10.2623      0.00000
     28      10.2623      0.00000

 k-point   5 :       0.3333    0.0000    0.0000
  band No.  band energies     occupation 
      1      -3.5389      2.00000
      2      -3.0450      2.00000
      3      -3.0128      2.00000
      4      -2.9577      2.00000
      5      -2.9577      2.00000
      6      -2.8479      2.00000
      7      -2.8479      2.00000
      8      -2.4635      2.00000
      9      -1.8614      2.00000
     10      -1.8614      2.00000
     11      -1.6744      2.00000
     12      -1.6744      2.00000
     13      -1.6263      2.00000
     14      -1.2768      2.00000
     15      -1.2142      2.00000
     16      -1.2142      2.00000
     17      -1.1274      2.00000
     18      -1.1274      2.00000
     19      -0.9971      2.00000
     20      -0.6753      2.00000
     21      -0.6753      2.00000
     22       0.2796      2.00000
     23       5.7546      0.00000
     24       5.7546      0.00000
     25       7.8580      0.00000
     26       7.8580      0.00000
     27       9.3354      0.00000
     28       9.3354      0.00000

 k-point   6 :       0.4167    0.0000    0.0000
  band No.  band energies     occupation 
      1      -3.1660      2.00000
      2      -2.9499      2.00000
      3      -2.8847      2.00000
      4      -2.8301      2.00000
      5      -2.8301      2.00000
      6      -2.6147      2.00000
      7      -2.6147      2.00000
      8      -2.6005      2.00000
      9      -2.0186      2.00000
     10      -2.0186      2.00000
     11      -1.7004      2.00000
     12      -1.7004      2.00000
     13      -1.5755      2.00000
     14      -1.3345      2.00000
     15      -1.3345      2.00000
     16      -1.3221      2.00000
     17      -1.3221      2.00000
     18      -1.2104      2.00000
     19      -1.0656      2.00000
     20      -0.6752      2.00000
     21      -0.6752      2.00000
     22      -0.5970      2.00000
     23       6.5771      0.00000
     24       6.5771      0.00000
     25       7.9673      0.00000
     26       7.9673      0.00000
     27       8.3912      0.00000
     28       8.3912      0.00000

 k-point   7 :       0.5000    0.0000    0.0000
  band No.  band energies     occupation 
      1      -2.9547      2.00000
      2      -2.9547      2.00000
      3      -2.7776      2.00000
      4      -2.7776      2.00000
      5      -2.7442      2.00000
      6      -2.7442      2.00000
      7      -2.3360      2.00000
      8      -2.3360      2.00000
      9      -2.3360      2.00000
     10      -2.3360      2.00000
     11      -1.5174      2.00000
     12      -1.5174      2.00000
     13      -1.5174      2.00000
     14      -1.5174      2.00000
     15      -1.3845      2.00000
     16      -1.3845      2.00000
     17      -1.2497      2.00000
     18      -1.2497      2.00000
     19      -1.1384      2.00000
     20      -1.1384      2.00000
     21      -0.6752      2.00000
     22      -0.6752      2.00000
     23       7.4636      0.00000
     24       7.4636      0.00000
     25       7.4636      0.00000
     26       7.4636      0.00000
     27       8.0204      0.00000
     28       8.0204      0.00000

 k-point   8 :       0.0833    0.0833    0.0000
  band No.  band energies     occupation 
      1      -4.3408      2.00000
      2      -3.2988      2.00000
      3      -3.2985      2.00000
      4      -3.2985      2.00000
      5      -3.2271      2.00000
      6      -3.2271      2.00000
      7      -3.2115      2.00000
      8      -2.1970      2.00000
      9      -2.1424      2.00000
     10      -2.1308      2.00000
     11      -1.4381      2.00000
     12      -1.4074      2.00000
     13      -0.9054      2.00000
     14      -0.9026      2.00000
     15      -0.9026      2.00000
     16      -0.8270      2.00000
     17      -0.7858      2.00000
     18      -0.7858      2.00000
     19      -0.7091      2.00000
     20      -0.7091      2.00000
     21      -0.6990      2.00000
     22       3.5212      0.00000
     23       3.5212      0.00000
     24       4.1662      0.00000
     25       7.6487      0.00000
     26       8.2453      0.00000
     27       8.2453      0.00000
     28      10.9735      0.00000

 k-point   9 :       0.1667    0.0833    0.0000
  band No.  band energies     occupation 
      1      -4.1564      2.00000
      2      -3.2314      2.00000
      3      -3.2294      2.00000
      4      -3.2120      2.00000
      5      -3.1773      2.00000
      6      -3.1484      2.00000
      7      -3.1185      2.00000
      8      -2.2488      2.00000
      9      -2.0893      2.00000
     10      -2.0756      2.00000
     11      -1.4868      2.00000
     12      -1.3822      2.00000
     13      -1.0784      2.00000
     14      -1.0416      2.00000
     15      -0.9802      2.00000
     16      -0.9781      2.00000
     17      -0.9238      2.00000
     18      -0.8355      2.00000
     19      -0.8045      2.00000
     20      -0.7106      2.00000
     21      -0.7093      2.00000
     22       2.5082      0.00000
     23       3.8953      0.00000
     24       4.5591      0.00000
     25       7.6895      0.00000
     26       8.3134      0.00000
     27       9.5768      0.00000
     28      10.0757      0.00000

 k-point  10 :       0.2500    0.0833    0.0000
  band No.  band energies     occupation 
      1      -3.8624      2.00000
      2      -3.1295      2.00000
      3      -3.1158      2.00000
      4      -3.0973      2.00000
      5      -3.0817      2.00000
      6      -3.0178      2.00000
      7      -2.9759      2.00000
      8      -2.3388      2.00000
      9      -1.9937      2.00000
     10      -1.9896      2.00000
     11      -1.5552      2.00000
     12      -1.3825      2.00000
     13      -1.3481      2.00000
     14      -1.3336      2.00000
     15      -1.1099      2.00000
     16      -1.0945      2.00000
     17      -1.0552      2.00000
     18      -0.9498      2.00000
     19      -0.8986      2.00000
     20      -0.7127      2.00000
     21      -0.7096      2.00000
     22       1.4295      2.00000
     23       4.4363      0.00000
     24       5.1433      0.00000
     25       7.7457      0.00000
     26       8.4242      0.00000
     27       9.2039      0.00000
     28      10.3531      0.00000

 k-point  11 :       0.3333    0.0833    0.0000
  band No.  band energies     occupation 
      1      -3.4908      2.00000
      2      -3.0113      2.00000
      3      -2.9916      2.00000
      4      -2.9692      2.00000
      5      -2.9319      2.00000
      6      -2.8367      2.00000
      7      -2.7977      2.00000
      8      -2.4554      2.00000
      9      -1.8960      2.00000
     10      -1.8627      2.00000
     11      -1.7203      2.00000
     12      -1.6872      2.00000
     13      -1.5818      2.00000
     14      -1.2848      2.00000
     15      -1.2676      2.00000
     16      -1.2279      2.00000
     17      -1.1992      2.00000
     18      -1.1285      2.00000
     19      -0.9719      2.00000
     20      -0.7128      2.00000
     21      -0.7101      2.00000
     22       0.4274      2.00000
     23       5.0818      0.00000
     24       5.8628      0.00000
     25       7.7175      0.00000
     26       8.5038      0.00000
     27       8.5531      0.00000
     28       9.4251      0.00000

 k-point  12 :       0.4167    0.0833    0.0000
  band No.  band energies     occupation 
      1      -3.1246      2.00000
      2      -2.9135      2.00000
      3      -2.8663      2.00000
      4      -2.8255      2.00000
      5      -2.8040      2.00000
      6      -2.6072      2.00000
      7      -2.5912      2.00000
      8      -2.5888      2.00000
      9      -2.0487      2.00000
     10      -2.0228      2.00000
     11      -1.8255      2.00000
     12      -1.7019      2.00000
     13      -1.4873      2.00000
     14      -1.4545      2.00000
     15      -1.3426      2.00000
     16      -1.3264      2.00000
     17      -1.3234      2.00000
     18      -1.1838      2.00000
     19      -1.0571      2.00000
     20      -0.7123      2.00000
     21      -0.7108      2.00000
     22      -0.4222      2.00000
     23       5.7877      0.00000
     24       6.6774      0.00000
     25       7.2420      0.00000
     26       8.3443      0.00000
     27       8.4824      0.00000
     28       8.6057      0.00000

 k-point  13 :       0.5000    0.0833    0.0000
  band No.  band energies     occupation 
      1      -2.9159      2.00000
      2      -2.9159      2.00000
      3      -2.7565      2.00000
      4      -2.7565      2.00000
      5      -2.7291      2.00000
      6      -2.7291      2.00000
      7      -2.3436      2.00000
      8      -2.3436      2.00000
      9      -2.3335      2.00000
     10      -2.3335      2.00000
     11      -1.6916      2.00000
     12      -1.6916      2.00000
     13      -1.5189      2.00000
     14      -1.5189      2.00000
     15      -1.3850      2.00000
     16      -1.3850      2.00000
     17      -1.1856      2.00000
     18      -1.1856      2.00000
     19      -1.0076      2.00000
     20      -1.0076      2.00000
     21      -0.7115      2.00000
     22      -0.7115      2.00000
     23       6.5226      0.00000
     24       6.5226      0.00000
     25       7.5584      0.00000
     26       7.5584      0.00000
     27       8.4897      0.00000
     28       8.4897      0.00000

 k-point  14 :       0.1667    0.1667    0.0000
  band No.  band energies     occupation 
      1      -3.9804      2.00000
      2      -3.1875      2.00000
      3      -3.1432      2.00000
      4      -3.1432      2.00000
      5      -3.1018      2.00000
      6      -3.1018      2.00000
      7      -3.0081      2.00000
      8      -2.2692      2.00000
      9      -2.0633      2.00000
     10      -2.0339      2.00000
     11      -1.5058      2.00000
     12      -1.3674      2.00000
     13      -1.2102      2.00000
     14      -1.2102      2.00000
     15      -1.1839      2.00000
     16      -1.0468      2.00000
     17      -0.9148      2.00000
     18      -0.9148      2.00000
     19      -0.8055      2.00000
     20      -0.8055      2.00000
     21      -0.7676      2.00000
     22       2.8608      0.00000
     23       2.8608      0.00000
     24       4.9264      0.00000
     25       7.7039      0.00000
     26       9.0589      0.00000
     27       9.6428      0.00000
     28       9.6428      0.00000

 k-point  15 :       0.2500    0.1667    0.0000
  band No.  band energies     occupation 
      1      -3.7017      2.00000
      2      -3.0989      2.00000
      3      -3.0380      2.00000
      4      -3.0271      2.00000
      5      -3.0100      2.00000
      6      -2.9768      2.00000
      7      -2.8566      2.00000
      8      -2.3354      2.00000
      9      -1.9846      2.00000
     10      -1.9756      2.00000
     11      -1.5532      2.00000
     12      -1.5148      2.00000
     13      -1.4311      2.00000
     14      -1.3750      2.00000
     15      -1.3015      2.00000
     16      -1.1495      2.00000
     17      -1.0340      2.00000
     18      -0.9518      2.00000
     19      -0.9440      2.00000
     20      -0.8071      2.00000
     21      -0.7981      2.00000
     22       1.7817      2.00000
     23       3.3611      0.00000
     24       5.4816      0.00000
     25       7.5491      0.00000
     26       8.3247      0.00000
     27       9.6905      0.00000
     28      10.6192      0.00000

 k-point  16 :       0.3333    0.1667    0.0000
  band No.  band energies     occupation 
      1      -3.3527      2.00000
      2      -2.9676      2.00000
      3      -2.9286      2.00000
      4      -2.9140      2.00000
      5      -2.8564      2.00000
      6      -2.8038      2.00000
      7      -2.6853      2.00000
      8      -2.4362      2.00000
      9      -1.9420      2.00000
     10      -1.8608      2.00000
     11      -1.8329      2.00000
     12      -1.7301      2.00000
     13      -1.5630      2.00000
     14      -1.5493      2.00000
     15      -1.2698      2.00000
     16      -1.1909      2.00000
     17      -1.1782      2.00000
     18      -1.1314      2.00000
     19      -1.0082      2.00000
     20      -0.8095      2.00000
     21      -0.8091      2.00000
     22       0.7911      2.00000
     23       3.9542      0.00000
     24       6.1752      0.00000
     25       6.8771      0.00000
     26       8.2475      0.00000
     27       9.5337      0.00000
     28       9.6881      0.00000

 k-point  17 :       0.4167    0.1667    0.0000
  band No.  band energies     occupation 
      1      -3.0085      2.00000
      2      -2.8123      2.00000
      3      -2.8122      2.00000
      4      -2.8083      2.00000
      5      -2.7279      2.00000
      6      -2.5858      2.00000
      7      -2.5566      2.00000
      8      -2.5204      2.00000
      9      -2.1253      2.00000
     10      -2.0374      2.00000
     11      -1.9571      2.00000
     12      -1.7589      2.00000
     13      -1.7034      2.00000
     14      -1.4221      2.00000
     15      -1.3695      2.00000
     16      -1.3267      2.00000
     17      -1.3154      2.00000
     18      -1.1062      2.00000
     19      -1.0099      2.00000
     20      -0.8129      2.00000
     21      -0.8112      2.00000
     22      -0.0442      2.00000
     23       4.6109      0.00000
     24       6.0805      0.00000
     25       6.9692      0.00000
     26       8.4458      0.00000
     27       8.7492      0.00000
     28       9.1500      0.00000

 k-point  18 :       0.5000    0.1667    0.0000
  band No.  band energies     occupation 
      1      -2.8057      2.00000
      2      -2.8057      2.00000
      3      -2.7005      2.00000
      4      -2.7005      2.00000
      5      -2.6852      2.00000
      6      -2.6852      2.00000
      7      -2.3556      2.00000
      8      -2.3556      2.00000
      9      -2.3274      2.00000
     10      -2.3274      2.00000
     11      -1.9151      2.00000
     12      -1.9151      2.00000
     13      -1.5218      2.00000
     14      -1.5218      2.00000
     15      -1.3929      2.00000
     16      -1.3929      2.00000
     17      -1.2448      2.00000
     18      -1.2448      2.00000
     19      -0.8128      2.00000
     20      -0.8128      2.00000
     21      -0.6573      2.00000
     22      -0.6573      2.00000
     23       5.3204      0.00000
     24       5.3204      0.00000
     25       7.8349      0.00000
     26       7.8349      0.00000
     27       8.7581      0.00000
     28       8.7581      0.00000

 k-point  19 :       0.2500    0.2500    0.0000
  band No.  band energies     occupation 
      1      -3.4515      2.00000
      2      -3.0377      2.00000
      3      -2.9113      2.00000
      4      -2.9113      2.00000
      5      -2.8991      2.00000
      6      -2.8991      2.00000
      7      -2.7033      2.00000
      8      -2.3588      2.00000
      9      -1.9514      2.00000
     10      -1.9381      2.00000
     11      -1.6793      2.00000
     12      -1.6793      2.00000
     13      -1.5919      2.00000
     14      -1.5903      2.00000
     15      -1.2361      2.00000
     16      -1.1903      2.00000
     17      -1.0470      2.00000
     18      -1.0470      2.00000
     19      -0.9548      2.00000
     20      -0.9548      2.00000
     21      -0.8784      2.00000
     22       2.2683      0.00000
     23       2.2683      0.00000
     24       6.0018      0.00000
     25       6.7445      0.00000
     26       8.2005      0.00000
     27      10.7546      0.00000
     28      10.7546      0.00000

 k-point  20 :       0.3333    0.2500    0.0000
  band No.  band energies     occupation 
      1      -3.1457      2.00000
      2      -2.9322      2.00000
      3      -2.8254      2.00000
      4      -2.7655      2.00000
      5      -2.7520      2.00000
      6      -2.7380      2.00000
      7      -2.5401      2.00000
      8      -2.4212      2.00000
      9      -1.9755      2.00000
     10      -1.9559      2.00000
     11      -1.8557      2.00000
     12      -1.8391      2.00000
     13      -1.8147      2.00000
     14      -1.6006      2.00000
     15      -1.3390      2.00000
     16      -1.1847      2.00000
     17      -1.1350      2.00000
     18      -1.1035      2.00000
     19      -0.9988      2.00000
     20      -0.9579      2.00000
     21      -0.9270      2.00000
     22       1.2713      2.00000
     23       2.8406      0.00000
     24       5.8220      0.00000
     25       6.6625      0.00000
     26       8.3625      0.00000
     27      10.1074      0.00000
     28      10.1180      0.00000

 k-point  21 :       0.4167    0.2500    0.0000
  band No.  band energies     occupation 
      1      -2.8454      2.00000
      2      -2.7882      2.00000
      3      -2.7249      2.00000
      4      -2.6473      2.00000
      5      -2.6088      2.00000
      6      -2.5532      2.00000
      7      -2.5123      2.00000
      8      -2.4070      2.00000
      9      -2.2217      2.00000
     10      -2.0689      2.00000
     11      -2.0308      2.00000
     12      -2.0184      2.00000
     13      -1.6956      2.00000
     14      -1.5023      2.00000
     15      -1.4210      2.00000
     16      -1.3295      2.00000
     17      -1.3268      2.00000
     18      -1.2052      2.00000
     19      -0.9599      2.00000
     20      -0.9499      2.00000
     21      -0.7029      2.00000
     22       0.4209      2.00000
     23       3.4801      0.00000
     24       4.9643      0.00000
     25       7.4289      0.00000
     26       8.6405      0.00000
     27       9.1740      0.00000
     28       9.5209      0.00000

 k-point  22 :       0.5000    0.2500    0.0000
  band No.  band energies     occupation 
      1      -2.6473      2.00000
      2      -2.6473      2.00000
      3      -2.6354      2.00000
      4      -2.6354      2.00000
      5      -2.6175      2.00000
      6      -2.6175      2.00000
      7      -2.3391      2.00000
      8      -2.3391      2.00000
[...]
     14      -1.3264      2.00000
     15      -1.3264      2.00000
     16      -1.3264      2.00000
     17      -1.0312      2.00000
     18      -1.0312      2.00000
     19      -1.0312      2.00000
     20      -1.0312      2.00000
     21       1.6898      2.00000
     22       1.6898      2.00000
     23       1.6898      2.00000
     24       1.6898      2.00000
     25       6.6839      0.00000
     26       6.6839      0.00000
     27       6.6839      0.00000
     28       6.6839      0.00000

 k-point  75 :       0.3333    0.3333    0.3333
  band No.  band energies     occupation 
      1      -3.2342      2.00000
      2      -3.0288      2.00000
      3      -3.0288      2.00000
      4      -3.0288      2.00000
      5      -2.3327      2.00000
      6      -2.3327      2.00000
      7      -2.3327      2.00000
      8      -2.0823      2.00000
      9      -2.0823      2.00000
     10      -1.8729      2.00000
     11      -1.8729      2.00000
     12      -1.8729      2.00000
     13      -1.6146      2.00000
     14      -1.6146      2.00000
     15      -1.6146      2.00000
     16      -1.0965      2.00000
     17      -1.0965      2.00000
     18      -0.8075      2.00000
     19      -0.8075      2.00000
     20      -0.8075      2.00000
     21      -0.6879      2.00000
     22       2.6676      0.00000
     23       2.6676      0.00000
     24       2.6676      0.00000
     25       6.0727      0.00000
     26       6.0727      0.00000
     27       6.0727      0.00000
     28       9.0568      0.00000

 k-point  76 :       0.4167    0.3333    0.3333
  band No.  band energies     occupation 
      1      -3.2301      2.00000
      2      -3.1165      2.00000
      3      -3.0647      2.00000
      4      -3.0647      2.00000
      5      -2.3260      2.00000
      6      -2.3260      2.00000
      7      -2.2567      2.00000
      8      -2.1240      2.00000
      9      -2.0841      2.00000
     10      -1.9760      2.00000
     11      -1.9383      2.00000
     12      -1.9383      2.00000
     13      -1.4761      2.00000
     14      -1.4626      2.00000
     15      -1.4626      2.00000
     16      -1.1856      2.00000
     17      -0.9704      2.00000
     18      -0.8361      2.00000
     19      -0.8361      2.00000
     20      -0.8201      2.00000
     21      -0.0494      2.00000
     22       1.6539      2.00000
     23       3.0380      0.00000
     24       3.0380      0.00000
     25       5.3417      0.00000
     26       5.3417      0.00000
     27       6.6586      0.00000
     28       8.1559      0.00000

 k-point  77 :       0.5000    0.3333    0.3333
  band No.  band energies     occupation 
      1      -3.1879      2.00000
      2      -3.1879      2.00000
      3      -3.0764      2.00000
      4      -3.0764      2.00000
      5      -2.3263      2.00000
      6      -2.3263      2.00000
      7      -2.1836      2.00000
      8      -2.1836      2.00000
      9      -2.0480      2.00000
     10      -2.0480      2.00000
     11      -1.9591      2.00000
     12      -1.9591      2.00000
     13      -1.3969      2.00000
     14      -1.3969      2.00000
     15      -1.3285      2.00000
     16      -1.3285      2.00000
     17      -0.8758      2.00000
     18      -0.8758      2.00000
     19      -0.8581      2.00000
     20      -0.8581      2.00000
     21       0.7447      2.00000
     22       0.7447      2.00000
     23       3.2326      0.00000
     24       3.2326      0.00000
     25       5.0264      0.00000
     26       5.0264      0.00000
     27       7.3555      0.00000
     28       7.3555      0.00000

 k-point  78 :       0.4167    0.4167    0.3333
  band No.  band energies     occupation 
      1      -3.2543      2.00000
      2      -3.1649      2.00000
      3      -3.1649      2.00000
      4      -3.1383      2.00000
      5      -2.2857      2.00000
      6      -2.2550      2.00000
      7      -2.2550      2.00000
      8      -2.1388      2.00000
      9      -2.1190      2.00000
     10      -2.0338      2.00000
     11      -2.0338      2.00000
     12      -2.0179      2.00000
     13      -1.2869      2.00000
     14      -1.2869      2.00000
     15      -1.2856      2.00000
     16      -1.0076      2.00000
     17      -1.0039      2.00000
     18      -0.8516      2.00000
     19      -0.8404      2.00000
     20      -0.8404      2.00000
     21       0.4893      2.00000
     22       2.0956      2.00000
     23       2.0956      2.00000
     24       2.9948      0.00000
     25       4.9801      0.00000
     26       5.8382      0.00000
     27       5.8382      0.00000
     28       7.2663      0.00000

 k-point  79 :       0.5000    0.4167    0.3333
  band No.  band energies     occupation 
      1      -3.2308      2.00000
      2      -3.2308      2.00000
      3      -3.1721      2.00000
      4      -3.1721      2.00000
      5      -2.2623      2.00000
      6      -2.2623      2.00000
      7      -2.1891      2.00000
      8      -2.1891      2.00000
      9      -2.0961      2.00000
     10      -2.0961      2.00000
     11      -2.0503      2.00000
     12      -2.0503      2.00000
     13      -1.2043      2.00000
     14      -1.2043      2.00000
     15      -1.1275      2.00000
     16      -1.1275      2.00000
     17      -0.8955      2.00000
     18      -0.8955      2.00000
     19      -0.8708      2.00000
     20      -0.8708      2.00000
     21       1.2281      2.00000
     22       1.2281      2.00000
     23       2.5981      0.00000
     24       2.5981      0.00000
     25       5.2248      0.00000
     26       5.2248      0.00000
     27       6.4906      0.00000
     28       6.4906      0.00000

 k-point  80 :       0.5000    0.5000    0.3333
  band No.  band energies     occupation 
      1      -3.2248      2.00000
      2      -3.2248      2.00000
      3      -3.2248      2.00000
      4      -3.2248      2.00000
      5      -2.2114      2.00000
      6      -2.2114      2.00000
      7      -2.2114      2.00000
      8      -2.2114      2.00000
      9      -2.1008      2.00000
     10      -2.1008      2.00000
     11      -2.1008      2.00000
     12      -2.1008      2.00000
     13      -1.0672      2.00000
     14      -1.0672      2.00000
     15      -1.0672      2.00000
     16      -1.0672      2.00000
     17      -0.9219      2.00000
     18      -0.9219      2.00000
     19      -0.9219      2.00000
     20      -0.9219      2.00000
     21       1.8692      2.00000
     22       1.8692      2.00000
     23       1.8692      2.00000
     24       1.8692      2.00000
     25       5.7663      0.00000
     26       5.7663      0.00000
     27       5.7663      0.00000
     28       5.7663      0.00000

 k-point  81 :       0.4167    0.4167    0.4167
  band No.  band energies     occupation 
      1      -3.3031      2.00000
      2      -3.2407      2.00000
      3      -3.2407      2.00000
      4      -3.2407      2.00000
      5      -2.2299      2.00000
      6      -2.2299      2.00000
      7      -2.2299      2.00000
      8      -2.1523      2.00000
      9      -2.1523      2.00000
     10      -2.0999      2.00000
     11      -2.0999      2.00000
     12      -2.0999      2.00000
     13      -1.0961      2.00000
     14      -1.0961      2.00000
     15      -1.0961      2.00000
     16      -0.9032      2.00000
     17      -0.9032      2.00000
     18      -0.8221      2.00000
     19      -0.8221      2.00000
     20      -0.8221      2.00000
     21       0.9441      2.00000
     22       2.3430      0.00000
     23       2.3430      0.00000
     24       2.3430      0.00000
     25       5.1619      0.00000
     26       5.1619      0.00000
     27       5.1619      0.00000
     28       6.4036      0.00000

 k-point  82 :       0.5000    0.4167    0.4167
  band No.  band energies     occupation 
      1      -3.2975      2.00000
      2      -3.2975      2.00000
      3      -3.2662      2.00000
      4      -3.2662      2.00000
      5      -2.2193      2.00000
      6      -2.2193      2.00000
      7      -2.1833      2.00000
      8      -2.1833      2.00000
      9      -2.1457      2.00000
     10      -2.1457      2.00000
     11      -2.1241      2.00000
     12      -2.1241      2.00000
     13      -1.0095      2.00000
     14      -1.0095      2.00000
     15      -0.9557      2.00000
     16      -0.9557      2.00000
     17      -0.8396      2.00000
     18      -0.8396      2.00000
     19      -0.8358      2.00000
     20      -0.8358      2.00000
     21       1.5971      2.00000
     22       1.5971      2.00000
     23       2.4638      0.00000
     24       2.4638      0.00000
     25       4.8958      0.00000
     26       4.8958      0.00000
     27       5.6872      0.00000
     28       5.6872      0.00000

 k-point  83 :       0.5000    0.5000    0.4167
  band No.  band energies     occupation 
      1      -3.3089      2.00000
      2      -3.3089      2.00000
      3      -3.3089      2.00000
      4      -3.3089      2.00000
      5      -2.1885      2.00000
      6      -2.1885      2.00000
      7      -2.1885      2.00000
      8      -2.1885      2.00000
      9      -2.1600      2.00000
     10      -2.1600      2.00000
     11      -2.1600      2.00000
     12      -2.1600      2.00000
     13      -0.8902      2.00000
     14      -0.8902      2.00000
     15      -0.8902      2.00000
     16      -0.8902      2.00000
     17      -0.8516      2.00000
     18      -0.8516      2.00000
     19      -0.8516      2.00000
     20      -0.8516      2.00000
     21       2.0614      2.00000
     22       2.0614      2.00000
     23       2.0614      2.00000
     24       2.0614      2.00000
     25       5.1093      0.00000
     26       5.1093      0.00000
     27       5.1093      0.00000
     28       5.1093      0.00000

 k-point  84 :       0.5000    0.5000    0.5000
  band No.  band energies     occupation 
      1      -3.3372      2.00000
      2      -3.3372      2.00000
      3      -3.3372      2.00000
      4      -3.3372      2.00000
      5      -2.1802      2.00000
      6      -2.1802      2.00000
      7      -2.1802      2.00000
      8      -2.1802      2.00000
      9      -2.1802      2.00000
     10      -2.1802      2.00000
     11      -2.1802      2.00000
     12      -2.1802      2.00000
     13      -0.8273      2.00000
     14      -0.8273      2.00000
     15      -0.8273      2.00000
     16      -0.8273      2.00000
     17      -0.8273      2.00000
     18      -0.8273      2.00000
     19      -0.8273      2.00000
     20      -0.8273      2.00000
     21       2.1545      1.99857
     22       2.1545      1.99857
     23       2.1545      1.99857
     24       2.1545      1.99857
     25       4.8573      0.00000
     26       4.8573      0.00000
     27       4.8573      0.00000
     28       4.8573      0.00000


--------------------------------------------------------------------------------------------------------


 soft charge-density along one line, spin component           1
         0         1         2         3         4         5         6         7         8         9
 total charge-density along one line
 
 pseudopotential strength for first ion, spin component:           1
-12.549  -0.000   0.000  -0.000   0.000   0.202   0.000  -0.000
 -0.000 -12.549   0.000  -0.000   0.000   0.000   0.202  -0.000
  0.000   0.000 -12.541   0.000   0.000  -0.000  -0.000   0.201
 -0.000  -0.000   0.000 -12.549  -0.000   0.000   0.000  -0.000
  0.000   0.000   0.000  -0.000 -12.541  -0.000  -0.000  -0.000
  0.202   0.000  -0.000   0.000  -0.000   0.444  -0.000   0.000
  0.000   0.202  -0.000   0.000  -0.000  -0.000   0.444   0.000
 -0.000  -0.000   0.201  -0.000  -0.000   0.000   0.000   0.444
  0.000   0.000  -0.000   0.202   0.000  -0.000  -0.000   0.000
 -0.000  -0.000  -0.000   0.000   0.201   0.000   0.000   0.000
  0.000   0.000  -0.000   0.000   0.000  -0.000  -0.000   0.000
 -0.000  -0.000   0.000  -0.000  -0.000   0.000   0.000  -0.000
  0.000  -0.000   0.000   0.000   0.000  -0.000   0.000  -0.000
  0.000  -0.000  -0.000   0.000  -0.000  -0.000   0.000   0.000
 -0.000   0.000  -0.000  -0.000   0.000   0.000  -0.000   0.000
 -0.000   0.000  -0.000  -0.000  -0.000   0.000  -0.000   0.000
 -0.000   0.000   0.000  -0.000   0.000   0.000  -0.000  -0.000
  0.000  -0.000   0.000   0.000  -0.000  -0.000   0.000  -0.000
 total augmentation occupancy for first ion, spin component:           1
  1.919  -0.004  -0.001   0.003  -0.009  -0.027   0.003  -0.009  -0.004   0.008   0.013  -0.013   0.000   0.000   0.000  -0.000
 -0.004   1.967  -0.002  -0.006  -0.000   0.003  -0.052   0.003   0.006  -0.005   0.042  -0.003   0.000   0.000   0.000   0.000
 -0.001  -0.002   1.945   0.003  -0.017  -0.009   0.003  -0.039  -0.002   0.017  -0.047  -0.033  -0.000   0.000   0.000   0.000
  0.003  -0.006   0.003   1.948  -0.002  -0.004   0.006  -0.002  -0.028   0.006   0.015  -0.005   0.000   0.000   0.000   0.000
 -0.009  -0.000  -0.017  -0.002   1.983   0.008  -0.005   0.017   0.006  -0.073   0.069   0.016  -0.000  -0.000   0.000  -0.000
 -0.027   0.003  -0.009  -0.004   0.008   0.069  -0.001   0.015   0.005  -0.007   0.020   0.016   0.000  -0.000  -0.000  -0.000
  0.003  -0.052   0.003   0.006  -0.005  -0.001   0.052  -0.004  -0.003   0.008  -0.019   0.011  -0.000   0.000   0.000  -0.000
 -0.009   0.003  -0.039  -0.002   0.017   0.015  -0.004   0.049   0.001  -0.005   0.088  -0.008  -0.000  -0.000   0.000   0.000
 -0.004   0.006  -0.002  -0.028   0.006   0.005  -0.003   0.001   0.039  -0.008   0.001   0.008   0.000   0.000   0.000  -0.000
  0.008  -0.005   0.017   0.006  -0.073  -0.007   0.008  -0.005  -0.008   0.039  -0.070   0.013   0.000   0.000  -0.000   0.000
  0.013   0.042  -0.047   0.015   0.069   0.020  -0.019   0.088   0.001  -0.070   0.957  -0.290   0.000  -0.000   0.000   0.000
 -0.013  -0.003  -0.033  -0.005   0.016   0.016   0.011  -0.008   0.008   0.013  -0.290   0.134  -0.000  -0.000  -0.000  -0.000
  0.000   0.000  -0.000   0.000  -0.000   0.000  -0.000  -0.000   0.000   0.000   0.000  -0.000   0.072   0.015  -0.008  -0.004
  0.000   0.000   0.000   0.000  -0.000  -0.000   0.000  -0.000   0.000   0.000  -0.000  -0.000   0.015   0.050  -0.000  -0.001
  0.000   0.000   0.000   0.000   0.000  -0.000   0.000   0.000   0.000  -0.000   0.000  -0.000  -0.008  -0.000   0.130  -0.000
 -0.000   0.000   0.000   0.000  -0.000  -0.000  -0.000   0.000  -0.000   0.000   0.000  -0.000  -0.004  -0.001  -0.000   0.000
  0.000   0.000   0.000  -0.000  -0.000  -0.000   0.000  -0.000  -0.000   0.000   0.000  -0.000  -0.001  -0.003  -0.000   0.000
 -0.000  -0.000  -0.000  -0.000   0.000  -0.000  -0.000   0.000  -0.000  -0.000   0.000  -0.000  -0.000  -0.000  -0.006   0.000


------------------------ aborting loop because EDIFF is reached ----------------------------------------




--------------------------------------------------------------------------------------------------------


    CHARGE:  VPU time    1.25: CPU time    1.25
    FORLOC:  VPU time    0.00: CPU time    0.01
    FORNL :  VPU time    2.95: CPU time    2.95
    STRESS:  VPU time    7.63: CPU time    7.64
    FORCOR:  VPU time    0.14: CPU time    0.14
    FORHAR:  VPU time    0.04: CPU time    0.04
    MIXING:  VPU time    0.00: CPU time    0.01


--------------------------------------------------------------------------------------------------------



  FREE ENERGIE OF THE ION-ELECTRON SYSTEM (eV)
  ---------------------------------------------------
  free  energy   TOTEN  =       -11.078151 eV

  energy  without entropy=      -11.078111  energy(sigma->0) =      -11.078131
 

  FORCE on cell =-STRESS in cart. coord.  units (eV/reduce length):
  Direction    X        Y        Z        XY       YZ       ZX
  --------------------------------------------------------------------------------------
  Alpha Z    350.04    350.04    350.04
  Ewald    -1230.02  -1230.02  -1230.02      0.00     -0.00     -0.00
  Hartree    292.00    292.00    292.00     -0.00     -0.00     -0.00
  E(xc)     -231.61   -231.61   -231.61      0.00     -0.00      0.00
  Local      375.21    375.21    375.21     -0.00      0.00     -0.00
  n-local   -264.40   -271.49   -273.45      0.14      2.09      0.58
  augment    167.11    167.11    167.11     -0.00     -0.00     -0.00
  Kinetic    550.48    541.92    537.37     -2.62      0.86     -0.89
  -------------------------------------------------------------------------------------
  Total       -3.80     -3.80     -3.80     -0.00     -0.00      0.00
  in kB      -74.93    -74.93    -74.93     -0.00     -0.00      0.00
  external pressure =      -74.93 kB  Pullay stress =        0.00 kB


 VOLUME and BASIS-vectors are now :
 -----------------------------------------------------------------------------
  energy-cutoff  :      750.00
  volume of cell :       81.17
      direct lattice vectors                 reciprocal lattice vectors
     4.329753773  0.000000000  0.000000000     0.230960016  0.000000000  0.000000000
     0.000000000  4.329753773  0.000000000     0.000000000  0.230960016  0.000000000
     0.000000000  0.000000000  4.329753773     0.000000000  0.000000000  0.230960016

  length of vectors
     4.329753773  4.329753773  4.329753773     0.230960016  0.230960016  0.230960016


 FORCES acting on ions
    electron-ion (+dipol)            ewald-force                    non-local-force                 convergence-correction
 -----------------------------------------------------------------------------------------------
   0.985E-14 0.433E-14 -.218E-14   -.178E-13 -.111E-13 -.121E-13   -.121E-24 0.905E-25 0.258E-25   -.656E-13 -.762E-13 -.840E-13
   -.689E-13 -.692E-12 -.280E-11   0.258E-14 0.311E-14 -.122E-13   0.258E-25 -.246E-24 -.775E-25   0.376E-13 0.504E-13 -.888E-13
   -.671E-13 0.546E-14 -.342E-11   0.599E-14 -.387E-14 0.107E-13   0.129E-25 0.388E-25 -.103E-24   0.390E-13 -.785E-13 0.418E-13
   0.106E-13 -.714E-13 -.813E-13   0.106E-13 0.103E-13 0.106E-13   -.110E-24 0.194E-25 0.000E+00   -.750E-13 0.524E-13 0.316E-13
 -----------------------------------------------------------------------------------------------
   -.116E-12 -.754E-12 -.631E-11   0.144E-14 -.150E-14 -.295E-14   -.192E-24 -.969E-25 -.155E-24   -.640E-13 -.518E-13 -.993E-13
 
 
 POSITION                                       TOTAL-FORCE (eV/Angst)
 -----------------------------------------------------------------------------------
      0.00000      0.00000      0.00000        -0.000000      0.000000      0.000000
      2.16488      2.16488      0.00000        -0.000000      0.000000      0.000000
      2.16488      0.00000      2.16488        -0.000000      0.000000     -0.000000
      0.00000      2.16488      2.16488        -0.000000      0.000000      0.000000
 -----------------------------------------------------------------------------------
    total drift:                               -0.000000     -0.000000     -0.000000


--------------------------------------------------------------------------------------------------------



 mean value of Nose-termostat <S>:     1.000 mean value of <T> :     0.000
 mean temperature <T/S>/<1/S>  :     0.000

     LOOP+:  VPU time  193.40: CPU time  193.63
  
  
 General timing and accounting informations for this job:
 ========================================================
  
                  Total CPU time used (sec):      196.368
                            User time (sec):      179.782
                          System time (sec):       16.586
                         Elapsed time (sec):      196.609
  
                   Maximum memory used (kb):      496700.
                   Average memory used (kb):           0.
  
                          Minor page faults:       176174
                          Major page faults:            0
                 Voluntary context switches:          872
