<?xml version="1.0" encoding="ISO-8859-1"?>
<modeling>
 <generator>
  <i name="program" type="string">vasp</i>
  <i name="version" type="string">4.6.28 </i>
  <i name="subversion" type="string">25Jul05 complex  parallel</i>
  <i name="platform" type="string">LinuxIFC</i>
  <i name="date" type="string">2017 01 06</i>
  <i name="time" type="string">05:43:12</i>
 </generator>
 <incar>
  <i type="string" name="PREC">accurate</i>
  <i type="int" name="IALGO">    38</i>
  <i type="logical" name="ADDGRID"> T  </i>
  <i name="EDIFF">      0.00000001</i>
  <i type="int" name="IBRION">    -1</i>
  <i name="ENCUT">    750.00000000</i>
  <i type="logical" name="LREAL"> F  </i>
  <i type="int" name="ISMEAR">     0</i>
  <i name="SIGMA">      0.01000000</i>
  <i type="logical" name="LWAVE"> F  </i>
  <i type="logical" name="LCHARG"> F  </i>
 </incar>
 <kpoints>
  <generation param="Gamma">
   <v type="int" name="divisions">      12      12      12</v>
   <v name="usershift">      0.00000000      0.00000000      0.00000000</v>
   <v name="genvec1">      0.08333333      0.00000000      0.00000000</v>
   <v name="genvec2">      0.00000000      0.08333333      0.00000000</v>
   <v name="genvec3">      0.00000000      0.00000000      0.08333333</v>
   <v name="shift">      0.00000000      0.00000000      0.00000000</v>
  </generation>
  <varray name="kpointlist" >
   <v>       0.00000000      0.00000000      0.00000000</v>
   <v>       0.08333333      0.00000000      0.00000000</v>
   <v>       0.16666667      0.00000000      0.00000000</v>
   <v>       0.25000000      0.00000000      0.00000000</v>
   <v>       0.33333333      0.00000000      0.00000000</v>
   <v>       0.41666667      0.00000000      0.00000000</v>
   <v>       0.50000000      0.00000000      0.00000000</v>
   <v>       0.08333333      0.08333333      0.00000000</v>
   <v>       0.16666667      0.08333333      0.00000000</v>
   <v>       0.25000000      0.08333333      0.00000000</v>
   <v>       0.33333333      0.08333333      0.00000000</v>
   <v>       0.41666667      0.08333333      0.00000000</v>
   <v>       0.50000000      0.08333333      0.00000000</v>
   <v>       0.16666667      0.16666667      0.00000000</v>
   <v>       0.25000000      0.16666667      0.00000000</v>
   <v>       0.33333333      0.16666667      0.00000000</v>
   <v>       0.41666667      0.16666667      0.00000000</v>
   <v>       0.50000000      0.16666667      0.00000000</v>
   <v>       0.25000000      0.25000000      0.00000000</v>
   <v>       0.33333333      0.25000000      0.00000000</v>
   <v>       0.41666667      0.25000000      0.00000000</v>
   <v>       0.50000000      0.25000000      0.00000000</v>
   <v>       0.33333333      0.33333333      0.00000000</v>
   <v>       0.41666667      0.33333333      0.00000000</v>
   <v>       0.50000000      0.33333333      0.00000000</v>
   <v>       0.41666667      0.41666667      0.00000000</v>
   <v>       0.50000000      0.41666667      0.00000000</v>
   <v>       0.50000000      0.50000000      0.00000000</v>
   <v>       0.08333333      0.08333333      0.08333333</v>
   <v>       0.16666667      0.08333333      0.08333333</v>
   <v>       0.25000000      0.08333333      0.08333333</v>
   <v>       0.33333333      0.08333333      0.08333333</v>
   <v>       0.41666667      0.08333333      0.08333333</v>
   <v>       0.50000000      0.08333333      0.08333333</v>
   <v>       0.16666667      0.16666667      0.08333333</v>
   <v>       0.25000000      0.16666667      0.08333333</v>
   <v>       0.33333333      0.16666667      0.08333333</v>
   <v>       0.41666667      0.16666667      0.08333333</v>
   <v>       0.50000000      0.16666667      0.08333333</v>
   <v>       0.25000000      0.25000000      0.08333333</v>
   <v>       0.33333333      0.25000000      0.08333333</v>
   <v>       0.41666667      0.25000000      0.08333333</v>
   <v>       0.50000000      0.25000000      0.08333333</v>
   <v>       0.33333333      0.33333333      0.08333333</v>
   <v>       0.41666667      0.33333333      0.08333333</v>
   <v>       0.50000000      0.33333333      0.08333333</v>
   <v>       0.41666667      0.41666667      0.08333333</v>
   <v>       0.50000000      0.41666667      0.08333333</v>
   <v>       0.50000000      0.50000000      0.08333333</v>
   <v>       0.16666667      0.16666667      0.16666667</v>
   <v>       0.25000000      0.16666667      0.16666667</v>
   <v>       0.33333333      0.16666667      0.16666667</v>
   <v>       0.41666667      0.16666667      0.16666667</v>
   <v>       0.50000000      0.16666667      0.16666667</v>
   <v>       0.25000000      0.25000000      0.16666667</v>
   <v>       0.33333333      0.25000000      0.16666667</v>
   <v>       0.41666667      0.25000000      0.16666667</v>
   <v>       0.50000000      0.25000000      0.16666667</v>
   <v>       0.33333333      0.33333333      0.16666667</v>
   <v>       0.41666667      0.33333333      0.16666667</v>
   <v>       0.50000000      0.33333333      0.16666667</v>
   <v>       0.41666667      0.41666667      0.16666667</v>
   <v>       0.50000000      0.41666667      0.16666667</v>
   <v>       0.50000000      0.50000000      0.16666667</v>
   <v>       0.25000000      0.25000000      0.25000000</v>
   <v>       0.33333333      0.25000000      0.25000000</v>
   <v>       0.41666667      0.25000000      0.25000000</v>
   <v>       0.50000000      0.25000000      0.25000000</v>
   <v>       0.33333333      0.33333333      0.25000000</v>
   <v>       0.41666667      0.33333333      0.25000000</v>
   <v>       0.50000000      0.33333333      0.25000000</v>
   <v>       0.41666667      0.41666667      0.25000000</v>
   <v>       0.50000000      0.41666667      0.25000000</v>
   <v>       0.50000000      0.50000000      0.25000000</v>
   <v>       0.33333333      0.33333333      0.33333333</v>
   <v>       0.41666667      0.33333333      0.33333333</v>
   <v>       0.50000000      0.33333333      0.33333333</v>
   <v>       0.41666667      0.41666667      0.33333333</v>
   <v>       0.50000000      0.41666667      0.33333333</v>
   <v>       0.50000000      0.50000000      0.33333333</v>
   <v>       0.41666667      0.41666667      0.41666667</v>
   <v>       0.50000000      0.41666667      0.41666667</v>
   <v>       0.50000000      0.50000000      0.41666667</v>
   <v>       0.50000000      0.50000000      0.50000000</v>
  </varray>
  <varray name="weights" >
   <v>       0.00057870</v>
   <v>       0.00347222</v>
   <v>       0.00347222</v>
   <v>       0.00347222</v>
   <v>       0.00347222</v>
   <v>       0.00347222</v>
   <v>       0.00173611</v>
   <v>       0.00694444</v>
   <v>       0.01388889</v>
   <v>       0.01388889</v>
   <v>       0.01388889</v>
   <v>       0.01388889</v>
   <v>       0.00694444</v>
   <v>       0.00694444</v>
   <v>       0.01388889</v>
   <v>       0.01388889</v>
   <v>       0.01388889</v>
   <v>       0.00694444</v>
   <v>       0.00694444</v>
   <v>       0.01388889</v>
   <v>       0.01388889</v>
   <v>       0.00694444</v>
   <v>       0.00694444</v>
   <v>       0.01388889</v>
   <v>       0.00694444</v>
   <v>       0.00694444</v>
   <v>       0.00694444</v>
   <v>       0.00173611</v>
   <v>       0.00462963</v>
   <v>       0.01388889</v>
   <v>       0.01388889</v>
   <v>       0.01388889</v>
   <v>       0.01388889</v>
   <v>       0.00694444</v>
   <v>       0.01388889</v>
   <v>       0.02777778</v>
   <v>       0.02777778</v>
   <v>       0.02777778</v>
   <v>       0.01388889</v>
   <v>       0.01388889</v>
   <v>       0.02777778</v>
   <v>       0.02777778</v>
   <v>       0.01388889</v>
   <v>       0.01388889</v>
   <v>       0.02777778</v>
   <v>       0.01388889</v>
   <v>       0.01388889</v>
   <v>       0.01388889</v>
   <v>       0.00347222</v>
   <v>       0.00462963</v>
   <v>       0.01388889</v>
   <v>       0.01388889</v>
   <v>       0.01388889</v>
   <v>       0.00694444</v>
   <v>       0.01388889</v>
   <v>       0.02777778</v>
   <v>       0.02777778</v>
   <v>       0.01388889</v>
   <v>       0.01388889</v>
   <v>       0.02777778</v>
   <v>       0.01388889</v>
   <v>       0.01388889</v>
   <v>       0.01388889</v>
   <v>       0.00347222</v>
   <v>       0.00462963</v>
   <v>       0.01388889</v>
   <v>       0.01388889</v>
   <v>       0.00694444</v>
   <v>       0.01388889</v>
   <v>       0.02777778</v>
   <v>       0.01388889</v>
   <v>       0.01388889</v>
   <v>       0.01388889</v>
   <v>       0.00347222</v>
   <v>       0.00462963</v>
   <v>       0.01388889</v>
   <v>       0.00694444</v>
   <v>       0.01388889</v>
   <v>       0.01388889</v>
   <v>       0.00347222</v>
   <v>       0.00462963</v>
   <v>       0.00694444</v>
   <v>       0.00347222</v>
   <v>       0.00057870</v>
  </varray>
 </kpoints>
 <parameters>
  <separator name="general" >
   <i type="string" name="SYSTEM">unknown system</i>
   <i type="logical" name="LCOMPAT"> F  </i>
  </separator>
  <separator name="electronic" >
   <i type="string" name="PREC">accura</i>
   <i name="ENMAX">    750.00000000</i>
   <i name="ENAUG">    412.49600000</i>
   <i name="EDIFF">      0.00000001</i>
   <i type="int" name="IALGO">    38</i>
   <i type="int" name="IWAVPR">    10</i>
   <i type="int" name="NBANDS">    26</i>
   <i name="NELECT">     44.00000000</i>
   <separator name="electronic smearing" >
    <i type="int" name="ISMEAR">     0</i>
    <i name="SIGMA">      0.01000000</i>
   </separator>
   <separator name="electronic projectors" >
    <i type="logical" name="LREAL"> F  </i>
    <v name="ROPT">      0.00000000</v>
    <i type="int" name="LMAXPAW">  -100</i>
    <i type="int" name="LMAXMIX">     2</i>
   </separator>
   <separator name="electronic startup" >
    <i type="int" name="ISTART">     0</i>
    <i type="int" name="ICHARG">     2</i>
    <i type="int" name="INIWAV">     1</i>
   </separator>
   <separator name="electronic spin" >
    <i type="int" name="ISPIN">     1</i>
    <i type="logical" name="LNONCOLLINEAR"> F  </i>
    <v name="MAGMOM">      1.00000000      1.00000000      1.00000000      1.00000000</v>
    <i name="NUPDOWN">     -1.00000000</i>
    <i type="logical" name="LSORBIT"> F  </i>
    <v name="SAXIS">      0.00000000      0.00000000      1.00000000</v>
    <i type="logical" name="LSPIRAL"> F  </i>
    <v name="QSPIRAL">      0.00000000      0.00000000      0.00000000</v>
    <i type="logical" name="LZEROZ"> F  </i>
   </separator>
   <separator name="electronic exchange-correlation" >
    <i type="string" name="GGA">--</i>
    <i type="int" name="VOSKOWN">     0</i>
    <i type="logical" name="LASPH"> F  </i>
    <i type="logical" name="LMETAGGA"> F  </i>
    <i type="string" name="GGA2">--</i>
   </separator>
   <separator name="electronic convergence" >
    <i type="int" name="NELM">    60</i>
    <i type="int" name="NELMDL">     0</i>
    <i type="int" name="NELMIN">     2</i>
    <i name="ENINI">    750.00000000</i>
    <separator name="electronic convergence detail" >
     <i type="logical" name="LDIAG"> T  </i>
     <i name="WEIMIN">      0.00000000</i>
     <i name="EBREAK">      0.00000000</i>
     <i name="DEPER">      0.30000000</i>
     <i type="int" name="NRMM">     4</i>
     <i name="TIME">      0.10000000</i>
    </separator>
   </separator>
   <separator name="electronic mixer" >
    <i name="AMIX">      0.40000000</i>
    <i name="BMIX">      1.00000000</i>
    <i name="AMIN">      0.10000000</i>
    <i name="AMIX_MAG">      1.60000000</i>
    <i name="BMIX_MAG">      1.00000000</i>
    <separator name="electronic mixer details" >
     <i type="int" name="IMIX">     4</i>
     <i type="int" name="MAXMIX">   -45</i>
     <i name="WC">    100.00000000</i>
     <i type="int" name="INIMIX">     1</i>
     <i type="int" name="MIXPRE">     1</i>
     <i type="int" name="MREMOVE">     5</i>
    </separator>
   </separator>
   <separator name="electronic dipolcorrection" >
    <i type="int" name="IDIPOL">     0</i>
    <i type="logical" name="LDIPOL"> F  </i>
    <v name="DIPOL">   -100.00000000</v>
    <i name="EFIELD">      0.00000000</i>
   </separator>
  </separator>
  <separator name="grids" >
   <i type="int" name="NGX">    40</i>
   <i type="int" name="NGY">    40</i>
   <i type="int" name="NGZ">    40</i>
   <i type="int" name="NGXF">    80</i>
   <i type="int" name="NGYF">    80</i>
   <i type="int" name="NGZF">    80</i>
   <i type="logical" name="ADDGRID"> T  </i>
  </separator>
  <separator name="ionic" >
   <i type="int" name="NSW">     0</i>
   <i type="int" name="IBRION">    -1</i>
   <i type="int" name="ISIF">     2</i>
   <i name="PSTRESS">      0.00000000</i>
   <i name="EDIFFG">      0.00000010</i>
   <i type="int" name="NFREE">     0</i>
   <i name="POTIM">      0.50000000</i>
   <i name="SMASS">     -3.00000000</i>
  </separator>
  <separator name="ionic md" >
   <i name="TEBEG">      0.00010000</i>
   <i name="TEEND">      0.00010000</i>
   <i type="int" name="NBLOCK">     1</i>
   <i type="int" name="KBLOCK">     1</i>
   <i type="int" name="NPACO">   256</i>
   <i name="APACO">     16.00000000</i>
  </separator>
  <separator name="symmetry" >
   <i type="int" name="ISYM">     2</i>
   <i name="SYMPREC">      0.00001000</i>
  </separator>
  <separator name="dos" >
   <i type="logical" name="LORBIT"> F  </i>
   <v name="RWIGS">     -1.00000000</v>
   <i type="int" name="NEDOS">   301</i>
   <i name="EMIN">     10.00000000</i>
   <i name="EMAX">    -10.00000000</i>
  </separator>
  <separator name="writing" >
   <i type="int" name="NWRITE">     2</i>
   <i type="logical" name="LWAVE"> F  </i>
   <i type="logical" name="LCHARG"> F  </i>
   <i type="logical" name="LPARD"> F  </i>
   <i type="logical" name="LVTOT"> F  </i>
   <i type="logical" name="LELF"> F  </i>
   <i type="logical" name="LOPTICS"> F  </i>
   <i name="STM">      0.00000000</i>
  </separator>
  <separator name="performance" >
   <i type="int" name="NPAR">     4</i>
   <i type="int" name="NSIM">     4</i>
   <i type="int" name="NBLK">   256</i>
   <i type="logical" name="LPLANE"> T  </i>
   <i type="logical" name="LCRITICAL_MEM"> F  </i>
   <i type="logical" name="LSCALAPACK"> F  </i>
   <i type="logical" name="LSCALU"> F  </i>
   <i type="logical" name="LASYNC"> F  </i>
  </separator>
  <separator name="miscellaneous" >
   <i type="int" name="IDIOT">     3</i>
   <i type="logical" name="LMUSIC"> F  </i>
   <v name="POMASS">    107.86800000</v>
   <i type="logical" name="LCORR"> T  </i>
  </separator>
  <i type="logical" name="LREAL_COMPAT"> F  </i>
  <i type="logical" name="GGA_COMPAT"> T  </i>
  <i type="logical" name="LBERRY"> F  </i>
  <i type="int" name="ICORELEVEL">     0</i>
  <i type="logical" name="LDAU"> F  </i>
  <i type="int" name="I_CONSTRAINED_M">     0</i>
 </parameters>
 <atominfo>
  <atoms>       4</atoms>
  <types>       1</types>
  <array name="atoms" >
   <dimension dim="1">ion</dimension>
   <field type="string">element</field>
   <field type="int">atomtype</field>
   <set>
    <rc><c>Ag</c><c>   1</c></rc>
    <rc><c>Ag</c><c>   1</c></rc>
    <rc><c>Ag</c><c>   1</c></rc>
    <rc><c>Ag</c><c>   1</c></rc>
   </set>
  </array>
  <array name="atomtypes" >
   <dimension dim="1">type</dimension>
   <field type="int">atomspertype</field>
   <field type="string">element</field>
   <field>mass</field>
   <field>valence</field>
   <field type="string">pseudopotential</field>
   <set>
    <rc><c>   4</c><c>Ag</c><c>    107.86800000</c><c>     11.00000000</c><c> PAW_PBE Ag 06Sep2000                   </c></rc>
   </set>
  </array>
 </atominfo>
 <structure name="initialpos" >
  <crystal>
   <varray name="basis" >
    <v>       4.32975377      0.00000000      0.00000000</v>
    <v>       0.00000000      4.32975377      0.00000000</v>
    <v>       0.00000000      0.00000000      4.32975377</v>
   </varray>
   <i name="volume">     81.16888832</i>
   <varray name="rec_basis" >
    <v>       0.23096002      0.00000000      0.00000000</v>
    <v>       0.00000000      0.23096002      0.00000000</v>
    <v>       0.00000000      0.00000000      0.23096002</v>
   </varray>
  </crystal>
  <varray name="positions" >
   <v>       0.00000000      0.00000000      0.00000000</v>
   <v>       0.50000000      0.50000000      0.00000000</v>
   <v>       0.50000000      0.00000000      0.50000000</v>
   <v>       0.00000000      0.50000000      0.50000000</v>
  </varray>
 </structure>
 <calculation>
  <scstep>
   <time name="dav">   12.69   12.73</time>
   <time name="total">   13.18   13.23</time>
   <energy>
    <i name="alphaZ">    350.04093152</i>
    <i name="ewald">  -3690.06927814</i>
    <i name="hartreedc">   -919.34727204</i>
    <i name="XCdc">    -44.52818545</i>
    <i name="pawpsdc">   3482.67677651</i>
    <i name="pawaedc">  -3297.07979946</i>
    <i name="eentropy">     -0.00008033</i>
    <i name="bandstr">    431.55961871</i>
    <i name="atom">   4149.64961272</i>
    <i name="e_fr_energy">    462.90232404</i>
    <i name="e_wo_entrp">    462.90240437</i>
    <i name="e_0_energy">    462.90236421</i>
   </energy>
  </scstep>
  <scstep>
   <time name="dav">   12.64   12.65</time>
   <time name="total">   12.64   12.66</time>
   <energy>
    <i name="e_fr_energy">      4.07310812</i>
    <i name="e_wo_entrp">      4.07320609</i>
    <i name="e_0_energy">      4.07315710</i>
   </energy>
  </scstep>
  <scstep>
   <time name="dav">   13.32   13.33</time>
   <time name="total">   13.32   13.34</time>
   <energy>
    <i name="e_fr_energy">    -11.68876596</i>
    <i name="e_wo_entrp">    -11.68865945</i>
    <i name="e_0_energy">    -11.68871270</i>
   </energy>
  </scstep>
  <scstep>
   <time name="dav">   13.12   13.13</time>
   <time name="total">   13.13   13.14</time>
   <energy>
    <i name="e_fr_energy">    -11.81093499</i>
    <i name="e_wo_entrp">    -11.81083509</i>
    <i name="e_0_energy">    -11.81088504</i>
   </energy>
  </scstep>
  <scstep>
   <time name="dav">   12.87   12.89</time>
   <time name="total">   13.94   13.96</time>
   <energy>
    <i name="e_fr_energy">    -11.81141146</i>
    <i name="e_wo_entrp">    -11.81131158</i>
    <i name="e_0_energy">    -11.81136152</i>
   </energy>
  </scstep>
  <scstep>
   <time name="dav">   10.34   10.35</time>
   <time name="total">   11.89   11.90</time>
   <energy>
    <i name="e_fr_energy">    -11.09577760</i>
    <i name="e_wo_entrp">    -11.09573716</i>
    <i name="e_0_energy">    -11.09575738</i>
   </energy>
  </scstep>
  <scstep>
   <time name="dav">   13.09   13.10</time>
   <time name="total">   14.81   14.83</time>
   <energy>
    <i name="e_fr_energy">    -11.08392553</i>
    <i name="e_wo_entrp">    -11.08388508</i>
    <i name="e_0_energy">    -11.08390530</i>
   </energy>
  </scstep>
  <scstep>
   <time name="dav">   12.38   12.39</time>
   <time name="total">   14.14   14.16</time>
   <energy>
    <i name="e_fr_energy">    -11.07804658</i>
    <i name="e_wo_entrp">    -11.07800610</i>
    <i name="e_0_energy">    -11.07802634</i>
   </energy>
  </scstep>
  <scstep>
   <time name="dav">    9.94    9.94</time>
   <time name="total">   11.49   11.49</time>
   <energy>
    <i name="e_fr_energy">    -11.07816180</i>
    <i name="e_wo_entrp">    -11.07812128</i>
    <i name="e_0_energy">    -11.07814154</i>
   </energy>
  </scstep>
  <scstep>
   <time name="dav">   12.90   12.90</time>
   <time name="total">   14.52   14.53</time>
   <energy>
    <i name="e_fr_energy">    -11.07815299</i>
    <i name="e_wo_entrp">    -11.07811250</i>
    <i name="e_0_energy">    -11.07813275</i>
   </energy>
  </scstep>
  <scstep>
   <time name="dav">   13.23   13.24</time>
   <time name="total">   14.94   14.96</time>
   <energy>
    <i name="e_fr_energy">    -11.07815201</i>
    <i name="e_wo_entrp">    -11.07811152</i>
    <i name="e_0_energy">    -11.07813177</i>
   </energy>
  </scstep>
  <scstep>
   <time name="dav">   12.05   12.06</time>
   <time name="total">   13.79   13.80</time>
   <energy>
    <i name="e_fr_energy">    -11.07815148</i>
    <i name="e_wo_entrp">    -11.07811099</i>
    <i name="e_0_energy">    -11.07813124</i>
   </energy>
  </scstep>
  <scstep>
   <time name="dav">    8.74    8.75</time>
   <time name="total">   10.38   10.39</time>
   <energy>
    <i name="e_fr_energy">    -11.07815145</i>
    <i name="e_wo_entrp">    -11.07811096</i>
    <i name="e_0_energy">    -11.07813120</i>
   </energy>
  </scstep>
  <scstep>
   <time name="dav">    8.63    8.64</time>
   <time name="total">    9.16    9.17</time>
   <energy>
    <i name="alphaZ">    350.04093152</i>
    <i name="ewald">  -3690.06927814</i>
    <i name="hartreedc">   -876.00376929</i>
    <i name="XCdc">    -46.15330156</i>
    <i name="pawpsdc">   3444.22462519</i>
    <i name="pawaedc">  -3264.87528003</i>
    <i name="eentropy">     -0.00004049</i>
    <i name="bandstr">    -77.89165137</i>
    <i name="atom">   4149.64961272</i>
    <i name="e_fr_energy">    -11.07815145</i>
    <i name="e_wo_entrp">    -11.07811096</i>
    <i name="e_0_energy">    -11.07813121</i>
   </energy>
  </scstep>
  <structure>
   <crystal>
    <varray name="basis" >
     <v>       4.32975377      0.00000000      0.00000000</v>
     <v>       0.00000000      4.32975377      0.00000000</v>
     <v>       0.00000000      0.00000000      4.32975377</v>
    </varray>
    <i name="volume">     81.16888832</i>
    <varray name="rec_basis" >
     <v>       0.23096002      0.00000000      0.00000000</v>
     <v>       0.00000000      0.23096002      0.00000000</v>
     <v>       0.00000000      0.00000000      0.23096002</v>
    </varray>
   </crystal>
   <varray name="positions" >
    <v>       0.00000000      0.00000000      0.00000000</v>
    <v>       0.50000000      0.50000000      0.00000000</v>
    <v>       0.50000000      0.00000000      0.50000000</v>
    <v>       0.00000000      0.50000000      0.50000000</v>
   </varray>
  </structure>
  <varray name="forces" >
   <v>      -0.00000000      0.00000000      0.00000000</v>
   <v>      -0.00000000      0.00000000      0.00000000</v>
   <v>      -0.00000000      0.00000000     -0.00000000</v>
   <v>      -0.00000000      0.00000000      0.00000000</v>
  </varray>
  <varray name="stress" >
   <v>     -74.93098028      0.00000000      0.00000000</v>
   <v>      -0.00000000    -74.93098028      0.00000000</v>
   <v>       0.00000000     -0.00000000    -74.93098028</v>
  </varray>
  <energy>
   <i name="e_fr_energy">    -11.07815145</i>
   <i name="e_wo_entrp">    -11.07813121</i>
   <i name="e_0_energy">     -0.00004049</i>
  </energy>
  <eigenvalues>
   <array>
    <dimension dim="1">band</dimension>
    <dimension dim="2">kpoint</dimension>
    <dimension dim="3">spin</dimension>
    <field>eigene</field>
    <field>occ</field>
    <set>
     <set comment="spin 1">
      <set comment="kpoint 1">
       <r>  -4.4668  1.0000</r>
       <r>  -3.3517  1.0000</r>
       <r>  -3.3517  1.0000</r>
       <r>  -3.3517  1.0000</r>
       <r>  -3.2706  1.0000</r>
       <r>  -3.2706  1.0000</r>
       <r>  -3.2706  1.0000</r>
       <r>  -2.1695  1.0000</r>
       <r>  -2.1695  1.0000</r>
       <r>  -2.1695  1.0000</r>
       <r>  -1.4126  1.0000</r>
       <r>  -1.4126  1.0000</r>
       <r>  -0.8528  1.0000</r>
       <r>  -0.8528  1.0000</r>
       <r>  -0.8528  1.0000</r>
       <r>  -0.6758  1.0000</r>
       <r>  -0.6758  1.0000</r>
       <r>  -0.6758  1.0000</r>
       <r>  -0.6758  1.0000</r>
       <r>  -0.6758  1.0000</r>
       <r>  -0.6758  1.0000</r>
       <r>   3.8803  0.0000</r>
       <r>   3.8803  0.0000</r>
       <r>   3.8803  0.0000</r>
       <r>   7.6203  0.0000</r>
       <r>   7.6203  0.0000</r>
       <r>   7.6203  0.0000</r>
       <r>  12.0251  0.0000</r>
      </set>
      <set comment="kpoint 2">
       <r>  -4.4034  1.0000</r>
       <r>  -3.3286  1.0000</r>
       <r>  -3.3218  1.0000</r>
       <r>  -3.3218  1.0000</r>
       <r>  -3.2534  1.0000</r>
       <r>  -3.2439  1.0000</r>
       <r>  -3.2439  1.0000</r>
       <r>  -2.1900  1.0000</r>
       <r>  -2.1495  1.0000</r>
       <r>  -2.1495  1.0000</r>
       <r>  -1.4329  1.0000</r>
       <r>  -1.4034  1.0000</r>
       <r>  -0.8796  1.0000</r>
       <r>  -0.8796  1.0000</r>
       <r>  -0.8627  1.0000</r>
       <r>  -0.7655  1.0000</r>
       <r>  -0.7655  1.0000</r>
       <r>  -0.7090  1.0000</r>
       <r>  -0.7090  1.0000</r>
       <r>  -0.6758  1.0000</r>
       <r>  -0.6758  1.0000</r>
       <r>   3.3849  0.0000</r>
       <r>   4.0256  0.0000</r>
       <r>   4.0256  0.0000</r>
       <r>   7.6347  0.0000</r>
       <r>   7.6347  0.0000</r>
       <r>   8.2227  0.0000</r>
       <r>  11.7664  0.0000</r>
      </set>
      <set comment="kpoint 3">
       <r>  -4.2163  1.0000</r>
       <r>  -3.2621  1.0000</r>
       <r>  -3.2359  1.0000</r>
       <r>  -3.2359  1.0000</r>
       <r>  -3.2025  1.0000</r>
       <r>  -3.1642  1.0000</r>
       <r>  -3.1642  1.0000</r>
       <r>  -2.2497  1.0000</r>
       <r>  -2.0900  1.0000</r>
       <r>  -2.0900  1.0000</r>
       <r>  -1.4894  1.0000</r>
       <r>  -1.3765  1.0000</r>
       <r>  -1.0028  1.0000</r>
       <r>  -1.0028  1.0000</r>
       <r>  -0.9573  1.0000</r>
       <r>  -0.9573  1.0000</r>
       <r>  -0.8918  1.0000</r>
       <r>  -0.8041  1.0000</r>
       <r>  -0.8041  1.0000</r>
       <r>  -0.6757  1.0000</r>
       <r>  -0.6757  1.0000</r>
       <r>   2.3774  0.0000</r>
       <r>   4.4292  0.0000</r>
       <r>   4.4292  0.0000</r>
       <r>   7.6790  0.0000</r>
       <r>   7.6790  0.0000</r>
       <r>   9.5515  0.0000</r>
       <r>  11.1120  0.0000</r>
      </set>
      <set comment="kpoint 4">
       <r>  -3.9175  1.0000</r>
       <r>  -3.1614  1.0000</r>
       <r>  -3.1209  1.0000</r>
       <r>  -3.1065  1.0000</r>
       <r>  -3.1065  1.0000</r>
       <r>  -3.0318  1.0000</r>
       <r>  -3.0318  1.0000</r>
       <r>  -2.3434  1.0000</r>
       <r>  -1.9929  1.0000</r>
       <r>  -1.9929  1.0000</r>
       <r>  -1.5665  1.0000</r>
       <r>  -1.3334  1.0000</r>
       <r>  -1.3241  1.0000</r>
       <r>  -1.3241  1.0000</r>
       <r>  -1.0758  1.0000</r>
       <r>  -1.0758  1.0000</r>
       <r>  -0.9490  1.0000</r>
       <r>  -0.9490  1.0000</r>
       <r>  -0.9377  1.0000</r>
       <r>  -0.6755  1.0000</r>
       <r>  -0.6755  1.0000</r>
       <r>   1.2947  1.0000</r>
       <r>   5.0251  0.0000</r>
       <r>   5.0251  0.0000</r>
       <r>   7.7545  0.0000</r>
       <r>   7.7545  0.0000</r>
       <r>  10.2623  0.0000</r>
       <r>  10.2623  0.0000</r>
      </set>
      <set comment="kpoint 5">
       <r>  -3.5389  1.0000</r>
       <r>  -3.0450  1.0000</r>
       <r>  -3.0128  1.0000</r>
       <r>  -2.9577  1.0000</r>
       <r>  -2.9577  1.0000</r>
       <r>  -2.8479  1.0000</r>
       <r>  -2.8479  1.0000</r>
       <r>  -2.4635  1.0000</r>
       <r>  -1.8614  1.0000</r>
       <r>  -1.8614  1.0000</r>
       <r>  -1.6744  1.0000</r>
       <r>  -1.6744  1.0000</r>
       <r>  -1.6263  1.0000</r>
       <r>  -1.2768  1.0000</r>
       <r>  -1.2142  1.0000</r>
       <r>  -1.2142  1.0000</r>
       <r>  -1.1274  1.0000</r>
       <r>  -1.1274  1.0000</r>
       <r>  -0.9971  1.0000</r>
       <r>  -0.6753  1.0000</r>
       <r>  -0.6753  1.0000</r>
       <r>   0.2796  1.0000</r>
       <r>   5.7546  0.0000</r>
       <r>   5.7546  0.0000</r>
       <r>   7.8580  0.0000</r>
       <r>   7.8580  0.0000</r>
       <r>   9.3354  0.0000</r>
       <r>   9.3354  0.0000</r>
      </set>
      <set comment="kpoint 6">
       <r>  -3.1660  1.0000</r>
       <r>  -2.9499  1.0000</r>
       <r>  -2.8847  1.0000</r>
       <r>  -2.8301  1.0000</r>
       <r>  -2.8301  1.0000</r>
       <r>  -2.6147  1.0000</r>
       <r>  -2.6147  1.0000</r>
       <r>  -2.6005  1.0000</r>
       <r>  -2.0186  1.0000</r>
       <r>  -2.0186  1.0000</r>
       <r>  -1.7004  1.0000</r>
       <r>  -1.7004  1.0000</r>
       <r>  -1.5755  1.0000</r>
       <r>  -1.3345  1.0000</r>
       <r>  -1.3345  1.0000</r>
       <r>  -1.3221  1.0000</r>
       <r>  -1.3221  1.0000</r>
       <r>  -1.2104  1.0000</r>
       <r>  -1.0656  1.0000</r>
       <r>  -0.6752  1.0000</r>
       <r>  -0.6752  1.0000</r>
       <r>  -0.5970  1.0000</r>
       <r>   6.5771  0.0000</r>
       <r>   6.5771  0.0000</r>
       <r>   7.9673  0.0000</r>
       <r>   7.9673  0.0000</r>
       <r>   8.3912  0.0000</r>
       <r>   8.3912  0.0000</r>
      </set>
      <set comment="kpoint 7">
       <r>  -2.9547  1.0000</r>
       <r>  -2.9547  1.0000</r>
       <r>  -2.7776  1.0000</r>
       <r>  -2.7776  1.0000</r>
       <r>  -2.7442  1.0000</r>
       <r>  -2.7442  1.0000</r>
       <r>  -2.3360  1.0000</r>
       <r>  -2.3360  1.0000</r>
       <r>  -2.3360  1.0000</r>
       <r>  -2.3360  1.0000</r>
       <r>  -1.5174  1.0000</r>
       <r>  -1.5174  1.0000</r>
       <r>  -1.5174  1.0000</r>
       <r>  -1.5174  1.0000</r>
       <r>  -1.3845  1.0000</r>
       <r>  -1.3845  1.0000</r>
       <r>  -1.2497  1.0000</r>
       <r>  -1.2497  1.0000</r>
       <r>  -1.1384  1.0000</r>
       <r>  -1.1384  1.0000</r>
       <r>  -0.6752  1.0000</r>
       <r>  -0.6752  1.0000</r>
       <r>   7.4636  0.0000</r>
       <r>   7.4636  0.0000</r>
       <r>   7.4636  0.0000</r>
       <r>   7.4636  0.0000</r>
       <r>   8.0204  0.0000</r>
       <r>   8.0204  0.0000</r>
      </set>
      <set comment="kpoint 8">
       <r>  -4.3408  1.0000</r>
       <r>  -3.2988  1.0000</r>
       <r>  -3.2985  1.0000</r>
       <r>  -3.2985  1.0000</r>
       <r>  -3.2271  1.0000</r>
       <r>  -3.2271  1.0000</r>
       <r>  -3.2115  1.0000</r>
       <r>  -2.1970  1.0000</r>
       <r>  -2.1424  1.0000</r>
       <r>  -2.1308  1.0000</r>
       <r>  -1.4381  1.0000</r>
       <r>  -1.4074  1.0000</r>
       <r>  -0.9054  1.0000</r>
       <r>  -0.9026  1.0000</r>
       <r>  -0.9026  1.0000</r>
       <r>  -0.8270  1.0000</r>
       <r>  -0.7858  1.0000</r>
       <r>  -0.7858  1.0000</r>
       <r>  -0.7091  1.0000</r>
       <r>  -0.7091  1.0000</r>
       <r>  -0.6990  1.0000</r>
       <r>   3.5212  0.0000</r>
       <r>   3.5212  0.0000</r>
       <r>   4.1662  0.0000</r>
       <r>   7.6487  0.0000</r>
       <r>   8.2453  0.0000</r>
       <r>   8.2453  0.0000</r>
       <r>  10.9735  0.0000</r>
      </set>
      <set comment="kpoint 9">
       <r>  -4.1564  1.0000</r>
       <r>  -3.2314  1.0000</r>
       <r>  -3.2294  1.0000</r>
       <r>  -3.2120  1.0000</r>
       <r>  -3.1773  1.0000</r>
       <r>  -3.1484  1.0000</r>
       <r>  -3.1185  1.0000</r>
       <r>  -2.2488  1.0000</r>
       <r>  -2.0893  1.0000</r>
       <r>  -2.0756  1.0000</r>
       <r>  -1.4868  1.0000</r>
       <r>  -1.3822  1.0000</r>
       <r>  -1.0784  1.0000</r>
       <r>  -1.0416  1.0000</r>
       <r>  -0.9802  1.0000</r>
       <r>  -0.9781  1.0000</r>
       <r>  -0.9238  1.0000</r>
       <r>  -0.8355  1.0000</r>
       <r>  -0.8045  1.0000</r>
       <r>  -0.7106  1.0000</r>
       <r>  -0.7093  1.0000</r>
       <r>   2.5082  0.0000</r>
       <r>   3.8953  0.0000</r>
       <r>   4.5591  0.0000</r>
       <r>   7.6895  0.0000</r>
       <r>   8.3134  0.0000</r>
       <r>   9.5768  0.0000</r>
       <r>  10.0757  0.0000</r>
      </set>
      <set comment="kpoint 10">
       <r>  -3.8624  1.0000</r>
       <r>  -3.1295  1.0000</r>
       <r>  -3.1158  1.0000</r>
       <r>  -3.0973  1.0000</r>
       <r>  -3.0817  1.0000</r>
       <r>  -3.0178  1.0000</r>
       <r>  -2.9759  1.0000</r>
       <r>  -2.3388  1.0000</r>
       <r>  -1.9937  1.0000</r>
       <r>  -1.9896  1.0000</r>
       <r>  -1.5552  1.0000</r>
       <r>  -1.3825  1.0000</r>
       <r>  -1.3481  1.0000</r>
       <r>  -1.3336  1.0000</r>
       <r>  -1.1099  1.0000</r>
       <r>  -1.0945  1.0000</r>
       <r>  -1.0552  1.0000</r>
       <r>  -0.9498  1.0000</r>
       <r>  -0.8986  1.0000</r>
       <r>  -0.7127  1.0000</r>
       <r>  -0.7096  1.0000</r>
       <r>   1.4295  1.0000</r>
       <r>   4.4363  0.0000</r>
       <r>   5.1433  0.0000</r>
       <r>   7.7457  0.0000</r>
       <r>   8.4242  0.0000</r>
       <r>   9.2039  0.0000</r>
       <r>  10.3531  0.0000</r>
      </set>
      <set comment="kpoint 11">
       <r>  -3.4908  1.0000</r>
       <r>  -3.0113  1.0000</r>
       <r>  -2.9916  1.0000</r>
       <r>  -2.9692  1.0000</r>
       <r>  -2.9319  1.0000</r>
       <r>  -2.8367  1.0000</r>
       <r>  -2.7977  1.0000</r>
       <r>  -2.4554  1.0000</r>
       <r>  -1.8960  1.0000</r>
       <r>  -1.8627  1.0000</r>
       <r>  -1.7203  1.0000</r>
       <r>  -1.6872  1.0000</r>
       <r>  -1.5818  1.0000</r>
       <r>  -1.2848  1.0000</r>
       <r>  -1.2676  1.0000</r>
       <r>  -1.2279  1.0000</r>
       <r>  -1.1992  1.0000</r>
       <r>  -1.1285  1.0000</r>
       <r>  -0.9719  1.0000</r>
       <r>  -0.7128  1.0000</r>
       <r>  -0.7101  1.0000</r>
       <r>   0.4274  1.0000</r>
       <r>   5.0818  0.0000</r>
       <r>   5.8628  0.0000</r>
       <r>   7.7175  0.0000</r>
       <r>   8.5038  0.0000</r>
       <r>   8.5531  0.0000</r>
       <r>   9.4251  0.0000</r>
      </set>
      <set comment="kpoint 12">
       <r>  -3.1246  1.0000</r>
       <r>  -2.9135  1.0000</r>
       <r>  -2.8663  1.0000</r>
       <r>  -2.8255  1.0000</r>
       <r>  -2.8040  1.0000</r>
       <r>  -2.6072  1.0000</r>
       <r>  -2.5912  1.0000</r>
       <r>  -2.5888  1.0000</r>
       <r>  -2.0487  1.0000</r>
       <r>  -2.0228  1.0000</r>
       <r>  -1.8255  1.0000</r>
       <r>  -1.7019  1.0000</r>
       <r>  -1.4873  1.0000</r>
       <r>  -1.4545  1.0000</r>
       <r>  -1.3426  1.0000</r>
       <r>  -1.3264  1.0000</r>
       <r>  -1.3234  1.0000</r>
       <r>  -1.1838  1.0000</r>
       <r>  -1.0571  1.0000</r>
       <r>  -0.7123  1.0000</r>
       <r>  -0.7108  1.0000</r>
       <r>  -0.4222  1.0000</r>
       <r>   5.7877  0.0000</r>
       <r>   6.6774  0.0000</r>
       <r>   7.2420  0.0000</r>
       <r>   8.3443  0.0000</r>
       <r>   8.4824  0.0000</r>
       <r>   8.6057  0.0000</r>
      </set>
      <set comment="kpoint 13">
       <r>  -2.9159  1.0000</r>
       <r>  -2.9159  1.0000</r>
       <r>  -2.7565  1.0000</r>
       <r>  -2.7565  1.0000</r>
       <r>  -2.7291  1.0000</r>
       <r>  -2.7291  1.0000</r>
       <r>  -2.3436  1.0000</r>
       <r>  -2.3436  1.0000</r>
       <r>  -2.3335  1.0000</r>
       <r>  -2.3335  1.0000</r>
       <r>  -1.6916  1.0000</r>
       <r>  -1.6916  1.0000</r>
       <r>  -1.5189  1.0000</r>
       <r>  -1.5189  1.0000</r>
       <r>  -1.3850  1.0000</r>
       <r>  -1.3850  1.0000</r>
       <r>  -1.1856  1.0000</r>
       <r>  -1.1856  1.0000</r>
       <r>  -1.0076  1.0000</r>
       <r>  -1.0076  1.0000</r>
       <r>  -0.7115  1.0000</r>
       <r>  -0.7115  1.0000</r>
       <r>   6.5226  0.0000</r>
       <r>   6.5226  0.0000</r>
       <r>   7.5584  0.0000</r>
       <r>   7.5584  0.0000</r>
       <r>   8.4897  0.0000</r>
       <r>   8.4897  0.0000</r>
      </set>
      <set comment="kpoint 14">
       <r>  -3.9804  1.0000</r>
       <r>  -3.1875  1.0000</r>
       <r>  -3.1432  1.0000</r>
       <r>  -3.1432  1.0000</r>
       <r>  -3.1018  1.0000</r>
       <r>  -3.1018  1.0000</r>
       <r>  -3.0081  1.0000</r>
       <r>  -2.2692  1.0000</r>
       <r>  -2.0633  1.0000</r>
       <r>  -2.0339  1.0000</r>
       <r>  -1.5058  1.0000</r>
       <r>  -1.3674  1.0000</r>
       <r>  -1.2102  1.0000</r>
       <r>  -1.2102  1.0000</r>
       <r>  -1.1839  1.0000</r>
       <r>  -1.0468  1.0000</r>
       <r>  -0.9148  1.0000</r>
       <r>  -0.9148  1.0000</r>
       <r>  -0.8055  1.0000</r>
       <r>  -0.8055  1.0000</r>
       <r>  -0.7676  1.0000</r>
       <r>   2.8608  0.0000</r>
       <r>   2.8608  0.0000</r>
       <r>   4.9264  0.0000</r>
       <r>   7.7039  0.0000</r>
       <r>   9.0589  0.0000</r>
       <r>   9.6428  0.0000</r>
       <r>   9.6428  0.0000</r>
      </set>
      <set comment="kpoint 15">
       <r>  -3.7017  1.0000</r>
       <r>  -3.0989  1.0000</r>
       <r>  -3.0380  1.0000</r>
       <r>  -3.0271  1.0000</r>
       <r>  -3.0100  1.0000</r>
       <r>  -2.9768  1.0000</r>
       <r>  -2.8566  1.0000</r>
       <r>  -2.3354  1.0000</r>
       <r>  -1.9846  1.0000</r>
       <r>  -1.9756  1.0000</r>
       <r>  -1.5532  1.0000</r>
       <r>  -1.5148  1.0000</r>
       <r>  -1.4311  1.0000</r>
       <r>  -1.3750  1.0000</r>
       <r>  -1.3015  1.0000</r>
       <r>  -1.1495  1.0000</r>
       <r>  -1.0340  1.0000</r>
       <r>  -0.9518  1.0000</r>
       <r>  -0.9440  1.0000</r>
       <r>  -0.8071  1.0000</r>
       <r>  -0.7981  1.0000</r>
       <r>   1.7817  1.0000</r>
       <r>   3.3611  0.0000</r>
       <r>   5.4816  0.0000</r>
       <r>   7.5491  0.0000</r>
       <r>   8.3247  0.0000</r>
       <r>   9.6905  0.0000</r>
       <r>  10.6192  0.0000</r>
      </set>
      <set comment="kpoint 16">
       <r>  -3.3527  1.0000</r>
       <r>  -2.9676  1.0000</r>
       <r>  -2.9286  1.0000</r>
       <r>  -2.9140  1.0000</r>
       <r>  -2.8564  1.0000</r>
       <r>  -2.8038  1.0000</r>
       <r>  -2.6853  1.0000</r>
       <r>  -2.4362  1.0000</r>
       <r>  -1.9420  1.0000</r>
       <r>  -1.8608  1.0000</r>
       <r>  -1.8329  1.0000</r>
       <r>  -1.7301  1.0000</r>
       <r>  -1.5630  1.0000</r>
       <r>  -1.5493  1.0000</r>
       <r>  -1.2698  1.0000</r>
       <r>  -1.1909  1.0000</r>
       <r>  -1.1782  1.0000</r>
       <r>  -1.1314  1.0000</r>
       <r>  -1.0082  1.0000</r>
       <r>  -0.8095  1.0000</r>
       <r>  -0.8091  1.0000</r>
       <r>   0.7911  1.0000</r>
       <r>   3.9542  0.0000</r>
       <r>   6.1752  0.0000</r>
       <r>   6.8771  0.0000</r>
       <r>   8.2475  0.0000</r>
       <r>   9.5337  0.0000</r>
       <r>   9.6881  0.0000</r>
      </set>
      <set comment="kpoint 17">
       <r>  -3.0085  1.0000</r>
       <r>  -2.8123  1.0000</r>
       <r>  -2.8122  1.0000</r>
       <r>  -2.8083  1.0000</r>
       <r>  -2.7279  1.0000</r>
       <r>  -2.5858  1.0000</r>
       <r>  -2.5566  1.0000</r>
       <r>  -2.5204  1.0000</r>
       <r>  -2.1253  1.0000</r>
       <r>  -2.0374  1.0000</r>
       <r>  -1.9571  1.0000</r>
       <r>  -1.7589  1.0000</r>
       <r>  -1.7034  1.0000</r>
       <r>  -1.4221  1.0000</r>
       <r>  -1.3695  1.0000</r>
       <r>  -1.3267  1.0000</r>
       <r>  -1.3154  1.0000</r>
       <r>  -1.1062  1.0000</r>
       <r>  -1.0099  1.0000</r>
       <r>  -0.8129  1.0000</r>
       <r>  -0.8112  1.0000</r>
       <r>  -0.0442  1.0000</r>
       <r>   4.6109  0.0000</r>
       <r>   6.0805  0.0000</r>
       <r>   6.9692  0.0000</r>
       <r>   8.4458  0.0000</r>
       <r>   8.7492  0.0000</r>
       <r>   9.1500  0.0000</r>
      </set>
      <set comment="kpoint 18">
       <r>  -2.8057  1.0000</r>
       <r>  -2.8057  1.0000</r>
       <r>  -2.7005  1.0000</r>
       <r>  -2.7005  1.0000</r>
       <r>  -2.6852  1.0000</r>
       <r>  -2.6852  1.0000</r>
       <r>  -2.3556  1.0000</r>
       <r>  -2.3556  1.0000</r>
       <r>  -2.3274  1.0000</r>
       <r>  -2.3274  1.0000</r>
       <r>  -1.9151  1.0000</r>
       <r>  -1.9151  1.0000</r>
       <r>  -1.5218  1.0000</r>
       <r>  -1.5218  1.0000</r>
       <r>  -1.3929  1.0000</r>
       <r>  -1.3929  1.0000</r>
       <r>  -1.2448  1.0000</r>
       <r>  -1.2448  1.0000</r>
       <r>  -0.8128  1.0000</r>
       <r>  -0.8128  1.0000</r>
       <r>  -0.6573  1.0000</r>
       <r>  -0.6573  1.0000</r>
       <r>   5.3204  0.0000</r>
       <r>   5.3204  0.0000</r>
       <r>   7.8349  0.0000</r>
       <r>   7.8349  0.0000</r>
       <r>   8.7581  0.0000</r>
       <r>   8.7581  0.0000</r>
      </set>
      <set comment="kpoint 19">
       <r>  -3.4515  1.0000</r>
       <r>  -3.0377  1.0000</r>
       <r>  -2.9113  1.0000</r>
       <r>  -2.9113  1.0000</r>
       <r>  -2.8991  1.0000</r>
       <r>  -2.8991  1.0000</r>
       <r>  -2.7033  1.0000</r>
       <r>  -2.3588  1.0000</r>
       <r>  -1.9514  1.0000</r>
       <r>  -1.9381  1.0000</r>
       <r>  -1.6793  1.0000</r>
       <r>  -1.6793  1.0000</r>
       <r>  -1.5919  1.0000</r>
       <r>  -1.5903  1.0000</r>
       <r>  -1.2361  1.0000</r>
       <r>  -1.1903  1.0000</r>
       <r>  -1.0470  1.0000</r>
       <r>  -1.0470  1.0000</r>
       <r>  -0.9548  1.0000</r>
       <r>  -0.9548  1.0000</r>
       <r>  -0.8784  1.0000</r>
       <r>   2.2683  0.0000</r>
       <r>   2.2683  0.0000</r>
       <r>   6.0018  0.0000</r>
       <r>   6.7445  0.0000</r>
       <r>   8.2005  0.0000</r>
       <r>  10.7546  0.0000</r>
       <r>  10.7546  0.0000</r>
      </set>
      <set comment="kpoint 20">
       <r>  -3.1457  1.0000</r>
       <r>  -2.9322  1.0000</r>
       <r>  -2.8254  1.0000</r>
       <r>  -2.7655  1.0000</r>
       <r>  -2.7520  1.0000</r>
       <r>  -2.7380  1.0000</r>
       <r>  -2.5401  1.0000</r>
       <r>  -2.4212  1.0000</r>
       <r>  -1.9755  1.0000</r>
       <r>  -1.9559  1.0000</r>
       <r>  -1.8557  1.0000</r>
       <r>  -1.8391  1.0000</r>
       <r>  -1.8147  1.0000</r>
       <r>  -1.6006  1.0000</r>
       <r>  -1.3390  1.0000</r>
       <r>  -1.1847  1.0000</r>
       <r>  -1.1350  1.0000</r>
       <r>  -1.1035  1.0000</r>
       <r>  -0.9988  1.0000</r>
       <r>  -0.9579  1.0000</r>
       <r>  -0.9270  1.0000</r>
       <r>   1.2713  1.0000</r>
       <r>   2.8406  0.0000</r>
       <r>   5.8220  0.0000</r>
       <r>   6.6625  0.0000</r>
       <r>   8.3625  0.0000</r>
       <r>  10.1074  0.0000</r>
       <r>  10.1180  0.0000</r>
      </set>
      <set comment="kpoint 21">
       <r>  -2.8454  1.0000</r>
       <r>  -2.7882  1.0000</r>
       <r>  -2.7249  1.0000</r>
       <r>  -2.6473  1.0000</r>
       <r>  -2.6088  1.0000</r>
       <r>  -2.5532  1.0000</r>
       <r>  -2.5123  1.0000</r>
       <r>  -2.4070  1.0000</r>
       <r>  -2.2217  1.0000</r>
       <r>  -2.0689  1.0000</r>
       <r>  -2.0308  1.0000</r>
       <r>  -2.0184  1.0000</r>
       <r>  -1.6956  1.0000</r>
       <r>  -1.5023  1.0000</r>
       <r>  -1.4210  1.0000</r>
       <r>  -1.3295  1.0000</r>
       <r>  -1.3268  1.0000</r>
       <r>  -1.2052  1.0000</r>
       <r>  -0.9599  1.0000</r>
       <r>  -0.9499  1.0000</r>
       <r>  -0.7029  1.0000</r>
       <r>   0.4209  1.0000</r>
       <r>   3.4801  0.0000</r>
       <r>   4.9643  0.0000</r>
       <r>   7.4289  0.0000</r>
       <r>   8.6405  0.0000</r>
       <r>   9.1740  0.0000</r>
       <r>   9.5209  0.0000</r>
      </set>
      <set comment="kpoint 22">
       <r>  -2.6473  1.0000</r>
       <r>  -2.6473  1.0000</r>
       <r>  -2.6354  1.0000</r>
       <r>  -2.6354  1.0000</r>
       <r>  -2.6175  1.0000</r>
       <r>  -2.6175  1.0000</r>
       <r>  -2.3391  1.0000</r>
       <r>  -2.3391  1.0000</r>
       <r>  -2.3216  1.0000</r>
       <r>  -2.3216  1.0000</r>
       <r>  -2.0919  1.0000</r>
       <r>  -2.0919  1.0000</r>
       <r>  -1.5212  1.0000</r>
       <r>  -1.5212  1.0000</r>
       <r>  -1.4227  1.0000</r>
       <r>  -1.4227  1.0000</r>
       <r>  -1.3473  1.0000</r>
       <r>  -1.3473  1.0000</r>
       <r>  -0.9585  1.0000</r>
       <r>  -0.9585  1.0000</r>
       <r>  -0.2427  1.0000</r>
       <r>  -0.2427  1.0000</r>
       <r>   4.1857  0.0000</r>
       <r>   4.1857  0.0000</r>
       <r>   8.2736  0.0000</r>
       <r>   8.2736  0.0000</r>
       <r>   9.0255  0.0000</r>
       <r>   9.0255  0.0000</r>
      </set>
      <set comment="kpoint 23">
       <r>  -2.9080  1.0000</r>
       <r>  -2.8588  1.0000</r>
       <r>  -2.6854  1.0000</r>
       <r>  -2.6854  1.0000</r>
       <r>  -2.5896  1.0000</r>
       <r>  -2.5896  1.0000</r>
       <r>  -2.4300  1.0000</r>
       <r>  -2.3860  1.0000</r>
       <r>  -2.1241  1.0000</r>
       <r>  -2.1241  1.0000</r>
       <r>  -1.9523  1.0000</r>
       <r>  -1.9497  1.0000</r>
       <r>  -1.7763  1.0000</r>
       <r>  -1.6661  1.0000</r>
       <r>  -1.4266  1.0000</r>
       <r>  -1.2361  1.0000</r>
       <r>  -1.2361  1.0000</r>
       <r>  -1.1373  1.0000</r>
       <r>  -1.1373  1.0000</r>
       <r>  -1.0258  1.0000</r>
       <r>  -0.7098  1.0000</r>
       <r>   1.8283  1.0000</r>
       <r>   1.8283  1.0000</r>
       <r>   4.8359  0.0000</r>
       <r>   7.2903  0.0000</r>
       <r>   8.5942  0.0000</r>
       <r>  10.6257  0.0000</r>
       <r>  10.6285  0.0000</r>
      </set>
      <set comment="kpoint 24">
       <r>  -2.7459  1.0000</r>
       <r>  -2.6858  1.0000</r>
       <r>  -2.6102  1.0000</r>
       <r>  -2.5145  1.0000</r>
       <r>  -2.4705  1.0000</r>
       <r>  -2.4651  1.0000</r>
       <r>  -2.4540  1.0000</r>
       <r>  -2.3086  1.0000</r>
       <r>  -2.2680  1.0000</r>
       <r>  -2.2415  1.0000</r>
       <r>  -2.1269  1.0000</r>
       <r>  -2.0266  1.0000</r>
       <r>  -1.6633  1.0000</r>
       <r>  -1.6206  1.0000</r>
       <r>  -1.4984  1.0000</r>
       <r>  -1.3799  1.0000</r>
       <r>  -1.3376  1.0000</r>
       <r>  -1.3271  1.0000</r>
       <r>  -1.1347  1.0000</r>
       <r>  -1.0890  1.0000</r>
       <r>  -0.3096  1.0000</r>
       <r>   0.9528  1.0000</r>
       <r>   2.4548  0.0000</r>
       <r>   3.9480  0.0000</r>
       <r>   8.0276  0.0000</r>
       <r>   8.9288  0.0000</r>
       <r>   9.7335  0.0000</r>
       <r>   9.9386  0.0000</r>
      </set>
      <set comment="kpoint 25">
       <r>  -2.5959  1.0000</r>
       <r>  -2.5959  1.0000</r>
       <r>  -2.5349  1.0000</r>
       <r>  -2.5349  1.0000</r>
       <r>  -2.5089  1.0000</r>
       <r>  -2.5089  1.0000</r>
       <r>  -2.3229  1.0000</r>
       <r>  -2.3229  1.0000</r>
       <r>  -2.2562  1.0000</r>
       <r>  -2.2562  1.0000</r>
       <r>  -2.1719  1.0000</r>
       <r>  -2.1719  1.0000</r>
       <r>  -1.5083  1.0000</r>
       <r>  -1.5083  1.0000</r>
       <r>  -1.4877  1.0000</r>
       <r>  -1.4877  1.0000</r>
       <r>  -1.4796  1.0000</r>
       <r>  -1.4796  1.0000</r>
       <r>  -1.1216  1.0000</r>
       <r>  -1.1216  1.0000</r>
       <r>   0.2377  1.0000</r>
       <r>   0.2377  1.0000</r>
       <r>   3.1575  0.0000</r>
       <r>   3.1575  0.0000</r>
       <r>   8.8492  0.0000</r>
       <r>   8.8492  0.0000</r>
       <r>   9.3741  0.0000</r>
       <r>   9.3741  0.0000</r>
      </set>
      <set comment="kpoint 26">
       <r>  -2.6768  1.0000</r>
       <r>  -2.5743  1.0000</r>
       <r>  -2.4772  1.0000</r>
       <r>  -2.4772  1.0000</r>
       <r>  -2.4476  1.0000</r>
       <r>  -2.4332  1.0000</r>
       <r>  -2.4332  1.0000</r>
       <r>  -2.2525  1.0000</r>
       <r>  -2.2525  1.0000</r>
       <r>  -2.2186  1.0000</r>
       <r>  -2.1437  1.0000</r>
       <r>  -1.9924  1.0000</r>
       <r>  -1.7001  1.0000</r>
       <r>  -1.5903  1.0000</r>
       <r>  -1.5804  1.0000</r>
       <r>  -1.4818  1.0000</r>
       <r>  -1.4818  1.0000</r>
       <r>  -1.3123  1.0000</r>
       <r>  -1.3123  1.0000</r>
       <r>  -1.2014  1.0000</r>
       <r>   0.1834  1.0000</r>
       <r>   1.5578  1.0000</r>
       <r>   1.5578  1.0000</r>
       <r>   3.0434  0.0000</r>
       <r>   8.7380  0.0000</r>
       <r>   9.3200  0.0000</r>
       <r>  10.4039  0.0000</r>
       <r>  10.4184  0.0000</r>
      </set>
      <set comment="kpoint 27">
       <r>  -2.5737  1.0000</r>
       <r>  -2.5737  1.0000</r>
       <r>  -2.4991  1.0000</r>
       <r>  -2.4991  1.0000</r>
       <r>  -2.4514  1.0000</r>
       <r>  -2.4514  1.0000</r>
       <r>  -2.3405  1.0000</r>
       <r>  -2.3405  1.0000</r>
       <r>  -2.1249  1.0000</r>
       <r>  -2.1249  1.0000</r>
       <r>  -2.0898  1.0000</r>
       <r>  -2.0898  1.0000</r>
       <r>  -1.6170  1.0000</r>
       <r>  -1.6170  1.0000</r>
       <r>  -1.5882  1.0000</r>
       <r>  -1.5882  1.0000</r>
       <r>  -1.4703  1.0000</r>
       <r>  -1.4703  1.0000</r>
       <r>  -1.2743  1.0000</r>
       <r>  -1.2743  1.0000</r>
       <r>   0.8007  1.0000</r>
       <r>   0.8007  1.0000</r>
       <r>   2.2498  0.0000</r>
       <r>   2.2498  0.0000</r>
       <r>   9.5366  0.0000</r>
       <r>   9.5366  0.0000</r>
       <r>   9.8240  0.0000</r>
       <r>   9.8240  0.0000</r>
      </set>
      <set comment="kpoint 28">
       <r>  -2.5422  1.0000</r>
       <r>  -2.5422  1.0000</r>
       <r>  -2.5422  1.0000</r>
       <r>  -2.5422  1.0000</r>
       <r>  -2.3831  1.0000</r>
       <r>  -2.3831  1.0000</r>
       <r>  -2.3831  1.0000</r>
       <r>  -2.3831  1.0000</r>
       <r>  -2.0273  1.0000</r>
       <r>  -2.0273  1.0000</r>
       <r>  -2.0273  1.0000</r>
       <r>  -2.0273  1.0000</r>
       <r>  -1.6739  1.0000</r>
       <r>  -1.6739  1.0000</r>
       <r>  -1.6739  1.0000</r>
       <r>  -1.6739  1.0000</r>
       <r>  -1.3939  1.0000</r>
       <r>  -1.3939  1.0000</r>
       <r>  -1.3939  1.0000</r>
       <r>  -1.3939  1.0000</r>
       <r>   1.4663  1.0000</r>
       <r>   1.4663  1.0000</r>
       <r>   1.4663  1.0000</r>
       <r>   1.4663  1.0000</r>
       <r>  10.3142  0.0000</r>
       <r>  10.3142  0.0000</r>
       <r>  10.3142  0.0000</r>
       <r>  10.3142  0.0000</r>
      </set>
      <set comment="kpoint 29">
       <r>  -4.2793  1.0000</r>
       <r>  -3.2764  1.0000</r>
       <r>  -3.2764  1.0000</r>
       <r>  -3.2764  1.0000</r>
       <r>  -3.1940  1.0000</r>
       <r>  -3.1940  1.0000</r>
       <r>  -3.1940  1.0000</r>
       <r>  -2.2008  1.0000</r>
       <r>  -2.1255  1.0000</r>
       <r>  -2.1255  1.0000</r>
       <r>  -1.4265  1.0000</r>
       <r>  -1.4265  1.0000</r>
       <r>  -0.9288  1.0000</r>
       <r>  -0.9288  1.0000</r>
       <r>  -0.9288  1.0000</r>
       <r>  -0.8626  1.0000</r>
       <r>  -0.8626  1.0000</r>
       <r>  -0.8626  1.0000</r>
       <r>  -0.7164  1.0000</r>
       <r>  -0.7164  1.0000</r>
       <r>  -0.7164  1.0000</r>
       <r>   3.6522  0.0000</r>
       <r>   3.6522  0.0000</r>
       <r>   3.6522  0.0000</r>
       <r>   8.2662  0.0000</r>
       <r>   8.2662  0.0000</r>
       <r>   8.2662  0.0000</r>
       <r>  11.0702  0.0000</r>
      </set>
      <set comment="kpoint 30">
       <r>  -4.0983  1.0000</r>
       <r>  -3.2127  1.0000</r>
       <r>  -3.2086  1.0000</r>
       <r>  -3.2086  1.0000</r>
       <r>  -3.1415  1.0000</r>
       <r>  -3.1002  1.0000</r>
       <r>  -3.1002  1.0000</r>
       <r>  -2.2440  1.0000</r>
       <r>  -2.0782  1.0000</r>
       <r>  -2.0752  1.0000</r>
       <r>  -1.4781  1.0000</r>
       <r>  -1.3925  1.0000</r>
       <r>  -1.1008  1.0000</r>
       <r>  -1.1008  1.0000</r>
       <r>  -0.9988  1.0000</r>
       <r>  -0.9790  1.0000</r>
       <r>  -0.9790  1.0000</r>
       <r>  -0.9653  1.0000</r>
       <r>  -0.7638  1.0000</r>
       <r>  -0.7269  1.0000</r>
       <r>  -0.7269  1.0000</r>
       <r>   2.6321  0.0000</r>
       <r>   4.0141  0.0000</r>
       <r>   4.0141  0.0000</r>
       <r>   8.3236  0.0000</r>
       <r>   8.3236  0.0000</r>
       <r>   9.5930  0.0000</r>
       <r>  10.1797  0.0000</r>
      </set>
      <set comment="kpoint 31">
       <r>  -3.8105  1.0000</r>
       <r>  -3.1195  1.0000</r>
       <r>  -3.0962  1.0000</r>
       <r>  -3.0962  1.0000</r>
       <r>  -3.0538  1.0000</r>
       <r>  -2.9578  1.0000</r>
       <r>  -2.9578  1.0000</r>
       <r>  -2.3281  1.0000</r>
       <r>  -1.9928  1.0000</r>
       <r>  -1.9918  1.0000</r>
       <r>  -1.5381  1.0000</r>
       <r>  -1.4006  1.0000</r>
       <r>  -1.4006  1.0000</r>
       <r>  -1.3382  1.0000</r>
       <r>  -1.1241  1.0000</r>
       <r>  -1.1123  1.0000</r>
       <r>  -1.0897  1.0000</r>
       <r>  -1.0897  1.0000</r>
       <r>  -0.8315  1.0000</r>
       <r>  -0.7344  1.0000</r>
       <r>  -0.7344  1.0000</r>
       <r>   1.5532  1.0000</r>
       <r>   4.5419  0.0000</r>
       <r>   4.5419  0.0000</r>
       <r>   8.3671  0.0000</r>
       <r>   8.3671  0.0000</r>
       <r>   9.3682  0.0000</r>
       <r>   9.3682  0.0000</r>
      </set>
      <set comment="kpoint 32">
       <r>  -3.4489  1.0000</r>
       <r>  -3.0134  1.0000</r>
       <r>  -2.9491  1.0000</r>
       <r>  -2.9491  1.0000</r>
       <r>  -2.9368  1.0000</r>
       <r>  -2.7828  1.0000</r>
       <r>  -2.7828  1.0000</r>
       <r>  -2.4386  1.0000</r>
       <r>  -1.9120  1.0000</r>
       <r>  -1.8809  1.0000</r>
       <r>  -1.7287  1.0000</r>
       <r>  -1.7287  1.0000</r>
       <r>  -1.5325  1.0000</r>
       <r>  -1.3248  1.0000</r>
       <r>  -1.2671  1.0000</r>
       <r>  -1.2584  1.0000</r>
       <r>  -1.2223  1.0000</r>
       <r>  -1.2223  1.0000</r>
       <r>  -0.9121  1.0000</r>
       <r>  -0.7386  1.0000</r>
       <r>  -0.7386  1.0000</r>
       <r>   0.5541  1.0000</r>
       <r>   5.1762  0.0000</r>
       <r>   5.1762  0.0000</r>
       <r>   8.0684  0.0000</r>
       <r>   8.0684  0.0000</r>
       <r>   9.0090  0.0000</r>
       <r>   9.0090  0.0000</r>
      </set>
      <set comment="kpoint 33">
       <r>  -3.0960  1.0000</r>
       <r>  -2.9160  1.0000</r>
       <r>  -2.8116  1.0000</r>
       <r>  -2.8022  1.0000</r>
       <r>  -2.8022  1.0000</r>
       <r>  -2.5868  1.0000</r>
       <r>  -2.5868  1.0000</r>
       <r>  -2.5638  1.0000</r>
       <r>  -2.0452  1.0000</r>
       <r>  -2.0452  1.0000</r>
       <r>  -1.8728  1.0000</r>
       <r>  -1.7437  1.0000</r>
       <r>  -1.5506  1.0000</r>
       <r>  -1.4218  1.0000</r>
       <r>  -1.3451  1.0000</r>
       <r>  -1.3411  1.0000</r>
       <r>  -1.3411  1.0000</r>
       <r>  -1.1837  1.0000</r>
       <r>  -1.0009  1.0000</r>
       <r>  -0.7406  1.0000</r>
       <r>  -0.7406  1.0000</r>
       <r>  -0.2974  1.0000</r>
       <r>   5.8743  0.0000</r>
       <r>   5.8743  0.0000</r>
       <r>   7.3677  0.0000</r>
       <r>   7.3677  0.0000</r>
       <r>   9.1485  0.0000</r>
       <r>   9.1485  0.0000</r>
      </set>
      <set comment="kpoint 34">
       <r>  -2.9022  1.0000</r>
       <r>  -2.9022  1.0000</r>
       <r>  -2.7357  1.0000</r>
       <r>  -2.7357  1.0000</r>
       <r>  -2.6907  1.0000</r>
       <r>  -2.6907  1.0000</r>
       <r>  -2.4056  1.0000</r>
       <r>  -2.4056  1.0000</r>
       <r>  -2.2749  1.0000</r>
       <r>  -2.2749  1.0000</r>
       <r>  -1.7615  1.0000</r>
       <r>  -1.7615  1.0000</r>
       <r>  -1.5876  1.0000</r>
       <r>  -1.5876  1.0000</r>
       <r>  -1.3915  1.0000</r>
       <r>  -1.3915  1.0000</r>
       <r>  -1.0932  1.0000</r>
       <r>  -1.0932  1.0000</r>
       <r>  -0.9402  1.0000</r>
       <r>  -0.9402  1.0000</r>
       <r>  -0.7412  1.0000</r>
       <r>  -0.7412  1.0000</r>
       <r>   6.5575  0.0000</r>
       <r>   6.5575  0.0000</r>
       <r>   6.6680  0.0000</r>
       <r>   6.6680  0.0000</r>
       <r>   9.2858  0.0000</r>
       <r>   9.2858  0.0000</r>
      </set>
      <set comment="kpoint 35">
       <r>  -3.9279  1.0000</r>
       <r>  -3.1698  1.0000</r>
       <r>  -3.1506  1.0000</r>
       <r>  -3.1506  1.0000</r>
       <r>  -3.0442  1.0000</r>
       <r>  -3.0442  1.0000</r>
       <r>  -2.9880  1.0000</r>
       <r>  -2.2528  1.0000</r>
       <r>  -2.0574  1.0000</r>
       <r>  -2.0388  1.0000</r>
       <r>  -1.4852  1.0000</r>
       <r>  -1.3844  1.0000</r>
       <r>  -1.2250  1.0000</r>
       <r>  -1.2250  1.0000</r>
       <r>  -1.2195  1.0000</r>
       <r>  -1.0877  1.0000</r>
       <r>  -1.0284  1.0000</r>
       <r>  -1.0284  1.0000</r>
       <r>  -0.7679  1.0000</r>
       <r>  -0.7679  1.0000</r>
       <r>  -0.7609  1.0000</r>
       <r>   2.9696  0.0000</r>
       <r>   2.9696  0.0000</r>
       <r>   4.3470  0.0000</r>
       <r>   8.2902  0.0000</r>
       <r>   9.2409  0.0000</r>
       <r>   9.5851  0.0000</r>
       <r>   9.5851  0.0000</r>
      </set>
      <set comment="kpoint 36">
       <r>  -3.6604  1.0000</r>
       <r>  -3.0840  1.0000</r>
       <r>  -3.0677  1.0000</r>
       <r>  -3.0427  1.0000</r>
       <r>  -2.9494  1.0000</r>
       <r>  -2.9014  1.0000</r>
       <r>  -2.8369  1.0000</r>
       <r>  -2.3063  1.0000</r>
       <r>  -1.9906  1.0000</r>
       <r>  -1.9818  1.0000</r>
       <r>  -1.5249  1.0000</r>
       <r>  -1.5224  1.0000</r>
       <r>  -1.4681  1.0000</r>
       <r>  -1.3878  1.0000</r>
       <r>  -1.3165  1.0000</r>
       <r>  -1.1809  1.0000</r>
       <r>  -1.1407  1.0000</r>
       <r>  -1.1105  1.0000</r>
       <r>  -0.8252  1.0000</r>
       <r>  -0.7912  1.0000</r>
       <r>  -0.7898  1.0000</r>
       <r>   1.8840  1.0000</r>
       <r>   3.4550  0.0000</r>
       <r>   4.8417  0.0000</r>
       <r>   7.8053  0.0000</r>
       <r>   8.8910  0.0000</r>
       <r>   9.1831  0.0000</r>
       <r>  10.1839  0.0000</r>
      </set>
      <set comment="kpoint 37">
       <r>  -3.3315  1.0000</r>
       <r>  -2.9740  1.0000</r>
       <r>  -2.9546  1.0000</r>
       <r>  -2.8958  1.0000</r>
       <r>  -2.8231  1.0000</r>
       <r>  -2.7345  1.0000</r>
       <r>  -2.6702  1.0000</r>
       <r>  -2.3920  1.0000</r>
       <r>  -1.9497  1.0000</r>
       <r>  -1.8920  1.0000</r>
       <r>  -1.8314  1.0000</r>
       <r>  -1.7583  1.0000</r>
       <r>  -1.5777  1.0000</r>
       <r>  -1.4842  1.0000</r>
       <r>  -1.2936  1.0000</r>
       <r>  -1.2890  1.0000</r>
       <r>  -1.2278  1.0000</r>
       <r>  -1.2080  1.0000</r>
       <r>  -0.9010  1.0000</r>
       <r>  -0.8109  1.0000</r>
       <r>  -0.8079  1.0000</r>
       <r>   0.8843  1.0000</r>
       <r>   4.0364  0.0000</r>
       <r>   5.4464  0.0000</r>
       <r>   6.9763  0.0000</r>
       <r>   8.4088  0.0000</r>
       <r>   9.0519  0.0000</r>
       <r>  10.2814  0.0000</r>
      </set>
      <set comment="kpoint 38">
       <r>  -3.0215  1.0000</r>
       <r>  -2.8879  1.0000</r>
       <r>  -2.7976  1.0000</r>
       <r>  -2.7379  1.0000</r>
       <r>  -2.6889  1.0000</r>
       <r>  -2.5740  1.0000</r>
       <r>  -2.5261  1.0000</r>
       <r>  -2.4879  1.0000</r>
       <r>  -2.0985  1.0000</r>
       <r>  -2.0367  1.0000</r>
       <r>  -1.9718  1.0000</r>
       <r>  -1.7773  1.0000</r>
       <r>  -1.7695  1.0000</r>
       <r>  -1.4613  1.0000</r>
       <r>  -1.3865  1.0000</r>
       <r>  -1.3487  1.0000</r>
       <r>  -1.3053  1.0000</r>
       <r>  -1.0273  1.0000</r>
       <r>  -0.9982  1.0000</r>
       <r>  -0.8205  1.0000</r>
       <r>  -0.8184  1.0000</r>
       <r>   0.0282  1.0000</r>
       <r>   4.6855  0.0000</r>
       <r>   6.1106  0.0000</r>
       <r>   6.1687  0.0000</r>
       <r>   7.6125  0.0000</r>
       <r>   9.3804  0.0000</r>
       <r>  10.2316  0.0000</r>
      </set>
      <set comment="kpoint 39">
       <r>  -2.8651  1.0000</r>
       <r>  -2.8651  1.0000</r>
       <r>  -2.6802  1.0000</r>
       <r>  -2.6802  1.0000</r>
       <r>  -2.5791  1.0000</r>
       <r>  -2.5791  1.0000</r>
       <r>  -2.4677  1.0000</r>
       <r>  -2.4677  1.0000</r>
       <r>  -2.2145  1.0000</r>
       <r>  -2.2145  1.0000</r>
       <r>  -1.9347  1.0000</r>
       <r>  -1.9347  1.0000</r>
       <r>  -1.6240  1.0000</r>
       <r>  -1.6240  1.0000</r>
       <r>  -1.4160  1.0000</r>
       <r>  -1.4160  1.0000</r>
       <r>  -1.1235  1.0000</r>
       <r>  -1.1235  1.0000</r>
       <r>  -0.8225  1.0000</r>
       <r>  -0.8225  1.0000</r>
       <r>  -0.6304  1.0000</r>
       <r>  -0.6304  1.0000</r>
       <r>   5.3918  0.0000</r>
       <r>   5.3918  0.0000</r>
       <r>   6.8488  0.0000</r>
       <r>   6.8488  0.0000</r>
       <r>   9.8127  0.0000</r>
       <r>   9.8127  0.0000</r>
      </set>
      <set comment="kpoint 40">
       <r>  -3.4316  1.0000</r>
       <r>  -3.0274  1.0000</r>
       <r>  -2.9694  1.0000</r>
       <r>  -2.9694  1.0000</r>
       <r>  -2.8033  1.0000</r>
       <r>  -2.8033  1.0000</r>
       <r>  -2.6856  1.0000</r>
       <r>  -2.3025  1.0000</r>
       <r>  -1.9590  1.0000</r>
       <r>  -1.9570  1.0000</r>
       <r>  -1.6831  1.0000</r>
       <r>  -1.6831  1.0000</r>
       <r>  -1.6131  1.0000</r>
       <r>  -1.5479  1.0000</r>
       <r>  -1.2876  1.0000</r>
       <r>  -1.2095  1.0000</r>
       <r>  -1.1918  1.0000</r>
       <r>  -1.1918  1.0000</r>
       <r>  -0.8610  1.0000</r>
       <r>  -0.8610  1.0000</r>
       <r>  -0.8520  1.0000</r>
       <r>   2.3520  0.0000</r>
       <r>   2.3520  0.0000</r>
       <r>   5.2950  0.0000</r>
       <r>   6.8372  0.0000</r>
       <r>   8.9909  0.0000</r>
       <r>   9.6948  0.0000</r>
       <r>   9.6948  0.0000</r>
      </set>
      <set comment="kpoint 41">
       <r>  -3.1645  1.0000</r>
       <r>  -2.9268  1.0000</r>
       <r>  -2.8913  1.0000</r>
       <r>  -2.8300  1.0000</r>
       <r>  -2.6687  1.0000</r>
       <r>  -2.6428  1.0000</r>
       <r>  -2.5318  1.0000</r>
       <r>  -2.3322  1.0000</r>
       <r>  -1.9601  1.0000</r>
       <r>  -1.9580  1.0000</r>
       <r>  -1.8879  1.0000</r>
       <r>  -1.8535  1.0000</r>
       <r>  -1.8210  1.0000</r>
       <r>  -1.5250  1.0000</r>
       <r>  -1.3855  1.0000</r>
       <r>  -1.3269  1.0000</r>
       <r>  -1.2790  1.0000</r>
       <r>  -1.0192  1.0000</r>
       <r>  -0.9464  1.0000</r>
       <r>  -0.9021  1.0000</r>
       <r>  -0.9000  1.0000</r>
       <r>   1.3410  1.0000</r>
       <r>   2.9111  0.0000</r>
       <r>   5.7969  0.0000</r>
       <r>   5.9579  0.0000</r>
       <r>   8.8134  0.0000</r>
       <r>   9.2608  0.0000</r>
       <r>  10.2472  0.0000</r>
      </set>
      <set comment="kpoint 42">
       <r>  -2.9291  1.0000</r>
       <r>  -2.8253  1.0000</r>
       <r>  -2.7871  1.0000</r>
       <r>  -2.6612  1.0000</r>
       <r>  -2.5414  1.0000</r>
       <r>  -2.5203  1.0000</r>
       <r>  -2.4357  1.0000</r>
       <r>  -2.3715  1.0000</r>
       <r>  -2.1512  1.0000</r>
       <r>  -2.0353  1.0000</r>
       <r>  -2.0267  1.0000</r>
       <r>  -2.0120  1.0000</r>
       <r>  -1.7821  1.0000</r>
       <r>  -1.4868  1.0000</r>
       <r>  -1.4622  1.0000</r>
       <r>  -1.3886  1.0000</r>
       <r>  -1.3826  1.0000</r>
       <r>  -1.0581  1.0000</r>
       <r>  -0.9286  1.0000</r>
       <r>  -0.9284  1.0000</r>
       <r>  -0.7148  1.0000</r>
       <r>   0.4684  1.0000</r>
       <r>   3.5422  0.0000</r>
       <r>   5.0200  0.0000</r>
       <r>   6.5190  0.0000</r>
       <r>   7.9897  0.0000</r>
       <r>   9.6558  0.0000</r>
       <r>  10.7850  0.0000</r>
      </set>
      <set comment="kpoint 43">
       <r>  -2.8134  1.0000</r>
       <r>  -2.8134  1.0000</r>
       <r>  -2.6286  1.0000</r>
       <r>  -2.6286  1.0000</r>
       <r>  -2.4917  1.0000</r>
       <r>  -2.4917  1.0000</r>
       <r>  -2.4107  1.0000</r>
       <r>  -2.4107  1.0000</r>
       <r>  -2.1516  1.0000</r>
       <r>  -2.1516  1.0000</r>
       <r>  -2.0942  1.0000</r>
       <r>  -2.0942  1.0000</r>
       <r>  -1.6449  1.0000</r>
       <r>  -1.6449  1.0000</r>
       <r>  -1.4689  1.0000</r>
       <r>  -1.4689  1.0000</r>
       <r>  -1.2055  1.0000</r>
       <r>  -1.2055  1.0000</r>
       <r>  -0.9373  1.0000</r>
       <r>  -0.9373  1.0000</r>
       <r>  -0.2269  1.0000</r>
       <r>  -0.2269  1.0000</r>
       <r>   4.2433  0.0000</r>
       <r>   4.2433  0.0000</r>
       <r>   7.2256  0.0000</r>
       <r>   7.2256  0.0000</r>
       <r>  10.1701  0.0000</r>
       <r>  10.1701  0.0000</r>
      </set>
      <set comment="kpoint 44">
       <r>  -2.9886  1.0000</r>
       <r>  -2.8626  1.0000</r>
       <r>  -2.7732  1.0000</r>
       <r>  -2.7732  1.0000</r>
       <r>  -2.5052  1.0000</r>
       <r>  -2.5052  1.0000</r>
       <r>  -2.4002  1.0000</r>
       <r>  -2.2922  1.0000</r>
       <r>  -2.0885  1.0000</r>
       <r>  -2.0885  1.0000</r>
       <r>  -1.9356  1.0000</r>
       <r>  -1.9190  1.0000</r>
       <r>  -1.8652  1.0000</r>
       <r>  -1.5591  1.0000</r>
       <r>  -1.4849  1.0000</r>
       <r>  -1.3852  1.0000</r>
       <r>  -1.3852  1.0000</r>
       <r>  -1.0099  1.0000</r>
       <r>  -1.0099  1.0000</r>
       <r>  -0.9825  1.0000</r>
       <r>  -0.7277  1.0000</r>
       <r>   1.8841  1.0000</r>
       <r>   1.8841  1.0000</r>
       <r>   4.8842  0.0000</r>
       <r>   6.4081  0.0000</r>
       <r>   9.3284  0.0000</r>
       <r>   9.3284  0.0000</r>
       <r>   9.5873  0.0000</r>
      </set>
      <set comment="kpoint 45">
       <r>  -2.8446  1.0000</r>
       <r>  -2.7628  1.0000</r>
       <r>  -2.7418  1.0000</r>
       <r>  -2.6409  1.0000</r>
       <r>  -2.4513  1.0000</r>
       <r>  -2.3512  1.0000</r>
       <r>  -2.3373  1.0000</r>
       <r>  -2.2801  1.0000</r>
       <r>  -2.1943  1.0000</r>
       <r>  -2.1672  1.0000</r>
       <r>  -2.0082  1.0000</r>
       <r>  -2.0033  1.0000</r>
       <r>  -1.7920  1.0000</r>
       <r>  -1.5575  1.0000</r>
       <r>  -1.5255  1.0000</r>
       <r>  -1.4727  1.0000</r>
       <r>  -1.4664  1.0000</r>
       <r>  -1.1392  1.0000</r>
       <r>  -1.0562  1.0000</r>
       <r>  -1.0419  1.0000</r>
       <r>  -0.3170  1.0000</r>
       <r>   0.9891  1.0000</r>
       <r>   2.5030  0.0000</r>
       <r>   3.9938  0.0000</r>
       <r>   7.0274  0.0000</r>
       <r>   8.4872  0.0000</r>
       <r>   9.9470  0.0000</r>
       <r>  10.0333  0.0000</r>
      </set>
      <set comment="kpoint 46">
       <r>  -2.7596  1.0000</r>
       <r>  -2.7596  1.0000</r>
       <r>  -2.6411  1.0000</r>
       <r>  -2.6411  1.0000</r>
       <r>  -2.4328  1.0000</r>
       <r>  -2.4328  1.0000</r>
       <r>  -2.2603  1.0000</r>
       <r>  -2.2603  1.0000</r>
       <r>  -2.1578  1.0000</r>
       <r>  -2.1578  1.0000</r>
       <r>  -2.0759  1.0000</r>
       <r>  -2.0759  1.0000</r>
       <r>  -1.6696  1.0000</r>
       <r>  -1.6696  1.0000</r>
       <r>  -1.5539  1.0000</r>
       <r>  -1.5539  1.0000</r>
       <r>  -1.2983  1.0000</r>
       <r>  -1.2983  1.0000</r>
       <r>  -1.0676  1.0000</r>
       <r>  -1.0676  1.0000</r>
       <r>   0.2508  1.0000</r>
       <r>   0.2508  1.0000</r>
       <r>   3.2028  0.0000</r>
       <r>   3.2028  0.0000</r>
       <r>   7.7216  0.0000</r>
       <r>   7.7216  0.0000</r>
       <r>  10.5993  0.0000</r>
       <r>  10.5993  0.0000</r>
      </set>
      <set comment="kpoint 47">
       <r>  -2.7760  1.0000</r>
       <r>  -2.7200  1.0000</r>
       <r>  -2.6702  1.0000</r>
       <r>  -2.6702  1.0000</r>
       <r>  -2.3521  1.0000</r>
       <r>  -2.3521  1.0000</r>
       <r>  -2.3299  1.0000</r>
       <r>  -2.2680  1.0000</r>
       <r>  -2.1132  1.0000</r>
       <r>  -2.1132  1.0000</r>
       <r>  -1.9658  1.0000</r>
       <r>  -1.9124  1.0000</r>
       <r>  -1.8110  1.0000</r>
       <r>  -1.6459  1.0000</r>
       <r>  -1.5896  1.0000</r>
       <r>  -1.5896  1.0000</r>
       <r>  -1.4676  1.0000</r>
       <r>  -1.1986  1.0000</r>
       <r>  -1.1986  1.0000</r>
       <r>  -1.1408  1.0000</r>
       <r>   0.1852  1.0000</r>
       <r>   1.5903  1.0000</r>
       <r>   1.5903  1.0000</r>
       <r>   3.0819  0.0000</r>
       <r>   7.6313  0.0000</r>
       <r>   9.0906  0.0000</r>
       <r>   9.0906  0.0000</r>
       <r>  10.5259  0.0000</r>
      </set>
      <set comment="kpoint 48">
       <r>  -2.7186  1.0000</r>
       <r>  -2.7186  1.0000</r>
       <r>  -2.6703  1.0000</r>
       <r>  -2.6703  1.0000</r>
       <r>  -2.3645  1.0000</r>
       <r>  -2.3645  1.0000</r>
       <r>  -2.2944  1.0000</r>
       <r>  -2.2944  1.0000</r>
       <r>  -1.9951  1.0000</r>
       <r>  -1.9951  1.0000</r>
       <r>  -1.9784  1.0000</r>
       <r>  -1.9784  1.0000</r>
       <r>  -1.7158  1.0000</r>
       <r>  -1.7158  1.0000</r>
       <r>  -1.6602  1.0000</r>
       <r>  -1.6602  1.0000</r>
       <r>  -1.3510  1.0000</r>
       <r>  -1.3510  1.0000</r>
       <r>  -1.2003  1.0000</r>
       <r>  -1.2003  1.0000</r>
       <r>   0.8168  1.0000</r>
       <r>   0.8168  1.0000</r>
       <r>   2.2836  0.0000</r>
       <r>   2.2836  0.0000</r>
       <r>   8.3196  0.0000</r>
       <r>   8.3196  0.0000</r>
       <r>   9.7895  0.0000</r>
       <r>   9.7895  0.0000</r>
      </set>
      <set comment="kpoint 49">
       <r>  -2.6931  1.0000</r>
       <r>  -2.6931  1.0000</r>
       <r>  -2.6931  1.0000</r>
       <r>  -2.6931  1.0000</r>
       <r>  -2.3249  1.0000</r>
       <r>  -2.3249  1.0000</r>
       <r>  -2.3249  1.0000</r>
       <r>  -2.3249  1.0000</r>
       <r>  -1.8964  1.0000</r>
       <r>  -1.8964  1.0000</r>
       <r>  -1.8964  1.0000</r>
       <r>  -1.8964  1.0000</r>
       <r>  -1.7527  1.0000</r>
       <r>  -1.7527  1.0000</r>
       <r>  -1.7527  1.0000</r>
       <r>  -1.7527  1.0000</r>
       <r>  -1.3111  1.0000</r>
       <r>  -1.3111  1.0000</r>
       <r>  -1.3111  1.0000</r>
       <r>  -1.3111  1.0000</r>
       <r>   1.4898  1.0000</r>
       <r>   1.4898  1.0000</r>
       <r>   1.4898  1.0000</r>
       <r>   1.4898  1.0000</r>
       <r>   9.0099  0.0000</r>
       <r>   9.0099  0.0000</r>
       <r>   9.0099  0.0000</r>
       <r>   9.0099  0.0000</r>
      </set>
      <set comment="kpoint 50">
       <r>  -3.7759  1.0000</r>
       <r>  -3.1214  1.0000</r>
       <r>  -3.1214  1.0000</r>
       <r>  -3.1214  1.0000</r>
       <r>  -2.9270  1.0000</r>
       <r>  -2.9270  1.0000</r>
       <r>  -2.9270  1.0000</r>
       <r>  -2.2209  1.0000</r>
       <r>  -2.0374  1.0000</r>
       <r>  -2.0374  1.0000</r>
       <r>  -1.4270  1.0000</r>
       <r>  -1.4270  1.0000</r>
       <r>  -1.3212  1.0000</r>
       <r>  -1.3212  1.0000</r>
       <r>  -1.3212  1.0000</r>
       <r>  -1.1890  1.0000</r>
       <r>  -1.1890  1.0000</r>
       <r>  -1.1890  1.0000</r>
       <r>  -0.7586  1.0000</r>
       <r>  -0.7586  1.0000</r>
       <r>  -0.7586  1.0000</r>
       <r>   3.2728  0.0000</r>
       <r>   3.2728  0.0000</r>
       <r>   3.2728  0.0000</r>
       <r>   9.0450  0.0000</r>
       <r>   9.0450  0.0000</r>
       <r>   9.0450  0.0000</r>
       <r>  10.1213  0.0000</r>
      </set>
      <set comment="kpoint 51">
       <r>  -3.5441  1.0000</r>
       <r>  -3.0535  1.0000</r>
       <r>  -3.0444  1.0000</r>
       <r>  -3.0444  1.0000</r>
       <r>  -2.8245  1.0000</r>
       <r>  -2.7764  1.0000</r>
       <r>  -2.7764  1.0000</r>
       <r>  -2.2245  1.0000</r>
       <r>  -1.9984  1.0000</r>
       <r>  -1.9931  1.0000</r>
       <r>  -1.5665  1.0000</r>
       <r>  -1.5665  1.0000</r>
       <r>  -1.4756  1.0000</r>
       <r>  -1.4555  1.0000</r>
       <r>  -1.3398  1.0000</r>
       <r>  -1.3213  1.0000</r>
       <r>  -1.2666  1.0000</r>
       <r>  -1.2666  1.0000</r>
       <r>  -0.7834  1.0000</r>
       <r>  -0.7834  1.0000</r>
       <r>  -0.7808  1.0000</r>
       <r>   2.1689  0.8751</r>
       <r>   3.7211  0.0000</r>
       <r>   3.7211  0.0000</r>
       <r>   8.1251  0.0000</r>
       <r>   8.1251  0.0000</r>
       <r>   9.5522  0.0000</r>
       <r>  10.2332  0.0000</r>
      </set>
      <set comment="kpoint 52">
       <r>  -3.2744  1.0000</r>
       <r>  -2.9807  1.0000</r>
       <r>  -2.9230  1.0000</r>
       <r>  -2.9230  1.0000</r>
       <r>  -2.6868  1.0000</r>
       <r>  -2.6221  1.0000</r>
       <r>  -2.6221  1.0000</r>
       <r>  -2.2653  1.0000</r>
       <r>  -1.9683  1.0000</r>
       <r>  -1.9361  1.0000</r>
       <r>  -1.8293  1.0000</r>
       <r>  -1.8293  1.0000</r>
       <r>  -1.6629  1.0000</r>
       <r>  -1.4654  1.0000</r>
       <r>  -1.3560  1.0000</r>
       <r>  -1.3497  1.0000</r>
       <r>  -1.3497  1.0000</r>
       <r>  -1.2343  1.0000</r>
       <r>  -0.8326  1.0000</r>
       <r>  -0.8174  1.0000</r>
       <r>  -0.8174  1.0000</r>
       <r>   1.1482  1.0000</r>
       <r>   4.2704  0.0000</r>
       <r>   4.2704  0.0000</r>
       <r>   7.2204  0.0000</r>
       <r>   7.2204  0.0000</r>
       <r>  10.1133  0.0000</r>
       <r>  10.5000  0.0000</r>
      </set>
      <set comment="kpoint 53">
       <r>  -3.0400  1.0000</r>
       <r>  -2.9232  1.0000</r>
       <r>  -2.7672  1.0000</r>
       <r>  -2.7672  1.0000</r>
       <r>  -2.5327  1.0000</r>
       <r>  -2.5327  1.0000</r>
       <r>  -2.5309  1.0000</r>
       <r>  -2.3118  1.0000</r>
       <r>  -2.0286  1.0000</r>
       <r>  -2.0286  1.0000</r>
       <r>  -2.0139  1.0000</r>
       <r>  -1.8553  1.0000</r>
       <r>  -1.8488  1.0000</r>
       <r>  -1.6076  1.0000</r>
       <r>  -1.4388  1.0000</r>
       <r>  -1.4388  1.0000</r>
       <r>  -1.1211  1.0000</r>
       <r>  -1.0262  1.0000</r>
       <r>  -0.9112  1.0000</r>
       <r>  -0.8423  1.0000</r>
       <r>  -0.8423  1.0000</r>
       <r>   0.2547  1.0000</r>
       <r>   4.8900  0.0000</r>
       <r>   4.8900  0.0000</r>
       <r>   6.3919  0.0000</r>
       <r>   6.3919  0.0000</r>
       <r>  10.7660  0.0000</r>
       <r>  10.8486  0.0000</r>
      </set>
      <set comment="kpoint 54">
       <r>  -2.9224  1.0000</r>
       <r>  -2.9224  1.0000</r>
       <r>  -2.6231  1.0000</r>
       <r>  -2.6231  1.0000</r>
       <r>  -2.5862  1.0000</r>
       <r>  -2.5862  1.0000</r>
       <r>  -2.3905  1.0000</r>
       <r>  -2.3905  1.0000</r>
       <r>  -2.0906  1.0000</r>
       <r>  -2.0906  1.0000</r>
       <r>  -1.9983  1.0000</r>
       <r>  -1.9983  1.0000</r>
       <r>  -1.7378  1.0000</r>
       <r>  -1.7378  1.0000</r>
       <r>  -1.4822  1.0000</r>
       <r>  -1.4822  1.0000</r>
       <r>  -1.0102  1.0000</r>
       <r>  -1.0102  1.0000</r>
       <r>  -0.8510  1.0000</r>
       <r>  -0.8510  1.0000</r>
       <r>  -0.4798  1.0000</r>
       <r>  -0.4798  1.0000</r>
       <r>   5.4346  0.0000</r>
       <r>   5.4346  0.0000</r>
       <r>   5.7788  0.0000</r>
       <r>   5.7788  0.0000</r>
       <r>  11.0914  0.0000</r>
       <r>  11.0914  0.0000</r>
      </set>
      <set comment="kpoint 55">
       <r>  -3.3768  1.0000</r>
       <r>  -3.0024  1.0000</r>
       <r>  -2.9930  1.0000</r>
       <r>  -2.9930  1.0000</r>
       <r>  -2.6733  1.0000</r>
       <r>  -2.6733  1.0000</r>
       <r>  -2.6307  1.0000</r>
       <r>  -2.1368  1.0000</r>
       <r>  -1.9958  1.0000</r>
       <r>  -1.9702  1.0000</r>
       <r>  -1.7010  1.0000</r>
       <r>  -1.7010  1.0000</r>
       <r>  -1.6752  1.0000</r>
       <r>  -1.4433  1.0000</r>
       <r>  -1.4045  1.0000</r>
       <r>  -1.3893  1.0000</r>
       <r>  -1.3893  1.0000</r>
       <r>  -1.2614  1.0000</r>
       <r>  -0.8083  1.0000</r>
       <r>  -0.7949  1.0000</r>
       <r>  -0.7949  1.0000</r>
       <r>   2.5912  0.0000</r>
       <r>   2.5912  0.0000</r>
       <r>   4.1231  0.0000</r>
       <r>   7.0826  0.0000</r>
       <r>   8.5381  0.0000</r>
       <r>   8.5381  0.0000</r>
       <r>  10.4399  0.0000</r>
      </set>
      <set comment="kpoint 56">
       <r>  -3.1958  1.0000</r>
       <r>  -2.9462  1.0000</r>
       <r>  -2.9193  1.0000</r>
       <r>  -2.8918  1.0000</r>
       <r>  -2.5357  1.0000</r>
       <r>  -2.5316  1.0000</r>
       <r>  -2.5025  1.0000</r>
       <r>  -2.1201  1.0000</r>
       <r>  -1.9654  1.0000</r>
       <r>  -1.9335  1.0000</r>
       <r>  -1.9137  1.0000</r>
       <r>  -1.8467  1.0000</r>
       <r>  -1.8333  1.0000</r>
       <r>  -1.5295  1.0000</r>
       <r>  -1.4926  1.0000</r>
       <r>  -1.4488  1.0000</r>
       <r>  -1.3706  1.0000</r>
       <r>  -1.0786  1.0000</r>
       <r>  -0.8504  1.0000</r>
       <r>  -0.8381  1.0000</r>
       <r>  -0.8372  1.0000</r>
       <r>   1.5470  1.0000</r>
       <r>   3.1135  0.0000</r>
       <r>   4.6132  0.0000</r>
       <r>   6.1455  0.0000</r>
       <r>   7.6043  0.0000</r>
       <r>   9.0676  0.0000</r>
       <r>  10.7561  0.0000</r>
      </set>
      <set comment="kpoint 57">
       <r>  -3.0426  1.0000</r>
       <r>  -2.9233  1.0000</r>
       <r>  -2.8028  1.0000</r>
       <r>  -2.7642  1.0000</r>
       <r>  -2.5020  1.0000</r>
       <r>  -2.4691  1.0000</r>
       <r>  -2.3634  1.0000</r>
       <r>  -2.1167  1.0000</r>
       <r>  -2.0291  1.0000</r>
       <r>  -2.0022  1.0000</r>
       <r>  -1.9793  1.0000</r>
       <r>  -1.9340  1.0000</r>
       <r>  -1.8891  1.0000</r>
       <r>  -1.6689  1.0000</r>
       <r>  -1.5606  1.0000</r>
       <r>  -1.5231  1.0000</r>
       <r>  -1.1832  1.0000</r>
       <r>  -0.9141  1.0000</r>
       <r>  -0.8870  1.0000</r>
       <r>  -0.8804  1.0000</r>
       <r>  -0.7343  1.0000</r>
       <r>   0.6237  1.0000</r>
       <r>   3.7148  0.0000</r>
       <r>   4.9465  0.0000</r>
       <r>   5.5486  0.0000</r>
       <r>   6.7629  0.0000</r>
       <r>   9.7027  0.0000</r>
       <r>  11.1797  0.0000</r>
      </set>
      <set comment="kpoint 58">
       <r>  -2.9492  1.0000</r>
       <r>  -2.9492  1.0000</r>
       <r>  -2.6952  1.0000</r>
       <r>  -2.6952  1.0000</r>
       <r>  -2.5365  1.0000</r>
       <r>  -2.5365  1.0000</r>
       <r>  -2.1875  1.0000</r>
       <r>  -2.1875  1.0000</r>
       <r>  -2.0734  1.0000</r>
       <r>  -2.0734  1.0000</r>
       <r>  -1.9693  1.0000</r>
       <r>  -1.9693  1.0000</r>
       <r>  -1.7923  1.0000</r>
       <r>  -1.7923  1.0000</r>
       <r>  -1.5794  1.0000</r>
       <r>  -1.5794  1.0000</r>
       <r>  -1.0269  1.0000</r>
       <r>  -1.0269  1.0000</r>
       <r>  -0.8993  1.0000</r>
       <r>  -0.8993  1.0000</r>
       <r>  -0.1507  1.0000</r>
       <r>  -0.1507  1.0000</r>
       <r>   4.3797  0.0000</r>
       <r>   4.3797  0.0000</r>
       <r>   6.0237  0.0000</r>
       <r>   6.0237  0.0000</r>
       <r>  10.4306  0.0000</r>
       <r>  10.4306  0.0000</r>
      </set>
      <set comment="kpoint 59">
       <r>  -3.1093  1.0000</r>
       <r>  -2.8856  1.0000</r>
       <r>  -2.8808  1.0000</r>
       <r>  -2.8808  1.0000</r>
       <r>  -2.4153  1.0000</r>
       <r>  -2.4148  1.0000</r>
       <r>  -2.4148  1.0000</r>
       <r>  -2.0983  1.0000</r>
       <r>  -1.9813  1.0000</r>
       <r>  -1.9813  1.0000</r>
       <r>  -1.9682  1.0000</r>
       <r>  -1.8418  1.0000</r>
       <r>  -1.7897  1.0000</r>
       <r>  -1.6092  1.0000</r>
       <r>  -1.5702  1.0000</r>
       <r>  -1.5702  1.0000</r>
       <r>  -1.4029  1.0000</r>
       <r>  -0.9025  1.0000</r>
       <r>  -0.8865  1.0000</r>
       <r>  -0.8865  1.0000</r>
       <r>  -0.7788  1.0000</r>
       <r>   2.0496  1.0000</r>
       <r>   2.0496  1.0000</r>
       <r>   4.7709  0.0000</r>
       <r>   5.4731  0.0000</r>
       <r>   8.1138  0.0000</r>
       <r>   8.1138  0.0000</r>
       <r>  11.1076  0.0000</r>
      </set>
      <set comment="kpoint 60">
       <r>  -3.0249  1.0000</r>
       <r>  -2.9009  1.0000</r>
       <r>  -2.8303  1.0000</r>
       <r>  -2.8090  1.0000</r>
       <r>  -2.4192  1.0000</r>
       <r>  -2.4066  1.0000</r>
       <r>  -2.2831  1.0000</r>
       <r>  -2.1286  1.0000</r>
       <r>  -2.0042  1.0000</r>
       <r>  -1.9539  1.0000</r>
       <r>  -1.9484  1.0000</r>
       <r>  -1.8298  1.0000</r>
       <r>  -1.7784  1.0000</r>
       <r>  -1.6911  1.0000</r>
       <r>  -1.6819  1.0000</r>
       <r>  -1.6211  1.0000</r>
       <r>  -1.2773  1.0000</r>
       <r>  -0.9732  1.0000</r>
       <r>  -0.9532  1.0000</r>
       <r>  -0.9439  1.0000</r>
       <r>  -0.3286  1.0000</r>
       <r>   1.1061  1.0000</r>
       <r>   2.6420  0.0000</r>
       <r>   4.0827  0.0000</r>
       <r>   5.8522  0.0000</r>
       <r>   7.2577  0.0000</r>
       <r>   8.7332  0.0000</r>
       <r>  10.2580  0.0000</r>
      </set>
      <set comment="kpoint 61">
       <r>  -2.9518  1.0000</r>
       <r>  -2.9518  1.0000</r>
       <r>  -2.7856  1.0000</r>
       <r>  -2.7856  1.0000</r>
       <r>  -2.4393  1.0000</r>
       <r>  -2.4393  1.0000</r>
       <r>  -2.1835  1.0000</r>
       <r>  -2.1835  1.0000</r>
       <r>  -1.9671  1.0000</r>
       <r>  -1.9671  1.0000</r>
       <r>  -1.8575  1.0000</r>
       <r>  -1.8575  1.0000</r>
       <r>  -1.7812  1.0000</r>
       <r>  -1.7812  1.0000</r>
       <r>  -1.6799  1.0000</r>
       <r>  -1.6799  1.0000</r>
       <r>  -1.1052  1.0000</r>
       <r>  -1.1052  1.0000</r>
       <r>  -0.9723  1.0000</r>
       <r>  -0.9723  1.0000</r>
       <r>   0.3048  1.0000</r>
[...]
       <r>   1.5626  1.0000</r>
       <r>   1.5626  1.0000</r>
       <r>   1.5626  1.0000</r>
       <r>   7.7794  0.0000</r>
       <r>   7.7794  0.0000</r>
       <r>   7.7794  0.0000</r>
       <r>   7.7794  0.0000</r>
      </set>
      <set comment="kpoint 65">
       <r>  -3.2985  1.0000</r>
       <r>  -2.9777  1.0000</r>
       <r>  -2.9777  1.0000</r>
       <r>  -2.9777  1.0000</r>
       <r>  -2.5372  1.0000</r>
       <r>  -2.5372  1.0000</r>
       <r>  -2.5372  1.0000</r>
       <r>  -2.0178  1.0000</r>
       <r>  -2.0178  1.0000</r>
       <r>  -1.8535  1.0000</r>
       <r>  -1.7582  1.0000</r>
       <r>  -1.7582  1.0000</r>
       <r>  -1.7582  1.0000</r>
       <r>  -1.5430  1.0000</r>
       <r>  -1.5430  1.0000</r>
       <r>  -1.5430  1.0000</r>
       <r>  -1.3127  1.0000</r>
       <r>  -1.3127  1.0000</r>
       <r>  -0.7860  1.0000</r>
       <r>  -0.7860  1.0000</r>
       <r>  -0.7860  1.0000</r>
       <r>   2.9582  0.0000</r>
       <r>   2.9582  0.0000</r>
       <r>   2.9582  0.0000</r>
       <r>   7.4711  0.0000</r>
       <r>   7.4711  0.0000</r>
       <r>   7.4711  0.0000</r>
       <r>  12.0334  0.0000</r>
      </set>
      <set comment="kpoint 66">
       <r>  -3.2091  1.0000</r>
       <r>  -2.9695  1.0000</r>
       <r>  -2.9291  1.0000</r>
       <r>  -2.9291  1.0000</r>
       <r>  -2.4442  1.0000</r>
       <r>  -2.4442  1.0000</r>
       <r>  -2.4109  1.0000</r>
       <r>  -2.0474  1.0000</r>
       <r>  -2.0120  1.0000</r>
       <r>  -1.8371  1.0000</r>
       <r>  -1.8371  1.0000</r>
       <r>  -1.8358  1.0000</r>
       <r>  -1.6882  1.0000</r>
       <r>  -1.6806  1.0000</r>
       <r>  -1.6170  1.0000</r>
       <r>  -1.6170  1.0000</r>
       <r>  -1.1757  1.0000</r>
       <r>  -1.1626  1.0000</r>
       <r>  -0.8171  1.0000</r>
       <r>  -0.8171  1.0000</r>
       <r>  -0.7988  1.0000</r>
       <r>   1.8781  1.0000</r>
       <r>   3.4207  0.0000</r>
       <r>   3.4207  0.0000</r>
       <r>   6.5186  0.0000</r>
       <r>   6.5186  0.0000</r>
       <r>   7.9868  0.0000</r>
       <r>  11.0496  0.0000</r>
      </set>
      <set comment="kpoint 67">
       <r>  -3.1195  1.0000</r>
       <r>  -2.9900  1.0000</r>
       <r>  -2.8640  1.0000</r>
       <r>  -2.8640  1.0000</r>
       <r>  -2.4454  1.0000</r>
       <r>  -2.4454  1.0000</r>
       <r>  -2.2722  1.0000</r>
       <r>  -2.0903  1.0000</r>
       <r>  -1.9739  1.0000</r>
       <r>  -1.8768  1.0000</r>
       <r>  -1.8333  1.0000</r>
       <r>  -1.8333  1.0000</r>
       <r>  -1.8037  1.0000</r>
       <r>  -1.7551  1.0000</r>
       <r>  -1.6690  1.0000</r>
       <r>  -1.6690  1.0000</r>
       <r>  -1.0458  1.0000</r>
       <r>  -0.8594  1.0000</r>
       <r>  -0.8594  1.0000</r>
       <r>  -0.8492  1.0000</r>
       <r>  -0.6470  1.0000</r>
       <r>   0.9072  1.0000</r>
       <r>   3.9311  0.0000</r>
       <r>   3.9311  0.0000</r>
       <r>   5.7182  0.0000</r>
       <r>   5.7182  0.0000</r>
       <r>   8.6131  0.0000</r>
       <r>  10.1505  0.0000</r>
      </set>
      <set comment="kpoint 68">
       <r>  -3.0423  1.0000</r>
       <r>  -3.0423  1.0000</r>
       <r>  -2.8277  1.0000</r>
       <r>  -2.8277  1.0000</r>
       <r>  -2.4733  1.0000</r>
       <r>  -2.4733  1.0000</r>
       <r>  -2.1578  1.0000</r>
       <r>  -2.1578  1.0000</r>
       <r>  -1.9035  1.0000</r>
       <r>  -1.9035  1.0000</r>
       <r>  -1.8489  1.0000</r>
       <r>  -1.8489  1.0000</r>
       <r>  -1.7878  1.0000</r>
       <r>  -1.7878  1.0000</r>
       <r>  -1.7122  1.0000</r>
       <r>  -1.7122  1.0000</r>
       <r>  -0.9339  1.0000</r>
       <r>  -0.9339  1.0000</r>
       <r>  -0.8791  1.0000</r>
       <r>  -0.8791  1.0000</r>
       <r>   0.0601  1.0000</r>
       <r>   0.0601  1.0000</r>
       <r>   4.2576  0.0000</r>
       <r>   4.2576  0.0000</r>
       <r>   5.2956  0.0000</r>
       <r>   5.2956  0.0000</r>
       <r>   9.3370  0.0000</r>
       <r>   9.3370  0.0000</r>
      </set>
      <set comment="kpoint 69">
       <r>  -3.1946  1.0000</r>
       <r>  -2.9675  1.0000</r>
       <r>  -2.9675  1.0000</r>
       <r>  -2.9440  1.0000</r>
       <r>  -2.3929  1.0000</r>
       <r>  -2.3594  1.0000</r>
       <r>  -2.3594  1.0000</r>
       <r>  -2.0633  1.0000</r>
       <r>  -2.0428  1.0000</r>
       <r>  -1.8348  1.0000</r>
       <r>  -1.8348  1.0000</r>
       <r>  -1.7464  1.0000</r>
       <r>  -1.7376  1.0000</r>
       <r>  -1.7151  1.0000</r>
       <r>  -1.7151  1.0000</r>
       <r>  -1.3923  1.0000</r>
       <r>  -1.2443  1.0000</r>
       <r>  -0.8452  1.0000</r>
       <r>  -0.8374  1.0000</r>
       <r>  -0.8184  1.0000</r>
       <r>  -0.8184  1.0000</r>
       <r>   2.3176  0.0000</r>
       <r>   2.3176  0.0000</r>
       <r>   3.7649  0.0000</r>
       <r>   5.6195  0.0000</r>
       <r>   7.0190  0.0000</r>
       <r>   7.0190  0.0000</r>
       <r>  10.0565  0.0000</r>
      </set>
      <set comment="kpoint 70">
       <r>  -3.1543  1.0000</r>
       <r>  -3.0279  1.0000</r>
       <r>  -2.9535  1.0000</r>
       <r>  -2.9441  1.0000</r>
       <r>  -2.3861  1.0000</r>
       <r>  -2.3741  1.0000</r>
       <r>  -2.2655  1.0000</r>
       <r>  -2.1121  1.0000</r>
       <r>  -2.0269  1.0000</r>
       <r>  -1.8959  1.0000</r>
       <r>  -1.8437  1.0000</r>
       <r>  -1.8170  1.0000</r>
       <r>  -1.6929  1.0000</r>
       <r>  -1.6522  1.0000</r>
       <r>  -1.6451  1.0000</r>
       <r>  -1.4600  1.0000</r>
       <r>  -1.0858  1.0000</r>
       <r>  -0.8772  1.0000</r>
       <r>  -0.8656  1.0000</r>
       <r>  -0.8616  1.0000</r>
       <r>  -0.2912  1.0000</r>
       <r>   1.3225  1.0000</r>
       <r>   2.8472  0.0000</r>
       <r>   3.8702  0.0000</r>
       <r>   5.1782  0.0000</r>
       <r>   6.1781  0.0000</r>
       <r>   7.6315  0.0000</r>
       <r>   9.1548  0.0000</r>
      </set>
      <set comment="kpoint 71">
       <r>  -3.0950  1.0000</r>
       <r>  -3.0950  1.0000</r>
       <r>  -2.9437  1.0000</r>
       <r>  -2.9437  1.0000</r>
       <r>  -2.3906  1.0000</r>
       <r>  -2.3906  1.0000</r>
       <r>  -2.1806  1.0000</r>
       <r>  -2.1806  1.0000</r>
       <r>  -1.9744  1.0000</r>
       <r>  -1.9744  1.0000</r>
       <r>  -1.8417  1.0000</r>
       <r>  -1.8417  1.0000</r>
       <r>  -1.6086  1.0000</r>
       <r>  -1.6086  1.0000</r>
       <r>  -1.5894  1.0000</r>
       <r>  -1.5894  1.0000</r>
       <r>  -0.9494  1.0000</r>
       <r>  -0.9494  1.0000</r>
       <r>  -0.8951  1.0000</r>
       <r>  -0.8951  1.0000</r>
       <r>   0.4471  1.0000</r>
       <r>   0.4471  1.0000</r>
       <r>   3.4284  0.0000</r>
       <r>   3.4284  0.0000</r>
       <r>   5.5007  0.0000</r>
       <r>   5.5007  0.0000</r>
       <r>   8.3455  0.0000</r>
       <r>   8.3455  0.0000</r>
      </set>
      <set comment="kpoint 72">
       <r>  -3.1495  1.0000</r>
       <r>  -3.0411  1.0000</r>
       <r>  -3.0411  1.0000</r>
       <r>  -3.0001  1.0000</r>
       <r>  -2.3387  1.0000</r>
       <r>  -2.2871  1.0000</r>
       <r>  -2.2871  1.0000</r>
       <r>  -2.1428  1.0000</r>
       <r>  -2.0476  1.0000</r>
       <r>  -1.9384  1.0000</r>
       <r>  -1.9384  1.0000</r>
       <r>  -1.9059  1.0000</r>
       <r>  -1.5231  1.0000</r>
       <r>  -1.5231  1.0000</r>
       <r>  -1.5031  1.0000</r>
       <r>  -1.2823  1.0000</r>
       <r>  -1.1443  1.0000</r>
       <r>  -0.9237  1.0000</r>
       <r>  -0.9172  1.0000</r>
       <r>  -0.9172  1.0000</r>
       <r>   0.2706  1.0000</r>
       <r>   1.8611  1.0000</r>
       <r>   1.8611  1.0000</r>
       <r>   3.2412  0.0000</r>
       <r>   5.4347  0.0000</r>
       <r>   6.7650  0.0000</r>
       <r>   6.7650  0.0000</r>
       <r>   8.2576  0.0000</r>
      </set>
      <set comment="kpoint 73">
       <r>  -3.1096  1.0000</r>
       <r>  -3.1096  1.0000</r>
       <r>  -3.0319  1.0000</r>
       <r>  -3.0319  1.0000</r>
       <r>  -2.3091  1.0000</r>
       <r>  -2.3091  1.0000</r>
       <r>  -2.2051  1.0000</r>
       <r>  -2.2051  1.0000</r>
       <r>  -2.0133  1.0000</r>
       <r>  -2.0133  1.0000</r>
       <r>  -1.9452  1.0000</r>
       <r>  -1.9452  1.0000</r>
       <r>  -1.4431  1.0000</r>
       <r>  -1.4431  1.0000</r>
       <r>  -1.3810  1.0000</r>
       <r>  -1.3810  1.0000</r>
       <r>  -1.0198  1.0000</r>
       <r>  -1.0198  1.0000</r>
       <r>  -0.9534  1.0000</r>
       <r>  -0.9534  1.0000</r>
       <r>   0.9961  1.0000</r>
       <r>   0.9961  1.0000</r>
       <r>   2.5117  0.0000</r>
       <r>   2.5117  0.0000</r>
       <r>   6.0223  0.0000</r>
       <r>   6.0223  0.0000</r>
       <r>   7.4603  0.0000</r>
       <r>   7.4603  0.0000</r>
      </set>
      <set comment="kpoint 74">
       <r>  -3.0880  1.0000</r>
       <r>  -3.0880  1.0000</r>
       <r>  -3.0880  1.0000</r>
       <r>  -3.0880  1.0000</r>
       <r>  -2.2440  1.0000</r>
       <r>  -2.2440  1.0000</r>
       <r>  -2.2440  1.0000</r>
       <r>  -2.2440  1.0000</r>
       <r>  -2.0066  1.0000</r>
       <r>  -2.0066  1.0000</r>
       <r>  -2.0066  1.0000</r>
       <r>  -2.0066  1.0000</r>
       <r>  -1.3264  1.0000</r>
       <r>  -1.3264  1.0000</r>
       <r>  -1.3264  1.0000</r>
       <r>  -1.3264  1.0000</r>
       <r>  -1.0312  1.0000</r>
       <r>  -1.0312  1.0000</r>
       <r>  -1.0312  1.0000</r>
       <r>  -1.0312  1.0000</r>
       <r>   1.6898  1.0000</r>
       <r>   1.6898  1.0000</r>
       <r>   1.6898  1.0000</r>
       <r>   1.6898  1.0000</r>
       <r>   6.6839  0.0000</r>
       <r>   6.6839  0.0000</r>
       <r>   6.6839  0.0000</r>
       <r>   6.6839  0.0000</r>
      </set>
      <set comment="kpoint 75">
       <r>  -3.2342  1.0000</r>
       <r>  -3.0288  1.0000</r>
       <r>  -3.0288  1.0000</r>
       <r>  -3.0288  1.0000</r>
       <r>  -2.3327  1.0000</r>
       <r>  -2.3327  1.0000</r>
       <r>  -2.3327  1.0000</r>
       <r>  -2.0823  1.0000</r>
       <r>  -2.0823  1.0000</r>
       <r>  -1.8729  1.0000</r>
       <r>  -1.8729  1.0000</r>
       <r>  -1.8729  1.0000</r>
       <r>  -1.6146  1.0000</r>
       <r>  -1.6146  1.0000</r>
       <r>  -1.6146  1.0000</r>
       <r>  -1.0965  1.0000</r>
       <r>  -1.0965  1.0000</r>
       <r>  -0.8075  1.0000</r>
       <r>  -0.8075  1.0000</r>
       <r>  -0.8075  1.0000</r>
       <r>  -0.6879  1.0000</r>
       <r>   2.6676  0.0000</r>
       <r>   2.6676  0.0000</r>
       <r>   2.6676  0.0000</r>
       <r>   6.0727  0.0000</r>
       <r>   6.0727  0.0000</r>
       <r>   6.0727  0.0000</r>
       <r>   9.0568  0.0000</r>
      </set>
      <set comment="kpoint 76">
       <r>  -3.2301  1.0000</r>
       <r>  -3.1165  1.0000</r>
       <r>  -3.0647  1.0000</r>
       <r>  -3.0647  1.0000</r>
       <r>  -2.3260  1.0000</r>
       <r>  -2.3260  1.0000</r>
       <r>  -2.2567  1.0000</r>
       <r>  -2.1240  1.0000</r>
       <r>  -2.0841  1.0000</r>
       <r>  -1.9760  1.0000</r>
       <r>  -1.9383  1.0000</r>
       <r>  -1.9383  1.0000</r>
       <r>  -1.4761  1.0000</r>
       <r>  -1.4626  1.0000</r>
       <r>  -1.4626  1.0000</r>
       <r>  -1.1856  1.0000</r>
       <r>  -0.9704  1.0000</r>
       <r>  -0.8361  1.0000</r>
       <r>  -0.8361  1.0000</r>
       <r>  -0.8201  1.0000</r>
       <r>  -0.0494  1.0000</r>
       <r>   1.6539  1.0000</r>
       <r>   3.0380  0.0000</r>
       <r>   3.0380  0.0000</r>
       <r>   5.3417  0.0000</r>
       <r>   5.3417  0.0000</r>
       <r>   6.6586  0.0000</r>
       <r>   8.1559  0.0000</r>
      </set>
      <set comment="kpoint 77">
       <r>  -3.1879  1.0000</r>
       <r>  -3.1879  1.0000</r>
       <r>  -3.0764  1.0000</r>
       <r>  -3.0764  1.0000</r>
       <r>  -2.3263  1.0000</r>
       <r>  -2.3263  1.0000</r>
       <r>  -2.1836  1.0000</r>
       <r>  -2.1836  1.0000</r>
       <r>  -2.0480  1.0000</r>
       <r>  -2.0480  1.0000</r>
       <r>  -1.9591  1.0000</r>
       <r>  -1.9591  1.0000</r>
       <r>  -1.3969  1.0000</r>
       <r>  -1.3969  1.0000</r>
       <r>  -1.3285  1.0000</r>
       <r>  -1.3285  1.0000</r>
       <r>  -0.8758  1.0000</r>
       <r>  -0.8758  1.0000</r>
       <r>  -0.8581  1.0000</r>
       <r>  -0.8581  1.0000</r>
       <r>   0.7447  1.0000</r>
       <r>   0.7447  1.0000</r>
       <r>   3.2326  0.0000</r>
       <r>   3.2326  0.0000</r>
       <r>   5.0264  0.0000</r>
       <r>   5.0264  0.0000</r>
       <r>   7.3555  0.0000</r>
       <r>   7.3555  0.0000</r>
      </set>
      <set comment="kpoint 78">
       <r>  -3.2543  1.0000</r>
       <r>  -3.1649  1.0000</r>
       <r>  -3.1649  1.0000</r>
       <r>  -3.1383  1.0000</r>
       <r>  -2.2857  1.0000</r>
       <r>  -2.2550  1.0000</r>
       <r>  -2.2550  1.0000</r>
       <r>  -2.1388  1.0000</r>
       <r>  -2.1190  1.0000</r>
       <r>  -2.0338  1.0000</r>
       <r>  -2.0338  1.0000</r>
       <r>  -2.0179  1.0000</r>
       <r>  -1.2869  1.0000</r>
       <r>  -1.2869  1.0000</r>
       <r>  -1.2856  1.0000</r>
       <r>  -1.0076  1.0000</r>
       <r>  -1.0039  1.0000</r>
       <r>  -0.8516  1.0000</r>
       <r>  -0.8404  1.0000</r>
       <r>  -0.8404  1.0000</r>
       <r>   0.4893  1.0000</r>
       <r>   2.0956  1.0000</r>
       <r>   2.0956  1.0000</r>
       <r>   2.9948  0.0000</r>
       <r>   4.9801  0.0000</r>
       <r>   5.8382  0.0000</r>
       <r>   5.8382  0.0000</r>
       <r>   7.2663  0.0000</r>
      </set>
      <set comment="kpoint 79">
       <r>  -3.2308  1.0000</r>
       <r>  -3.2308  1.0000</r>
       <r>  -3.1721  1.0000</r>
       <r>  -3.1721  1.0000</r>
       <r>  -2.2623  1.0000</r>
       <r>  -2.2623  1.0000</r>
       <r>  -2.1891  1.0000</r>
       <r>  -2.1891  1.0000</r>
       <r>  -2.0961  1.0000</r>
       <r>  -2.0961  1.0000</r>
       <r>  -2.0503  1.0000</r>
       <r>  -2.0503  1.0000</r>
       <r>  -1.2043  1.0000</r>
       <r>  -1.2043  1.0000</r>
       <r>  -1.1275  1.0000</r>
       <r>  -1.1275  1.0000</r>
       <r>  -0.8955  1.0000</r>
       <r>  -0.8955  1.0000</r>
       <r>  -0.8708  1.0000</r>
       <r>  -0.8708  1.0000</r>
       <r>   1.2281  1.0000</r>
       <r>   1.2281  1.0000</r>
       <r>   2.5981  0.0000</r>
       <r>   2.5981  0.0000</r>
       <r>   5.2248  0.0000</r>
       <r>   5.2248  0.0000</r>
       <r>   6.4906  0.0000</r>
       <r>   6.4906  0.0000</r>
      </set>
      <set comment="kpoint 80">
       <r>  -3.2248  1.0000</r>
       <r>  -3.2248  1.0000</r>
       <r>  -3.2248  1.0000</r>
       <r>  -3.2248  1.0000</r>
       <r>  -2.2114  1.0000</r>
       <r>  -2.2114  1.0000</r>
       <r>  -2.2114  1.0000</r>
       <r>  -2.2114  1.0000</r>
       <r>  -2.1008  1.0000</r>
       <r>  -2.1008  1.0000</r>
       <r>  -2.1008  1.0000</r>
       <r>  -2.1008  1.0000</r>
       <r>  -1.0672  1.0000</r>
       <r>  -1.0672  1.0000</r>
       <r>  -1.0672  1.0000</r>
       <r>  -1.0672  1.0000</r>
       <r>  -0.9219  1.0000</r>
       <r>  -0.9219  1.0000</r>
       <r>  -0.9219  1.0000</r>
       <r>  -0.9219  1.0000</r>
       <r>   1.8692  1.0000</r>
       <r>   1.8692  1.0000</r>
       <r>   1.8692  1.0000</r>
       <r>   1.8692  1.0000</r>
       <r>   5.7663  0.0000</r>
       <r>   5.7663  0.0000</r>
       <r>   5.7663  0.0000</r>
       <r>   5.7663  0.0000</r>
      </set>
      <set comment="kpoint 81">
       <r>  -3.3031  1.0000</r>
       <r>  -3.2407  1.0000</r>
       <r>  -3.2407  1.0000</r>
       <r>  -3.2407  1.0000</r>
       <r>  -2.2299  1.0000</r>
       <r>  -2.2299  1.0000</r>
       <r>  -2.2299  1.0000</r>
       <r>  -2.1523  1.0000</r>
       <r>  -2.1523  1.0000</r>
       <r>  -2.0999  1.0000</r>
       <r>  -2.0999  1.0000</r>
       <r>  -2.0999  1.0000</r>
       <r>  -1.0961  1.0000</r>
       <r>  -1.0961  1.0000</r>
       <r>  -1.0961  1.0000</r>
       <r>  -0.9032  1.0000</r>
       <r>  -0.9032  1.0000</r>
       <r>  -0.8221  1.0000</r>
       <r>  -0.8221  1.0000</r>
       <r>  -0.8221  1.0000</r>
       <r>   0.9441  1.0000</r>
       <r>   2.3430  0.0000</r>
       <r>   2.3430  0.0000</r>
       <r>   2.3430  0.0000</r>
       <r>   5.1619  0.0000</r>
       <r>   5.1619  0.0000</r>
       <r>   5.1619  0.0000</r>
       <r>   6.4036  0.0000</r>
      </set>
      <set comment="kpoint 82">
       <r>  -3.2975  1.0000</r>
       <r>  -3.2975  1.0000</r>
       <r>  -3.2662  1.0000</r>
       <r>  -3.2662  1.0000</r>
       <r>  -2.2193  1.0000</r>
       <r>  -2.2193  1.0000</r>
       <r>  -2.1833  1.0000</r>
       <r>  -2.1833  1.0000</r>
       <r>  -2.1457  1.0000</r>
       <r>  -2.1457  1.0000</r>
       <r>  -2.1241  1.0000</r>
       <r>  -2.1241  1.0000</r>
       <r>  -1.0095  1.0000</r>
       <r>  -1.0095  1.0000</r>
       <r>  -0.9557  1.0000</r>
       <r>  -0.9557  1.0000</r>
       <r>  -0.8396  1.0000</r>
       <r>  -0.8396  1.0000</r>
       <r>  -0.8358  1.0000</r>
       <r>  -0.8358  1.0000</r>
       <r>   1.5971  1.0000</r>
       <r>   1.5971  1.0000</r>
       <r>   2.4638  0.0000</r>
       <r>   2.4638  0.0000</r>
       <r>   4.8958  0.0000</r>
       <r>   4.8958  0.0000</r>
       <r>   5.6872  0.0000</r>
       <r>   5.6872  0.0000</r>
      </set>
      <set comment="kpoint 83">
       <r>  -3.3089  1.0000</r>
       <r>  -3.3089  1.0000</r>
       <r>  -3.3089  1.0000</r>
       <r>  -3.3089  1.0000</r>
       <r>  -2.1885  1.0000</r>
       <r>  -2.1885  1.0000</r>
       <r>  -2.1885  1.0000</r>
       <r>  -2.1885  1.0000</r>
       <r>  -2.1600  1.0000</r>
       <r>  -2.1600  1.0000</r>
       <r>  -2.1600  1.0000</r>
       <r>  -2.1600  1.0000</r>
       <r>  -0.8902  1.0000</r>
       <r>  -0.8902  1.0000</r>
       <r>  -0.8902  1.0000</r>
       <r>  -0.8902  1.0000</r>
       <r>  -0.8516  1.0000</r>
       <r>  -0.8516  1.0000</r>
       <r>  -0.8516  1.0000</r>
       <r>  -0.8516  1.0000</r>
       <r>   2.0614  1.0000</r>
       <r>   2.0614  1.0000</r>
       <r>   2.0614  1.0000</r>
       <r>   2.0614  1.0000</r>
       <r>   5.1093  0.0000</r>
       <r>   5.1093  0.0000</r>
       <r>   5.1093  0.0000</r>
       <r>   5.1093  0.0000</r>
      </set>
      <set comment="kpoint 84">
       <r>  -3.3372  1.0000</r>
       <r>  -3.3372  1.0000</r>
       <r>  -3.3372  1.0000</r>
       <r>  -3.3372  1.0000</r>
       <r>  -2.1802  1.0000</r>
       <r>  -2.1802  1.0000</r>
       <r>  -2.1802  1.0000</r>
       <r>  -2.1802  1.0000</r>
       <r>  -2.1802  1.0000</r>
       <r>  -2.1802  1.0000</r>
       <r>  -2.1802  1.0000</r>
       <r>  -2.1802  1.0000</r>
       <r>  -0.8273  1.0000</r>
       <r>  -0.8273  1.0000</r>
       <r>  -0.8273  1.0000</r>
       <r>  -0.8273  1.0000</r>
       <r>  -0.8273  1.0000</r>
       <r>  -0.8273  1.0000</r>
       <r>  -0.8273  1.0000</r>
       <r>  -0.8273  1.0000</r>
       <r>   2.1545  0.9993</r>
       <r>   2.1545  0.9993</r>
       <r>   2.1545  0.9993</r>
       <r>   2.1545  0.9993</r>
       <r>   4.8573  0.0000</r>
       <r>   4.8573  0.0000</r>
       <r>   4.8573  0.0000</r>
       <r>   4.8573  0.0000</r>
      </set>
     </set>
    </set>
   </array>
  </eigenvalues>
 </calculation>
 <structure name="finalpos" >
  <crystal>
   <varray name="basis" >
    <v>       4.32975377      0.00000000      0.00000000</v>
    <v>       0.00000000      4.32975377      0.00000000</v>
    <v>       0.00000000      0.00000000      4.32975377</v>
   </varray>
   <i name="volume">     81.16888832</i>
   <varray name="rec_basis" >
    <v>       0.23096002      0.00000000      0.00000000</v>
    <v>       0.00000000      0.23096002      0.00000000</v>
    <v>       0.00000000      0.00000000      0.23096002</v>
   </varray>
  </crystal>
  <varray name="positions" >
   <v>       0.00000000      0.00000000      0.00000000</v>
   <v>       0.50000000      0.50000000      0.00000000</v>
   <v>       0.50000000      0.00000000      0.50000000</v>
   <v>       0.00000000      0.50000000      0.50000000</v>
  </varray>
 </structure>
</modeling>
