   4   4   0   0
  0.1817311E+02  0.4173461E-09  0.4173461E-09  0.4173461E-09  0.5000000E-15
  1.000000000000000E-004
  CAR 
 unknown system                          
     21.39454997     -5.46304025  301      4.95758515      1.00000000
     -5.463  0.0000E+00  0.0000E+00
     -5.374  0.0000E+00  0.0000E+00
     -5.284  0.0000E+00  0.0000E+00
     -5.194  0.0000E+00  0.0000E+00
     -5.105  0.0000E+00  0.0000E+00
     -5.015  0.0000E+00  0.0000E+00
     -4.926  0.0000E+00  0.0000E+00
     -4.836  0.0000E+00  0.0000E+00
     -4.747  0.0000E+00  0.0000E+00
     -4.657  0.0000E+00  0.0000E+00
     -4.568  0.0000E+00  0.0000E+00
     -4.478  0.0000E+00  0.0000E+00
     -4.389  0.0000E+00  0.0000E+00
     -4.299  0.1861E-18  0.1666E-19
     -4.210  0.1434E-01  0.1284E-02
     -4.120  0.9535E-01  0.1003E-01
     -4.031  0.1221E+00  0.2170E-01
     -3.941  0.1493E+00  0.3854E-01
     -3.852  0.1998E+00  0.5761E-01
     -3.762  0.2261E+00  0.7876E-01
     -3.673  0.2431E+00  0.1027E+00
     -3.583  0.2166E+00  0.1273E+00
     -3.493  0.3273E+00  0.1588E+00
     -3.404  0.2988E+00  0.1873E+00
     -3.314  0.3410E+00  0.2207E+00
     -3.225  0.3336E+00  0.2542E+00
     -3.135  0.3624E+00  0.2931E+00
     -3.046  0.4156E+00  0.3336E+00
     -2.956  0.3889E+00  0.3758E+00
     -2.867  0.4598E+00  0.4208E+00
     -2.777  0.4951E+00  0.4695E+00
     -2.688  0.4569E+00  0.5168E+00
     -2.598  0.5842E+00  0.5754E+00
     -2.509  0.5742E+00  0.6321E+00
     -2.419  0.6330E+00  0.6924E+00
     -2.330  0.7241E+00  0.7618E+00
     -2.240  0.7274E+00  0.8321E+00
     -2.151  0.7632E+00  0.9082E+00
     -2.061  0.9640E+00  0.1002E+01
     -1.972  0.9079E+00  0.1097E+01
     -1.882  0.1175E+01  0.1216E+01
     -1.793  0.1990E+01  0.1406E+01
     -1.703  0.2411E+01  0.1651E+01
     -1.613  0.2422E+01  0.1898E+01
     -1.524  0.2910E+01  0.2192E+01
     -1.434  0.3710E+01  0.2546E+01
     -1.345  0.4520E+01  0.3007E+01
     -1.255  0.5196E+01  0.3526E+01
     -1.166  0.6376E+01  0.4154E+01
     -1.076  0.7143E+01  0.4880E+01
     -0.987  0.7419E+01  0.5639E+01
     -0.897  0.6980E+01  0.6359E+01
     -0.808  0.6767E+01  0.7052E+01
     -0.718  0.6308E+01  0.7707E+01
     -0.629  0.6364E+01  0.8336E+01
     -0.539  0.6155E+01  0.8957E+01
     -0.450  0.5451E+01  0.9513E+01
     -0.360  0.4732E+01  0.9995E+01
     -0.271  0.4399E+01  0.1044E+02
     -0.181  0.5782E+01  0.1102E+02
     -0.092  0.6940E+01  0.1171E+02
     -0.002  0.7487E+01  0.1244E+02
      0.088  0.7969E+01  0.1323E+02
      0.177  0.8177E+01  0.1404E+02
      0.267  0.7372E+01  0.1480E+02
      0.356  0.8189E+01  0.1561E+02
      0.446  0.7794E+01  0.1639E+02
      0.535  0.8511E+01  0.1725E+02
      0.625  0.9495E+01  0.1820E+02
      0.714  0.1029E+02  0.1923E+02
      0.804  0.1314E+02  0.2051E+02
      0.893  0.1410E+02  0.2193E+02
      0.983  0.9326E+01  0.2289E+02
      1.072  0.7376E+01  0.2365E+02
      1.162  0.6608E+01  0.2431E+02
      1.251  0.7053E+01  0.2501E+02
      1.341  0.6358E+01  0.2565E+02
      1.430  0.6253E+01  0.2629E+02
      1.520  0.6726E+01  0.2696E+02
      1.609  0.8003E+01  0.2777E+02
      1.699  0.7837E+01  0.2857E+02
      1.789  0.8234E+01  0.2941E+02
      1.878  0.9077E+01  0.3032E+02
      1.968  0.7762E+01  0.3112E+02
      2.057  0.7119E+01  0.3185E+02
      2.147  0.6933E+01  0.3255E+02
      2.236  0.6581E+01  0.3322E+02
      2.326  0.6189E+01  0.3386E+02
      2.415  0.6664E+01  0.3453E+02
      2.505  0.6630E+01  0.3519E+02
      2.594  0.6651E+01  0.3587E+02
      2.684  0.7183E+01  0.3660E+02
      2.773  0.8285E+01  0.3742E+02
      2.863  0.1081E+02  0.3848E+02
      2.952  0.1244E+02  0.3971E+02
      3.042  0.9936E+01  0.4074E+02
      3.131  0.6351E+01  0.4140E+02
      3.221  0.4769E+01  0.4188E+02
      3.310  0.1631E+01  0.4208E+02
      3.400  0.1539E+01  0.4222E+02
      3.489  0.6100E+00  0.4228E+02
      3.579  0.1395E+01  0.4242E+02
      3.669  0.7910E+00  0.4250E+02
      3.758  0.1179E+01  0.4262E+02
      3.848  0.1017E+01  0.4271E+02
      3.937  0.1085E+01  0.4282E+02
      4.027  0.1031E+01  0.4292E+02
      4.116  0.1046E+01  0.4303E+02
      4.206  0.9940E+00  0.4313E+02
      4.295  0.1057E+01  0.4323E+02
      4.385  0.9545E+00  0.4333E+02
      4.474  0.1149E+01  0.4345E+02
      4.564  0.8454E+00  0.4354E+02
      4.653  0.1354E+01  0.4367E+02
      4.743  0.8428E+00  0.4375E+02
      4.832  0.1234E+01  0.4387E+02
      4.922  0.9503E+00  0.4397E+02
      5.011  0.9597E+00  0.4407E+02
      5.101  0.1146E+01  0.4418E+02
      5.190  0.9677E+00  0.4428E+02
      5.280  0.1094E+01  0.4438E+02
      5.370  0.1119E+01  0.4449E+02
      5.459  0.9037E+00  0.4458E+02
      5.549  0.1029E+01  0.4469E+02
      5.638  0.1141E+01  0.4480E+02
      5.728  0.1083E+01  0.4490E+02
      5.817  0.8407E+00  0.4499E+02
      5.907  0.1136E+01  0.4510E+02
      5.996  0.9953E+00  0.4520E+02
      6.086  0.1034E+01  0.4530E+02
      6.175  0.9827E+00  0.4540E+02
      6.265  0.9315E+00  0.4551E+02
      6.354  0.1008E+01  0.4561E+02
      6.444  0.9975E+00  0.4571E+02
      6.533  0.9210E+00  0.4581E+02
      6.623  0.1085E+01  0.4591E+02
      6.712  0.9931E+00  0.4601E+02
      6.802  0.8438E+00  0.4610E+02
      6.891  0.1076E+01  0.4620E+02
      6.981  0.8262E+00  0.4629E+02
      7.071  0.1018E+01  0.4639E+02
      7.160  0.9077E+00  0.4648E+02
      7.250  0.9692E+00  0.4657E+02
      7.339  0.8472E+00  0.4666E+02
      7.429  0.9990E+00  0.4676E+02
      7.518  0.8137E+00  0.4684E+02
      7.608  0.1052E+01  0.4693E+02
      7.697  0.1044E+01  0.4703E+02
      7.787  0.1824E+01  0.4722E+02
      7.876  0.1774E+01  0.4739E+02
      7.966  0.1282E+01  0.4752E+02
      8.055  0.1599E+01  0.4768E+02
      8.145  0.1167E+01  0.4780E+02
      8.234  0.1199E+01  0.4792E+02
      8.324  0.1204E+01  0.4805E+02
      8.413  0.1318E+01  0.4817E+02
      8.503  0.1078E+01  0.4828E+02
      8.592  0.9409E+00  0.4838E+02
      8.682  0.1027E+01  0.4849E+02
      8.771  0.9788E+00  0.4859E+02
      8.861  0.9168E+00  0.4868E+02
      8.951  0.8922E+00  0.4878E+02
      9.040  0.9213E+00  0.4887E+02
      9.130  0.8322E+00  0.4896E+02
      9.219  0.9298E+00  0.4905E+02
      9.309  0.1113E+01  0.4916E+02
      9.398  0.1082E+01  0.4927E+02
      9.488  0.1146E+01  0.4938E+02
      9.577  0.1243E+01  0.4950E+02
      9.667  0.1215E+01  0.4962E+02
      9.756  0.1137E+01  0.4974E+02
      9.846  0.1228E+01  0.4987E+02
      9.935  0.1318E+01  0.5000E+02
     10.025  0.1424E+01  0.5014E+02
     10.114  0.1228E+01  0.5027E+02
     10.204  0.1430E+01  0.5041E+02
     10.293  0.1497E+01  0.5056E+02
     10.383  0.1160E+01  0.5068E+02
     10.472  0.1411E+01  0.5082E+02
     10.562  0.1247E+01  0.5095E+02
     10.652  0.1289E+01  0.5107E+02
     10.741  0.1231E+01  0.5120E+02
     10.831  0.1125E+01  0.5131E+02
     10.920  0.1251E+01  0.5143E+02
     11.010  0.1158E+01  0.5155E+02
     11.099  0.8732E+00  0.5164E+02
     11.189  0.1181E+01  0.5175E+02
     11.278  0.1054E+01  0.5185E+02
     11.368  0.8837E+00  0.5195E+02
     11.457  0.1323E+01  0.5207E+02
     11.547  0.7192E+00  0.5215E+02
     11.636  0.1226E+01  0.5227E+02
     11.726  0.8718E+00  0.5236E+02
     11.815  0.1211E+01  0.5248E+02
     11.905  0.1255E+01  0.5261E+02
     11.994  0.1343E+01  0.5274E+02
     12.084  0.1404E+01  0.5288E+02
     12.173  0.1062E+01  0.5298E+02
     12.263  0.1214E+01  0.5311E+02
     12.352  0.1219E+01  0.5323E+02
     12.442  0.1523E+01  0.5338E+02
     12.532  0.1218E+01  0.5350E+02
     12.621  0.1449E+01  0.5364E+02
     12.711  0.9504E+00  0.5374E+02
     12.800  0.1282E+01  0.5387E+02
     12.890  0.1420E+01  0.5401E+02
     12.979  0.1387E+01  0.5415E+02
     13.069  0.1306E+01  0.5428E+02
     13.158  0.9451E+00  0.5437E+02
     13.248  0.1417E+01  0.5451E+02
     13.337  0.1662E+01  0.5468E+02
     13.427  0.1068E+01  0.5478E+02
     13.516  0.1330E+01  0.5491E+02
     13.606  0.1190E+01  0.5503E+02
     13.695  0.1265E+01  0.5516E+02
     13.785  0.1394E+01  0.5531E+02
     13.874  0.1391E+01  0.5544E+02
     13.964  0.1225E+01  0.5556E+02
     14.053  0.1452E+01  0.5570E+02
     14.143  0.1265E+01  0.5583E+02
     14.233  0.1488E+01  0.5597E+02
     14.322  0.1789E+01  0.5615E+02
     14.412  0.1469E+01  0.5629E+02
     14.501  0.1562E+01  0.5645E+02
     14.591  0.1514E+01  0.5660E+02
     14.680  0.1424E+01  0.5675E+02
     14.770  0.1970E+01  0.5695E+02
     14.859  0.1572E+01  0.5711E+02
     14.949  0.1713E+01  0.5728E+02
     15.038  0.2075E+01  0.5749E+02
     15.128  0.1593E+01  0.5765E+02
     15.217  0.1809E+01  0.5783E+02
     15.307  0.1923E+01  0.5802E+02
     15.396  0.1859E+01  0.5820E+02
     15.486  0.1451E+01  0.5835E+02
     15.575  0.1840E+01  0.5853E+02
     15.665  0.1607E+01  0.5870E+02
     15.754  0.2015E+01  0.5890E+02
     15.844  0.1563E+01  0.5906E+02
     15.934  0.1805E+01  0.5923E+02
     16.023  0.1620E+01  0.5939E+02
     16.113  0.1727E+01  0.5957E+02
     16.202  0.1454E+01  0.5972E+02
     16.292  0.1669E+01  0.5989E+02
     16.381  0.1784E+01  0.6006E+02
     16.471  0.1632E+01  0.6023E+02
     16.560  0.1610E+01  0.6039E+02
     16.650  0.1530E+01  0.6055E+02
     16.739  0.1345E+01  0.6068E+02
     16.829  0.2129E+01  0.6089E+02
     16.918  0.1310E+01  0.6103E+02
     17.008  0.1306E+01  0.6117E+02
     17.097  0.1933E+01  0.6136E+02
     17.187  0.1253E+01  0.6148E+02
     17.276  0.1492E+01  0.6164E+02
     17.366  0.1378E+01  0.6177E+02
     17.455  0.9673E+00  0.6188E+02
     17.545  0.1350E+01  0.6201E+02
     17.634  0.1080E+01  0.6212E+02
     17.724  0.1054E+01  0.6222E+02
     17.814  0.1074E+01  0.6233E+02
     17.903  0.9992E+00  0.6243E+02
     17.993  0.9506E+00  0.6252E+02
     18.082  0.1019E+01  0.6262E+02
     18.172  0.6680E+00  0.6269E+02
     18.261  0.9950E+00  0.6279E+02
     18.351  0.8229E+00  0.6287E+02
     18.440  0.6612E+00  0.6294E+02
     18.530  0.7785E+00  0.6301E+02
     18.619  0.6247E+00  0.6308E+02
     18.709  0.5975E+00  0.6314E+02
     18.798  0.6652E+00  0.6321E+02
     18.888  0.6145E+00  0.6327E+02
     18.977  0.5432E+00  0.6332E+02
     19.067  0.5840E+00  0.6339E+02
     19.156  0.5137E+00  0.6344E+02
     19.246  0.4664E+00  0.6349E+02
     19.335  0.5299E+00  0.6354E+02
     19.425  0.5138E+00  0.6359E+02
     19.515  0.6617E+00  0.6366E+02
     19.604  0.1338E+01  0.6379E+02
     19.694  0.8029E+00  0.6388E+02
     19.783  0.5491E+00  0.6394E+02
     19.873  0.3573E+00  0.6398E+02
     19.962  0.7560E-01  0.6399E+02
     20.052  0.8894E-01  0.6400E+02
     20.141  0.3810E-02  0.6400E+02
     20.231  0.1149E-01  0.6400E+02
     20.320  0.0000E+00  0.6400E+02
     20.410  0.0000E+00  0.6400E+02
     20.499  0.0000E+00  0.6400E+02
     20.589  0.0000E+00  0.6400E+02
     20.678  0.0000E+00  0.6400E+02
     20.768  0.0000E+00  0.6400E+02
     20.857  0.0000E+00  0.6400E+02
     20.947  0.0000E+00  0.6400E+02
     21.036  0.0000E+00  0.6400E+02
     21.126  0.0000E+00  0.6400E+02
     21.215  0.0000E+00  0.6400E+02
     21.305  0.0000E+00  0.6400E+02
     21.395  0.0000E+00  0.6400E+02
