    4    4    1    1
  0.1817311E+02  0.4173461E-09  0.4173461E-09  0.4173461E-09  0.5000000E-15
  1.000000000000000E-004
  CAR 
 unknown system                          
   44 1330   32
 
  0.0000000E+00  0.0000000E+00  0.0000000E+00  0.2143347E-04
   1       -4.2422
   2       -1.5847
   3       -1.5847
   4       -1.5847
   5       -1.3103
   6       -1.3103
   7       -1.3103
   8        0.5398
   9        0.5398
  10        0.5398
  11        1.8954
  12        1.8954
  13        2.9269
  14        2.9269
  15        2.9269
  16        3.2535
  17        3.2535
  18        3.2535
  19        3.2535
  20        3.2535
  21        3.2535
  22        6.1548
  23        6.1548
  24        6.1548
  25       10.2663
  26       10.2663
  27       10.2663
  28       14.9493
  29       14.9493
  30       14.9493
  31       14.9493
  32       14.9493
 
  0.2777778E-01  0.0000000E+00  0.0000000E+00  0.1286008E-03
   1       -4.2337
   2       -1.5819
   3       -1.5791
   4       -1.5791
   5       -1.3073
   6       -1.3058
   7       -1.3058
   8        0.5356
   9        0.5435
  10        0.5435
  11        1.8909
  12        1.8972
  13        2.9206
  14        2.9206
  15        2.9247
  16        3.2240
  17        3.2240
  18        3.2457
  19        3.2457
  20        3.2535
  21        3.2535
  22        6.0787
  23        6.1904
  24        6.1904
  25       10.2591
  26       10.2591
  27       10.3571
  28       14.9331
  29       14.9331
  30       14.9363
  31       14.9363
  32       14.9665
 
  0.5555556E-01  0.0000000E+00  0.0000000E+00  0.1286008E-03
   1       -4.2081
   2       -1.5733
   3       -1.5624
   4       -1.5624
   5       -1.2983
   6       -1.2921
   7       -1.2921
   8        0.5231
   9        0.5545
  10        0.5545
  11        1.8777
  12        1.9026
  13        2.9018
  14        2.9018
  15        2.9184
  16        3.1395
  17        3.1395
  18        3.2226
  19        3.2226
  20        3.2536
  21        3.2536
  22        5.8686
  23        6.2933
  24        6.2933
  25       10.2380
  26       10.2380
  27       10.6117
  28       14.8849
  29       14.8849
  30       14.8987
  31       14.8987
  32       15.0181
 
  0.8333333E-01  0.0000000E+00  0.0000000E+00  0.1286008E-03
   1       -4.1655
   2       -1.5594
   3       -1.5347
   4       -1.5347
   5       -1.2833
   6       -1.2693
   7       -1.2693
   8        0.5025
   9        0.5730
  10        0.5730
  11        1.8558
  12        1.9117
  13        2.8707
  14        2.8707
  15        2.9078
  16        3.0104
  17        3.0104
  18        3.1846
  19        3.1846
  20        3.2536
  21        3.2536
  22        5.5632
  23        6.4530
  24        6.4530
  25       10.2036
  26       10.2036
  27       10.9915
  28       14.8054
  29       14.8054
  30       14.8403
  31       14.8403
  32       15.1034
 
  0.1111111E+00  0.0000000E+00  0.0000000E+00  0.1286008E-03
   1       -4.1061
   2       -1.5406
   3       -1.4964
   4       -1.4964
   5       -1.2624
   6       -1.2374
   7       -1.2374
   8        0.4740
   9        0.5987
  10        0.5987
  11        1.8256
  12        1.9243
  13        2.8275
  14        2.8275
  15        2.8485
  16        2.8485
  17        2.8933
  18        3.1326
  19        3.1326
  20        3.2537
  21        3.2537
  22        5.1999
  23        6.6576
  24        6.6576
  25       10.1574
  26       10.1574
  27       11.4596
  28       14.6958
  29       14.6958
  30       14.7662
  31       14.7662
  32       15.2215
 
  0.1388889E+00  0.0000000E+00  0.0000000E+00  0.1286008E-03
   1       -4.0301
   2       -1.5177
   3       -1.4480
   4       -1.4480
   5       -1.2356
   6       -1.1965
   7       -1.1965
   8        0.4379
   9        0.6317
  10        0.6317
  11        1.7876
  12        1.9403
  13        2.6644
  14        2.6644
  15        2.7728
  16        2.7728
  17        2.8747
  18        3.0675
  19        3.0675
  20        3.2538
  21        3.2538
  22        4.8057
  23        6.8964
  24        6.8964
  25       10.1010
  26       10.1010
  27       11.9894
  28       14.5577
  29       14.5577
  30       14.6820
  31       14.6820
  32       15.3712
 
  0.1666667E+00  0.0000000E+00  0.0000000E+00  0.1286008E-03
   1       -3.9379
   2       -1.4918
   3       -1.3900
   4       -1.3900
   5       -1.2032
   6       -1.1464
   7       -1.1464
   8        0.3947
   9        0.6719
  10        0.6719
  11        1.7424
  12        1.9597
  13        2.4664
  14        2.4664
  15        2.7072
  16        2.7072
  17        2.8525
  18        2.9907
  19        2.9907
  20        3.2539
  21        3.2539
  22        4.3984
  23        7.1609
  24        7.1609
  25       10.0366
  26       10.0366
  27       12.5639
  28       14.3929
  29       14.3929
  30       14.5931
  31       14.5931
  32       15.5511
 
  0.1944444E+00  0.0000000E+00  0.0000000E+00  0.1286008E-03
   1       -3.8298
   2       -1.4643
   3       -1.3233
   4       -1.3233
   5       -1.1653
   6       -1.0874
   7       -1.0874
   8        0.3448
   9        0.7192
  10        0.7192
  11        1.6908
  12        1.9824
  13        2.2603
  14        2.2603
  15        2.6317
  16        2.6317
  17        2.8267
  18        2.9036
  19        2.9036
  20        3.2541
  21        3.2541
  22        3.9900
  23        7.4449
  24        7.4449
  25        9.9666
  26        9.9666
  27       13.1723
  28       14.2033
  29       14.2033
  30       14.5037
  31       14.5037
  32       15.7595
 
  0.2222222E+00  0.0000000E+00  0.0000000E+00  0.1286008E-03
   1       -3.7064
   2       -1.4371
   3       -1.2490
   4       -1.2490
   5       -1.1221
   6       -1.0193
   7       -1.0193
   8        0.2889
   9        0.7735
  10        0.7735
  11        1.6337
  12        2.0082
  13        2.0504
  14        2.0504
  15        2.5473
  16        2.5473
  17        2.7975
  18        2.8075
  19        2.8075
  20        3.2542
  21        3.2542
  22        3.5888
  23        7.7440
  24        7.7440
  25        9.8935
  26        9.8935
  27       13.8076
  28       13.9912
  29       13.9912
  30       14.4173
  31       14.4173
  32       15.9946
 
  0.2500000E+00  0.0000000E+00  0.0000000E+00  0.1286008E-03
   1       -3.5685
   2       -1.4126
   3       -1.1683
   4       -1.1683
   5       -1.0737
   6       -0.9423
   7       -0.9423
   8        0.2275
   9        0.8346
  10        0.8346
  11        1.5723
  12        1.8399
  13        1.8399
  14        2.0369
  15        2.4556
  16        2.4556
  17        2.7040
  18        2.7040
  19        2.7654
  20        3.2015
  21        3.2543
  22        3.2543
  23        8.0546
  24        8.0546
  25        9.8196
  26        9.8196
  27       13.7587
  28       13.7587
  29       14.3363
  30       14.3363
  31       14.4652
  32       16.2545
 
  0.2777778E+00  0.0000000E+00  0.0000000E+00  0.1286008E-03
   1       -3.4167
   2       -1.3937
   3       -1.0829
   4       -1.0829
   5       -1.0205
   6       -0.8563
   7       -0.8563
   8        0.1613
   9        0.9023
  10        0.9023
  11        1.5080
  12        1.6308
  13        1.6308
  14        2.0683
  15        2.3586
  16        2.3586
  17        2.5945
  18        2.5945
  19        2.7304
  20        2.8338
  21        3.2545
  22        3.2545
  23        8.3744
  24        8.3744
  25        9.7474
  26        9.7474
  27       13.5078
  28       13.5078
  29       14.2623
  30       14.2623
  31       15.1418
  32       16.5374
 
  0.3055556E+00  0.0000000E+00  0.0000000E+00  0.1286008E-03
   1       -3.2524
   2       -1.3845
   3       -0.9948
   4       -0.9948
   5       -0.9626
   6       -0.7615
   7       -0.7615
   8        0.0909
   9        0.9766
  10        0.9766
  11        1.4248
  12        1.4248
  13        1.4425
  14        2.1024
  15        2.2587
  16        2.2587
  17        2.4804
  18        2.4804
  19        2.4911
  20        2.6930
  21        3.2546
  22        3.2546
  23        8.7012
  24        8.7012
  25        9.6789
  26        9.6789
  27       13.2405
  28       13.2405
  29       14.1962
  30       14.1962
  31       15.8351
  32       16.8413
 
  0.3333333E+00  0.0000000E+00  0.0000000E+00  0.1286008E-03
   1       -3.0769
   2       -1.3894
   3       -0.9066
   4       -0.9066
   5       -0.9005
   6       -0.6579
   7       -0.6579
   8        0.0171
   9        1.0571
  10        1.0571
  11        1.2231
  12        1.2231
  13        1.3778
  14        2.1387
  15        2.1589
  16        2.1589
  17        2.1792
  18        2.3631
  19        2.3631
  20        2.6535
  21        3.2547
  22        3.2547
  23        9.0332
  24        9.0332
  25        9.6162
  26        9.6162
  27       12.9589
  28       12.9589
  29       14.1388
  30       14.1388
  31       16.5432
  32       17.1642
 
  0.3611111E+00  0.0000000E+00  0.0000000E+00  0.1286008E-03
   1       -2.8921
   2       -1.4135
   3       -0.8345
   4       -0.8212
   5       -0.8212
   6       -0.5455
   7       -0.5455
   8       -0.0594
   9        1.0267
  10        1.0267
  11        1.1436
  12        1.1436
  13        1.3166
  14        1.9039
  15        2.0626
  16        2.0626
  17        2.1772
  18        2.2438
  19        2.2438
  20        2.6122
  21        3.2548
  22        3.2548
  23        9.3692
  24        9.3692
  25        9.5606
  26        9.5606
  27       12.6647
  28       12.6647
  29       14.0901
  30       14.0901
  31       17.2647
  32       17.5042
 
  0.3888889E+00  0.0000000E+00  0.0000000E+00  0.1286008E-03
   1       -2.7005
   2       -1.4622
   3       -0.7649
   4       -0.7424
   5       -0.7424
   6       -0.4246
   7       -0.4246
   8       -0.1381
   9        0.8362
  10        0.8362
  11        1.2358
  12        1.2358
  13        1.2617
  14        1.6705
  15        1.9740
  16        1.9740
  17        2.1236
  18        2.1236
  19        2.2175
  20        2.5695
  21        3.2549
  22        3.2549
  23        9.5136
  24        9.5136
  25        9.7077
  26        9.7077
  27       12.3596
  28       12.3596
  29       14.0503
  30       14.0503
  31       17.8591
  32       17.8598
 
  0.4166667E+00  0.0000000E+00  0.0000000E+00  0.1286008E-03
   1       -2.5051
   2       -1.5393
   3       -0.6923
   4       -0.6742
   5       -0.6742
   6       -0.2951
   7       -0.2951
   8       -0.2181
   9        0.6521
  10        0.6521
  11        1.2172
  12        1.3332
  13        1.3332
  14        1.4833
  15        1.8978
  16        1.8978
  17        2.0036
  18        2.0036
  19        2.2593
  20        2.5257
  21        3.2550
  22        3.2550
  23        9.4760
  24        9.4760
  25       10.0475
  26       10.0475
  27       12.0454
  28       12.0454
  29       14.0195
  30       14.0195
  31       18.2269
  32       18.2269
 
  0.4444444E+00  0.0000000E+00  0.0000000E+00  0.1286008E-03
   1       -2.3101
   2       -1.6465
   3       -0.6212
   4       -0.6212
   5       -0.6169
   6       -0.2989
   7       -0.1571
   8       -0.1571
   9        0.4751
  10        0.4751
  11        1.1876
  12        1.3436
  13        1.4357
  14        1.4357
  15        1.8386
  16        1.8386
  17        1.8847
  18        1.8847
  19        2.3024
  20        2.4811
  21        3.2551
  22        3.2551
  23        9.4487
  24        9.4487
  25       10.3873
  26       10.3873
  27       11.7235
  28       11.7235
  29       13.9975
  30       13.9975
  31       18.6055
  32       18.6055
 
  0.4722222E+00  0.0000000E+00  0.0000000E+00  0.1286008E-03
   1       -2.1206
   2       -1.7824
   3       -0.5874
   4       -0.5874
   5       -0.5393
   6       -0.3798
   7       -0.0110
   8       -0.0110
   9        0.3054
  10        0.3054
  11        1.1787
  12        1.2498
  13        1.5426
  14        1.5426
  15        1.7678
  16        1.7678
  17        1.8010
  18        1.8010
  19        2.3465
  20        2.4361
  21        3.2551
  22        3.2551
  23        9.4321
  24        9.4321
  25       10.7261
  26       10.7261
  27       11.3955
  28       11.3955
  29       13.9844
  30       13.9844
  31       18.9926
  32       18.9926
 
  0.5000000E+00  0.0000000E+00  0.0000000E+00  0.6430041E-04
   1       -1.9424
   2       -1.9424
   3       -0.5758
   4       -0.5758
   5       -0.4601
   6       -0.4601
   7        0.1432
   8        0.1432
   9        0.1432
  10        0.1432
  11        1.1970
  12        1.1970
  13        1.6535
  14        1.6535
  15        1.6535
  16        1.6535
  17        1.7881
  18        1.7881
  19        2.3911
  20        2.3911
  21        3.2551
  22        3.2551
  23        9.4266
  24        9.4266
  25       11.0626
  26       11.0626
  27       11.0626
  28       11.0626
  29       13.9800
  30       13.9800
  31       19.3856
  32       19.3856
 
  0.2777778E-01  0.2777778E-01  0.0000000E+00  0.2572016E-03
   1       -4.2252
   2       -1.5763
   3       -1.5763
   4       -1.5736
   5       -1.3028
   6       -1.3028
   7       -1.3011
   8        0.5337
   9        0.5449
  10        0.5471
  11        1.8897
  12        1.8959
  13        2.9143
  14        2.9182
  15        2.9182
  16        3.2001
  17        3.2162
  18        3.2162
  19        3.2457
  20        3.2457
  21        3.2484
  22        6.1143
  23        6.1143
  24        6.2255
  25       10.2519
  26       10.3501
  27       10.3501
  28       14.8597
  29       14.9503
  30       14.9503
  31       14.9535
  32       14.9537
 
  0.5555556E-01  0.2777778E-01  0.0000000E+00  0.5144033E-03
   1       -4.1996
   2       -1.5677
   3       -1.5595
   4       -1.5571
   5       -1.2937
   6       -1.2891
   7       -1.2873
   8        0.5224
   9        0.5548
  10        0.5581
  11        1.8777
  12        1.9002
  13        2.8957
  14        2.8984
  15        2.9111
  16        3.1201
  17        3.1322
  18        3.1932
  19        3.2226
  20        3.2457
  21        3.2458
  22        5.9042
  23        6.2168
  24        6.3268
  25       10.2304
  26       10.3295
  27       10.6050
  28       14.7602
  29       14.9020
  30       14.9160
  31       15.0000
  32       15.0023
 
  0.8333333E-01  0.2777778E-01  0.0000000E+00  0.5144033E-03
   1       -4.1570
   2       -1.5537
   3       -1.5318
   4       -1.5299
   5       -1.2788
   6       -1.2663
   7       -1.2642
   8        0.5021
   9        0.5730
  10        0.5764
  11        1.8561
  12        1.9092
  13        2.8640
  14        2.8648
  15        2.8991
  16        2.9938
  17        3.0058
  18        3.1554
  19        3.1846
  20        3.2450
  21        3.2458
  22        5.5994
  23        6.3754
  24        6.4844
  25       10.1954
  26       10.2961
  27       10.9848
  28       14.6399
  29       14.8224
  30       14.8577
  31       14.9882
  32       15.0872
 
  0.1111111E+00  0.2777778E-01  0.0000000E+00  0.5144033E-03
   1       -4.0977
   2       -1.5349
   3       -1.4934
   4       -1.4922
   5       -1.2579
   6       -1.2345
   7       -1.2319
   8        0.4738
   9        0.5986
  10        0.6018
  11        1.8261
  12        1.9219
  13        2.7985
  14        2.8219
  15        2.8345
  16        2.8658
  17        2.8819
  18        3.1040
  19        3.1326
  20        3.2448
  21        3.2459
  22        5.2376
  23        6.5780
  24        6.6867
  25       10.1484
  26       10.2515
  27       11.4522
  28       14.5023
  29       14.7126
  30       14.7839
  31       14.9491
  32       15.2049
 
  0.1388889E+00  0.2777778E-01  0.0000000E+00  0.5144033E-03
   1       -4.0218
   2       -1.5119
   3       -1.4449
   4       -1.4445
   5       -1.2312
   6       -1.1936
   7       -1.1905
   8        0.4379
   9        0.6316
  10        0.6345
  11        1.7883
  12        1.9382
  13        2.6418
  14        2.6527
  15        2.7675
  16        2.7835
  17        2.8588
  18        3.0405
  19        3.0675
  20        3.2448
  21        3.2460
  22        4.8462
  23        6.8133
  24        6.9234
  25       10.0910
  26       10.1974
  27       11.9806
  28       14.3501
  29       14.5743
  30       14.7003
  31       14.8865
  32       15.3544
 
  0.1666667E+00  0.2777778E-01  0.0000000E+00  0.5144033E-03
   1       -3.9297
   2       -1.4860
   3       -1.3874
   4       -1.3869
   5       -1.1989
   6       -1.1437
   7       -1.1398
   8        0.3948
   9        0.6717
  10        0.6743
  11        1.7434
  12        1.9578
  13        2.4477
  14        2.4566
  15        2.7023
  16        2.7140
  17        2.8275
  18        2.9683
  19        2.9907
  20        3.2449
  21        3.2461
  22        4.4435
  23        7.0728
  24        7.1860
  25       10.0253
  26       10.1365
  27       12.5528
  28       14.1844
  29       14.4093
  30       14.6121
  31       14.8055
  32       15.5339
 
  0.1944444E+00  0.2777778E-01  0.0000000E+00  0.5144033E-03
   1       -3.8217
   2       -1.4584
   3       -1.3217
   4       -1.3201
   5       -1.1611
   6       -1.0847
   7       -1.0801
   8        0.3451
   9        0.7190
  10        0.7210
  11        1.6921
  12        1.9808
  13        2.2430
  14        2.2522
  15        2.6272
  16        2.6373
  17        2.7810
  18        2.8948
  19        2.9035
  20        3.2450
  21        3.2462
  22        4.0422
  23        7.3497
  24        7.4684
  25        9.9538
  26       10.0716
  27       13.1580
  28       14.0052
  29       14.2195
  30       14.5237
  31       14.7124
  32       15.7418
 
  0.2222222E+00  0.2777778E-01  0.0000000E+00  0.5144033E-03
   1       -3.6985
   2       -1.4311
   3       -1.2484
   4       -1.2457
   5       -1.1179
   6       -1.0167
   7       -1.0113
   8        0.2894
   9        0.7733
  10        0.7745
  11        1.6355
  12        2.0070
  13        2.0341
  14        2.0438
  15        2.5433
  16        2.5526
  17        2.7064
  18        2.8074
  19        2.8329
  20        3.2452
  21        3.2463
  22        3.6526
  23        7.6388
  24        7.7660
  25        9.8788
  26       10.0059
  27       13.7888
  28       13.8114
  29       14.0072
  30       14.4386
  31       14.6137
  32       15.9764
 
  0.2500000E+00  0.2777778E-01  0.0000000E+00  0.5144033E-03
   1       -3.5607
   2       -1.4065
   3       -1.1688
   4       -1.1649
   5       -1.0696
   6       -0.9398
   7       -0.9337
   8        0.2282
   9        0.8344
  10        0.8345
  11        1.5749
  12        1.8243
  13        1.8345
  14        2.0361
  15        2.4521
  16        2.4608
  17        2.5999
  18        2.7039
  19        2.7834
  20        3.2454
  21        3.2464
  22        3.2859
  23        7.9353
  24        8.0755
  25        9.8029
  26        9.9433
  27       13.6016
  28       13.7745
  29       14.3592
  30       14.4398
  31       14.5152
  32       16.2368
 
  0.2777778E+00  0.2777778E-01  0.0000000E+00  0.5144033E-03
   1       -3.4092
   2       -1.3876
   3       -1.0842
   4       -1.0793
   5       -1.0165
   6       -0.8540
   7       -0.8475
   8        0.1622
   9        0.9007
  10        0.9021
  11        1.5118
  12        1.6159
  13        1.6265
  14        2.0680
  15        2.3556
  16        2.3637
  17        2.4628
  18        2.5943
  19        2.7343
  20        2.9602
  21        3.2455
  22        3.2465
  23        8.2341
  24        8.3943
  25        9.7283
  26        9.8887
  27       13.3751
  28       13.5234
  29       14.2871
  30       14.4218
  31       15.1065
  32       16.5178
 
  0.3055556E+00  0.2777778E-01  0.0000000E+00  0.5144033E-03
   1       -3.2450
   2       -1.3782
   3       -0.9966
   4       -0.9911
   5       -0.9588
   6       -0.7593
   7       -0.7528
   8        0.0920
   9        0.9725
  10        0.9764
  11        1.4108
  12        1.4214
  13        1.4483
  14        2.1026
  15        2.2562
  16        2.2638
  17        2.2848
  18        2.4802
  19        2.6374
  20        2.7414
  21        3.2457
  22        3.2465
  23        8.5281
  24        8.7202
  25        9.6572
  26        9.8495
  27       13.1317
  28       13.2560
  29       14.2233
  30       14.3365
  31       15.7833
  32       16.8213
 
  0.3333333E+00  0.2777778E-01  0.0000000E+00  0.5144033E-03
   1       -3.0698
   2       -1.3830
   3       -0.9083
   4       -0.9027
   5       -0.8969
   6       -0.6559
   7       -0.6499
   8        0.0184
   9        1.0484
  10        1.0569
  11        1.2100
  12        1.2205
  13        1.3879
  14        2.0640
  15        2.1395
  16        2.1569
  17        2.1639
  18        2.3629
  19        2.4572
  20        2.6740
  21        3.2459
  22        3.2466
  23        8.8046
  24        9.0516
  25        9.5913
  26        9.8383
  27       12.8724
  28       12.9743
  29       14.1684
  30       14.2612
  31       16.4588
  32       17.1425
 
  0.3611111E+00  0.2777778E-01  0.0000000E+00  0.5144033E-03
   1       -2.8852
   2       -1.4072
   3       -0.8310
   4       -0.8224
   5       -0.8171
   6       -0.5437
   7       -0.5390
   8       -0.0579
   9        1.0145
  10        1.0247
  11        1.1237
  12        1.1433
  13        1.3372
  14        1.8319
  15        2.0611
  16        2.0674
  17        2.1785
  18        2.2436
  19        2.3012
  20        2.6266
  21        3.2461
  22        3.2467
  23        9.0397
  24        9.3869
  25        9.5321
  26        9.8794
  27       12.5988
  28       12.6800
  29       14.1227
  30       14.1968
  31       17.1007
  32       17.4811
 
  0.3888889E+00  0.2777778E-01  0.0000000E+00  0.5144033E-03
   1       -2.6937
   2       -1.4558
   3       -0.7616
   4       -0.7425
   5       -0.7381
   6       -0.4230
   7       -0.4199
   8       -0.1364
   9        0.8251
  10        0.8348
  11        1.1780
  12        1.2355
  13        1.3196
  14        1.6203
  15        1.9731
  16        1.9785
  17        2.1234
  18        2.1628
  19        2.2195
  20        2.5808
  21        3.2462
  22        3.2467
  23        9.2011
  24        9.4806
  25        9.7248
  26       10.0047
  27       12.3129
  28       12.3750
  29       14.0864
  30       14.1435
  31       17.6372
  32       17.8344
 
  0.4166667E+00  0.2777778E-01  0.0000000E+00  0.5144033E-03
   1       -2.4986
   2       -1.5330
   3       -0.6891
   4       -0.6732
   5       -0.6698
   6       -0.2937
   7       -0.2928
   8       -0.2162
   9        0.6424
  10        0.6513
  11        1.1786
  12        1.3330
  13        1.3713
  14        1.4452
  15        1.8975
  16        1.9018
  17        2.0034
  18        2.0331
  19        2.2620
  20        2.5349
  21        3.2464
  22        3.2468
  23        9.2843
  24        9.4375
  25       10.0642
  26       10.2187
  27       12.0167
  28       12.0608
  29       14.0595
  30       14.1010
  31       18.0707
  32       18.2003
 
  0.4444444E+00  0.2777778E-01  0.0000000E+00  0.5144033E-03
   1       -2.3038
   2       -1.6403
   3       -0.6189
   4       -0.6167
   5       -0.6139
   6       -0.2968
   7       -0.1573
   8       -0.1561
   9        0.4668
  10        0.4748
  11        1.1607
  12        1.3129
  13        1.4354
  14        1.4612
  15        1.8391
  16        1.8421
  17        1.8845
  18        1.9088
  19        2.3059
  20        2.4888
  21        3.2465
  22        3.2467
  23        9.3211
  24        9.4029
  25       10.4037
  26       10.4888
  27       11.7128
  28       11.7390
  29       14.0421
  30       14.0691
  31       18.4684
  32       18.5765
 
  0.4722222E+00  0.2777778E-01  0.0000000E+00  0.5144033E-03
   1       -2.1143
   2       -1.7762
   3       -0.5841
   4       -0.5830
   5       -0.5366
   6       -0.3774
   7       -0.0135
   8       -0.0102
   9        0.2987
  10        0.3055
  11        1.1549
  12        1.2235
  13        1.5424
  14        1.5640
  15        1.7675
  16        1.7891
  17        1.8022
  18        1.8038
  19        2.3508
  20        2.4426
  21        3.2466
  22        3.2467
  23        9.3403
  24        9.3764
  25       10.7421
  26       10.7855
  27       11.4039
  28       11.4111
  29       14.0343
  30       14.0476
  31       18.8562
  32       18.9604
 
  0.5000000E+00  0.2777778E-01  0.0000000E+00  0.2572016E-03
   1       -1.9362
   2       -1.9362
   3       -0.5717
   4       -0.5717
   5       -0.4575
   6       -0.4575
   7        0.1385
   8        0.1385
   9        0.1437
  10        0.1437
  11        1.1731
  12        1.1731
  13        1.6533
  14        1.6533
  15        1.6739
  16        1.6739
  17        1.7901
  18        1.7901
  19        2.3965
  20        2.3965
  21        3.2467
  22        3.2467
  23        9.3565
  24        9.3565
  25       11.0784
  26       11.0784
  27       11.0932
  28       11.0932
  29       14.0360
  30       14.0360
  31       19.2412
  32       19.2426
 
  0.5555556E-01  0.5555556E-01  0.0000000E+00  0.2572016E-03
   1       -4.1741
   2       -1.5509
   3       -1.5509
   4       -1.5414
   5       -1.2801
   6       -1.2801
   7       -1.2729
   8        0.5158
   9        0.5601
  10        0.5688
  11        1.8727
  12        1.8979
  13        2.8774
  14        2.8881
  15        2.8881
  16        3.0540
  17        3.1107
  18        3.1107
  19        3.2226
  20        3.2226
  21        3.2333
  22        6.0062
  23        6.0062
  24        6.4237
  25       10.2078
  26       10.5853
  27       10.5853
  28       14.6103
  29       14.9532
  30       14.9532
  31       14.9678
  32       14.9678
 
  0.8333333E-01  0.5555556E-01  0.0000000E+00  0.5144033E-03
   1       -4.1317
   2       -1.5368
   3       -1.5231
   4       -1.5154
   5       -1.2653
   6       -1.2575
   7       -1.2490
   8        0.4987
   9        0.5754
  10        0.5865
  11        1.8548
  12        1.9038
  13        2.8432
  14        2.8471
  15        2.8699
  16        2.9402
  17        2.9928
  18        3.0761
  19        3.1846
  20        3.2226
  21        3.2260
  22        5.7024
  23        6.1631
  24        6.5756
  25       10.1712
  26       10.5534
  27       10.9648
  28       14.4466
  29       14.8732
  30       14.9100
  31       15.0379
  32       15.0536
 
  0.1111111E+00  0.5555556E-01  0.0000000E+00  0.5144033E-03
   1       -4.0726
   2       -1.5178
   3       -1.4846
   4       -1.4794
   5       -1.2445
   6       -1.2258
   7       -1.2155
   8        0.4719
   9        0.5997
  10        0.6112
  11        1.8264
  12        1.9160
  13        2.7490
  14        2.7905
  15        2.8050
  16        2.8418
  17        2.8802
  18        3.0309
  19        3.1325
  20        3.2225
  21        3.2227
  22        5.3440
  23        6.3615
  24        6.7718
  25       10.1217
  26       10.5112
  27       11.4301
  28       14.2735
  29       14.7629
  30       14.8372
  31       15.1458
  32       15.1572
 
  0.1388889E+00  0.5555556E-01  0.0000000E+00  0.5144033E-03
   1       -3.9970
   2       -1.4948
   3       -1.4359
   4       -1.4339
   5       -1.2180
   6       -1.1851
   7       -1.1725
   8        0.4369
   9        0.6320
  10        0.6429
  11        1.7896
  12        1.9325
  13        2.5884
  14        2.6164
  15        2.7517
  16        2.8002
  17        2.8012
  18        2.9792
  19        3.0674
  20        3.2207
  21        3.2227
  22        4.9587
  23        6.5900
  24        7.0025
  25       10.0611
  26       10.4609
  27       11.9543
  28       14.0939
  29       14.6239
  30       14.7551
  31       15.1321
  32       15.3038
 
  0.1666667E+00  0.5555556E-01  0.0000000E+00  0.5144033E-03
   1       -3.9052
   2       -1.4686
   3       -1.3794
   4       -1.3776
   5       -1.1859
   6       -1.1353
   7       -1.1202
   8        0.3946
   9        0.6718
  10        0.6813
  11        1.7457
  12        1.9528
  13        2.3975
  14        2.4267
  15        2.6876
  16        2.7287
  17        2.7397
  18        2.9266
  19        2.9905
  20        3.2199
  21        3.2227
  22        4.5656
  23        6.8393
  24        7.2599
  25        9.9915
  26       10.4053
  27       12.5199
  28       13.9099
  29       14.4583
  30       14.6692
  31       15.0908
  32       15.4829
 
  0.1944444E+00  0.5555556E-01  0.0000000E+00  0.5144033E-03
   1       -3.7976
   2       -1.4408
   3       -1.3166
   4       -1.3106
   5       -1.1483
   6       -1.0766
   7       -1.0586
   8        0.3456
   9        0.7189
  10        0.7262
  11        1.6956
  12        1.9766
  13        2.1949
  14        2.2276
  15        2.6137
  16        2.6508
  17        2.6564
  18        2.8767
  19        2.9032
  20        3.2195
  21        3.2227
  22        4.1782
  23        7.1023
  24        7.5377
  25        9.9154
  26       10.3480
  27       13.1156
  28       13.7219
  29       14.2679
  30       14.5839
  31       15.0264
  32       15.6892
 
  0.2222222E+00  0.5555556E-01  0.0000000E+00  0.5144033E-03
   1       -3.6748
   2       -1.4133
   3       -1.2462
   4       -1.2359
   5       -1.1055
   6       -1.0090
   7       -0.9882
   8        0.2905
   9        0.7730
  10        0.7774
  11        1.6405
  12        1.9877
  13        2.0038
  14        2.0237
  15        2.5312
  16        2.5493
  17        2.5658
  18        2.8071
  19        2.8287
  20        3.2193
  21        3.2227
  22        3.8079
  23        7.3730
  24        7.8314
  25        9.8351
  26       10.2930
  27       13.5294
  28       13.7330
  29       14.0549
  30       14.5028
  31       14.9444
  32       15.9219
 
  0.2500000E+00  0.5555556E-01  0.0000000E+00  0.5144033E-03
   1       -3.5375
   2       -1.3883
   3       -1.1694
   4       -1.1547
   5       -1.0575
   6       -0.9324
   7       -0.9092
   8        0.2300
   9        0.8340
  10        0.8344
  11        1.5821