       N       E                     dE             d eps       ncg     rms          rms(c)
DAV:   1     0.602706499674E+03    0.60271E+03   -0.31524E+04 85120   0.231E+03
DAV:   2     0.654720241134E+01   -0.59616E+03   -0.55265E+03 85136   0.508E+02
DAV:   3    -0.138687243435E+02   -0.20416E+02   -0.19988E+02100008   0.114E+02
DAV:   4    -0.140708407121E+02   -0.20212E+00   -0.20195E+00 93376   0.957E+00
DAV:   5    -0.140726542218E+02   -0.18135E-02   -0.18133E-02101752   0.854E-01    0.571E+00
DAV:   6    -0.131543018048E+02    0.91835E+00   -0.19942E+00 97008   0.132E+01    0.151E+00
DAV:   7    -0.130963606648E+02    0.57941E-01   -0.13527E-01100008   0.277E+00    0.600E-01
DAV:   8    -0.130857959923E+02    0.10565E-01   -0.77368E-03 92328   0.786E-01    0.490E-02
DAV:   9    -0.130858659310E+02   -0.69939E-04   -0.35147E-04103024   0.150E-01    0.291E-02
DAV:  10    -0.130858612047E+02    0.47263E-05   -0.31864E-05 95400   0.382E-02    0.215E-03
DAV:  11    -0.130858625142E+02   -0.13095E-05   -0.64558E-07100368   0.543E-03    0.614E-04
DAV:  12    -0.130858621330E+02    0.38121E-06   -0.30964E-08 89240   0.149E-03    0.135E-04
DAV:  13    -0.130858620503E+02    0.82654E-07   -0.13926E-09 61920   0.288E-04    0.191E-05
DAV:  14    -0.130858620528E+02   -0.24352E-08   -0.15461E-10 56408   0.139E-04
   1 F= -.13085862E+02 E0= -.13085838E+02  d E =-.488429E-04
