    4    4    1    1
  0.1166843E+02  0.3600456E-09  0.3600456E-09  0.3600456E-09  0.5000000E-15
  1.000000000000000E-004
  CAR 
 unknown system                          
   44 1330   32
 
  0.0000000E+00  0.0000000E+00  0.0000000E+00  0.2143347E-04
   1       -5.5445
   2       -1.0708
   3       -1.0708
   4       -1.0708
   5       -0.6106
   6       -0.6106
   7       -0.6106
   8        0.8072
   9        0.8072
  10        0.8072
  11        1.6508
  12        1.6508
  13        2.2109
  14        2.2109
  15        2.2109
  16        2.3681
  17        2.3681
  18        2.3681
  19        2.3681
  20        2.3681
  21        2.3681
  22        5.3997
  23        5.3997
  24        5.3997
  25       11.1006
  26       11.1006
  27       11.1006
  28       17.1657
  29       17.1657
  30       17.1657
  31       17.1657
  32       17.1657
 
  0.2777778E-01  0.0000000E+00  0.0000000E+00  0.1286008E-03
   1       -5.5351
   2       -1.0707
   3       -1.0663
   4       -1.0663
   5       -0.6080
   6       -0.6079
   7       -0.6079
   8        0.8043
   9        0.8094
  10        0.8094
  11        1.6482
  12        1.6519
  13        2.2076
  14        2.2076
  15        2.2098
  16        2.3501
  17        2.3501
  18        2.3641
  19        2.3641
  20        2.3681
  21        2.3681
  22        5.3354
  23        5.4261
  24        5.4261
  25       11.1040
  26       11.1040
  27       11.1835
  28       17.0930
  29       17.0930
  30       17.1220
  31       17.1220
  32       17.1796
 
  0.5555556E-01  0.0000000E+00  0.0000000E+00  0.1286008E-03
   1       -5.5066
   2       -1.0706
   3       -1.0529
   4       -1.0529
   5       -0.6004
   6       -0.5998
   7       -0.5998
   8        0.7958
   9        0.8162
  10        0.8162
  11        1.6405
  12        1.6550
  13        2.1976
  14        2.1976
  15        2.2066
  16        2.2981
  17        2.2981
  18        2.3523
  19        2.3523
  20        2.3681
  21        2.3681
  22        5.1533
  23        5.5035
  24        5.5035
  25       11.1143
  26       11.1143
  27       11.4217
  28       16.8895
  29       16.8895
  30       16.9956
  31       16.9956
  32       17.2215
 
  0.8333333E-01  0.0000000E+00  0.0000000E+00  0.1286008E-03
   1       -5.4593
   2       -1.0711
   3       -1.0307
   4       -1.0307
   5       -0.5877
   6       -0.5864
   7       -0.5864
   8        0.7817
   9        0.8276
  10        0.8276
  11        1.6277
  12        1.6602
  13        2.1810
  14        2.1810
  15        2.2012
  16        2.2168
  17        2.2168
  18        2.3328
  19        2.3328
  20        2.3681
  21        2.3681
  22        4.8796
  23        5.6269
  24        5.6269
  25       11.1315
  26       11.1315
  27       11.7894
  28       16.5874
  29       16.5874
  30       16.7993
  31       16.7993
  32       17.2909
 
  0.1111111E+00  0.0000000E+00  0.0000000E+00  0.1286008E-03
   1       -5.3932
   2       -1.0732
   3       -1.0002
   4       -1.0002
   5       -0.5701
   6       -0.5675
   7       -0.5675
   8        0.7621
   9        0.8434
  10        0.8434
  11        1.6100
  12        1.6674
  13        2.1124
  14        2.1124
  15        2.1580
  16        2.1580
  17        2.1937
  18        2.3059
  19        2.3059
  20        2.3682
  21        2.3682
  22        4.5438
  23        5.7902
  24        5.7902
  25       11.1559
  26       11.1559
  27       12.2577
  28       16.2196
  29       16.2196
  30       16.5490
  31       16.5490
  32       17.3877
 
  0.1388889E+00  0.0000000E+00  0.0000000E+00  0.1286008E-03
   1       -5.3085
   2       -1.0783
   3       -0.9619
   4       -0.9619
   5       -0.5476
   6       -0.5431
   7       -0.5431
   8        0.7372
   9        0.8637
  10        0.8637
  11        1.5877
  12        1.6765
  13        1.9914
  14        1.9914
  15        2.1290
  16        2.1290
  17        2.1841
  18        2.2721
  19        2.2721
  20        2.3682
  21        2.3682
  22        4.1716
  23        5.9870
  24        5.9870
  25       11.1877
  26       11.1877
  27       12.8024
  28       15.8110
  29       15.8110
  30       16.2610
  31       16.2610
  32       17.5113
 
  0.1666667E+00  0.0000000E+00  0.0000000E+00  0.1286008E-03
   1       -5.2055
   2       -1.0886
   3       -0.9162
   4       -0.9162
   5       -0.5204
   6       -0.5133
   7       -0.5133
   8        0.7073
   9        0.8883
  10        0.8883
  11        1.5610
  12        1.6876
  13        1.8591
  14        1.8591
  15        2.0941
  16        2.0941
  17        2.1726
  18        2.2318
  19        2.2318
  20        2.3683
  21        2.3683
  22        3.7828
  23        6.2118
  24        6.2118
  25       11.2272
  26       11.2272
  27       13.4050
  28       15.3783
  29       15.3783
  30       15.9492
  31       15.9492
  32       17.6612
 
  0.1944444E+00  0.0000000E+00  0.0000000E+00  0.1286008E-03
   1       -5.0843
   2       -1.1067
   3       -0.8642
   4       -0.8642
   5       -0.4886
   6       -0.4779
   7       -0.4779
   8        0.6725
   9        0.9173
  10        0.9173
  11        1.5304
  12        1.7005
  13        1.7199
  14        1.7199
  15        2.0539
  16        2.0539
  17        2.1592
  18        2.1856
  19        2.1856
  20        2.3683
  21        2.3683
  22        3.3926
  23        6.4602
  24        6.4602
  25       11.2748
  26       11.2748
  27       14.0529
  28       14.9322
  29       14.9322
  30       15.6248
  31       15.6248
  32       17.8367
 
  0.2222222E+00  0.0000000E+00  0.0000000E+00  0.1286008E-03
   1       -4.9454
   2       -1.1363
   3       -0.8068
   4       -0.8068
   5       -0.4526
   6       -0.4369
   7       -0.4369
   8        0.6332
   9        0.9505
  10        0.9505
  11        1.4963
  12        1.5772
  13        1.5772
  14        1.7151
  15        2.0091
  16        2.0091
  17        2.1342
  18        2.1342
  19        2.1441
  20        2.3684
  21        2.3684
  22        3.0129
  23        6.7286
  24        6.7286
  25       11.3310
  26       11.3310
  27       14.4798
  28       14.4798
  29       14.7368
  30       15.2965
  31       15.2965
  32       18.0370
 
  0.2500000E+00  0.0000000E+00  0.0000000E+00  0.1286008E-03
   1       -4.7891
   2       -1.1817
   3       -0.7452
   4       -0.7452
   5       -0.4125
   6       -0.3902
   7       -0.3902
   8        0.5897
   9        0.9879
  10        0.9879
  11        1.4335
  12        1.4335
  13        1.4593
  14        1.7314
  15        1.9605
  16        1.9605
  17        2.0782
  18        2.0782
  19        2.1273
  20        2.3685
  21        2.3685
  22        2.6539
  23        7.0146
  24        7.0146
  25       11.3960
  26       11.3960
  27       14.0256
  28       14.0256
  29       14.9708
  30       14.9708
  31       15.4502
  32       18.2613
 
  0.2777778E+00  0.0000000E+00  0.0000000E+00  0.1286008E-03
   1       -4.6161
   2       -1.2480
   3       -0.6808
   4       -0.6808
   5       -0.3686
   6       -0.3378
   7       -0.3378
   8        0.5424
   9        1.0292
  10        1.0292
  11        1.2907
  12        1.2907
  13        1.4202
  14        1.7491
  15        1.9091
  16        1.9091
  17        2.0183
  18        2.0183
  19        2.1091
  20        2.3246
  21        2.3685
  22        2.3685
  23        7.3160
  24        7.3160
  25       11.4706
  26       11.4706
  27       13.5726
  28       13.5726
  29       14.6527
  30       14.6527
  31       16.1881
  32       18.5089
 
  0.3055556E+00  0.0000000E+00  0.0000000E+00  0.1286008E-03
   1       -4.4271
   2       -1.3403
   3       -0.6154
   4       -0.6154
   5       -0.3211
   6       -0.2796
   7       -0.2796
   8        0.4917
   9        1.0744
  10        1.0744
  11        1.1503
  12        1.1503
  13        1.3798
  14        1.7682
  15        1.8562
  16        1.8562
  17        1.9553
  18        1.9553
  19        2.0329
  20        2.0894
  21        2.3686
  22        2.3686
  23        7.6314
  24        7.6314
  25       11.5549
  26       11.5549
  27       13.1231
  28       13.1231
  29       14.3458
  30       14.3458
  31       16.9466
  32       18.7789
 
  0.3333333E+00  0.0000000E+00  0.0000000E+00  0.1286008E-03
   1       -4.2229
   2       -1.4630
   3       -0.5510
   4       -0.5510
   5       -0.2705
   6       -0.2156
   7       -0.2156
   8        0.4380
   9        1.0133
  10        1.0133
  11        1.1233
  12        1.1233
  13        1.3393
  14        1.7849
  15        1.7886
  16        1.8034
  17        1.8034
  18        1.8897
  19        1.8897
  20        2.0686
  21        2.3687
  22        2.3687
  23        7.9596
  24        7.9596
  25       11.6495
  26       11.6495
  27       12.6784
  28       12.6784
  29       14.0531
  30       14.0531
  31       17.7222
  32       19.0703
 
  0.3611111E+00  0.0000000E+00  0.0000000E+00  0.1286008E-03
   1       -4.0044
   2       -1.6182
   3       -0.4898
   4       -0.4898
   5       -0.2171
   6       -0.1456
   7       -0.1456
   8        0.3818
   9        0.8804
  10        0.8804
  11        1.1756
  12        1.1756
  13        1.2998
  14        1.5842
  15        1.7528
  16        1.7528
  17        1.8100
  18        1.8224
  19        1.8224
  20        2.0467
  21        2.3687
  22        2.3687
  23        8.2997
  24        8.2997
  25       11.7544
  26       11.7544
  27       12.2396
  28       12.2396
  29       13.7769
  30       13.7769
  31       18.5117
  32       19.3824
 
  0.3888889E+00  0.0000000E+00  0.0000000E+00  0.1286008E-03
   1       -3.7732
   2       -1.8050
   3       -0.4343
   4       -0.4343
   5       -0.1612
   6       -0.0697
   7       -0.0697
   8        0.3235
   9        0.7523
  10        0.7523
  11        1.2313
  12        1.2313
  13        1.2630
  14        1.4305
  15        1.7064
  16        1.7064
  17        1.7539
  18        1.7539
  19        1.8324
  20        2.0240
  21        2.3688
  22        2.3688
  23        8.6510
  24        8.6510
  25       11.8076
  26       11.8076
  27       11.8690
  28       11.8690
  29       13.5197
  30       13.5197
  31       19.3115
  32       19.7142
 
  0.4166667E+00  0.0000000E+00  0.0000000E+00  0.1286008E-03
   1       -3.5309
   2       -2.0193
   3       -0.3873
   4       -0.3873
   5       -0.1032
   6        0.0123
   7        0.0123
   8        0.2636
   9        0.6293
  10        0.6293
  11        1.2307
  12        1.2899
  13        1.2899
  14        1.3204
  15        1.6667
  16        1.6667
  17        1.6849
  18        1.6849
  19        1.8556
  20        2.0005
  21        2.3688
  22        2.3688
  23        9.0129
  24        9.0129
  25       11.3829
  26       11.3829
  27       11.9914
  28       11.9914
  29       13.2850
  30       13.2850
  31       20.0650
  32       20.0859
 
  0.4444444E+00  0.0000000E+00  0.0000000E+00  0.1286008E-03
   1       -3.2796
   2       -2.2548
   3       -0.3513
   4       -0.3513
   5       -0.0435
   6        0.1002
   7        0.1002
   8        0.2025
   9        0.5119
  10        0.5119
  11        1.2055
  12        1.2479
  13        1.3512
  14        1.3512
  15        1.6160
  16        1.6160
  17        1.6361
  18        1.6361
  19        1.8793
  20        1.9765
  21        2.3688
  22        2.3688
  23        9.3849
  24        9.3849
  25       10.9661
  26       10.9661
  27       12.1160
  28       12.1160
  29       13.0796
  30       13.0796
  31       20.4339
  32       20.4339
 
  0.4722222E+00  0.0000000E+00  0.0000000E+00  0.1286008E-03
   1       -3.0223
   2       -2.5048
   3       -0.3287
   4       -0.3287
   5        0.0173
   6        0.1408
   7        0.1942
   8        0.1942
   9        0.4001
  10        0.4001
  11        1.1904
  12        1.2064
  13        1.4148
  14        1.4148
  15        1.5477
  16        1.5477
  17        1.6168
  18        1.6168
  19        1.9034
  20        1.9523
  21        2.3689
  22        2.3689
  23        9.7665
  24        9.7665
  25       10.5575
  26       10.5575
  27       12.2254
  28       12.2254
  29       12.9213
  30       12.9213
  31       20.8201
  32       20.8201
 
  0.5000000E+00  0.0000000E+00  0.0000000E+00  0.6430041E-04
   1       -2.7625
   2       -2.7625
   3       -0.3209
   4       -0.3209
   5        0.0789
   6        0.0789
   7        0.2942
   8        0.2942
   9        0.2942
  10        0.2942
  11        1.1891
  12        1.1891
  13        1.4805
  14        1.4805
  15        1.4805
  16        1.4805
  17        1.6101
  18        1.6101
  19        1.9278
  20        1.9278
  21        2.3689
  22        2.3689
  23       10.1576
  24       10.1576
  25       10.1576
  26       10.1576
  27       12.2751
  28       12.2751
  29       12.8553
  30       12.8553
  31       21.2228
  32       21.2228
 
  0.2777778E-01  0.2777778E-01  0.0000000E+00  0.2572016E-03
   1       -5.5256
   2       -1.0662
   3       -1.0662
   4       -1.0618
   5       -0.6054
   6       -0.6054
   7       -0.6052
   8        0.8026
   9        0.8105
  10        0.8117
  11        1.6475
  12        1.6511
  13        2.2042
  14        2.2063
  15        2.2063
  16        2.3350
  17        2.3462
  18        2.3462
  19        2.3641
  20        2.3641
  21        2.3656
  22        5.3618
  23        5.3618
  24        5.4523
  25       11.1074
  26       11.1871
  27       11.1871
  28       16.9152
  29       17.1069
  30       17.1069
  31       17.1358
  32       17.1358
 
  0.5555556E-01  0.2777778E-01  0.0000000E+00  0.5144033E-03
   1       -5.4972
   2       -1.0661
   3       -1.0527
   4       -1.0484
   5       -0.5977
   6       -0.5973
   7       -0.5972
   8        0.7948
   9        0.8167
  10        0.8184
  11        1.6405
  12        1.6536
  13        2.1943
  14        2.1957
  15        2.2026
  16        2.2851
  17        2.2945
  18        2.3345
  19        2.3523
  20        2.3641
  21        2.3642
  22        5.1796
  23        5.4389
  24        5.5288
  25       11.1177
  26       11.1979
  27       11.4257
  28       16.6366
  29       16.9029
  30       17.0093
  31       17.1483
  32       17.1650
 
  0.8333333E-01  0.2777778E-01  0.0000000E+00  0.5144033E-03
   1       -5.4499
   2       -1.0665
   3       -1.0305
   4       -1.0264
   5       -0.5851
   6       -0.5839
   7       -0.5838
   8        0.7808
   9        0.8279
  10        0.8296
  11        1.6278
  12        1.6587
  13        2.1752
  14        2.1778
  15        2.1963
  16        2.2053
  17        2.2167
  18        2.3152
  19        2.3328
  20        2.3638
  21        2.3642
  22        4.9059
  23        5.5618
  24        5.6512
  25       11.1349
  26       11.2161
  27       11.7940
  28       16.2938
  29       16.6004
  30       16.8125
  31       17.0354
  32       17.2172
 
  0.1111111E+00  0.2777778E-01  0.0000000E+00  0.5144033E-03
   1       -5.3838
   2       -1.0685
   3       -1.0000
   4       -0.9959
   5       -0.5675
   6       -0.5650
   7       -0.5649
   8        0.7614
   9        0.8436
  10        0.8453
  11        1.6103
  12        1.6660
  13        2.1019
  14        2.1024
  15        2.1550
  16        2.1624
  17        2.1872
  18        2.2889
  19        2.3059
  20        2.3637
  21        2.3642
  22        4.5706
  23        5.7242
  24        5.8132
  25       11.1593
  26       11.2418
  27       12.2629
  28       15.9082
  29       16.2323
  30       16.5618
  31       16.8252
  32       17.3128
 
  0.1388889E+00  0.2777778E-01  0.0000000E+00  0.5144033E-03
   1       -5.2992
   2       -1.0735
   3       -0.9615
   4       -0.9577
   5       -0.5450
   6       -0.5407
   7       -0.5407
   8        0.7366
   9        0.8639
  10        0.8653
  11        1.5880
  12        1.6753
  13        1.9828
  14        1.9829
  15        2.1260
  16        2.1310
  17        2.1746
  18        2.2566
  19        2.2721
  20        2.3637
  21        2.3642
  22        4.1994
  23        5.9196
  24        6.0087
  25       11.1911
  26       11.2753
  27       12.8080
  28       15.4957
  29       15.8233
  30       16.2733
  31       16.5577
  32       17.4355
 
  0.1666667E+00  0.2777778E-01  0.0000000E+00  0.5144033E-03
   1       -5.1961
   2       -1.0836
   3       -0.9157
   4       -0.9122
   5       -0.5179
   6       -0.5110
   7       -0.5109
   8        0.7067
   9        0.8885
  10        0.8896
  11        1.5615
  12        1.6865
  13        1.8510
  14        1.8517
  15        2.0913
  16        2.0956
  17        2.1566
  18        2.2206
  19        2.2318
  20        2.3637
  21        2.3643
  22        3.8125
  23        6.1424
  24        6.2322
  25       11.2306
  26       11.3170
  27       13.4111
  28       15.0677
  29       15.3904
  30       15.9611
  31       16.2529
  32       17.5831
 
  0.1944444E+00  0.2777778E-01  0.0000000E+00  0.5144033E-03
   1       -5.0750
   2       -1.1016
   3       -0.8636
   4       -0.8603
   5       -0.4862
   6       -0.4757
   7       -0.4756
   8        0.6720
   9        0.9175
  10        0.9182
  11        1.5311
  12        1.6995
  13        1.7119
  14        1.7137
  15        2.0513
  16        2.0552
  17        2.1280
  18        2.1856
  19        2.1862
  20        2.3638
  21        2.3643
  22        3.4255
  23        6.3882
  24        6.4795
  25       11.2781
  26       11.3672
  27       14.0592
  28       14.6317
  29       14.9441
  30       15.6363
  31       15.9266
  32       17.7566
 
  0.2222222E+00  0.2777778E-01  0.0000000E+00  0.5144033E-03
   1       -4.9362
   2       -1.1310
   3       -0.8060
   4       -0.8030
   5       -0.4503
   6       -0.4349
   7       -0.4347
   8        0.6328
   9        0.9507
  10        0.9509
  11        1.4973
  12        1.5694
  13        1.5720
  14        1.7144
  15        2.0067
  16        2.0103
  17        2.0831
  18        2.1341
  19        2.1589
  20        2.3639
  21        2.3644
  22        3.0512
  23        6.6535
  24        6.7469
  25       11.3339
  26       11.4264
  27       14.1927
  28       14.4916
  29       14.7433
  30       15.3076
  31       15.5905
  32       17.9542
 
  0.2500000E+00  0.2777778E-01  0.0000000E+00  0.5144033E-03
   1       -4.7800
   2       -1.1762
   3       -0.7441
   4       -0.7415
   5       -0.4102
   6       -0.3885
   7       -0.3881
   8        0.5895
   9        0.9876
  10        0.9880
  11        1.4259
  12        1.4292
  13        1.4608
  14        1.7309
  15        1.9583
  16        1.9616
  17        2.0232
  18        2.0781
  19        2.1360
  20        2.3639
  21        2.3644
  22        2.7020
  23        6.9357
  24        7.0319
  25       11.3986
  26       11.4951
  27       13.7544
  28       14.0373
  29       14.9815
  30       15.2532
  31       15.4568
  32       18.1755
 
  0.2777778E+00  0.2777778E-01  0.0000000E+00  0.5144033E-03
   1       -4.6071
   2       -1.2423
   3       -0.6796
   4       -0.6772
   5       -0.3664
   6       -0.3364
   7       -0.3358
   8        0.5423
   9        1.0280
  10        1.0293
  11        1.2834
  12        1.2873
  13        1.4224
  14        1.7489
  15        1.9071
  16        1.9102
  17        1.9473
  18        2.0183
  19        2.1132
  20        2.3640
  21        2.3645
  22        2.3930
  23        7.2327
  24        7.3326
  25       11.4721
  26       11.5737
  27       13.3192
  28       13.5844
  29       14.6630
  30       14.9210
  31       16.1946
  32       18.4196
 
  0.3055556E+00  0.2777778E-01  0.0000000E+00  0.5144033E-03
   1       -4.4182
   2       -1.3344
   3       -0.6139
   4       -0.6119
   5       -0.3191
   6       -0.2786
   7       -0.2778
   8        0.4918
   9        1.0717
  10        1.0745
  11        1.1433
  12        1.1476
  13        1.3832
  14        1.7683
  15        1.8433
  16        1.8544
  17        1.8573
  18        1.9552
  19        2.0810
  20        2.1547
  21        2.3641
  22        2.3645
  23        7.5430
  24        7.6473
  25       11.5544
  26       11.6629
  27       12.8892
  28       13.1349
  29       14.3558
  30       14.5986
  31       16.9527
  32       18.6857
 
  0.3333333E+00  0.2777778E-01  0.0000000E+00  0.5144033E-03
   1       -4.2141
   2       -1.4568
   3       -0.5492
   4       -0.5475
   5       -0.2686
   6       -0.2151
   7       -0.2139
   8        0.4382
   9        1.0066
  10        1.0111
  11        1.1179
  12        1.1233
  13        1.3450
  14        1.6965
  15        1.7889
  16        1.8019
  17        1.8045
  18        1.8897
  19        1.9678
  20        2.0802
  21        2.3642
  22        2.3645
  23        7.8653
  24        7.9748
  25       11.6431
  26       11.7629
  27       12.4683
  28       12.6903
  29       14.0629
  30       14.2894
  31       17.7273
  32       18.9718
 
  0.3611111E+00  0.2777778E-01  0.0000000E+00  0.5144033E-03
   1       -3.9958
   2       -1.6117
   3       -0.4877
   4       -0.4862
   5       -0.2153
   6       -0.1457
   7       -0.1441
   8        0.3821
   9        0.8741
  10        0.8788
  11        1.1643
  12        1.1757
  13        1.3112
  14        1.5361
  15        1.7515
  16        1.7538
  17        1.8107
  18        1.8223
  19        1.8644
  20        2.0541
  21        2.3643
  22        2.3646
  23        8.1988
  24        8.3144
  25       11.7199
  26       11.8737
  27       12.0756
  28       12.2516
  29       13.7866
  30       13.9963
  31       18.5136
  32       19.2789
 
  0.3888889E+00  0.2777778E-01  0.0000000E+00  0.5144033E-03
   1       -3.7647
   2       -1.7983
   3       -0.4320
   4       -0.4307
   5       -0.1595
   6       -0.0705
   7       -0.0683
   8        0.3240
   9        0.7464
  10        0.7512
  11        1.2007
  12        1.2313
  13        1.2932
  14        1.3994
  15        1.7053
  16        1.7073
  17        1.7539
  18        1.7805
  19        1.8335
  20        2.0296
  21        2.3643
  22        2.3646
  23        8.5426
  24        8.6652
  25       11.5649
  26       11.8197
  27       11.9315
  28       11.9947
  29       13.5299
  30       13.7217
  31       19.2996
  32       19.6029
 
  0.4166667E+00  0.2777778E-01  0.0000000E+00  0.5144033E-03
   1       -3.5226
   2       -2.0123
   3       -0.3846
   4       -0.3836
   5       -0.1016
   6        0.0107
   7        0.0134
   8        0.2642
   9        0.6239
  10        0.6287
  11        1.2037
  12        1.2899
  13        1.2977
  14        1.3162
  15        1.6659
  16        1.6674
  17        1.6849
  18        1.7040
  19        1.8570
  20        2.0052
  21        2.3644
  22        2.3646
  23        8.8960
  24        9.0267
  25       11.1834
  26       11.3952
  27       12.0301
  28       12.1234
  29       13.2967
  30       13.4685
  31       19.9442
  32       19.9455
 
  0.4444444E+00  0.2777778E-01  0.0000000E+00  0.5144033E-03
   1       -3.2715
   2       -2.2476
   3       -0.3483
   4       -0.3476
   5       -0.0421
   6        0.0979
   7        0.1011
   8        0.2033
   9        0.5070
  10        0.5116
  11        1.1880
  12        1.2298
  13        1.3512
  14        1.3677
  15        1.6160
  16        1.6312
  17        1.6356
  18        1.6367
  19        1.8811
  20        1.9804
  21        2.3645
  22        2.3646
  23        9.2585
  24        9.3983
  25       10.7875
  26       10.9785
  27       12.1560
  28       12.2516
  29       13.0963
  30       13.2414
  31       20.3047
  32       20.3427
 
  0.4722222E+00  0.2777778E-01  0.0000000E+00  0.5144033E-03
   1       -3.0143
   2       -2.4973
   3       -0.3254
   4       -0.3250
   5        0.0185
   6        0.1417
   7        0.1911
   8        0.1948
   9        0.3957
  10        0.4002
  11        1.1755
  12        1.1908
  13        1.4148
  14        1.4282
  15        1.5477
  16        1.5609
  17        1.6165
  18        1.6171
  19        1.9057
  20        1.9555
  21        2.3645
  22        2.3646
  23        9.6296
  24        9.7797
  25       10.3950
  26       10.5701
  27       12.2809
  28       12.3531
  29       12.9559
  30       13.0523
  31       20.6792
  32       20.7309
 
  0.5000000E+00  0.2777778E-01  0.0000000E+00  0.2572016E-03
   1       -2.7548
   2       -2.7548
   3       -0.3174
   4       -0.3174
   5        0.0800
   6        0.0800
   7        0.2904
   8        0.2904
   9        0.2945
  10        0.2945
  11        1.1746
  12        1.1746
  13        1.4804
  14        1.4804
  15        1.4931
  16        1.4931
  17        1.6102
  18        1.6102
  19        1.9306
  20        1.9306
  21        2.3646
  22        2.3646
  23       10.0086
  24       10.0086
  25       10.1704
  26       10.1704
  27       12.3674
  28       12.3674
  29       12.9365
  30       12.9365
  31       21.0679
  32       21.0854
 
  0.5555556E-01  0.5555556E-01  0.0000000E+00  0.2572016E-03
   1       -5.4688
   2       -1.0525
   3       -1.0525
   4       -1.0352
   5       -0.5897
   6       -0.5897
   7       -0.5892
   8        0.7893
   9        0.8206
  10        0.8249
  11        1.6375
  12        1.6522
  13        2.1845
  14        2.1898
  15        2.1898
  16        2.2422
  17        2.2840
  18        2.2840
  19        2.3523
  20        2.3523
  21        2.3580
  22        5.2563
  23        5.2563
  24        5.6032
  25       11.1280
  26       11.4380
  27       11.4380
  28       16.2788
  29       16.9433
  30       16.9433
  31       17.0501
  32       17.0501
 
  0.8333333E-01  0.5555556E-01  0.0000000E+00  0.5144033E-03
   1       -5.4215
   2       -1.0528
   3       -1.0301
   4       -1.0133
   5       -0.5771
   6       -0.5764
   7       -0.5760
   8        0.7770
   9        0.8302
  10        0.8357
  11        1.6271
  12        1.6556
  13        2.1590
  14        2.1682
  15        2.1688
  16        2.1791
  17        2.2153
  18        2.2674
  19        2.3328
  20        2.3523
  21        2.3544
  22        4.9826
  23        5.3781
  24        5.7224
  25       11.1452
  26       11.4585
  27       11.8080
  28       15.8800
  29       16.6395
  30       16.8522
  31       17.0102
  32       17.1178
 
  0.1111111E+00  0.5555556E-01  0.0000000E+00  0.5144033E-03
   1       -5.3556
   2       -1.0545
   3       -0.9993
   4       -0.9831
   5       -0.5596
   6       -0.5576
   7       -0.5574
   8        0.7584
   9        0.8452
  10        0.8508
  11        1.6104
  12        1.6625
  13        2.0713
  14        2.0766
  15        2.1457
  16        2.1622
  17        2.1689
  18        2.2464
  19        2.3059
  20        2.3523
  21        2.3525
  22        4.6482
  23        5.5383
  24        5.8809
  25       11.1696
  26       11.4875
  27       12.2786
  28       15.4571
  29       16.2702
  30       16.6002
  31       17.1034
  32       17.1652
 
  0.1388889E+00  0.5555556E-01  0.0000000E+00  0.5144033E-03
   1       -5.2711
   2       -1.0592
   3       -0.9605
   4       -0.9451
   5       -0.5374
   6       -0.5335
   7       -0.5334
   8        0.7342
   9        0.8651
  10        0.8701
  11        1.5887
  12        1.6719
  13        1.9562
  14        1.9591
  15        2.1172
  16        2.1352
  17        2.1364
  18        2.2235
  19        2.2720
  20        2.3516
  21        2.3523
  22        4.2794
  23        5.7303
  24        6.0727
  25       11.2013
  26       11.5253
  27       12.8251
  28       15.0211
  29       15.8603
  30       16.3104
  31       16.9720
  32       17.2222
 
  0.1666667E+00  0.5555556E-01  0.0000000E+00  0.5144033E-03
   1       -5.1682
   2       -1.0689
   3       -0.9144
   4       -0.9000
   5       -0.5104
   6       -0.5040
   7       -0.5039
   8        0.7048
   9        0.8894
  10        0.8935
  11        1.5628
  12        1.6835
  13        1.8276
  14        1.8293
  15        2.0829
  16        2.0990
  17        2.0994
  18        2.2010
  19        2.2317
  20        2.3512
  21        2.3523
  22        3.8967
  23        5.9483
  24        6.2927
  25       11.2406
  26       11.5723
  27       13.4293
  28       14.5797
  29       15.4266
  30       15.9968
  31       16.7172
  32       17.3662
 
  0.1944444E+00  0.5555556E-01  0.0000000E+00  0.5144033E-03
   1       -5.0473
   2       -1.0864
   3       -0.8618
   4       -0.8485
   5       -0.4790
   6       -0.4692
   7       -0.4688
   8        0.6705
   9        0.9182
  10        0.9209
  11        1.5331
  12        1.6888
  13        1.6948
  14        1.6971
  15        2.0435
  16        2.0502
  17        2.0583
  18        2.1793
  19        2.1855
  20        2.3509
  21        2.3523
  22        3.5166
  23        6.1878
  24        6.5367
  25       11.2876
  26       11.6289
  27       14.0783
  28       14.1381
  29       14.9799
  30       15.6707
  31       16.4221
  32       17.5345
 
  0.2222222E+00  0.5555556E-01  0.0000000E+00  0.5144033E-03
   1       -4.9086
   2       -1.1153
   3       -0.8036
   4       -0.7916
   5       -0.4432
   6       -0.4290
   7       -0.4281
   8        0.6317
   9        0.9513
  10        0.9521
  11        1.5002
  12        1.5466
  13        1.5563
  14        1.7125
  15        1.9883
  16        1.9995
  17        2.0133
  18        2.1340
  19        2.1576
  20        2.3508
  21        2.3523
  22        3.1530
  23        6.4454
  24        6.8012
  25       11.3426
  26       11.6956
  27       13.7001
  28       14.5270
  29       14.7629
  30       15.3408
  31       16.1032
  32       17.7262
 
  0.2500000E+00  0.5555556E-01  0.0000000E+00  0.5144033E-03
   1       -4.7527
   2       -1.1598
   3       -0.7412
   4       -0.7305
   5       -0.4035
   6       -0.3833
   7       -0.3819
   8        0.5887
   9        0.9868
  10        0.9885
  11        1.4037