   4   4   0   0
  0.1202561E+02  0.3636824E-09  0.3636824E-09  0.3636824E-09  0.5000000E-15
  1.000000000000000E-004
  CAR 
 unknown system                          
     26.50358086     -7.10108345  301      3.65104885      1.00000000
     -7.101  0.0000E+00  0.0000E+00
     -6.989  0.0000E+00  0.0000E+00
     -6.877  0.0000E+00  0.0000E+00
     -6.765  0.0000E+00  0.0000E+00
     -6.653  0.0000E+00  0.0000E+00
     -6.541  0.0000E+00  0.0000E+00
     -6.429  0.0000E+00  0.0000E+00
     -6.317  0.0000E+00  0.0000E+00
     -6.205  0.0000E+00  0.0000E+00
     -6.093  0.0000E+00  0.0000E+00
     -5.981  0.0000E+00  0.0000E+00
     -5.869  0.0000E+00  0.0000E+00
     -5.757  0.0000E+00  0.0000E+00
     -5.645  0.0000E+00  0.0000E+00
     -5.533  0.1395E-01  0.1562E-02
     -5.421  0.7193E-01  0.1153E-01
     -5.309  0.1074E+00  0.2768E-01
     -5.197  0.1303E+00  0.4679E-01
     -5.085  0.1522E+00  0.7008E-01
     -4.973  0.1631E+00  0.9505E-01
     -4.861  0.1715E+00  0.1251E+00
     -4.749  0.2342E+00  0.1579E+00
     -4.637  0.1949E+00  0.1885E+00
     -4.525  0.2229E+00  0.2243E+00
     -4.413  0.2514E+00  0.2617E+00
     -4.301  0.2594E+00  0.3035E+00
     -4.189  0.3432E+00  0.3492E+00
     -4.077  0.2632E+00  0.3889E+00
     -3.965  0.2933E+00  0.4383E+00
     -3.853  0.3246E+00  0.4861E+00
     -3.741  0.3202E+00  0.5397E+00
     -3.629  0.3027E+00  0.5917E+00
     -3.517  0.4030E+00  0.6526E+00
     -3.405  0.4093E+00  0.7109E+00
     -3.293  0.3831E+00  0.7685E+00
     -3.181  0.3909E+00  0.8365E+00
     -3.069  0.4014E+00  0.9005E+00
     -2.957  0.4462E+00  0.9735E+00
     -2.844  0.4752E+00  0.1048E+01
     -2.732  0.4620E+00  0.1120E+01
     -2.620  0.4856E+00  0.1205E+01
     -2.508  0.5614E+00  0.1289E+01
     -2.396  0.5866E+00  0.1382E+01
     -2.284  0.6687E+00  0.1475E+01
     -2.172  0.6398E+00  0.1577E+01
     -2.060  0.7521E+00  0.1688E+01
     -1.948  0.7528E+00  0.1802E+01
     -1.836  0.8855E+00  0.1933E+01
     -1.724  0.9409E+00  0.2075E+01
     -1.612  0.9991E+00  0.2229E+01
     -1.500  0.1219E+01  0.2419E+01
     -1.388  0.1555E+01  0.2650E+01
     -1.276  0.1989E+01  0.2958E+01
     -1.164  0.2405E+01  0.3325E+01
     -1.052  0.3306E+01  0.3839E+01
     -0.940  0.3608E+01  0.4389E+01
     -0.828  0.3580E+01  0.4949E+01
     -0.716  0.3719E+01  0.5552E+01
     -0.604  0.5219E+01  0.6312E+01
     -0.492  0.6102E+01  0.7252E+01
     -0.380  0.7240E+01  0.8358E+01
     -0.268  0.6587E+01  0.9416E+01
     -0.156  0.5958E+01  0.1037E+02
     -0.044  0.6313E+01  0.1136E+02
      0.068  0.5916E+01  0.1230E+02
      0.180  0.6609E+01  0.1332E+02
      0.292  0.8104E+01  0.1460E+02
      0.404  0.9303E+01  0.1603E+02
      0.516  0.9228E+01  0.1749E+02
      0.628  0.1160E+02  0.1927E+02
      0.740  0.1173E+02  0.2109E+02
      0.852  0.1437E+02  0.2327E+02
      0.964  0.9166E+01  0.2477E+02
      1.076  0.7497E+01  0.2598E+02
      1.188  0.7480E+01  0.2718E+02
      1.300  0.1015E+02  0.2871E+02
      1.412  0.1135E+02  0.3044E+02
      1.524  0.1039E+02  0.3210E+02
      1.636  0.9191E+01  0.3359E+02
      1.748  0.9489E+01  0.3507E+02
      1.860  0.1088E+02  0.3673E+02
      1.972  0.1734E+02  0.3923E+02
      2.084  0.1107E+02  0.4136E+02
      2.196  0.1834E+01  0.4194E+02
      2.308  0.1029E+01  0.4214E+02
      2.420  0.1078E+01  0.4233E+02
      2.532  0.1050E+01  0.4251E+02
      2.644  0.9649E+00  0.4267E+02
      2.756  0.9845E+00  0.4283E+02
      2.868  0.1094E+01  0.4300E+02
      2.980  0.1094E+01  0.4316E+02
      3.092  0.9979E+00  0.4330E+02
      3.204  0.9239E+00  0.4345E+02
      3.316  0.9850E+00  0.4359E+02
      3.428  0.9543E+00  0.4374E+02
      3.540  0.9500E+00  0.4387E+02
      3.652  0.7195E+00  0.4400E+02
      3.764  0.9588E+00  0.4416E+02
      3.876  0.7920E+00  0.4427E+02
      3.988  0.9061E+00  0.4441E+02
      4.100  0.7485E+00  0.4454E+02
      4.212  0.8364E+00  0.4465E+02
      4.325  0.8794E+00  0.4479E+02
      4.437  0.6920E+00  0.4490E+02
      4.549  0.9015E+00  0.4503E+02
      4.661  0.6471E+00  0.4515E+02
      4.773  0.7207E+00  0.4526E+02
      4.885  0.8507E+00  0.4540E+02
      4.997  0.6937E+00  0.4550E+02
      5.109  0.8187E+00  0.4562E+02
      5.221  0.6716E+00  0.4573E+02
      5.333  0.7635E+00  0.4585E+02
      5.445  0.7435E+00  0.4596E+02
      5.557  0.6413E+00  0.4608E+02
      5.669  0.7088E+00  0.4618E+02
      5.781  0.6418E+00  0.4629E+02
      5.893  0.6180E+00  0.4640E+02
      6.005  0.6175E+00  0.4649E+02
      6.117  0.6643E+00  0.4659E+02
      6.229  0.6182E+00  0.4668E+02
      6.341  0.4180E+00  0.4677E+02
      6.453  0.5328E+00  0.4686E+02
      6.565  0.5342E+00  0.4696E+02
      6.677  0.4795E+00  0.4703E+02
      6.789  0.4838E+00  0.4711E+02
      6.901  0.4038E+00  0.4718E+02
      7.013  0.5259E+00  0.4727E+02
      7.125  0.4135E+00  0.4733E+02
      7.237  0.4090E+00  0.4740E+02
      7.349  0.4861E+00  0.4748E+02
      7.461  0.7439E+00  0.4759E+02
      7.573  0.8165E+00  0.4770E+02
      7.685  0.7556E+00  0.4784E+02
      7.797  0.8144E+00  0.4797E+02
      7.909  0.9563E+00  0.4810E+02
      8.021  0.8185E+00  0.4823E+02
      8.133  0.7254E+00  0.4836E+02
      8.245  0.8471E+00  0.4849E+02
      8.357  0.7943E+00  0.4862E+02
      8.469  0.8428E+00  0.4875E+02
      8.581  0.7603E+00  0.4888E+02
      8.693  0.9483E+00  0.4902E+02
      8.805  0.8389E+00  0.4914E+02
      8.917  0.8185E+00  0.4926E+02
      9.029  0.8217E+00  0.4939E+02
      9.141  0.7177E+00  0.4950E+02
      9.253  0.6722E+00  0.4962E+02
      9.365  0.6870E+00  0.4974E+02
      9.477  0.7104E+00  0.4986E+02
      9.589  0.6393E+00  0.4996E+02
      9.701  0.7316E+00  0.5008E+02
      9.813  0.5980E+00  0.5019E+02
      9.925  0.6888E+00  0.5029E+02
     10.037  0.6992E+00  0.5041E+02
     10.149  0.6888E+00  0.5051E+02
     10.261  0.6189E+00  0.5061E+02
     10.373  0.6059E+00  0.5071E+02
     10.485  0.7683E+00  0.5083E+02
     10.597  0.6549E+00  0.5092E+02
     10.709  0.6829E+00  0.5103E+02
     10.821  0.9005E+00  0.5117E+02
     10.933  0.7767E+00  0.5130E+02
     11.045  0.9638E+00  0.5145E+02
     11.157  0.8765E+00  0.5159E+02
     11.269  0.8369E+00  0.5172E+02
     11.381  0.9792E+00  0.5186E+02
     11.493  0.8617E+00  0.5201E+02
     11.606  0.9241E+00  0.5216E+02
     11.718  0.9268E+00  0.5231E+02
     11.830  0.9703E+00  0.5247E+02
     11.942  0.1118E+01  0.5264E+02
     12.054  0.1046E+01  0.5279E+02
     12.166  0.9373E+00  0.5295E+02
     12.278  0.9897E+00  0.5310E+02
     12.390  0.1103E+01  0.5325E+02
     12.502  0.9265E+00  0.5341E+02
     12.614  0.1020E+01  0.5358E+02
     12.726  0.1064E+01  0.5374E+02
     12.838  0.9004E+00  0.5389E+02
     12.950  0.9957E+00  0.5405E+02
     13.062  0.1090E+01  0.5422E+02
     13.174  0.9890E+00  0.5438E+02
     13.286  0.1114E+01  0.5456E+02
     13.398  0.9336E+00  0.5470E+02
     13.510  0.1062E+01  0.5487E+02
     13.622  0.1134E+01  0.5503E+02
     13.734  0.1198E+01  0.5521E+02
     13.846  0.1141E+01  0.5538E+02
     13.958  0.1021E+01  0.5553E+02
     14.070  0.1029E+01  0.5570E+02
     14.182  0.1095E+01  0.5586E+02
     14.294  0.1187E+01  0.5604E+02
     14.406  0.1070E+01  0.5620E+02
     14.518  0.1077E+01  0.5638E+02
     14.630  0.1152E+01  0.5655E+02
     14.742  0.1219E+01  0.5673E+02
     14.854  0.1043E+01  0.5689E+02
     14.966  0.1146E+01  0.5706E+02
     15.078  0.1101E+01  0.5723E+02
     15.190  0.1220E+01  0.5742E+02
     15.302  0.1201E+01  0.5759E+02
     15.414  0.1100E+01  0.5777E+02
     15.526  0.1076E+01  0.5793E+02
     15.638  0.1188E+01  0.5812E+02
     15.750  0.1068E+01  0.5829E+02
     15.862  0.1191E+01  0.5848E+02
     15.974  0.1177E+01  0.5866E+02
     16.086  0.9655E+00  0.5884E+02
     16.198  0.1322E+01  0.5904E+02
     16.310  0.1086E+01  0.5922E+02
     16.422  0.1153E+01  0.5940E+02
     16.534  0.1383E+01  0.5960E+02
     16.646  0.1320E+01  0.5980E+02
     16.758  0.1220E+01  0.6000E+02
     16.870  0.1186E+01  0.6018E+02
     16.982  0.1373E+01  0.6039E+02
     17.094  0.1147E+01  0.6055E+02
     17.206  0.1127E+01  0.6073E+02
     17.318  0.1011E+01  0.6089E+02
     17.430  0.1168E+01  0.6108E+02
     17.542  0.1054E+01  0.6124E+02
     17.654  0.9760E+00  0.6140E+02
     17.766  0.9259E+00  0.6154E+02
     17.878  0.9042E+00  0.6169E+02
     17.990  0.6962E+00  0.6182E+02
     18.102  0.9481E+00  0.6195E+02
     18.214  0.7754E+00  0.6207E+02
     18.326  0.5756E+00  0.6217E+02
     18.438  0.6685E+00  0.6227E+02
     18.550  0.5755E+00  0.6237E+02
     18.662  0.5160E+00  0.6244E+02
     18.775  0.5557E+00  0.6254E+02
     18.887  0.5449E+00  0.6262E+02
     18.999  0.4679E+00  0.6269E+02
     19.111  0.5700E+00  0.6276E+02
     19.223  0.4742E+00  0.6283E+02
     19.335  0.4116E+00  0.6289E+02
     19.447  0.4710E+00  0.6296E+02
     19.559  0.4023E+00  0.6302E+02
     19.671  0.2719E+00  0.6307E+02
     19.783  0.3746E+00  0.6313E+02
     19.895  0.3206E+00  0.6318E+02
     20.007  0.2120E+00  0.6322E+02
     20.119  0.4329E+00  0.6328E+02
     20.231  0.2320E+00  0.6331E+02
     20.343  0.2738E+00  0.6335E+02
     20.455  0.1806E+00  0.6339E+02
     20.567  0.2908E+00  0.6343E+02
     20.679  0.1559E+00  0.6346E+02
     20.791  0.2804E+00  0.6349E+02
     20.903  0.1948E+00  0.6352E+02
     21.015  0.1559E+00  0.6355E+02
     21.127  0.2403E+00  0.6359E+02
     21.239  0.1261E+00  0.6360E+02
     21.351  0.1399E+00  0.6363E+02
     21.463  0.1213E+00  0.6365E+02
     21.575  0.2072E+00  0.6369E+02
     21.687  0.7629E-01  0.6370E+02
     21.799  0.1977E+00  0.6373E+02
     21.911  0.1236E+00  0.6375E+02
     22.023  0.1382E+00  0.6377E+02
     22.135  0.3674E-01  0.6378E+02
     22.247  0.1737E+00  0.6380E+02
     22.359  0.1029E+00  0.6382E+02
     22.471  0.7273E-01  0.6383E+02
     22.583  0.4817E-01  0.6385E+02
     22.695  0.5847E-01  0.6386E+02
     22.807  0.8266E-01  0.6387E+02
     22.919  0.1020E+00  0.6388E+02
     23.031  0.7346E-01  0.6390E+02
     23.143  0.3549E-01  0.6390E+02
     23.255  0.1064E+00  0.6392E+02
     23.367  0.1837E-01  0.6392E+02
     23.479  0.5447E-01  0.6393E+02
     23.591  0.4231E-01  0.6394E+02
     23.703  0.8173E-01  0.6395E+02
     23.815  0.1820E-01  0.6395E+02
     23.927  0.4963E-01  0.6396E+02
     24.039  0.3612E-01  0.6397E+02
     24.151  0.2384E-01  0.6397E+02
     24.263  0.3365E-01  0.6398E+02
     24.375  0.3674E-01  0.6398E+02
     24.487  0.2136E-01  0.6399E+02
     24.599  0.1025E-01  0.6399E+02
     24.711  0.3057E-01  0.6399E+02
     24.823  0.2755E-01  0.6400E+02
     24.935  0.2753E-01  0.6400E+02
     25.047  0.3061E-02  0.6400E+02
     25.159  0.0000E+00  0.6400E+02
     25.271  0.0000E+00  0.6400E+02
     25.383  0.0000E+00  0.6400E+02
     25.495  0.0000E+00  0.6400E+02
     25.607  0.0000E+00  0.6400E+02
     25.719  0.0000E+00  0.6400E+02
     25.831  0.0000E+00  0.6400E+02
     25.944  0.0000E+00  0.6400E+02
     26.056  0.0000E+00  0.6400E+02
     26.168  0.0000E+00  0.6400E+02
     26.280  0.0000E+00  0.6400E+02
     26.392  0.0000E+00  0.6400E+02
     26.504  0.0000E+00  0.6400E+02
