   4   4   0   0
  0.2225309E+02  0.4464952E-09  0.4464952E-09  0.4464952E-09  0.5000000E-15
  1.000000000000000E-004
  CAR 
 unknown system                          
     13.13313383     -5.42033750  301      2.81596382      1.00000000
     -5.420  0.0000E+00  0.0000E+00
     -5.358  0.0000E+00  0.0000E+00
     -5.297  0.0000E+00  0.0000E+00
     -5.235  0.0000E+00  0.0000E+00
     -5.173  0.0000E+00  0.0000E+00
     -5.111  0.0000E+00  0.0000E+00
     -5.049  0.0000E+00  0.0000E+00
     -4.987  0.0000E+00  0.0000E+00
     -4.926  0.0000E+00  0.0000E+00
     -4.864  0.0000E+00  0.0000E+00
     -4.802  0.0000E+00  0.0000E+00
     -4.740  0.0000E+00  0.0000E+00
     -4.678  0.0000E+00  0.0000E+00
     -4.616  0.2442E-09  0.1511E-10
     -4.555  0.1870E-01  0.1157E-02
     -4.493  0.1120E+00  0.8087E-02
     -4.431  0.2235E+00  0.2193E-01
     -4.369  0.1487E+00  0.3119E-01
     -4.307  0.1115E+00  0.3808E-01
     -4.245  0.4437E+00  0.6552E-01
     -4.183  0.4515E+00  0.9344E-01
     -4.122  0.4977E-02  0.9375E-01
     -4.060  0.2230E+00  0.1075E+00
     -3.998  0.5594E+00  0.1421E+00
     -3.936  0.4483E+00  0.1699E+00
     -3.874  0.4526E+00  0.1979E+00
     -3.812  0.1497E+00  0.2072E+00
     -3.751  0.4495E+00  0.2350E+00
     -3.689  0.8980E+00  0.2905E+00
     -3.627  0.4317E-06  0.2905E+00
     -3.565  0.4975E+00  0.3213E+00
     -3.503  0.5734E+00  0.3567E+00
     -3.441  0.1046E+01  0.4214E+00
     -3.379  0.2744E+00  0.4384E+00
     -3.318  0.1488E+01  0.5304E+00
     -3.256  0.4772E-01  0.5336E+00
     -3.194  0.4390E+00  0.5607E+00
     -3.132  0.9638E-01  0.5667E+00
     -3.070  0.1534E+01  0.6615E+00
     -3.008  0.1117E+01  0.7306E+00
     -2.947  0.6690E+00  0.7720E+00
     -2.885  0.6959E+00  0.8150E+00
     -2.823  0.1101E+01  0.8831E+00
     -2.761  0.1196E+01  0.9570E+00
     -2.699  0.7572E+00  0.1004E+01
     -2.637  0.2251E+01  0.1143E+01
     -2.575  0.8782E+00  0.1198E+01
     -2.514  0.1795E+01  0.1309E+01
     -2.452  0.2715E+01  0.1477E+01
     -2.390  0.4516E+01  0.1756E+01
     -2.328  0.2058E+01  0.1883E+01
     -2.266  0.4972E+01  0.2191E+01
     -2.204  0.4152E+01  0.2447E+01
     -2.143  0.2977E+01  0.2632E+01
     -2.081  0.8569E+01  0.3162E+01
     -2.019  0.7701E+01  0.3638E+01
     -1.957  0.6899E+01  0.4065E+01
     -1.895  0.1344E+02  0.4896E+01
     -1.833  0.9902E+01  0.5508E+01
     -1.771  0.8709E+01  0.6047E+01
     -1.710  0.1526E+02  0.6991E+01
     -1.648  0.7553E+01  0.7458E+01
     -1.586  0.7329E+01  0.7911E+01
     -1.524  0.1214E+02  0.8662E+01
     -1.462  0.7852E+01  0.9148E+01
     -1.400  0.7049E+01  0.9584E+01
     -1.339  0.7631E+01  0.1006E+02
     -1.277  0.7608E+01  0.1053E+02
     -1.215  0.1193E+02  0.1126E+02
     -1.153  0.7089E+01  0.1170E+02
     -1.091  0.1364E+02  0.1255E+02
     -1.029  0.1193E+02  0.1328E+02
     -0.968  0.1527E+02  0.1423E+02
     -0.906  0.1122E+02  0.1492E+02
     -0.844  0.1476E+02  0.1584E+02
     -0.782  0.1007E+02  0.1646E+02
     -0.720  0.1370E+02  0.1731E+02
     -0.658  0.1619E+02  0.1831E+02
     -0.596  0.2011E+02  0.1955E+02
     -0.535  0.2035E+02  0.2081E+02
     -0.473  0.1782E+02  0.2191E+02
     -0.411  0.1354E+02  0.2275E+02
     -0.349  0.1338E+02  0.2358E+02
     -0.287  0.1160E+02  0.2430E+02
     -0.225  0.1032E+02  0.2493E+02
     -0.164  0.9788E+01  0.2554E+02
     -0.102  0.1102E+02  0.2622E+02
     -0.040  0.9381E+01  0.2680E+02
      0.022  0.1497E+02  0.2773E+02
      0.084  0.1427E+02  0.2861E+02
      0.146  0.1461E+02  0.2951E+02
      0.208  0.1413E+02  0.3039E+02
      0.269  0.1108E+02  0.3107E+02
      0.331  0.1333E+02  0.3190E+02
      0.393  0.1149E+02  0.3261E+02
      0.455  0.1066E+02  0.3327E+02
      0.517  0.1038E+02  0.3391E+02
      0.579  0.1244E+02  0.3468E+02
      0.640  0.1103E+02  0.3536E+02
      0.702  0.9231E+01  0.3593E+02
      0.764  0.1586E+02  0.3691E+02
      0.826  0.1644E+02  0.3793E+02
      0.888  0.1480E+02  0.3885E+02
      0.950  0.2261E+02  0.4024E+02
      1.012  0.1041E+02  0.4089E+02
      1.073  0.1238E+02  0.4165E+02
      1.135  0.4397E+01  0.4193E+02
      1.197  0.4389E+00  0.4195E+02
      1.259  0.9367E+00  0.4201E+02
      1.321  0.4491E+00  0.4204E+02
      1.383  0.7742E+00  0.4209E+02
      1.444  0.3639E+01  0.4231E+02
      1.506  0.1307E+01  0.4239E+02
      1.568  0.1855E+01  0.4251E+02
      1.630  0.9834E+00  0.4257E+02
      1.692  0.1164E-01  0.4257E+02
      1.754  0.4198E+00  0.4259E+02
      1.816  0.4292E+00  0.4262E+02
      1.877  0.3697E+01  0.4285E+02
      1.939  0.1840E+01  0.4296E+02
      2.001  0.1338E+01  0.4305E+02
      2.063  0.8386E+00  0.4310E+02
      2.125  0.1768E+01  0.4321E+02
      2.187  0.2493E-16  0.4321E+02
      2.248  0.4077E+00  0.4323E+02
      2.310  0.1975E+01  0.4335E+02
      2.372  0.1735E+01  0.4346E+02
      2.434  0.2017E+01  0.4359E+02
      2.496  0.8377E+00  0.4364E+02
      2.558  0.8787E+00  0.4369E+02
      2.620  0.2253E+01  0.4383E+02
      2.681  0.1113E+00  0.4384E+02
      2.743  0.1348E+01  0.4392E+02
      2.805  0.6115E+00  0.4396E+02
      2.867  0.2071E+01  0.4409E+02
      2.929  0.1812E+01  0.4420E+02
      2.991  0.1116E+01  0.4427E+02
      3.052  0.1778E+01  0.4438E+02
      3.114  0.7712E+00  0.4443E+02
      3.176  0.1580E+01  0.4452E+02
      3.238  0.1562E+01  0.4462E+02
      3.300  0.4491E+00  0.4465E+02
      3.362  0.1293E+01  0.4473E+02
      3.423  0.2844E+01  0.4491E+02
      3.485  0.1146E+01  0.4498E+02
      3.547  0.1227E+01  0.4505E+02
      3.609  0.1059E+01  0.4512E+02
      3.671  0.1183E+01  0.4519E+02
      3.733  0.3340E+00  0.4521E+02
      3.795  0.1434E+01  0.4530E+02
      3.856  0.1489E+01  0.4539E+02
      3.918  0.2112E+01  0.4552E+02
      3.980  0.1809E+01  0.4563E+02
      4.042  0.1207E+00  0.4564E+02
      4.104  0.1420E+01  0.4573E+02
      4.166  0.2800E+01  0.4590E+02
      4.227  0.3198E+00  0.4592E+02
      4.289  0.6909E+00  0.4597E+02
      4.351  0.6103E+00  0.4600E+02
      4.413  0.3586E+01  0.4623E+02
      4.475  0.8969E+00  0.4628E+02
      4.537  0.1399E+01  0.4637E+02
      4.599  0.5087E+00  0.4640E+02
      4.660  0.1300E+01  0.4648E+02
      4.722  0.1689E+01  0.4658E+02
      4.784  0.1965E+01  0.4671E+02
      4.846  0.1807E+01  0.4682E+02
      4.908  0.2863E+01  0.4699E+02
      4.970  0.1392E+01  0.4708E+02
      5.031  0.3140E+01  0.4728E+02
      5.093  0.4491E+00  0.4730E+02
      5.155  0.9496E+00  0.4736E+02
      5.217  0.2053E+01  0.4749E+02
      5.279  0.1718E+01  0.4760E+02
      5.341  0.2229E+01  0.4773E+02
      5.403  0.4713E+00  0.4776E+02
      5.464  0.1928E+01  0.4788E+02
      5.526  0.1767E+01  0.4799E+02
      5.588  0.1233E+01  0.4807E+02
      5.650  0.4491E+00  0.4809E+02
      5.712  0.1584E+01  0.4819E+02
      5.774  0.8810E+00  0.4825E+02
      5.835  0.1591E+01  0.4835E+02
      5.897  0.2008E+01  0.4847E+02
      5.959  0.4484E+00  0.4850E+02
      6.021  0.6078E+00  0.4854E+02
      6.083  0.9465E+00  0.4859E+02
      6.145  0.1590E+01  0.4869E+02
      6.207  0.1347E+01  0.4878E+02
      6.268  0.1426E+01  0.4886E+02
      6.330  0.1131E+01  0.4893E+02
      6.392  0.1594E+01  0.4903E+02
      6.454  0.6770E+00  0.4907E+02
      6.516  0.8042E+00  0.4912E+02
      6.578  0.1334E+01  0.4921E+02
      6.639  0.1371E+01  0.4929E+02
      6.701  0.7419E+00  0.4934E+02
      6.763  0.2896E+01  0.4952E+02
      6.825  0.8431E+00  0.4957E+02
      6.887  0.1810E+01  0.4968E+02
      6.949  0.1182E+01  0.4975E+02
      7.010  0.7304E+00  0.4980E+02
      7.072  0.1096E+01  0.4987E+02
      7.134  0.2337E+01  0.5001E+02
      7.196  0.2528E+01  0.5017E+02
      7.258  0.4766E-01  0.5017E+02
      7.320  0.1338E+01  0.5025E+02
      7.382  0.2931E+00  0.5027E+02
      7.443  0.4577E+01  0.5055E+02
      7.505  0.3077E+01  0.5074E+02
      7.567  0.1608E+01  0.5084E+02
      7.629  0.4115E+01  0.5110E+02
      7.691  0.5893E+00  0.5114E+02
      7.753  0.2003E+01  0.5126E+02
      7.814  0.6900E+00  0.5130E+02
      7.876  0.7780E-04  0.5130E+02
      7.938  0.1037E+01  0.5137E+02
      8.000  0.1905E+01  0.5148E+02
      8.062  0.1219E+01  0.5156E+02
      8.124  0.1677E+01  0.5166E+02
      8.186  0.8981E+00  0.5172E+02
      8.247  0.6650E-08  0.5172E+02
      8.309  0.2821E+00  0.5174E+02
      8.371  0.1748E+01  0.5184E+02
      8.433  0.2150E+01  0.5198E+02
      8.495  0.1439E+01  0.5207E+02
      8.557  0.2464E+01  0.5222E+02
      8.618  0.1343E+01  0.5230E+02
      8.680  0.1797E+01  0.5241E+02
      8.742  0.3708E+01  0.5264E+02
      8.804  0.5634E+00  0.5268E+02
      8.866  0.1020E+01  0.5274E+02
      8.928  0.6467E+00  0.5278E+02
      8.990  0.1774E+01  0.5289E+02
      9.051  0.2474E+01  0.5304E+02
      9.113  0.3663E-01  0.5305E+02
      9.175  0.5324E+00  0.5308E+02
      9.237  0.1721E+01  0.5318E+02
      9.299  0.2572E+01  0.5334E+02
      9.361  0.1599E+01  0.5344E+02
      9.422  0.7653E+00  0.5349E+02
      9.484  0.1716E+01  0.5360E+02
      9.546  0.1153E+01  0.5367E+02
      9.608  0.1194E+01  0.5374E+02
      9.670  0.3018E+01  0.5393E+02
      9.732  0.4675E+00  0.5396E+02
      9.794  0.1548E+01  0.5405E+02
      9.855  0.2152E+01  0.5419E+02
      9.917  0.2158E+01  0.5432E+02
      9.979  0.2899E+01  0.5450E+02
     10.041  0.1799E+01  0.5461E+02
     10.103  0.1731E+01  0.5472E+02
     10.165  0.5440E+00  0.5475E+02
     10.226  0.2204E+00  0.5476E+02
     10.288  0.2047E+01  0.5489E+02
     10.350  0.1093E+01  0.5496E+02
     10.412  0.2068E+01  0.5509E+02
     10.474  0.1465E+01  0.5518E+02
     10.536  0.3682E-01  0.5518E+02
     10.597  0.1369E+01  0.5526E+02
     10.659  0.1305E+01  0.5534E+02
     10.721  0.1427E+01  0.5543E+02
     10.783  0.1403E+01  0.5552E+02
     10.845  0.5531E+00  0.5555E+02
     10.907  0.2252E+01  0.5569E+02
     10.969  0.6151E+00  0.5573E+02
     11.030  0.8534E+00  0.5578E+02
     11.092  0.2865E-01  0.5579E+02
     11.154  0.8708E+00  0.5584E+02
     11.216  0.2750E-01  0.5584E+02
     11.278  0.6277E-02  0.5584E+02
     11.340  0.4493E+00  0.5587E+02
     11.401  0.6669E+00  0.5591E+02
     11.463  0.8905E+00  0.5597E+02
     11.525  0.2698E+00  0.5598E+02
     11.587  0.0000E+00  0.5598E+02
     11.649  0.0000E+00  0.5598E+02
     11.711  0.0000E+00  0.5598E+02
     11.773  0.0000E+00  0.5598E+02
     11.834  0.0000E+00  0.5598E+02
     11.896  0.2696E-06  0.5598E+02
     11.958  0.1123E+00  0.5599E+02
     12.020  0.0000E+00  0.5599E+02
     12.082  0.5037E-02  0.5599E+02
     12.144  0.1368E-01  0.5599E+02
     12.205  0.0000E+00  0.5599E+02
     12.267  0.1101E-03  0.5599E+02
     12.329  0.1496E+00  0.5600E+02
     12.391  0.0000E+00  0.5600E+02
     12.453  0.0000E+00  0.5600E+02
     12.515  0.0000E+00  0.5600E+02
     12.577  0.0000E+00  0.5600E+02
     12.638  0.0000E+00  0.5600E+02
     12.700  0.0000E+00  0.5600E+02
     12.762  0.0000E+00  0.5600E+02
     12.824  0.0000E+00  0.5600E+02
     12.886  0.0000E+00  0.5600E+02
     12.948  0.0000E+00  0.5600E+02
     13.009  0.0000E+00  0.5600E+02
     13.071  0.0000E+00  0.5600E+02
     13.133  0.0000E+00  0.5600E+02
