    4    4    1    1
  0.2225309E+02  0.4464952E-09  0.4464952E-09  0.4464952E-09  0.5000000E-15
  1.000000000000000E-004
  CAR 
 unknown system                          
   44   84   28
 
  0.0000000E+00  0.0000000E+00  0.0000000E+00  0.5787037E-03
   1       -4.5770
   2       -2.2464
   3       -2.2464
   4       -2.2464
   5       -2.0626
   6       -2.0626
   7       -2.0626
   8       -0.7625
   9       -0.7625
  10       -0.7625
  11        0.1767
  12        0.1767
  13        0.8913
  14        0.8913
  15        0.8913
  16        1.1204
  17        1.1204
  18        1.1204
  19        1.1204
  20        1.1204
  21        1.1204
  22        4.4935
  23        4.4935
  24        4.4935
  25        6.7466
  26        6.7466
  27        6.7466
  28       12.0861
 
  0.8333333E-01  0.0000000E+00  0.0000000E+00  0.3472222E-02
   1       -4.5128
   2       -2.2284
   3       -2.2086
   4       -2.2086
   5       -2.0429
   6       -2.0324
   7       -2.0324
   8       -0.7877
   9       -0.7386
  10       -0.7386
  11        0.1506
  12        0.1882
  13        0.8552
  14        0.8552
  15        0.8784
  16        0.9849
  17        0.9849
  18        1.0755
  19        1.0755
  20        1.1205
  21        1.1205
  22        3.8036
  23        4.6808
  24        4.6808
  25        6.7134
  26        6.7134
  27        7.5520
  28       11.9286
 
  0.1666667E+00  0.0000000E+00  0.0000000E+00  0.3472222E-02
   1       -4.3222
   2       -2.1808
   3       -2.0992
   4       -2.0992
   5       -1.9848
   6       -1.9419
   7       -1.9419
   8       -0.8606
   9       -0.6672
  10       -0.6672
  11        0.0759
  12        0.2220
  13        0.6491
  14        0.6491
  15        0.7495
  16        0.7495
  17        0.8406
  18        0.9479
  19        0.9479
  20        1.1206
  21        1.1206
  22        2.6647
  23        5.1712
  24        5.1712
  25        6.6226
  26        6.6226
  27        9.0418
  28       11.4818
 
  0.2500000E+00  0.0000000E+00  0.0000000E+00  0.3472222E-02
   1       -4.0115
   2       -2.1270
   3       -1.9322
   4       -1.9322
   5       -1.8910
   6       -1.7915
   7       -1.7915
   8       -0.9745
   9       -0.5502
  10       -0.5502
  11       -0.0359
  12        0.2274
  13        0.2274
  14        0.2761
  15        0.5854
  16        0.5854
  17        0.7564
  18        0.7564
  19        0.7811
  20        1.1209
  21        1.1209
  22        1.5758
  23        5.8463
  24        5.8463
  25        6.4991
  26        6.4991
  27       10.7333
  28       10.8343
 
  0.3333333E+00  0.0000000E+00  0.0000000E+00  0.3472222E-02
   1       -3.5952
   2       -2.1202
   3       -1.7663
   4       -1.7354
   5       -1.7354
   6       -1.5818
   7       -1.5818
   8       -1.1192
   9       -0.3908
  10       -0.3908
  11       -0.2077
  12       -0.2077
  13       -0.1620
  14        0.3475
  15        0.3889
  16        0.3889
  17        0.5250
  18        0.5250
  19        0.6618
  20        0.7044
  21        1.1211
  22        1.1211
  23        6.3769
  24        6.3769
  25        6.6277
  26        6.6277
  27       10.0599
  28       10.0599
 
  0.4166667E+00  0.0000000E+00  0.0000000E+00  0.3472222E-02
   1       -3.1056
   2       -2.2590
   3       -1.6173
   4       -1.5610
   5       -1.5610
   6       -1.3145
   7       -1.3145
   8       -1.2828
   9       -0.6202
  10       -0.6202
  11       -0.2595
  12       -0.1941
  13       -0.1941
  14        0.0325
  15        0.2130
  16        0.2130
  17        0.2769
  18        0.2769
  19        0.4316
  20        0.6163
  21        1.1213
  22        1.1213
  23        6.2887
  24        6.2887
  25        7.4699
  26        7.4699
  27        9.2154
  28        9.2154
 
  0.5000000E+00  0.0000000E+00  0.0000000E+00  0.1736111E-02
   1       -2.6160
   2       -2.6160
   3       -1.4870
   4       -1.4870
   5       -1.4527
   6       -1.4527
   7       -0.9923
   8       -0.9923
   9       -0.9923
  10       -0.9923
  11       -0.2429
  12       -0.2429
  13        0.0322
  14        0.0322
  15        0.0322
  16        0.0322
  17        0.1381
  18        0.1381
  19        0.5233
  20        0.5233
  21        1.1214
  22        1.1214
  23        6.2567
  24        6.2567
  25        8.3417
  26        8.3417
  27        8.3417
  28        8.3417
 
  0.8333333E-01  0.8333333E-01  0.0000000E+00  0.6944444E-02
   1       -4.4492
   2       -2.1901
   3       -2.1901
   4       -2.1768
   5       -2.0131
   6       -2.0131
   7       -1.9978
   8       -0.7969
   9       -0.7298
  10       -0.7166
  11        0.1439
  12        0.1827
  13        0.8209
  14        0.8209
  15        0.8209
  16        0.8912
  17        0.9555
  18        0.9555
  19        1.0754
  20        1.0754
  21        1.0899
  22        3.9736
  23        3.9736
  24        4.8573
  25        6.6755
  26        7.5337
  27        7.5337
  28       11.3531
 
  0.1666667E+00  0.8333333E-01  0.0000000E+00  0.1388889E-01
   1       -4.2604
   2       -2.1414
   3       -2.0845
   4       -2.0796
   5       -1.9561
   6       -1.9238
   7       -1.8951
   8       -0.8605
   9       -0.6660
  10       -0.6518
  11        0.0796
  12        0.2139
  13        0.5460
  14        0.5931
  15        0.7014
  16        0.7204
  17        0.7839
  18        0.8878
  19        0.9475
  20        1.0743
  21        1.0752
  22        2.8532
  23        4.3906
  24        5.3264
  25        6.5694
  26        7.4950
  27        8.9967
  28       10.7187
 
  0.2500000E+00  0.8333333E-01  0.0000000E+00  0.1388889E-01
   1       -3.9528
   2       -2.0854
   3       -1.9392
   4       -1.9103
   5       -1.8642
   6       -1.7754
   7       -1.7312
   8       -0.9698
   9       -0.5508
  10       -0.5494
  11       -0.0220
  12        0.1348
  13        0.1950
  14        0.2745
  15        0.4806
  16        0.5636
  17        0.6142
  18        0.7556
  19        0.8007
  20        1.0712
  21        1.0748
  22        1.8268
  23        4.8979
  24        5.9826
  25        6.4173
  26        7.4877
  27       10.1046
  28       10.6076
 
  0.3333333E+00  0.8333333E-01  0.0000000E+00  0.1388889E-01
   1       -3.5409
   2       -2.0762
   3       -1.7532
   4       -1.7421
   5       -1.7103
   6       -1.5688
   7       -1.5232
   8       -1.1103
   9       -0.4327
  10       -0.3920
  11       -0.2883
  12       -0.2241
  13       -0.1133
  14        0.1563
  15        0.3560
  16        0.3757
  17        0.4171
  18        0.5237
  19        0.6752
  20        1.0613
  21        1.0709
  22        1.0742
  23        5.3646
  24        6.2483
  25        6.7501
  26        7.5979
  27        9.5178
  28       10.1634
 
  0.4166667E+00  0.8333333E-01  0.0000000E+00  0.1388889E-01
   1       -3.0563
   2       -2.2141
   3       -1.5964
   4       -1.5616
   5       -1.5324
   6       -1.3058
   7       -1.2914
   8       -1.2696
   9       -0.6814
  10       -0.6254
  11       -0.3907
  12       -0.1956
  13       -0.1953
  14       -0.0684
  15        0.2099
  16        0.2358
  17        0.2754
  18        0.4212
  19        0.4540
  20        0.7092
  21        1.0715
  22        1.0734
  23        5.7020
  24        6.0836
  25        7.5828
  26        7.9017
  27        8.9402
  28        9.3193
 
  0.5000000E+00  0.8333333E-01  0.0000000E+00  0.6944444E-02
   1       -2.5705
   2       -2.5705
   3       -1.4629
   4       -1.4629
   5       -1.4355
   6       -1.4355
   7       -1.0202
   8       -1.0202
   9       -0.9894
  10       -0.9894
  11       -0.3754
  12       -0.3754
  13        0.0306
  14        0.0306
  15        0.1371
  16        0.1371
  17        0.1483
  18        0.1483
  19        0.5663
  20        0.5663
  21        1.0724
  22        1.0724
  23        5.9176
  24        5.9176
  25        8.3798
  26        8.3798
  27        8.4486
  28        8.4486
 
  0.1666667E+00  0.1666667E+00  0.0000000E+00  0.6944444E-02
   1       -4.0771
   2       -2.0290
   3       -2.0270
   4       -2.0270
   5       -1.8703
   6       -1.8703
   7       -1.7701
   8       -0.8870
   9       -0.6338
  10       -0.6071
  11        0.0576
  12        0.2269
  13        0.3410
  14        0.3410
  15        0.4006
  16        0.6343
  17        0.7857
  18        0.7857
  19        0.9463
  20        0.9463
  21        0.9999
  22        3.2809
  23        3.2809
  24        5.7508
  25        6.4142
  26        8.8702
  27        8.8702
  28        9.9887
 
  0.2500000E+00  0.1666667E+00  0.0000000E+00  0.1388889E-01
   1       -3.7791
   2       -1.9645
   3       -1.9221
   4       -1.8508
   5       -1.7843
   6       -1.7281
   7       -1.5926
   8       -0.9680
   9       -0.5423
  10       -0.5386
  11       -0.0763
  12       -0.0128
  13        0.0691
  14        0.0867
  15        0.2996
  16        0.4977
  17        0.6367
  18        0.7271
  19        0.7531
  20        0.9443
  21        0.9593
  22        2.2960
  23        3.7846
  24        6.1722
  25        6.3637
  26        8.6967
  27        9.4007
  28       10.2575
 
  0.3333333E+00  0.1666667E+00  0.0000000E+00  0.1388889E-01
   1       -3.3808
   2       -1.9480
   3       -1.7635
   4       -1.6702
   5       -1.6399
   6       -1.5307
   7       -1.3934
   8       -1.0894
   9       -0.4933
  10       -0.4798
  11       -0.3887
  12       -0.2782
  13       -0.2401
  14       -0.0629
  15        0.3328
  16        0.4142
  17        0.4523
  18        0.5204
  19        0.6036
  20        0.9419
  21        0.9433
  22        1.5349
  23        4.2866
  24        5.8704
  25        7.0977
  26        8.5379
  27        8.9633
  28       10.4640
 
  0.4166667E+00  0.1666667E+00  0.0000000E+00  0.1388889E-01
   1       -2.9124
   2       -2.0843
   3       -1.5652
   4       -1.5346
   5       -1.4494
   6       -1.2806
   7       -1.2332
   8       -1.2197
   9       -0.8342
  10       -0.6434
  11       -0.5179
  12       -0.4863
  13       -0.1964
  14        0.0040
  15        0.1930
  16        0.2704
  17        0.2720
  18        0.4105
  19        0.5619
  20        0.9381
  21        0.9394
  22        1.0409
  23        4.7499
  24        5.5322
  25        7.9066
  26        8.4582
  27        8.6647
  28        9.6201
 
  0.5000000E+00  0.1666667E+00  0.0000000E+00  0.6944444E-02
   1       -2.4391
   2       -2.4391
   3       -1.4004
   4       -1.4004
   5       -1.3856
   6       -1.3856
   7       -1.0832
   8       -1.0832
   9       -0.9822
  10       -0.9822
  11       -0.5602
  12       -0.5602
  13        0.0278
  14        0.0278
  15        0.1619
  16        0.1619
  17        0.1849
  18        0.1849
  19        0.7531
  20        0.7531
  21        0.9377
  22        0.9377
  23        5.1625
  24        5.1625
  25        8.4967
  26        8.4967
  27        8.7571
  28        8.7571
 
  0.2500000E+00  0.2500000E+00  0.0000000E+00  0.6944444E-02
   1       -3.4977
   2       -1.8567
   3       -1.7764
   4       -1.7764
   5       -1.6523
   6       -1.6523
   7       -1.4141
   8       -0.9985
   9       -0.5272
  10       -0.4812
  11       -0.3397
  12       -0.3397
  13       -0.1118
  14       -0.0516
  15        0.3894
  16        0.3994
  17        0.5994
  18        0.5994
  19        0.7497
  20        0.7497
  21        0.8552
  22        2.8066
  23        2.8066
  24        5.7842
  25        6.9304
  26        8.9306
  27        9.7832
  28        9.7832
 
  0.3333333E+00  0.2500000E+00  0.0000000E+00  0.1388889E-01
   1       -3.1238
   2       -1.7479
   3       -1.7386
   4       -1.5524
   5       -1.5453
   6       -1.4703
   7       -1.2309
   8       -1.0746
   9       -0.7127
  10       -0.5964
  11       -0.5304
  12       -0.3819
  13       -0.3606
  14       -0.0892
  15        0.2549
  16        0.4346
  17        0.4884
  18        0.5166
  19        0.5650
  20        0.7462
  21        0.7913
  22        2.0194
  23        3.3188
  24        5.3108
  25        7.6255
  26        8.6804
  27        9.3152
  28       10.7219
 
  0.4166667E+00  0.2500000E+00  0.0000000E+00  0.1388889E-01
   1       -2.6859
   2       -1.8873
   3       -1.5682
   4       -1.4350
   5       -1.3223
   6       -1.2423
   7       -1.1838
   8       -1.1042
   9       -1.0292
  10       -0.7340
  11       -0.6814
  12       -0.5991
  13       -0.1852
  14       -0.0357
  15        0.1453
  16        0.2627
  17        0.2696
  18        0.3128
  19        0.7445
  20        0.7600
  21        0.7806
  22        1.4480
  23        3.8212
  24        4.8123
  25        8.4054
  26        8.6120
  27        8.9411
  28       10.0903
 
  0.5000000E+00  0.2500000E+00  0.0000000E+00  0.6944444E-02
   1       -2.2391
   2       -2.2391
   3       -1.3550
   4       -1.3550
   5       -1.3085
   6       -1.3085
   7       -1.1084
   8       -1.1084
   9       -0.9753
  10       -0.9753
  11       -0.7015
  12       -0.7015
  13        0.0300
  14        0.0300
  15        0.1165
  16        0.1165
  17        0.1429
  18        0.1429
  19        0.7474
  20        0.7474
  21        1.0586
  22        1.0586
  23        4.3160
  24        4.3160
  25        8.7020
  26        8.7020
  27        9.2367
  28        9.2367
 
  0.3333333E+00  0.3333333E+00  0.0000000E+00  0.6944444E-02
   1       -2.7872
   2       -1.6718
   3       -1.5013
   4       -1.5013
   5       -1.3924
   6       -1.3924
   7       -1.0880
   8       -1.0685
   9       -0.9034
  10       -0.9034
  11       -0.5578
  12       -0.5429
  13       -0.2824
  14       -0.1454
  15        0.1480
  16        0.3400
  17        0.3400
  18        0.5148
  19        0.5148
  20        0.6643
  21        0.7896
  22        2.5093
  23        2.5093
  24        4.6876
  25        8.2857
  26        8.6214
  27       10.0143
  28       10.0143
 
  0.4166667E+00  0.3333333E+00  0.0000000E+00  0.1388889E-01
   1       -2.3997
   2       -1.6657
   3       -1.5604
   4       -1.3041
   5       -1.2862
   6       -1.1967
   7       -1.1379
   8       -1.1201
   9       -0.9682
  10       -0.9071
  11       -0.7499
  12       -0.6346
  13       -0.1433
  14       -0.1293
  15        0.0567
  16        0.1778
  17        0.1819
  18        0.2743
  19        0.5196
  20        0.5821
  21        1.0697
  22        1.8821
  23        3.0075
  24        4.0840
  25        8.7367
  26        9.0381
  27        9.4364
  28       10.6958
 
  0.5000000E+00  0.3333333E+00  0.0000000E+00  0.6944444E-02
   1       -2.0044
   2       -2.0044
   3       -1.4053
   4       -1.4053
   5       -1.2150
   6       -1.2150
   7       -1.0128
   8       -1.0128
   9       -0.9765
  10       -0.9765
  11       -0.7744
  12       -0.7744
  13       -0.0028
  14       -0.0028
  15        0.0481
  16        0.0481
  17        0.0644
  18        0.0644
  19        0.5384
  20        0.5384
  21        1.4193
  22        1.4193
  23        3.5266
  24        3.5266
  25        9.0090
  26        9.0090
  27        9.8506
  28        9.8506
 
  0.4166667E+00  0.4166667E+00  0.0000000E+00  0.6944444E-02
   1       -2.0873
   2       -1.5348
   3       -1.5147
   4       -1.5147
   5       -1.1523
   6       -1.1523
   7       -1.1141
   8       -0.9490
   9       -0.9490
  10       -0.8639
  11       -0.8563
  12       -0.6675
  13       -0.1890
  14       -0.0517
  15       -0.0435
  16        0.0345
  17        0.0345
  18        0.2952
  19        0.2952
  20        0.4391
  21        1.4122
  22        2.3438
  23        2.3438
  24        3.4243
  25        9.0108
  26        9.7678
  27       10.0008
  28       10.0008
 
  0.5000000E+00  0.4166667E+00  0.0000000E+00  0.6944444E-02
   1       -1.7851
   2       -1.7851
   3       -1.5001
   4       -1.5001
   5       -1.1207
   6       -1.1207
   7       -0.9962
   8       -0.9962
   9       -0.8721
  10       -0.8721
  11       -0.7769
  12       -0.7769
  13       -0.1221
  14       -0.1221
  15       -0.0630
  16       -0.0630
  17        0.0977
  18        0.0977
  19        0.3454
  20        0.3454
  21        1.8243
  22        1.8243
  23        2.8496
  24        2.8496
  25        9.4311
  26        9.4311
  27       10.5641
  28       10.5666
 
  0.5000000E+00  0.5000000E+00  0.0000000E+00  0.1736111E-02
   1       -1.6195
   2       -1.6195
   3       -1.6195
   4       -1.6195
   5       -1.0440
   6       -1.0440
   7       -1.0440
   8       -1.0440
   9       -0.7784
  10       -0.7784
  11       -0.7784
  12       -0.7784
  13       -0.1582
  14       -0.1582
  15       -0.1582
  16       -0.1582
  17        0.1948
  18        0.1948
  19        0.1948
  20        0.1948
  21        2.2906
  22        2.2906
  23        2.2906
  24        2.2906
  25        9.9792
  26        9.9792
  27        9.9792
  28        9.9792
 
  0.8333333E-01  0.8333333E-01  0.8333333E-01  0.4629630E-02
   1       -4.3864
   2       -2.1584
   3       -2.1584
   4       -2.1584
   5       -1.9785
   6       -1.9785
   7       -1.9785
   8       -0.8041
   9       -0.7095
  10       -0.7095
  11        0.1585
  12        0.1585
  13        0.7899
  14        0.7899
  15        0.7899
  16        0.8333
  17        0.8333
  18        0.8333
  19        1.0668
  20        1.0668
  21        1.0668
  22        4.1288
  23        4.1288
  24        4.1288
  25        7.5080
  26        7.5080
  27        7.5080
  28       11.4822
 
  0.1666667E+00  0.8333333E-01  0.8333333E-01  0.1388889E-01
   1       -4.1996
   2       -2.1098
   3       -2.0664
   4       -2.0664
   5       -1.9215
   6       -1.8758
   7       -1.8758
   8       -0.8588
   9       -0.6546
  10       -0.6491
  11        0.0907
  12        0.2012
  13        0.5081
  14        0.5081
  15        0.6631
  16        0.6973
  17        0.7136
  18        0.7136
  19        1.0046
  20        1.0527
  21        1.0527
  22        3.0159
  23        4.5168
  24        4.5168
  25        7.4448
  26        7.4448
  27        8.9281
  28       10.8791
 
  0.2500000E+00  0.8333333E-01  0.8333333E-01  0.1388889E-01
   1       -3.8957
   2       -2.0535
   3       -1.9215
   4       -1.9215
   5       -1.8301
   6       -1.7120
   7       -1.7120
   8       -0.9621
   9       -0.5535
  10       -0.5498
  11       -0.0021
  12        0.1101
  13        0.1101
  14        0.2694
  15        0.3882
  16        0.5488
  17        0.5709
  18        0.5709
  19        0.9164
  20        1.0417
  21        1.0417
  22        2.0073
  23        4.9929
  24        4.9929
  25        7.3894
  26        7.3894
  27       10.3250
  28       10.3253
 
  0.3333333E+00  0.8333333E-01  0.8333333E-01  0.1388889E-01
   1       -3.4891
   2       -2.0429
   3       -1.7349
   4       -1.7349
   5       -1.7098
   6       -1.5061
   7       -1.5061
   8       -1.0974
   9       -0.4520
  10       -0.4142
  11       -0.2977
  12       -0.2977
  13       -0.0618
  14        0.0308
  15        0.3591
  16        0.3605
  17        0.3908
  18        0.3908
  19        0.8121
  20        1.0354
  21        1.0354
  22        1.2165
  23        5.4182
  24        5.4182
  25        7.4163
  26        7.4163
  27        9.8377
  28        9.8377
 
  0.4166667E+00  0.8333333E-01  0.8333333E-01  0.1388889E-01
   1       -3.0111
   2       -2.1786
   3       -1.5679
   4       -1.5382
   5       -1.5382
   6       -1.2869
   7       -1.2869
   8       -1.2514
   9       -0.6732
  10       -0.6732
  11       -0.4396
  12       -0.2984
  13       -0.2466
  14        0.0356
  15        0.1533
  16        0.2228
  17        0.2228
  18        0.4647
  19        0.6677
  20        0.6979
  21        1.0324
  22        1.0324
  23        5.6812
  24        5.6812
  25        7.5622
  26        7.5622
  27        9.4362
  28        9.4362
 
  0.5000000E+00  0.8333333E-01  0.8333333E-01  0.6944444E-02
   1       -2.5315
   2       -2.5315
   3       -1.4387
   4       -1.4387
   5       -1.4120
   6       -1.4120
   7       -1.1081
   8       -1.1081
   9       -0.9222
  10       -0.9222
  11       -0.4439
  12       -0.4439
  13       -0.0540
  14       -0.0540
  15        0.1494
  16        0.1494
  17        0.2911
  18        0.2911
  19        0.5799
  20        0.5799
  21        1.0315
  22        1.0315
  23        5.7615
  24        5.7615
  25        7.6714
  26        7.6714
  27        9.2537
  28        9.2537
 
  0.1666667E+00  0.1666667E+00  0.8333333E-01  0.1388889E-01
   1       -4.0194
   2       -2.0185
   3       -2.0185
   4       -2.0140
   5       -1.8187
   6       -1.8187
   7       -1.7491
   8       -0.8789
   9       -0.6268
  10       -0.6102
  11        0.0833
  12        0.2074
  13        0.3094
  14        0.3094
  15        0.3357
  16        0.5812
  17        0.6379
  18        0.6379
  19        0.9986
  20        0.9986
  21        1.0090
  22        3.4059
  23        3.4059
  24        4.8391
  25        7.3024
  26        8.7258
  27        8.7258
  28       10.2376
 
  0.2500000E+00  0.1666667E+00  0.8333333E-01  0.2777778E-01
   1       -3.7267
   2       -1.9626
   3       -1.9104
   4       -1.8754
   5       -1.7274
   6       -1.6544
   7       -1.5709
   8       -0.9513
   9       -0.5496
  10       -0.5452
  11       -0.0914
  12        0.0212
  13        0.0235
  14        0.0335
  15        0.2857
  16        0.4577
  17        0.4845
  18        0.5377
  19        0.9200
  20        0.9681
  21        0.9684
  22        2.4133
  23        3.8841
  24        5.2259
  25        7.1145
  26        8.4186
  27        9.8086
  28        9.9216
 
  0.3333333E+00  0.1666667E+00  0.8333333E-01  0.2777778E-01
   1       -3.3366
   2       -1.9494
   3       -1.7552
   4       -1.6892
   5       -1.6112
   6       -1.4521
   7       -1.3754
   8       -1.0644
   9       -0.5028
  10       -0.4743
  11       -0.4270
  12       -0.3314
  13       -0.2792
  14        0.0049
  15        0.2891
  16        0.3130
  17        0.3901
  18        0.4038
  19        0.8077
  20        0.9397
  21        0.9426
  22        1.6142
  23        4.3703
  24        5.4918
  25        7.0139
  26        8.0697
  27        9.6148
  28       10.6453
 
  0.4166667E+00  0.1666667E+00  0.8333333E-01  0.2777778E-01
   1       -2.8798
   2       -2.0798
   3       -1.5574
   4       -1.4809
   5       -1.4792
   6       -1.2722
   7       -1.2265
   8       -1.1993
   9       -0.7844
  10       -0.6541
  11       -0.5344
  12       -0.5193
  13       -0.2811
  14        0.0846
  15        0.1304
  16        0.1789
  17        0.2315
  18        0.5494
  19        0.6379
  20        0.9252
  21        0.9274
  22        1.0509
  23        4.8197
  24        5.4646
  25        7.1418
  26        7.7321
  27        9.6512
  28       10.2637
 
  0.5000000E+00  0.1666667E+00  0.8333333E-01  0.1388889E-01
   1       -2.4210
   2       -2.4210
   3       -1.3773
   4       -1.3773
   5       -1.3416
   6       -1.3416
   7       -1.2173
   8       -1.2173
   9       -0.8584
  10       -0.8584
  11       -0.5836
  12       -0.5836
  13       -0.1092
  14       -0.1092
  15        0.1385
  16        0.1385
  17        0.3797
  18        0.3797
  19        0.7348
  20        0.7348
  21        0.9217
  22        0.9217
  23        5.2009
  24        5.2009
  25        7.4180
  26        7.4180
  27        9.8933
  28        9.8933
 
  0.2500000E+00  0.2500000E+00  0.8333333E-01  0.1388889E-01
   1       -3.4540
   2       -1.8517
   3       -1.8232
   4       -1.8232
   5       -1.5609
   6       -1.5609
   7       -1.3934
   8       -0.9681
   9       -0.5347
  10       -0.5066
  11       -0.3476
  12       -0.3476
  13       -0.1581
  14        0.0031
  15        0.3241
  16        0.3824
  17        0.4191
  18        0.4191
  19        0.8724
  20        0.8724
  21        0.8899
  22        2.8950
  23        2.8950
  24        5.4235
  25        6.8198
  26        9.2868
  27        9.2868
  28        9.6057
 
  0.3333333E+00  0.2500000E+00  0.8333333E-01  0.2777778E-01
   1       -3.0937
   2       -1.8131
   3       -1.7420
   4       -1.6455
   5       -1.4455
   6       -1.3560
   7       -1.2199
   8       -1.0293
   9       -0.6878
  10       -0.5987
  11       -0.5369
  12       -0.4218
  13       -0.4024
  14        0.0009
  15        0.1976
  16        0.2376
  17        0.3158
  18        0.5475
  19        0.7442
  20        0.8193
  21        0.8257
  22        2.0761
  23        3.3955
  24        5.2962
  25        6.8368
  26        8.6567
  27        9.6702
  28       10.0775
 
  0.4166667E+00  0.2500000E+00  0.8333333E-01  0.2777778E-01
   1       -2.6764
   2       -1.9405
   3       -1.5837
   4       -1.4439
   5       -1.3320
   6       -1.2229
   7       -1.1326
   8       -1.1219
   9       -0.8929
  10       -0.7372
  11       -0.6348
  12       -0.6052
  13       -0.3026
  14        0.0376
  15        0.0966
  16        0.1158
  17        0.1856
  18        0.5617
  19        0.7616
  20        0.7841
  21        0.7858
  22        1.4613
  23        3.8963
  24        4.8819
  25        7.1613
  26        8.0906
  27        9.9513
  28       10.8696
 
  0.5000000E+00  0.2500000E+00  0.8333333E-01  0.1388889E-01
   1       -2.2587
   2       -2.2587
   3       -1.3942
   4       -1.3942
   5       -1.2263
   6       -1.2263
   7       -1.2200
   8       -1.2200
   9       -0.8023
  10       -0.8023
  11       -0.7072
  12       -0.7072
  13       -0.1482
  14       -0.1482
  15        0.0872
  16        0.0872
  17        0.3310
  18        0.3310
  19        0.7725
  20        0.7725
  21        1.0447
  22        1.0447
  23        4.3940
  24        4.3940
  25        7.5949
  26        7.5949
  27       10.4053
  28       10.4053
 
  0.3333333E+00  0.3333333E+00  0.8333333E-01  0.1388889E-01
   1       -2.7796
   2       -1.6909
   3       -1.6563
   4       -1.6563
   5       -1.2278
   6       -1.2278
   7       -1.0817
   8       -1.0179
   9       -0.8690
  10       -0.8690
  11       -0.5591
  12       -0.5112
  13       -0.3914
  14       -0.0125
  15        0.0753
  16        0.1655
  17        0.1655
  18        0.6709
  19        0.6709
  20        0.7202
  21        0.7703
  22        2.5591
  23        2.5591
  24        4.7657
  25        7.0655
  26        9.2805
  27        9.2805
  28        9.9334
 
  0.4166667E+00  0.3333333E+00  0.8333333E-01  0.2777778E-01
   1       -2.4250
   2       -1.7964
   3       -1.6049
   4       -1.5198
   5       -1.1280
   6       -1.1065
   7       -1.0408
   8       -1.0396
   9       -0.9368
  10       -0.8999
  11       -0.6313
  12       -0.6193
  13       -0.3212
  14       -0.0187
  15       -0.0163
  16        0.0682
  17        0.0731
  18        0.4813
  19        0.6187
  20        0.6421
  21        1.0513
  22        1.8977
  23        3.0600
  24        4.1615
  25        7.4797
  26        8.5837
  27        9.9725
  28       10.3665
 
  0.5000000E+00  0.3333333E+00  0.8333333E-01  0.1388889E-01
   1       -2.0760
   2       -2.0760
   3       -1.5107
   4       -1.5107
   5       -1.1083
   6       -1.1083
   7       -1.0824
   8       -1.0824
   9       -0.7707
  10       -0.7707
  11       -0.7451
  12       -0.7451
  13       -0.1920
  14       -0.1920
  15       -0.0176
  16       -0.0176
  17        0.2622
  18        0.2622
  19        0.6069
  20        0.6069
  21        1.4102
  22        1.4102
  23        3.5896
  24        3.5896
  25        7.9874
  26        7.9874
  27       10.7373
  28       10.7373
 
  0.4166667E+00  0.4166667E+00  0.8333333E-01  0.1388889E-01
   1       -2.1578
   2       -1.6864
   3       -1.6864
   4       -1.6168
   5       -1.0083
   6       -1.0083
   7       -0.9987
   8       -0.9886
   9       -0.8713
  10       -0.8713
  11       -0.6435
  12       -0.6106
  13       -0.3253
  14       -0.1243
  15       -0.0924
  16       -0.0924
  17        0.1014
  18        0.4296
  19        0.4296
  20        0.5162
  21        1.3981
  22        2.3662
  23        2.3662
  24        3.4814
  25        7.9430
  26        9.1863
  27        9.1863
  28       10.6837
 
  0.5000000E+00  0.4166667E+00  0.8333333E-01  0.1388889E-01
   1       -1.9050
   2       -1.9050
   3       -1.6329
   4       -1.6329
   5       -1.0111
   6       -1.0111
   7       -0.9802
   8       -0.9802
   9       -0.7312
  10       -0.7312
  11       -0.6818
  12       -0.6818
  13       -0.2449
  14       -0.2449
  15       -0.1536
  16       -0.1536
  17        0.2369
  18        0.2369
  19        0.4383
  20        0.4383
  21        1.8226
  22        1.8226
  23        2.8860
  24        2.8860
  25        8.5119
  26        8.5119
  27        9.8875
  28        9.8875
 
  0.5000000E+00  0.5000000E+00  0.8333333E-01  0.3472222E-02
   1       -1.7599
   2       -1.7599
   3       -1.7599
   4       -1.7599
   5       -0.9664
   6       -0.9664
   7       -0.9664
   8       -0.9664
   9       -0.6546
  10       -0.6546
  11       -0.6546
  12       -0.6546
  13       -0.2550
  14       -0.2550
  15       -0.2550
  16       -0.2550
  17        0.2989
  18        0.2989
  19        0.2989
  20        0.2989
  21        2.3036
  22        2.3036
  23        2.3036
  24        2.3036
  25        9.1462
  26        9.1462
  27        9.1462
  28        9.1462
 
  0.1666667E+00  0.1666667E+00  0.1666667E+00  0.4629630E-02
   1       -3.8485
   2       -1.9753
   3       -1.9753
   4       -1.9753
   5       -1.6862
   6       -1.6862
   7       -1.6862
   8       -0.8739
   9       -0.6027
  10       -0.6027
  11        0.1521
  12        0.1521
  13        0.1521
  14        0.1562
  15        0.1562
  16        0.4504
  17        0.4504
  18        0.4504
  19        1.0125
  20        1.0125
  21        1.0125
  22        3.7281
  23        3.7281
  24        3.7281
  25        8.3173
  26        8.3173
  27        8.3173
  28       11.0006
 
  0.2500000E+00  0.1666667E+00  0.1666667E+00  0.1388889E-01