 vasp.4.6.28 25Jul05 complex 
 executed on             LinuxIFC date 2017.01.06  05:36:51
 running on    4 nodes
 distr:  one band on    1 nodes,    4 groups


--------------------------------------------------------------------------------------------------------


 INCAR:
 POTCAR:   PAW_PBE Au 06Sep2000                   
 POTCAR:   PAW_PBE Au 06Sep2000                   
   VRHFIN =Au: s1d10                                                            
   LEXCH  = PE                                                                  
   EATOM  =   926.0567 eV,   68.0632 Ry                                         
                                                                                
   TITEL  = PAW_PBE Au 06Sep2000                                                
   LULTRA =        F    use ultrasoft PP ?                                      
   IUNSCR =        1    unscreen: 0-lin 1-nonlin 2-no                           
   RPACOR =    2.330    partial core radius                                     
   POMASS =  196.966; ZVAL   =   11.000    mass and valenz                      
   RCORE  =    2.500    outmost cutoff radius                                   
   RWIGS  =    2.840; RWIGS  =    1.503    wigner-seitz radius (au A)           
   ENMAX  =  229.948; ENMIN  =  172.461 eV                                      
   RCLOC  =    1.964    cutoff for local pot                                    
   LCOR   =        T    correct aug charges                                     
   LPAW   =        T    paw PP                                                  
   EAUG   =  356.670                                                            
   DEXC   =    -.025                                                            
   RMAX   =    3.041    core radius for proj-oper                               
   RAUG   =    1.300    factor for augmentation sphere                          
   RDEP   =    2.598    radius for radial grids                                 
   QCUT   =   -4.111; QGAM   =    8.222    optimization parameters              
                                                                                
   Description                                                                  
     l     E      TYP  RCUT    TYP  RCUT                                        
     2   .000     23  2.500                                                     
     2   .000     23  2.500                                                     
     0   .000     23  2.500                                                     
     0   .000     23  2.500                                                     
     1  -.200     23  2.500                                                     
     1   .000     23  2.500                                                     
     3   .000      7   .000                                                     
  local pseudopotential read in
  partial core-charges read in
  atomic valenz-charges read in
  non local Contribution for L=           2  read in
    real space projection operators read in
  non local Contribution for L=           2  read in
    real space projection operators read in
  non local Contribution for L=           0  read in
    real space projection operators read in
  non local Contribution for L=           0  read in
    real space projection operators read in
  non local Contribution for L=           1  read in
    real space projection operators read in
  non local Contribution for L=           1  read in
    real space projection operators read in
    PAW grid and wavefunctions read in
 
   number of l-projection  operators is LMAX  =           6
   number of lm-projection operators is LMMAX =          18
 
 PAW_PBE Au 06Sep2000                   :
 energy of atom  1       EATOM= -926.0567
 kinetic energy error for atom=    0.0008 (will be added to EATOM!!)
 
 EXHCAR: internal setup
 exchange correlation table for  LEXCH =        8
   RHO(1)=    0.500       N(1)  =     2000
   RHO(2)=  100.500       N(2)  =     4000
 
 POSCAR: Au                                      
  positions in direct lattice
  velocities in cartesian coordinates
 


--------------------------------------------------------------------------------------------------------


 ion  position               nearest neighbor table
   1  0.000  0.000  0.000-   2 3.16   3 3.16   4 3.16   3 3.16   4 3.16   2 3.16   4 3.16   4 3.16
                             2 3.16   3 3.16   3 3.16   2 3.16
   2  0.500  0.500  0.000-   1 3.16   3 3.16   4 3.16   3 3.16   4 3.16   1 3.16   3 3.16   3 3.16
                             1 3.16   4 3.16   4 3.16   1 3.16
   3  0.500  0.000  0.500-   1 3.16   2 3.16   4 3.16   1 3.16   2 3.16   2 3.16   4 3.16   2 3.16
                             1 3.16   4 3.16   1 3.16   4 3.16
   4  0.000  0.500  0.500-   1 3.16   2 3.16   3 3.16   1 3.16   2 3.16   1 3.16   3 3.16   1 3.16
                             2 3.16   3 3.16   2 3.16   3 3.16
 
  LATTYP: Found a simple cubic cell.
 ALAT       =     4.4649515355
  
  Lattice vectors:
  
 A1 = (   4.4649515355,   0.0000000000,   0.0000000000)
 A2 = (   0.0000000000,   4.4649515355,   0.0000000000)
 A3 = (   0.0000000000,   0.0000000000,   4.4649515355)
 Subroutine PRICEL returns following result:
 
  LATTYP: Found a face centered cubic cell.
 ALAT       =     4.4649515355
  
  Lattice vectors:
  
 A1 = (   2.2324757677,   2.2324757677,   0.0000000000)
 A2 = (   2.2324757677,   0.0000000000,  -2.2324757677)
 A3 = (   0.0000000000,   2.2324757677,  -2.2324757677)
 
   4 primitive cells build up your supercell.
 

Analysis of symmetry for initial positions (statically):

 Routine SETGRP: Setting up the symmetry group for a 
 simple cubic supercell.


 Subroutine GETGRP returns: Found 48 space group operations
 (whereof 48 operations were pure point group operations)
 out of a pool of 48 trial point group operations.


The static configuration has the point symmetry O_h .

Analysis of symmetry for dynamics (positions and initial velocities):

 Subroutine DYNSYM returns: Found 48 space group operations
 (whereof 48 operations were pure point group operations)
 out of a pool of 48 trial space group operations
 (whereof 48 operations were pure point group operations)
 and found also     4 'primitive' translations


The dynamic configuration has the point symmetry O_h .
 
 
 KPOINTS: Automatic mesh                          

Automatic generation of k-mesh.
 
 Subroutine IBZKPT returns following result:
 ===========================================
 
 Found     84 irreducible k-points:
 
 Following reciprocal coordinates:
            Coordinates               Weight
  0.000000  0.000000  0.000000      1.000000
  0.083333  0.000000  0.000000      6.000000
  0.166667  0.000000  0.000000      6.000000
  0.250000  0.000000  0.000000      6.000000
  0.333333  0.000000  0.000000      6.000000
  0.416667  0.000000  0.000000      6.000000
  0.500000  0.000000  0.000000      3.000000
  0.083333  0.083333  0.000000     12.000000
  0.166667  0.083333  0.000000     24.000000
  0.250000  0.083333  0.000000     24.000000
  0.333333  0.083333  0.000000     24.000000
  0.416667  0.083333  0.000000     24.000000
  0.500000  0.083333  0.000000     12.000000
  0.166667  0.166667  0.000000     12.000000
  0.250000  0.166667  0.000000     24.000000
  0.333333  0.166667  0.000000     24.000000
  0.416667  0.166667  0.000000     24.000000
  0.500000  0.166667  0.000000     12.000000
  0.250000  0.250000  0.000000     12.000000
  0.333333  0.250000  0.000000     24.000000
  0.416667  0.250000  0.000000     24.000000
  0.500000  0.250000  0.000000     12.000000
  0.333333  0.333333  0.000000     12.000000
  0.416667  0.333333  0.000000     24.000000
  0.500000  0.333333  0.000000     12.000000
  0.416667  0.416667  0.000000     12.000000
  0.500000  0.416667  0.000000     12.000000
  0.500000  0.500000  0.000000      3.000000
  0.083333  0.083333  0.083333      8.000000
  0.166667  0.083333  0.083333     24.000000
  0.250000  0.083333  0.083333     24.000000
  0.333333  0.083333  0.083333     24.000000
  0.416667  0.083333  0.083333     24.000000
  0.500000  0.083333  0.083333     12.000000
  0.166667  0.166667  0.083333     24.000000
  0.250000  0.166667  0.083333     48.000000
  0.333333  0.166667  0.083333     48.000000
  0.416667  0.166667  0.083333     48.000000
  0.500000  0.166667  0.083333     24.000000
  0.250000  0.250000  0.083333     24.000000
  0.333333  0.250000  0.083333     48.000000
  0.416667  0.250000  0.083333     48.000000
  0.500000  0.250000  0.083333     24.000000
  0.333333  0.333333  0.083333     24.000000
  0.416667  0.333333  0.083333     48.000000
  0.500000  0.333333  0.083333     24.000000
  0.416667  0.416667  0.083333     24.000000
  0.500000  0.416667  0.083333     24.000000
  0.500000  0.500000  0.083333      6.000000
  0.166667  0.166667  0.166667      8.000000
  0.250000  0.166667  0.166667     24.000000
  0.333333  0.166667  0.166667     24.000000
  0.416667  0.166667  0.166667     24.000000
  0.500000  0.166667  0.166667     12.000000
  0.250000  0.250000  0.166667     24.000000
  0.333333  0.250000  0.166667     48.000000
  0.416667  0.250000  0.166667     48.000000
  0.500000  0.250000  0.166667     24.000000
  0.333333  0.333333  0.166667     24.000000
  0.416667  0.333333  0.166667     48.000000
  0.500000  0.333333  0.166667     24.000000
  0.416667  0.416667  0.166667     24.000000
  0.500000  0.416667  0.166667     24.000000
  0.500000  0.500000  0.166667      6.000000
  0.250000  0.250000  0.250000      8.000000
  0.333333  0.250000  0.250000     24.000000
  0.416667  0.250000  0.250000     24.000000
  0.500000  0.250000  0.250000     12.000000
  0.333333  0.333333  0.250000     24.000000
  0.416667  0.333333  0.250000     48.000000
  0.500000  0.333333  0.250000     24.000000
  0.416667  0.416667  0.250000     24.000000
  0.500000  0.416667  0.250000     24.000000
  0.500000  0.500000  0.250000      6.000000
  0.333333  0.333333  0.333333      8.000000
  0.416667  0.333333  0.333333     24.000000
  0.500000  0.333333  0.333333     12.000000
  0.416667  0.416667  0.333333     24.000000
  0.500000  0.416667  0.333333     24.000000
  0.500000  0.500000  0.333333      6.000000
  0.416667  0.416667  0.416667      8.000000
  0.500000  0.416667  0.416667     12.000000
  0.500000  0.500000  0.416667      6.000000
  0.500000  0.500000  0.500000      1.000000
 
 Following cartesian coordinates:
            Coordinates               Weight
  0.000000  0.000000  0.000000      1.000000
  0.019970  0.000000  0.000000      6.000000
  0.039941  0.000000  0.000000      6.000000
  0.059911  0.000000  0.000000      6.000000
  0.079881  0.000000  0.000000      6.000000
  0.099852  0.000000  0.000000      6.000000
  0.119822  0.000000  0.000000      3.000000
  0.019970  0.019970  0.000000     12.000000
  0.039941  0.019970  0.000000     24.000000
  0.059911  0.019970  0.000000     24.000000
  0.079881  0.019970  0.000000     24.000000
  0.099852  0.019970  0.000000     24.000000
  0.119822  0.019970  0.000000     12.000000
  0.039941  0.039941  0.000000     12.000000
  0.059911  0.039941  0.000000     24.000000
  0.079881  0.039941  0.000000     24.000000
  0.099852  0.039941  0.000000     24.000000
  0.119822  0.039941  0.000000     12.000000
  0.059911  0.059911  0.000000     12.000000
  0.079881  0.059911  0.000000     24.000000
  0.099852  0.059911  0.000000     24.000000
  0.119822  0.059911  0.000000     12.000000
  0.079881  0.079881  0.000000     12.000000
  0.099852  0.079881  0.000000     24.000000
  0.119822  0.079881  0.000000     12.000000
  0.099852  0.099852  0.000000     12.000000
  0.119822  0.099852  0.000000     12.000000
  0.119822  0.119822  0.000000      3.000000
  0.019970  0.019970  0.019970      8.000000
  0.039941  0.019970  0.019970     24.000000
  0.059911  0.019970  0.019970     24.000000
  0.079881  0.019970  0.019970     24.000000
  0.099852  0.019970  0.019970     24.000000
  0.119822  0.019970  0.019970     12.000000
  0.039941  0.039941  0.019970     24.000000
  0.059911  0.039941  0.019970     48.000000
  0.079881  0.039941  0.019970     48.000000
  0.099852  0.039941  0.019970     48.000000
  0.119822  0.039941  0.019970     24.000000
  0.059911  0.059911  0.019970     24.000000
  0.079881  0.059911  0.019970     48.000000
  0.099852  0.059911  0.019970     48.000000
  0.119822  0.059911  0.019970     24.000000
  0.079881  0.079881  0.019970     24.000000
  0.099852  0.079881  0.019970     48.000000
  0.119822  0.079881  0.019970     24.000000
  0.099852  0.099852  0.019970     24.000000
  0.119822  0.099852  0.019970     24.000000
  0.119822  0.119822  0.019970      6.000000
  0.039941  0.039941  0.039941      8.000000
  0.059911  0.039941  0.039941     24.000000
  0.079881  0.039941  0.039941     24.000000
  0.099852  0.039941  0.039941     24.000000
  0.119822  0.039941  0.039941     12.000000
  0.059911  0.059911  0.039941     24.000000
  0.079881  0.059911  0.039941     48.000000
  0.099852  0.059911  0.039941     48.000000
  0.119822  0.059911  0.039941     24.000000
  0.079881  0.079881  0.039941     24.000000
  0.099852  0.079881  0.039941     48.000000
  0.119822  0.079881  0.039941     24.000000
  0.099852  0.099852  0.039941     24.000000
  0.119822  0.099852  0.039941     24.000000
  0.119822  0.119822  0.039941      6.000000
  0.059911  0.059911  0.059911      8.000000
  0.079881  0.059911  0.059911     24.000000
  0.099852  0.059911  0.059911     24.000000
  0.119822  0.059911  0.059911     12.000000
  0.079881  0.079881  0.059911     24.000000
  0.099852  0.079881  0.059911     48.000000
  0.119822  0.079881  0.059911     24.000000
  0.099852  0.099852  0.059911     24.000000
  0.119822  0.099852  0.059911     24.000000
  0.119822  0.119822  0.059911      6.000000
  0.079881  0.079881  0.079881      8.000000
  0.099852  0.079881  0.079881     24.000000
  0.119822  0.079881  0.079881     12.000000
  0.099852  0.099852  0.079881     24.000000
  0.119822  0.099852  0.079881     24.000000
  0.119822  0.119822  0.079881      6.000000
  0.099852  0.099852  0.099852      8.000000
  0.119822  0.099852  0.099852     12.000000
  0.119822  0.119822  0.099852      6.000000
  0.119822  0.119822  0.119822      1.000000
 


--------------------------------------------------------------------------------------------------------




 Dimension of arrays:
   k-Points           NKPTS =     84   number of bands    NBANDS=     28
   number of dos      NEDOS =    301   number of ions     NIONS =      4
   non local maximal  LDIM  =      6   non local SUM 2l+1 LMDIM =     18
   total plane-waves  NPLWV =  64000
   max r-space proj   IRMAX =      1   max aug-charges    IRDMAX= 351912
   dimension x,y,z NGX =    40 NGY =   40 NGZ =   40
   dimension x,y,z NGXF=    80 NGYF=   80 NGZF=   80
   support grid    NGXF=   160 NGYF=  160 NGZF=  160
   ions per type =               4
 NGX,Y,Z   is equivalent  to a cutoff of  14.89, 14.89, 14.89 a.u.
 NGXF,Y,Z  is equivalent  to a cutoff of  29.79, 29.79, 29.79 a.u.


 I would recommend the setting:
   dimension x,y,z NGX =    40 NGY =   40 NGZ =   40
 SYSTEM =  unknown system                          
 POSCAR =  Au                                      

 Startparameter for this run:
   NWRITE =      2    write-flag & timer
   PREC   = accura    medium, high low
   ISTART =      0    job   : 0-new  1-cont  2-samecut
   ICHARG =      2    charge: 1-file 2-atom 10-const
   ISPIN  =      1    spin polarized calculation?
   LNONCOLLINEAR =      F non collinear calculations
   LSORBIT =      F    spin-orbit coupling
   INIWAV =      1    electr: 0-lowe 1-rand  2-diag
   LASPH  =      F    aspherical Exc in radial PAW
   METAGGA=      F    non-selfconsistent MetaGGA calc.

 Electronic Relaxation 1
   ENCUT  =  750.0 eV  55.12 Ry    7.42 a.u.   9.97  9.97  9.97*2*pi/ulx,y,z
   ENINI  =  750.0     initial cutoff
   ENAUG  =  356.7 eV  augmentation charge cutoff
   NELM   =     60;   NELMIN=  2; NELMDL= -5     # of ELM steps 
   EDIFF  = 0.1E-07   stopping-criterion for ELM
   LREAL  =      F    real-space projection
   LCOMPAT=      F    compatible to vasp.4.4
   LREAL_COMPAT= F    compatible to vasp.4.5.1-3
   GGA_COMPAT  = T    GGA compatible to vasp.4.4-vasp.4.6
   LMAXPAW     = -100 max onsite density
   LMAXMIX     =    2 max onsite mixed and CHGCAR
   VOSKOWN=      0    Vosko Wilk Nusair interpolation
   ROPT   =    0.00000
 Ionic relaxation
   EDIFFG = 0.1E-06   stopping-criterion for IOM
   NSW    =      0    number of steps for IOM
   NBLOCK =      1;   KBLOCK =      1    inner block; outer block 
   IBRION =     -1    ionic relax: 0-MD 1-quasi-New 2-CG
   NFREE  =      0    steps in history (QN), initial steepest desc. (CG)
   ISIF   =      2    stress and relaxation
   IWAVPR =     10    prediction:  0-non 1-charg 2-wave 3-comb
   ISYM   =      2    0-nonsym 1-usesym 2-fastsym
   LCORR  =      T    Harris-Foulkes like correction to forces

   POTIM  =   0.50    time-step for ionic-motion
   TEIN   =    0.0    initial temperature
   TEBEG  =    0.0;   TEEND  =   0.0 temperature during run
   SMASS  =  -3.00    Nose mass-parameter (am)
   estimated Nose-frequenzy (Omega)   =  0.10E-29 period in steps =****** mass=  -0.456E-27a.u.
   NPACO  =    256;   APACO  = 16.0  distance and # of slots for P.C.
   PSTRESS=    0.0 pullay stress

  Mass of Ions in am
   POMASS = 196.97
  Ionic Valenz
   ZVAL   =  11.00
  Atomic Wigner-Seitz radii
   RWIGS  =  -1.00
   NELECT =      44.0000    total number of electrons
   NUPDOWN=      -1.0000    fix difference up-down

 DOS related values:
   EMIN   =  10.00;   EMAX   =-10.00  energy-range for DOS
   ISMEAR =     0;   SIGMA  =   0.01  broadening in eV -4-tet -1-fermi 0-gaus

 Electronic relaxation 2 (details)
   IALGO  =     38    algorithm
   LDIAG  =      T    sub-space diagonalisation
   IMIX   =      4    mixing-type and parameters
     AMIX     =   0.40;   BMIX     =  1.00
     AMIX_MAG =   1.60;   BMIX_MAG =  1.00
     AMIN     =   0.10
     WC   =   100.;   INIMIX=   1;  MIXPRE=   1

 Intra band minimization:
   WEIMIN = 0.0000     energy-eigenvalue tresh-hold
   EBREAK =  0.96E-10  absolut break condition
   DEPER  =   0.30     relativ break condition  

   TIME   =   0.10     timestep for ELM

  volume/ion in A,a.u.               =      22.25       150.17
  Fermi-wavevector in a.u.,eV,Ry     =   1.294421 22.796921  1.675526

 Second variation
   LSECVAR=     F    do a second variation
 
 Write flags
   LWAVE  =      F    write WAVECAR
   LCHARG =      F    write CHGCAR
   LVTOT  =      F    write LOCPOT, local potential
   LELF   =      F    write electronic localiz. function (ELF)
   LORBIT =      0    0 simple, 1 ext, 2 COOP (PROOUT)


 Dipole corrections
   IDIPOL =      0    1-x, 2-y, 3-z
   LDIPOL =      F    correct potential



--------------------------------------------------------------------------------------------------------


 Static calculation
 charge density will be updated during run
 non-spin polarized calculation
 Variant of blocked Davidson
 Davidson routine will perform the subspace rotation
 performe sub-space diagonalisation
    after iterative eigenvector-optimisation
 modified Broyden-mixing scheme, WC =      100.0
 initial mixing is a Kerker type mixing with AMIX =  0.4000 and BMIX =      1.0000
 Hartree-type preconditioning will be used
 using additional bands            6
 reciprocal scheme for non local part
 use partial core corrections
 calculate Harris-corrections to forces 
   (improved forces if not selfconsistent)
 use gradient corrections 
 use of overlap-Matrix (Vanderbilt PP)
 Gauss-broadening in eV      SIGMA  =   0.01


--------------------------------------------------------------------------------------------------------


  energy-cutoff  :      750.00
  volume of cell :       89.01
      direct lattice vectors                 reciprocal lattice vectors
     4.464951535  0.000000000  0.000000000     0.223966597  0.000000000  0.000000000
     0.000000000  4.464951535  0.000000000     0.000000000  0.223966597  0.000000000
     0.000000000  0.000000000  4.464951535     0.000000000  0.000000000  0.223966597

  length of vectors
     4.464951535  4.464951535  4.464951535     0.223966597  0.223966597  0.223966597


 
 k-points in units of 2pi/SCALE and weight: Automatic mesh                          
   0.00000000  0.00000000  0.00000000       0.001
   0.01997035  0.00000000  0.00000000       0.003
   0.03994071  0.00000000  0.00000000       0.003
   0.05991106  0.00000000  0.00000000       0.003
   0.07988142  0.00000000  0.00000000       0.003
   0.09985177  0.00000000  0.00000000       0.003
   0.11982213  0.00000000  0.00000000       0.002
   0.01997035  0.01997035  0.00000000       0.007
   0.03994071  0.01997035  0.00000000       0.014
   0.05991106  0.01997035  0.00000000       0.014
   0.07988142  0.01997035  0.00000000       0.014
   0.09985177  0.01997035  0.00000000       0.014
   0.11982213  0.01997035  0.00000000       0.007
   0.03994071  0.03994071  0.00000000       0.007
   0.05991106  0.03994071  0.00000000       0.014
   0.07988142  0.03994071  0.00000000       0.014
   0.09985177  0.03994071  0.00000000       0.014
   0.11982213  0.03994071  0.00000000       0.007
   0.05991106  0.05991106  0.00000000       0.007
   0.07988142  0.05991106  0.00000000       0.014
   0.09985177  0.05991106  0.00000000       0.014
   0.11982213  0.05991106  0.00000000       0.007
   0.07988142  0.07988142  0.00000000       0.007
   0.09985177  0.07988142  0.00000000       0.014
   0.11982213  0.07988142  0.00000000       0.007
   0.09985177  0.09985177  0.00000000       0.007
   0.11982213  0.09985177  0.00000000       0.007
   0.11982213  0.11982213  0.00000000       0.002
   0.01997035  0.01997035  0.01997035       0.005
   0.03994071  0.01997035  0.01997035       0.014
   0.05991106  0.01997035  0.01997035       0.014
   0.07988142  0.01997035  0.01997035       0.014
   0.09985177  0.01997035  0.01997035       0.014
   0.11982213  0.01997035  0.01997035       0.007
   0.03994071  0.03994071  0.01997035       0.014
   0.05991106  0.03994071  0.01997035       0.028
   0.07988142  0.03994071  0.01997035       0.028
   0.09985177  0.03994071  0.01997035       0.028
   0.11982213  0.03994071  0.01997035       0.014
   0.05991106  0.05991106  0.01997035       0.014
   0.07988142  0.05991106  0.01997035       0.028
   0.09985177  0.05991106  0.01997035       0.028
   0.11982213  0.05991106  0.01997035       0.014
   0.07988142  0.07988142  0.01997035       0.014
   0.09985177  0.07988142  0.01997035       0.028
   0.11982213  0.07988142  0.01997035       0.014
   0.09985177  0.09985177  0.01997035       0.014
   0.11982213  0.09985177  0.01997035       0.014
   0.11982213  0.11982213  0.01997035       0.003
   0.03994071  0.03994071  0.03994071       0.005
   0.05991106  0.03994071  0.03994071       0.014
   0.07988142  0.03994071  0.03994071       0.014
   0.09985177  0.03994071  0.03994071       0.014
   0.11982213  0.03994071  0.03994071       0.007
   0.05991106  0.05991106  0.03994071       0.014
   0.07988142  0.05991106  0.03994071       0.028
   0.09985177  0.05991106  0.03994071       0.028
   0.11982213  0.05991106  0.03994071       0.014
   0.07988142  0.07988142  0.03994071       0.014
   0.09985177  0.07988142  0.03994071       0.028
   0.11982213  0.07988142  0.03994071       0.014
   0.09985177  0.09985177  0.03994071       0.014
   0.11982213  0.09985177  0.03994071       0.014
   0.11982213  0.11982213  0.03994071       0.003
   0.05991106  0.05991106  0.05991106       0.005
   0.07988142  0.05991106  0.05991106       0.014
   0.09985177  0.05991106  0.05991106       0.014
   0.11982213  0.05991106  0.05991106       0.007
   0.07988142  0.07988142  0.05991106       0.014
   0.09985177  0.07988142  0.05991106       0.028
   0.11982213  0.07988142  0.05991106       0.014
   0.09985177  0.09985177  0.05991106       0.014
   0.11982213  0.09985177  0.05991106       0.014
   0.11982213  0.11982213  0.05991106       0.003
   0.07988142  0.07988142  0.07988142       0.005
   0.09985177  0.07988142  0.07988142       0.014
   0.11982213  0.07988142  0.07988142       0.007
   0.09985177  0.09985177  0.07988142       0.014
   0.11982213  0.09985177  0.07988142       0.014
   0.11982213  0.11982213  0.07988142       0.003
   0.09985177  0.09985177  0.09985177       0.005
   0.11982213  0.09985177  0.09985177       0.007
   0.11982213  0.11982213  0.09985177       0.003
   0.11982213  0.11982213  0.11982213       0.001
 
 k-points in reciprocal lattice and weights: Automatic mesh                          
   0.00000000  0.00000000  0.00000000       0.001
   0.08333333  0.00000000  0.00000000       0.003
   0.16666667  0.00000000  0.00000000       0.003
   0.25000000  0.00000000  0.00000000       0.003
   0.33333333  0.00000000  0.00000000       0.003
   0.41666667  0.00000000  0.00000000       0.003
   0.50000000  0.00000000  0.00000000       0.002
   0.08333333  0.08333333  0.00000000       0.007
   0.16666667  0.08333333  0.00000000       0.014
   0.25000000  0.08333333  0.00000000       0.014
   0.33333333  0.08333333  0.00000000       0.014
   0.41666667  0.08333333  0.00000000       0.014
   0.50000000  0.08333333  0.00000000       0.007
   0.16666667  0.16666667  0.00000000       0.007
   0.25000000  0.16666667  0.00000000       0.014
   0.33333333  0.16666667  0.00000000       0.014
   0.41666667  0.16666667  0.00000000       0.014
   0.50000000  0.16666667  0.00000000       0.007
   0.25000000  0.25000000  0.00000000       0.007
   0.33333333  0.25000000  0.00000000       0.014
   0.41666667  0.25000000  0.00000000       0.014
   0.50000000  0.25000000  0.00000000       0.007
   0.33333333  0.33333333  0.00000000       0.007
   0.41666667  0.33333333  0.00000000       0.014
   0.50000000  0.33333333  0.00000000       0.007
   0.41666667  0.41666667  0.00000000       0.007
   0.50000000  0.41666667  0.00000000       0.007
   0.50000000  0.50000000  0.00000000       0.002
   0.08333333  0.08333333  0.08333333       0.005
   0.16666667  0.08333333  0.08333333       0.014
   0.25000000  0.08333333  0.08333333       0.014
   0.33333333  0.08333333  0.08333333       0.014
   0.41666667  0.08333333  0.08333333       0.014
   0.50000000  0.08333333  0.08333333       0.007
   0.16666667  0.16666667  0.08333333       0.014
   0.25000000  0.16666667  0.08333333       0.028
   0.33333333  0.16666667  0.08333333       0.028
   0.41666667  0.16666667  0.08333333       0.028
   0.50000000  0.16666667  0.08333333       0.014
   0.25000000  0.25000000  0.08333333       0.014
   0.33333333  0.25000000  0.08333333       0.028
   0.41666667  0.25000000  0.08333333       0.028
   0.50000000  0.25000000  0.08333333       0.014
   0.33333333  0.33333333  0.08333333       0.014
   0.41666667  0.33333333  0.08333333       0.028
   0.50000000  0.33333333  0.08333333       0.014
   0.41666667  0.41666667  0.08333333       0.014
   0.50000000  0.41666667  0.08333333       0.014
   0.50000000  0.50000000  0.08333333       0.003
   0.16666667  0.16666667  0.16666667       0.005
   0.25000000  0.16666667  0.16666667       0.014
   0.33333333  0.16666667  0.16666667       0.014
   0.41666667  0.16666667  0.16666667       0.014
   0.50000000  0.16666667  0.16666667       0.007
   0.25000000  0.25000000  0.16666667       0.014
   0.33333333  0.25000000  0.16666667       0.028
   0.41666667  0.25000000  0.16666667       0.028
   0.50000000  0.25000000  0.16666667       0.014
   0.33333333  0.33333333  0.16666667       0.014
   0.41666667  0.33333333  0.16666667       0.028
   0.50000000  0.33333333  0.16666667       0.014
   0.41666667  0.41666667  0.16666667       0.014
   0.50000000  0.41666667  0.16666667       0.014
   0.50000000  0.50000000  0.16666667       0.003
   0.25000000  0.25000000  0.25000000       0.005
   0.33333333  0.25000000  0.25000000       0.014
   0.41666667  0.25000000  0.25000000       0.014
   0.50000000  0.25000000  0.25000000       0.007
   0.33333333  0.33333333  0.25000000       0.014
   0.41666667  0.33333333  0.25000000       0.028
   0.50000000  0.33333333  0.25000000       0.014
   0.41666667  0.41666667  0.25000000       0.014
   0.50000000  0.41666667  0.25000000       0.014
   0.50000000  0.50000000  0.25000000       0.003
   0.33333333  0.33333333  0.33333333       0.005
   0.41666667  0.33333333  0.33333333       0.014
   0.50000000  0.33333333  0.33333333       0.007
   0.41666667  0.41666667  0.33333333       0.014
   0.50000000  0.41666667  0.33333333       0.014
   0.50000000  0.50000000  0.33333333       0.003
   0.41666667  0.41666667  0.41666667       0.005
   0.50000000  0.41666667  0.41666667       0.007
   0.50000000  0.50000000  0.41666667       0.003
   0.50000000  0.50000000  0.50000000       0.001
 
 position of ions in fractional coordinates (direct lattice) 
   0.00000000  0.00000000  0.00000000
   0.50000000  0.50000000  0.00000000
   0.50000000  0.00000000  0.50000000
   0.00000000  0.50000000  0.50000000
 
 position of ions in cartesian coordinates  (Angst):
   0.00000000  0.00000000  0.00000000
   2.23247577  2.23247577  0.00000000
   2.23247577  0.00000000  2.23247577
   0.00000000  2.23247577  2.23247577
 


--------------------------------------------------------------------------------------------------------


 k-point  1 :  0.00000.00000.0000  plane waves:   4139
 k-point  2 :  0.08330.00000.0000  plane waves:   4112
 k-point  3 :  0.16670.00000.0000  plane waves:   4132
 k-point  4 :  0.25000.00000.0000  plane waves:   4124
 k-point  5 :  0.33330.00000.0000  plane waves:   4128
 k-point  6 :  0.41670.00000.0000  plane waves:   4132
 k-point  7 :  0.50000.00000.0000  plane waves:   4140
 k-point  8 :  0.08330.08330.0000  plane waves:   4138
 k-point  9 :  0.16670.08330.0000  plane waves:   4133
 k-point 10 :  0.25000.08330.0000  plane waves:   4147
 k-point 11 :  0.33330.08330.0000  plane waves:   4136
 k-point 12 :  0.41670.08330.0000  plane waves:   4148
 k-point 13 :  0.50000.08330.0000  plane waves:   4144
 k-point 14 :  0.16670.16670.0000  plane waves:   4144
 k-point 15 :  0.25000.16670.0000  plane waves:   4133
 k-point 16 :  0.33330.16670.0000  plane waves:   4141
 k-point 17 :  0.41670.16670.0000  plane waves:   4149
 k-point 18 :  0.50000.16670.0000  plane waves:   4164
 k-point 19 :  0.25000.25000.0000  plane waves:   4140
 k-point 20 :  0.33330.25000.0000  plane waves:   4151
 k-point 21 :  0.41670.25000.0000  plane waves:   4164
 k-point 22 :  0.50000.25000.0000  plane waves:   4186
 k-point 23 :  0.33330.33330.0000  plane waves:   4160
 k-point 24 :  0.41670.33330.0000  plane waves:   4154
 k-point 25 :  0.50000.33330.0000  plane waves:   4152
 k-point 26 :  0.41670.41670.0000  plane waves:   4160
 k-point 27 :  0.50000.41670.0000  plane waves:   4148
 k-point 28 :  0.50000.50000.0000  plane waves:   4116
 k-point 29 :  0.08330.08330.0833  plane waves:   4127
 k-point 30 :  0.16670.08330.0833  plane waves:   4138
 k-point 31 :  0.25000.08330.0833  plane waves:   4128
 k-point 32 :  0.33330.08330.0833  plane waves:   4139
 k-point 33 :  0.41670.08330.0833  plane waves:   4144
 k-point 34 :  0.50000.08330.0833  plane waves:   4136
 k-point 35 :  0.16670.16670.0833  plane waves:   4142
 k-point 36 :  0.25000.16670.0833  plane waves:   4133
 k-point 37 :  0.33330.16670.0833  plane waves:   4145
 k-point 38 :  0.41670.16670.0833  plane waves:   4157
 k-point 39 :  0.50000.16670.0833  plane waves:   4148
 k-point 40 :  0.25000.25000.0833  plane waves:   4150
 k-point 41 :  0.33330.25000.0833  plane waves:   4161
 k-point 42 :  0.41670.25000.0833  plane waves:   4153
 k-point 43 :  0.50000.25000.0833  plane waves:   4158
 k-point 44 :  0.33330.33330.0833  plane waves:   4171
 k-point 45 :  0.41670.33330.0833  plane waves:   4151
 k-point 46 :  0.50000.33330.0833  plane waves:   4158
 k-point 47 :  0.41670.41670.0833  plane waves:   4166
 k-point 48 :  0.50000.41670.0833  plane waves:   4158
 k-point 49 :  0.50000.50000.0833  plane waves:   4152
 k-point 50 :  0.16670.16670.1667  plane waves:   4121
 k-point 51 :  0.25000.16670.1667  plane waves:   4140
 k-point 52 :  0.33330.16670.1667  plane waves:   4141
 k-point 53 :  0.41670.16670.1667  plane waves:   4166
 k-point 54 :  0.50000.16670.1667  plane waves:   4152
 k-point 55 :  0.25000.25000.1667  plane waves:   4141
 k-point 56 :  0.33330.25000.1667  plane waves:   4157
 k-point 57 :  0.41670.25000.1667  plane waves:   4157
 k-point 58 :  0.50000.25000.1667  plane waves:   4162
 k-point 59 :  0.33330.33330.1667  plane waves:   4166
 k-point 60 :  0.41670.33330.1667  plane waves:   4159
 k-point 61 :  0.50000.33330.1667  plane waves:   4172
 k-point 62 :  0.41670.41670.1667  plane waves:   4172
 k-point 63 :  0.50000.41670.1667  plane waves:   4156
 k-point 64 :  0.50000.50000.1667  plane waves:   4172
 k-point 65 :  0.25000.25000.2500  plane waves:   4146
 k-point 66 :  0.33330.25000.2500  plane waves:   4158
 k-point 67 :  0.41670.25000.2500  plane waves:   4170
 k-point 68 :  0.50000.25000.2500  plane waves:   4178
 k-point 69 :  0.33330.33330.2500  plane waves:   4154
 k-point 70 :  0.41670.33330.2500  plane waves:   4167
 k-point 71 :  0.50000.33330.2500  plane waves:   4156
 k-point 72 :  0.41670.41670.2500  plane waves:   4146
 k-point 73 :  0.50000.41670.2500  plane waves:   4148
 k-point 74 :  0.50000.50000.2500  plane waves:   4144
 k-point 75 :  0.33330.33330.3333  plane waves:   4173
 k-point 76 :  0.41670.33330.3333  plane waves:   4157
 k-point 77 :  0.50000.33330.3333  plane waves:   4146
 k-point 78 :  0.41670.41670.3333  plane waves:   4147
 k-point 79 :  0.50000.41670.3333  plane waves:   4150
 k-point 80 :  0.50000.50000.3333  plane waves:   4148
 k-point 81 :  0.41670.41670.4167  plane waves:   4158
 k-point 82 :  0.50000.41670.4167  plane waves:   4156
 k-point 83 :  0.50000.50000.4167  plane waves:   4168
 k-point 84 :  0.50000.50000.5000  plane waves:   4224

 maximum and minimum number of plane-waves per node :   4224  4112

 maximum number of plane-waves:   4224
 maximal index in each direction: 
   IXMAX=  9   IYMAX=  9   IZMAX=  9
   IXMIN=-10   IYMIN=-10   IZMIN=-10

 NGX is ok and might be reduce to  40
 NGY is ok and might be reduce to  40
 NGZ is ok and might be reduce to  40

 parallel 3dFFT wavefunction:
    minimum data exchange during FFTs selected (reduces bandwidth)
 parallel 3dFFT charge:
    minimum data exchange during FFTs selected (reduces bandwidth)

 For storing wavefunctions  156.20 MBYTES are necessary
 For predicting wavefunctions    5.18 MBYTES are necessary
Broyden mixing: mesh for mixing (old mesh)
   NGX = 19   NGY = 19   NGZ = 19
  (NGX  = 80   NGY  = 80   NGZ  = 80)
 gives a total of   6859 points
 initial charge density was supplied:
 charge density of overlapping atoms calculated
 number of electron   44.0000000 magnetization 
 keeping initial charge density in first step


--------------------------------------------------------------------------------------------------------


 Maximum index for augmentation-charges        85289 (set IRDMAX)


--------------------------------------------------------------------------------------------------------


 First call to EWALD:  gamma=   0.397
 Maximum number of real-space cells 3x 3x 3
 Maximum number of reciprocal cells 3x 3x 3

    FEWALD:  VPU time    0.00: CPU time    0.00


----------------------------------------- Iteration    1(   1)  ---------------------------------------


    POTLOK:  VPU time    0.32: CPU time    0.32
    SETDIJ:  VPU time    0.86: CPU time    0.86
    EDDAV :  VPU time   21.05: CPU time   21.10
    DOS   :  VPU time    0.00: CPU time   -0.00
    ------------------------------------------
      LOOP:  VPU time   22.24: CPU time   22.29

 eigenvalue-minimisations  :  4704
 total energy-change (2. order) : 0.5058185E+03  (-0.2603742E+04)
 number of electron   44.0000000 magnetization 
 augmentation part    44.0000000 magnetization 

 Free energy of the ion-electron system (eV)
  ---------------------------------------------------
  alpha Z        PSCENC =       336.64011485
  Ewald energy   TEWEN  =     -3578.33478197
  -1/2 Hartree   DENC   =      -639.41837526
  -V(xc)+E(xc)   XCENC  =        58.24174056
  PAW double counting   =      2990.04966927    -2896.51663641
  entropy T*S    EENTRO =        -0.00039041
  eigenvalues    EBANDS =       530.93338636
  atomic energy  EATOM  =      3704.22372399
  ---------------------------------------------------
  free energy    TOTEN  =       505.81845097 eV

  energy without entropy =      505.81884139  energy(sigma->0) =      505.81864618


--------------------------------------------------------------------------------------------------------




----------------------------------------- Iteration    1(   2)  ---------------------------------------


    EDDAV :  VPU time   21.41: CPU time   21.44
    DOS   :  VPU time    0.00: CPU time   -0.00
    ------------------------------------------
      LOOP:  VPU time   21.42: CPU time   21.45

 eigenvalue-minimisations  :  4760
 total energy-change (2. order) :-0.4933174E+03  (-0.4673708E+03)
 number of electron   44.0000000 magnetization 
 augmentation part    44.0000000 magnetization 

 Free energy of the ion-electron system (eV)
  ---------------------------------------------------
  alpha Z        PSCENC =       336.64011485
  Ewald energy   TEWEN  =     -3578.33478197
  -1/2 Hartree   DENC   =      -639.41837526
  -V(xc)+E(xc)   XCENC  =        58.24174056
  PAW double counting   =      2990.04966927    -2896.51663641
  entropy T*S    EENTRO =        -0.00012029
  eigenvalues    EBANDS =        37.61571313
  atomic energy  EATOM  =      3704.22372399
  ---------------------------------------------------
  free energy    TOTEN  =        12.50104787 eV

  energy without entropy =       12.50116816  energy(sigma->0) =       12.50110802


--------------------------------------------------------------------------------------------------------




----------------------------------------- Iteration    1(   3)  ---------------------------------------


    EDDAV :  VPU time   23.02: CPU time   23.07
    DOS   :  VPU time    0.00: CPU time   -0.00
    ------------------------------------------
      LOOP:  VPU time   23.02: CPU time   23.08

 eigenvalue-minimisations  :  5372
 total energy-change (2. order) :-0.2489313E+02  (-0.2344388E+02)
 number of electron   44.0000000 magnetization 
 augmentation part    44.0000000 magnetization 

 Free energy of the ion-electron system (eV)
  ---------------------------------------------------
  alpha Z        PSCENC =       336.64011485
  Ewald energy   TEWEN  =     -3578.33478197
  -1/2 Hartree   DENC   =      -639.41837526
  -V(xc)+E(xc)   XCENC  =        58.24174056
  PAW double counting   =      2990.04966927    -2896.51663641
  entropy T*S    EENTRO =        -0.00010620
  eigenvalues    EBANDS =        12.72256930
  atomic energy  EATOM  =      3704.22372399
  ---------------------------------------------------
  free energy    TOTEN  =       -12.39208186 eV

  energy without entropy =      -12.39197567  energy(sigma->0) =      -12.39202877


--------------------------------------------------------------------------------------------------------




----------------------------------------- Iteration    1(   4)  ---------------------------------------


    EDDAV :  VPU time   21.73: CPU time   21.81
    DOS   :  VPU time    0.00: CPU time   -0.00
    ------------------------------------------
      LOOP:  VPU time   21.74: CPU time   21.82

 eigenvalue-minimisations  :  4932
 total energy-change (2. order) :-0.5411854E+00  (-0.5395337E+00)
 number of electron   44.0000000 magnetization 
 augmentation part    44.0000000 magnetization 

 Free energy of the ion-electron system (eV)
  ---------------------------------------------------
  alpha Z        PSCENC =       336.64011485
  Ewald energy   TEWEN  =     -3578.33478197
  -1/2 Hartree   DENC   =      -639.41837526
  -V(xc)+E(xc)   XCENC  =        58.24174056
  PAW double counting   =      2990.04966927    -2896.51663641
  entropy T*S    EENTRO =        -0.00014184
  eigenvalues    EBANDS =        12.18141955
  atomic energy  EATOM  =      3704.22372399
  ---------------------------------------------------
  free energy    TOTEN  =       -12.93326727 eV

  energy without entropy =      -12.93312542  energy(sigma->0) =      -12.93319634


--------------------------------------------------------------------------------------------------------




----------------------------------------- Iteration    1(   5)  ---------------------------------------


    EDDAV :  VPU time   22.21: CPU time   22.23
    DOS   :  VPU time    0.00: CPU time   -0.00
    CHARGE:  VPU time    1.53: CPU time    1.53
    MIXING:  VPU time    0.01: CPU time    0.01
    ------------------------------------------
      LOOP:  VPU time   23.76: CPU time   23.78

 eigenvalue-minimisations  :  5008
 total energy-change (2. order) :-0.5629827E-02  (-0.5629379E-02)
 number of electron   44.0000001 magnetization 
 augmentation part    15.6830194 magnetization 

 Broyden mixing:
  rms(total) = 0.50224E+00    rms(broyden)= 0.50224E+00
  rms(prec ) = 0.12602E+01
  weight for this iteration     100.00

 Free energy of the ion-electron system (eV)
  ---------------------------------------------------
  alpha Z        PSCENC =       336.64011485
  Ewald energy   TEWEN  =     -3578.33478197
  -1/2 Hartree   DENC   =      -639.41837526
  -V(xc)+E(xc)   XCENC  =        58.24174056
  PAW double counting   =      2990.04966927    -2896.51663641
  entropy T*S    EENTRO =        -0.00014195
  eigenvalues    EBANDS =        12.17578982
  atomic energy  EATOM  =      3704.22372399
  ---------------------------------------------------
  free energy    TOTEN  =       -12.93889709 eV

  energy without entropy =      -12.93875515  energy(sigma->0) =      -12.93882612


--------------------------------------------------------------------------------------------------------




----------------------------------------- Iteration    1(   6)  ---------------------------------------


    POTLOK:  VPU time    0.60: CPU time    0.61
    SETDIJ:  VPU time    0.81: CPU time    0.82
    EDDAV :  VPU time   21.74: CPU time   21.77
    DOS   :  VPU time    0.00: CPU time   -0.00
    CHARGE:  VPU time    1.55: CPU time    1.55
    MIXING:  VPU time    0.01: CPU time    0.01
    ------------------------------------------
      LOOP:  VPU time   24.72: CPU time   24.76

 eigenvalue-minimisations  :  4872
 total energy-change (2. order) : 0.7969881E+00  (-0.2512159E+00)
 number of electron   44.0000001 magnetization 
 augmentation part    16.2485552 magnetization 

 Broyden mixing:
  rms(total) = 0.11861E+00    rms(broyden)= 0.11861E+00
  rms(prec ) = 0.25301E+00
  weight for this iteration     100.00

 eigenvalues of (default mixing * dielectric matrix)
  average eigenvalue GAMMA=   1.0981
  1.0981

 Free energy of the ion-electron system (eV)
  ---------------------------------------------------
  alpha Z        PSCENC =       336.64011485
  Ewald energy   TEWEN  =     -3578.33478197
  -1/2 Hartree   DENC   =      -608.40846360
  -V(xc)+E(xc)   XCENC  =        56.85822408
  PAW double counting   =      2929.47340805    -2839.01469317
  entropy T*S    EENTRO =        -0.00022935
  eigenvalues    EBANDS =       -13.57921191
  atomic energy  EATOM  =      3704.22372399
  ---------------------------------------------------
  free energy    TOTEN  =       -12.14190903 eV

  energy without entropy =      -12.14167968  energy(sigma->0) =      -12.14179436


--------------------------------------------------------------------------------------------------------




----------------------------------------- Iteration    1(   7)  ---------------------------------------


    POTLOK:  VPU time    0.23: CPU time    0.23
    SETDIJ:  VPU time    0.80: CPU time    0.80
    EDDAV :  VPU time   21.92: CPU time   21.94
    DOS   :  VPU time    0.00: CPU time   -0.00
    CHARGE:  VPU time    1.54: CPU time    1.54
    MIXING:  VPU time    0.01: CPU time    0.01
    ------------------------------------------
      LOOP:  VPU time   24.50: CPU time   24.53

 eigenvalue-minimisations  :  4948
 total energy-change (2. order) : 0.1995177E-01  (-0.8545301E-02)
 number of electron   44.0000001 magnetization 
 augmentation part    16.3323637 magnetization 

 Broyden mixing:
  rms(total) = 0.63460E-01    rms(broyden)= 0.63460E-01
  rms(prec ) = 0.10109E+00
  weight for this iteration     100.00

 eigenvalues of (default mixing * dielectric matrix)
  average eigenvalue GAMMA=   1.8042
  1.1247  2.4838

 Free energy of the ion-electron system (eV)
  ---------------------------------------------------
  alpha Z        PSCENC =       336.64011485
  Ewald energy   TEWEN  =     -3578.33478197
  -1/2 Hartree   DENC   =      -602.17150914
  -V(xc)+E(xc)   XCENC  =        56.55536539
  PAW double counting   =      2921.57311809    -2832.68041986
  entropy T*S    EENTRO =        -0.00018922
  eigenvalues    EBANDS =       -17.92737938
  atomic energy  EATOM  =      3704.22372399
  ---------------------------------------------------
  free energy    TOTEN  =       -12.12195726 eV

  energy without entropy =      -12.12176804  energy(sigma->0) =      -12.12186265


--------------------------------------------------------------------------------------------------------




----------------------------------------- Iteration    1(   8)  ---------------------------------------


    POTLOK:  VPU time    0.22: CPU time    0.23
    SETDIJ:  VPU time    0.81: CPU time    0.81
    EDDAV :  VPU time   21.51: CPU time   21.53
    DOS   :  VPU time    0.00: CPU time   -0.00
    CHARGE:  VPU time    1.52: CPU time    1.53
    MIXING:  VPU time    0.01: CPU time    0.01
    ------------------------------------------
      LOOP:  VPU time   24.08: CPU time   24.11

 eigenvalue-minimisations  :  4820
 total energy-change (2. order) : 0.3686756E-02  (-0.6281852E-03)
 number of electron   44.0000001 magnetization 
 augmentation part    16.3336554 magnetization 

 Broyden mixing:
  rms(total) = 0.46327E-02    rms(broyden)= 0.46324E-02
  rms(prec ) = 0.67667E-02
  weight for this iteration     100.00

 eigenvalues of (default mixing * dielectric matrix)
  average eigenvalue GAMMA=   1.7571
  2.6044  1.1362  1.5306

 Free energy of the ion-electron system (eV)
  ---------------------------------------------------
  alpha Z        PSCENC =       336.64011485
  Ewald energy   TEWEN  =     -3578.33478197
  -1/2 Hartree   DENC   =      -599.15577168
  -V(xc)+E(xc)   XCENC  =        56.38347726
  PAW double counting   =      2924.95768424    -2837.63167848
  entropy T*S    EENTRO =        -0.00019001
  eigenvalues    EBANDS =       -19.20084869
  atomic energy  EATOM  =      3704.22372399
  ---------------------------------------------------
  free energy    TOTEN  =       -12.11827051 eV

  energy without entropy =      -12.11808050  energy(sigma->0) =      -12.11817550


--------------------------------------------------------------------------------------------------------




----------------------------------------- Iteration    1(   9)  ---------------------------------------


    POTLOK:  VPU time    0.23: CPU time    0.23
    SETDIJ:  VPU time    0.81: CPU time    0.81
    EDDAV :  VPU time   22.27: CPU time   22.29
    DOS   :  VPU time    0.00: CPU time   -0.00
    CHARGE:  VPU time    1.53: CPU time    1.54
    MIXING:  VPU time    0.01: CPU time    0.01
    ------------------------------------------
      LOOP:  VPU time   24.86: CPU time   24.88

 eigenvalue-minimisations  :  5068
 total energy-change (2. order) :-0.6870908E-04  (-0.2557075E-04)
 number of electron   44.0000001 magnetization 
 augmentation part    16.3388611 magnetization 

 Broyden mixing:
  rms(total) = 0.24082E-02    rms(broyden)= 0.24082E-02
  rms(prec ) = 0.46006E-02
  weight for this iteration     100.00

 eigenvalues of (default mixing * dielectric matrix)
  average eigenvalue GAMMA=   1.7985
  2.6182  2.4950  1.0885  0.9922

 Free energy of the ion-electron system (eV)
  ---------------------------------------------------
  alpha Z        PSCENC =       336.64011485
  Ewald energy   TEWEN  =     -3578.33478197
  -1/2 Hartree   DENC   =      -598.98042280
  -V(xc)+E(xc)   XCENC  =        56.37430560
  PAW double counting   =      2925.99362510    -2838.59029675
  entropy T*S    EENTRO =        -0.00018902
  eigenvalues    EBANDS =       -19.44441822
  atomic energy  EATOM  =      3704.22372399
  ---------------------------------------------------
  free energy    TOTEN  =       -12.11833921 eV

  energy without entropy =      -12.11815019  energy(sigma->0) =      -12.11824470


--------------------------------------------------------------------------------------------------------




----------------------------------------- Iteration    1(  10)  ---------------------------------------


    POTLOK:  VPU time    0.23: CPU time    0.23
    SETDIJ:  VPU time    0.81: CPU time    0.81
    EDDAV :  VPU time   21.61: CPU time   21.63
    DOS   :  VPU time    0.00: CPU time   -0.00
    CHARGE:  VPU time    1.53: CPU time    1.53
    MIXING:  VPU time    0.01: CPU time    0.01
    ------------------------------------------
      LOOP:  VPU time   24.20: CPU time   24.23

 eigenvalue-minimisations  :  4828
 total energy-change (2. order) :-0.1166973E-04  (-0.3208049E-05)
 number of electron   44.0000001 magnetization 
 augmentation part    16.3378173 magnetization 

 Broyden mixing:
  rms(total) = 0.27538E-03    rms(broyden)= 0.27537E-03
  rms(prec ) = 0.49659E-03
  weight for this iteration     100.00

 eigenvalues of (default mixing * dielectric matrix)
  average eigenvalue GAMMA=   1.8160
  2.9772  2.4073  1.0295  1.0769  1.5893

 Free energy of the ion-electron system (eV)
  ---------------------------------------------------
  alpha Z        PSCENC =       336.64011485
  Ewald energy   TEWEN  =     -3578.33478197
  -1/2 Hartree   DENC   =      -599.11984554
  -V(xc)+E(xc)   XCENC  =        56.37947937
  PAW double counting   =      2927.25316433    -2839.76876799
  entropy T*S    EENTRO =        -0.00019025
  eigenvalues    EBANDS =       -19.39124767
  atomic energy  EATOM  =      3704.22372399
  ---------------------------------------------------
  free energy    TOTEN  =       -12.11835088 eV

  energy without entropy =      -12.11816064  energy(sigma->0) =      -12.11825576


--------------------------------------------------------------------------------------------------------




----------------------------------------- Iteration    1(  11)  ---------------------------------------


    POTLOK:  VPU time    0.22: CPU time    0.23
    SETDIJ:  VPU time    0.81: CPU time    0.81
    EDDAV :  VPU time   22.21: CPU time   22.24
    DOS   :  VPU time    0.00: CPU time   -0.00
    CHARGE:  VPU time    1.54: CPU time    1.55
    MIXING:  VPU time    0.01: CPU time    0.01
    ------------------------------------------
      LOOP:  VPU time   24.80: CPU time   24.84

 eigenvalue-minimisations  :  5016
 total energy-change (2. order) :-0.1206010E-05  (-0.1116338E-06)
 number of electron   44.0000001 magnetization 
 augmentation part    16.3375979 magnetization 

 Broyden mixing:
  rms(total) = 0.13501E-03    rms(broyden)= 0.13501E-03
  rms(prec ) = 0.22229E-03
  weight for this iteration     100.00

 eigenvalues of (default mixing * dielectric matrix)
  average eigenvalue GAMMA=   1.8888
  3.0519  2.7251  2.4540  1.0581  1.0219  1.0219

 Free energy of the ion-electron system (eV)
  ---------------------------------------------------
  alpha Z        PSCENC =       336.64011485
  Ewald energy   TEWEN  =     -3578.33478197
  -1/2 Hartree   DENC   =      -599.12341141
  -V(xc)+E(xc)   XCENC  =        56.37934300
  PAW double counting   =      2927.31313254    -2839.82805351
  entropy T*S    EENTRO =        -0.00019044
  eigenvalues    EBANDS =       -19.38822913
  atomic energy  EATOM  =      3704.22372399
  ---------------------------------------------------
  free energy    TOTEN  =       -12.11835209 eV

  energy without entropy =      -12.11816165  energy(sigma->0) =      -12.11825687


--------------------------------------------------------------------------------------------------------




----------------------------------------- Iteration    1(  12)  ---------------------------------------


    POTLOK:  VPU time    0.23: CPU time    0.23
    SETDIJ:  VPU time    0.81: CPU time    0.81
    EDDAV :  VPU time   21.78: CPU time   21.81
    DOS   :  VPU time    0.00: CPU time   -0.00
    CHARGE:  VPU time    1.52: CPU time    1.53
    MIXING:  VPU time    0.01: CPU time    0.01
    ------------------------------------------
      LOOP:  VPU time   24.36: CPU time   24.40

 eigenvalue-minimisations  :  4876
 total energy-change (2. order) : 0.5386282E-06  (-0.1262470E-07)
 number of electron   44.0000001 magnetization 
 augmentation part    16.3376461 magnetization 

 Broyden mixing:
  rms(total) = 0.63826E-05    rms(broyden)= 0.63823E-05
  rms(prec ) = 0.98733E-05
  weight for this iteration     100.00

 eigenvalues of (default mixing * dielectric matrix)
  average eigenvalue GAMMA=   1.7838
  3.0142  2.5724  2.5319  0.9929  1.1823  1.0964  1.0964

 Free energy of the ion-electron system (eV)
  ---------------------------------------------------
  alpha Z        PSCENC =       336.64011485
  Ewald energy   TEWEN  =     -3578.33478197
  -1/2 Hartree   DENC   =      -599.12293302
  -V(xc)+E(xc)   XCENC  =        56.37940519
  PAW double counting   =      2927.19754150    -2839.71269625
  entropy T*S    EENTRO =        -0.00019041
  eigenvalues    EBANDS =       -19.38853543
  atomic energy  EATOM  =      3704.22372399
  ---------------------------------------------------
  free energy    TOTEN  =       -12.11835155 eV

  energy without entropy =      -12.11816114  energy(sigma->0) =      -12.11825635


--------------------------------------------------------------------------------------------------------




----------------------------------------- Iteration    1(  13)  ---------------------------------------


    POTLOK:  VPU time    0.22: CPU time    0.22
    SETDIJ:  VPU time    0.80: CPU time    0.81
    EDDAV :  VPU time   14.87: CPU time   14.91
    DOS   :  VPU time    0.00: CPU time   -0.00
    CHARGE:  VPU time    1.55: CPU time    1.55
    MIXING:  VPU time    0.01: CPU time    0.01
    ------------------------------------------
      LOOP:  VPU time   17.48: CPU time   17.52

 eigenvalue-minimisations  :  2632
 total energy-change (2. order) :-0.1796388E-07  (-0.3727133E-10)
 number of electron   44.0000001 magnetization 
 augmentation part    16.3376457 magnetization 

 Broyden mixing:
  rms(total) = 0.47697E-05    rms(broyden)= 0.47697E-05
  rms(prec ) = 0.73654E-05
  weight for this iteration     100.00

 eigenvalues of (default mixing * dielectric matrix)
  average eigenvalue GAMMA=   1.8932
  3.0455  2.9601  2.5037  2.5037  1.0336  1.0336  1.0170  1.0484

 Free energy of the ion-electron system (eV)
  ---------------------------------------------------
  alpha Z        PSCENC =       336.64011485
  Ewald energy   TEWEN  =     -3578.33478197
  -1/2 Hartree   DENC   =      -599.12283648
  -V(xc)+E(xc)   XCENC  =        56.37940150
  PAW double counting   =      2927.20353179    -2839.71876320
  entropy T*S    EENTRO =        -0.00019041
  eigenvalues    EBANDS =       -19.38855163
  atomic energy  EATOM  =      3704.22372399
  ---------------------------------------------------
  free energy    TOTEN  =       -12.11835157 eV

  energy without entropy =      -12.11816116  energy(sigma->0) =      -12.11825636


--------------------------------------------------------------------------------------------------------




----------------------------------------- Iteration    1(  14)  ---------------------------------------


    POTLOK:  VPU time    0.22: CPU time    0.23
    SETDIJ:  VPU time    0.80: CPU time    0.80
    EDDAV :  VPU time   14.89: CPU time   14.94
    DOS   :  VPU time   -0.00: CPU time   -0.00
    ------------------------------------------
      LOOP:  VPU time   15.92: CPU time   15.97

 eigenvalue-minimisations  :  2524
 total energy-change (2. order) :-0.8008101E-09  (-0.1853394E-10)
 number of electron   44.0000001 magnetization 
 augmentation part    16.3376457 magnetization 

 Free energy of the ion-electron system (eV)
  ---------------------------------------------------
  alpha Z        PSCENC =       336.64011485
  Ewald energy   TEWEN  =     -3578.33478197
  -1/2 Hartree   DENC   =      -599.12277233
  -V(xc)+E(xc)   XCENC  =        56.37940170
  PAW double counting   =      2927.21030964    -2839.72551392
  entropy T*S    EENTRO =        -0.00019041
  eigenvalues    EBANDS =       -19.38864311
  atomic energy  EATOM  =      3704.22372399
  ---------------------------------------------------
  free energy    TOTEN  =       -12.11835157 eV

  energy without entropy =      -12.11816116  energy(sigma->0) =      -12.11825637


--------------------------------------------------------------------------------------------------------




 average (electrostatic) potential at core
  the test charge radii are     1.2098
  (the norm of the test charge is              1.0000)
       1 -47.7000       2 -47.7000       3 -47.7000       4 -47.7000
 
 
 
 E-fermi :   2.8160     XC(G=0): -11.1736     alpha+bet : -7.7986
   add alpha+bet to get absolut eigen values

 k-point   1 :       0.0000    0.0000    0.0000
  band No.  band energies     occupation 
      1      -4.5770      2.00000
      2      -2.2464      2.00000
      3      -2.2464      2.00000
      4      -2.2464      2.00000
      5      -2.0626      2.00000
      6      -2.0626      2.00000
      7      -2.0626      2.00000
      8      -0.7625      2.00000
      9      -0.7625      2.00000
     10      -0.7625      2.00000
     11       0.1767      2.00000
     12       0.1767      2.00000
     13       0.8913      2.00000
     14       0.8913      2.00000
     15       0.8913      2.00000
     16       1.1204      2.00000
     17       1.1204      2.00000
     18       1.1204      2.00000
     19       1.1204      2.00000
     20       1.1204      2.00000
     21       1.1204      2.00000
     22       4.4935      0.00000
     23       4.4935      0.00000
     24       4.4935      0.00000
     25       6.7466      0.00000
     26       6.7466      0.00000
     27       6.7466      0.00000
     28      12.0861      0.00000

 k-point   2 :       0.0833    0.0000    0.0000
  band No.  band energies     occupation 
      1      -4.5128      2.00000
      2      -2.2284      2.00000
      3      -2.2086      2.00000
      4      -2.2086      2.00000
      5      -2.0429      2.00000
      6      -2.0324      2.00000
      7      -2.0324      2.00000
      8      -0.7877      2.00000
      9      -0.7386      2.00000
     10      -0.7386      2.00000
     11       0.1506      2.00000
     12       0.1882      2.00000
     13       0.8552      2.00000
     14       0.8552      2.00000
     15       0.8784      2.00000
     16       0.9849      2.00000
     17       0.9849      2.00000
     18       1.0755      2.00000
     19       1.0755      2.00000
     20       1.1205      2.00000
     21       1.1205      2.00000
     22       3.8036      0.00000
     23       4.6808      0.00000
     24       4.6808      0.00000
     25       6.7134      0.00000
     26       6.7134      0.00000
     27       7.5520      0.00000
     28      11.9286      0.00000

 k-point   3 :       0.1667    0.0000    0.0000
  band No.  band energies     occupation 
      1      -4.3222      2.00000
      2      -2.1808      2.00000
      3      -2.0992      2.00000
      4      -2.0992      2.00000
      5      -1.9848      2.00000
      6      -1.9419      2.00000
      7      -1.9419      2.00000
      8      -0.8606      2.00000
      9      -0.6672      2.00000
     10      -0.6672      2.00000
     11       0.0759      2.00000
     12       0.2220      2.00000
     13       0.6491      2.00000
     14       0.6491      2.00000
     15       0.7495      2.00000
     16       0.7495      2.00000
     17       0.8406      2.00000
     18       0.9479      2.00000
     19       0.9479      2.00000
     20       1.1206      2.00000
     21       1.1206      2.00000
     22       2.6647      2.00000
     23       5.1712      0.00000
     24       5.1712      0.00000
     25       6.6226      0.00000
     26       6.6226      0.00000
     27       9.0418      0.00000
     28      11.4818      0.00000

 k-point   4 :       0.2500    0.0000    0.0000
  band No.  band energies     occupation 
      1      -4.0115      2.00000
      2      -2.1270      2.00000
      3      -1.9322      2.00000
      4      -1.9322      2.00000
      5      -1.8910      2.00000
      6      -1.7915      2.00000
      7      -1.7915      2.00000
      8      -0.9745      2.00000
      9      -0.5502      2.00000
     10      -0.5502      2.00000
     11      -0.0359      2.00000
     12       0.2274      2.00000
     13       0.2274      2.00000
     14       0.2761      2.00000
     15       0.5854      2.00000
     16       0.5854      2.00000
     17       0.7564      2.00000
     18       0.7564      2.00000
     19       0.7811      2.00000
     20       1.1209      2.00000
     21       1.1209      2.00000
     22       1.5758      2.00000
     23       5.8463      0.00000
     24       5.8463      0.00000
     25       6.4991      0.00000
     26       6.4991      0.00000
     27      10.7333      0.00000
     28      10.8343      0.00000

 k-point   5 :       0.3333    0.0000    0.0000
  band No.  band energies     occupation 
      1      -3.5952      2.00000
      2      -2.1202      2.00000
      3      -1.7663      2.00000
      4      -1.7354      2.00000
      5      -1.7354      2.00000
      6      -1.5818      2.00000
      7      -1.5818      2.00000
      8      -1.1192      2.00000
      9      -0.3908      2.00000
     10      -0.3908      2.00000
     11      -0.2077      2.00000
     12      -0.2077      2.00000
     13      -0.1620      2.00000
     14       0.3475      2.00000
     15       0.3889      2.00000
     16       0.3889      2.00000
     17       0.5250      2.00000
     18       0.5250      2.00000
     19       0.6618      2.00000
     20       0.7044      2.00000
     21       1.1211      2.00000
     22       1.1211      2.00000
     23       6.3769      0.00000
     24       6.3769      0.00000
     25       6.6277      0.00000
     26       6.6277      0.00000
     27      10.0599      0.00000
     28      10.0599      0.00000

 k-point   6 :       0.4167    0.0000    0.0000
  band No.  band energies     occupation 
      1      -3.1056      2.00000
      2      -2.2590      2.00000
      3      -1.6173      2.00000
      4      -1.5610      2.00000
      5      -1.5610      2.00000
      6      -1.3145      2.00000
      7      -1.3145      2.00000
      8      -1.2828      2.00000
      9      -0.6202      2.00000
     10      -0.6202      2.00000
     11      -0.2595      2.00000
     12      -0.1941      2.00000
     13      -0.1941      2.00000
     14       0.0325      2.00000
     15       0.2130      2.00000
     16       0.2130      2.00000
     17       0.2769      2.00000
     18       0.2769      2.00000
     19       0.4316      2.00000
     20       0.6163      2.00000
     21       1.1213      2.00000
     22       1.1213      2.00000
     23       6.2887      0.00000
     24       6.2887      0.00000
     25       7.4699      0.00000
     26       7.4699      0.00000
     27       9.2154      0.00000
     28       9.2154      0.00000

 k-point   7 :       0.5000    0.0000    0.0000
  band No.  band energies     occupation 
      1      -2.6160      2.00000
      2      -2.6160      2.00000
      3      -1.4870      2.00000
      4      -1.4870      2.00000
      5      -1.4527      2.00000
      6      -1.4527      2.00000
      7      -0.9923      2.00000
      8      -0.9923      2.00000
      9      -0.9923      2.00000
     10      -0.9923      2.00000
     11      -0.2429      2.00000
     12      -0.2429      2.00000
     13       0.0322      2.00000
     14       0.0322      2.00000
     15       0.0322      2.00000
     16       0.0322      2.00000
     17       0.1381      2.00000
     18       0.1381      2.00000
     19       0.5233      2.00000
     20       0.5233      2.00000
     21       1.1214      2.00000
     22       1.1214      2.00000
     23       6.2567      0.00000
     24       6.2567      0.00000
     25       8.3417      0.00000
     26       8.3417      0.00000
     27       8.3417      0.00000
     28       8.3417      0.00000

 k-point   8 :       0.0833    0.0833    0.0000
  band No.  band energies     occupation 
      1      -4.4492      2.00000
      2      -2.1901      2.00000
      3      -2.1901      2.00000
      4      -2.1768      2.00000
      5      -2.0131      2.00000
      6      -2.0131      2.00000
      7      -1.9978      2.00000
      8      -0.7969      2.00000
      9      -0.7298      2.00000
     10      -0.7166      2.00000
     11       0.1439      2.00000
     12       0.1827      2.00000
     13       0.8209      2.00000
     14       0.8209      2.00000
     15       0.8209      2.00000
     16       0.8912      2.00000
     17       0.9555      2.00000
     18       0.9555      2.00000
     19       1.0754      2.00000
     20       1.0754      2.00000
     21       1.0899      2.00000
     22       3.9736      0.00000
     23       3.9736      0.00000
     24       4.8573      0.00000
     25       6.6755      0.00000
     26       7.5337      0.00000
     27       7.5337      0.00000
     28      11.3531      0.00000

 k-point   9 :       0.1667    0.0833    0.0000
  band No.  band energies     occupation 
      1      -4.2604      2.00000
      2      -2.1414      2.00000
      3      -2.0845      2.00000
      4      -2.0796      2.00000
      5      -1.9561      2.00000
      6      -1.9238      2.00000
      7      -1.8951      2.00000
      8      -0.8605      2.00000
      9      -0.6660      2.00000
     10      -0.6518      2.00000
     11       0.0796      2.00000
     12       0.2139      2.00000
     13       0.5460      2.00000
     14       0.5931      2.00000
     15       0.7014      2.00000
     16       0.7204      2.00000
     17       0.7839      2.00000
     18       0.8878      2.00000
     19       0.9475      2.00000
     20       1.0743      2.00000
     21       1.0752      2.00000
     22       2.8532      0.00000
     23       4.3906      0.00000
     24       5.3264      0.00000
     25       6.5694      0.00000
     26       7.4950      0.00000
     27       8.9967      0.00000
     28      10.7187      0.00000

 k-point  10 :       0.2500    0.0833    0.0000
  band No.  band energies     occupation 
      1      -3.9528      2.00000
      2      -2.0854      2.00000
      3      -1.9392      2.00000
      4      -1.9103      2.00000
      5      -1.8642      2.00000
      6      -1.7754      2.00000
      7      -1.7312      2.00000
      8      -0.9698      2.00000
      9      -0.5508      2.00000
     10      -0.5494      2.00000
     11      -0.0220      2.00000
     12       0.1348      2.00000
     13       0.1950      2.00000
     14       0.2745      2.00000
     15       0.4806      2.00000
     16       0.5636      2.00000
     17       0.6142      2.00000
     18       0.7556      2.00000
     19       0.8007      2.00000
     20       1.0712      2.00000
     21       1.0748      2.00000
     22       1.8268      2.00000
     23       4.8979      0.00000
     24       5.9826      0.00000
     25       6.4173      0.00000
     26       7.4877      0.00000
     27      10.1046      0.00000
     28      10.6076      0.00000

 k-point  11 :       0.3333    0.0833    0.0000
  band No.  band energies     occupation 
      1      -3.5409      2.00000
      2      -2.0762      2.00000
      3      -1.7532      2.00000
      4      -1.7421      2.00000
      5      -1.7103      2.00000
      6      -1.5688      2.00000
      7      -1.5232      2.00000
      8      -1.1103      2.00000
      9      -0.4327      2.00000
     10      -0.3920      2.00000
     11      -0.2883      2.00000
     12      -0.2241      2.00000
     13      -0.1133      2.00000
     14       0.1563      2.00000
     15       0.3560      2.00000
     16       0.3757      2.00000
     17       0.4171      2.00000
     18       0.5237      2.00000
     19       0.6752      2.00000
     20       1.0613      2.00000
     21       1.0709      2.00000
     22       1.0742      2.00000
     23       5.3646      0.00000
     24       6.2483      0.00000
     25       6.7501      0.00000
     26       7.5979      0.00000
     27       9.5178      0.00000
     28      10.1634      0.00000

 k-point  12 :       0.4167    0.0833    0.0000
  band No.  band energies     occupation 
      1      -3.0563      2.00000
      2      -2.2141      2.00000
      3      -1.5964      2.00000
      4      -1.5616      2.00000
      5      -1.5324      2.00000
      6      -1.3058      2.00000
      7      -1.2914      2.00000
      8      -1.2696      2.00000
      9      -0.6814      2.00000
     10      -0.6254      2.00000
     11      -0.3907      2.00000
     12      -0.1956      2.00000
     13      -0.1953      2.00000
     14      -0.0684      2.00000
     15       0.2099      2.00000
     16       0.2358      2.00000
     17       0.2754      2.00000
     18       0.4212      2.00000
     19       0.4540      2.00000
     20       0.7092      2.00000
     21       1.0715      2.00000
     22       1.0734      2.00000
     23       5.7020      0.00000
     24       6.0836      0.00000
     25       7.5828      0.00000
     26       7.9017      0.00000
     27       8.9402      0.00000
     28       9.3193      0.00000

 k-point  13 :       0.5000    0.0833    0.0000
  band No.  band energies     occupation 
      1      -2.5705      2.00000
      2      -2.5705      2.00000
      3      -1.4629      2.00000
      4      -1.4629      2.00000
      5      -1.4355      2.00000
      6      -1.4355      2.00000
      7      -1.0202      2.00000
      8      -1.0202      2.00000
      9      -0.9894      2.00000
     10      -0.9894      2.00000
     11      -0.3754      2.00000
     12      -0.3754      2.00000
     13       0.0306      2.00000
     14       0.0306      2.00000
     15       0.1371      2.00000
     16       0.1371      2.00000
     17       0.1483      2.00000
     18       0.1483      2.00000
     19       0.5663      2.00000
     20       0.5663      2.00000
     21       1.0724      2.00000
     22       1.0724      2.00000
     23       5.9176      0.00000
     24       5.9176      0.00000
     25       8.3798      0.00000
     26       8.3798      0.00000
     27       8.4486      0.00000
     28       8.4486      0.00000

 k-point  14 :       0.1667    0.1667    0.0000
  band No.  band energies     occupation 
      1      -4.0771      2.00000
      2      -2.0290      2.00000
      3      -2.0270      2.00000
      4      -2.0270      2.00000
      5      -1.8703      2.00000
      6      -1.8703      2.00000
      7      -1.7701      2.00000
      8      -0.8870      2.00000
      9      -0.6338      2.00000
     10      -0.6071      2.00000
     11       0.0576      2.00000
     12       0.2269      2.00000
     13       0.3410      2.00000
     14       0.3410      2.00000
     15       0.4006      2.00000
     16       0.6343      2.00000
     17       0.7857      2.00000
     18       0.7857      2.00000
     19       0.9463      2.00000
     20       0.9463      2.00000
     21       0.9999      2.00000
     22       3.2809      0.00000
     23       3.2809      0.00000
     24       5.7508      0.00000
     25       6.4142      0.00000
     26       8.8702      0.00000
     27       8.8702      0.00000
     28       9.9887      0.00000

 k-point  15 :       0.2500    0.1667    0.0000
  band No.  band energies     occupation 
      1      -3.7791      2.00000
      2      -1.9645      2.00000
      3      -1.9221      2.00000
      4      -1.8508      2.00000
      5      -1.7843      2.00000
      6      -1.7281      2.00000
      7      -1.5926      2.00000
      8      -0.9680      2.00000
      9      -0.5423      2.00000
     10      -0.5386      2.00000
     11      -0.0763      2.00000
     12      -0.0128      2.00000
     13       0.0691      2.00000
     14       0.0867      2.00000
     15       0.2996      2.00000
     16       0.4977      2.00000
     17       0.6367      2.00000
     18       0.7271      2.00000
     19       0.7531      2.00000
     20       0.9443      2.00000
     21       0.9593      2.00000
     22       2.2960      2.00000
     23       3.7846      0.00000
     24       6.1722      0.00000
     25       6.3637      0.00000
     26       8.6967      0.00000
     27       9.4007      0.00000
     28      10.2575      0.00000

 k-point  16 :       0.3333    0.1667    0.0000
  band No.  band energies     occupation 
      1      -3.3808      2.00000
      2      -1.9480      2.00000
      3      -1.7635      2.00000
      4      -1.6702      2.00000
      5      -1.6399      2.00000
      6      -1.5307      2.00000
      7      -1.3934      2.00000
      8      -1.0894      2.00000
      9      -0.4933      2.00000
     10      -0.4798      2.00000
     11      -0.3887      2.00000
     12      -0.2782      2.00000
     13      -0.2401      2.00000
     14      -0.0629      2.00000
     15       0.3328      2.00000
     16       0.4142      2.00000
     17       0.4523      2.00000
     18       0.5204      2.00000
     19       0.6036      2.00000
     20       0.9419      2.00000
     21       0.9433      2.00000
     22       1.5349      2.00000
     23       4.2866      0.00000
     24       5.8704      0.00000
     25       7.0977      0.00000
     26       8.5379      0.00000
     27       8.9633      0.00000
     28      10.4640      0.00000

 k-point  17 :       0.4167    0.1667    0.0000
  band No.  band energies     occupation 
      1      -2.9124      2.00000
      2      -2.0843      2.00000
      3      -1.5652      2.00000
      4      -1.5346      2.00000
      5      -1.4494      2.00000
      6      -1.2806      2.00000
      7      -1.2332      2.00000
      8      -1.2197      2.00000
      9      -0.8342      2.00000
     10      -0.6434      2.00000
     11      -0.5179      2.00000
     12      -0.4863      2.00000
     13      -0.1964      2.00000
     14       0.0040      2.00000
     15       0.1930      2.00000
     16       0.2704      2.00000
     17       0.2720      2.00000
     18       0.4105      2.00000
     19       0.5619      2.00000
     20       0.9381      2.00000
     21       0.9394      2.00000
     22       1.0409      2.00000
     23       4.7499      0.00000
     24       5.5322      0.00000
     25       7.9066      0.00000
     26       8.4582      0.00000
     27       8.6647      0.00000
     28       9.6201      0.00000

 k-point  18 :       0.5000    0.1667    0.0000
  band No.  band energies     occupation 
      1      -2.4391      2.00000
      2      -2.4391      2.00000
      3      -1.4004      2.00000
      4      -1.4004      2.00000
      5      -1.3856      2.00000
      6      -1.3856      2.00000
      7      -1.0832      2.00000
      8      -1.0832      2.00000
      9      -0.9822      2.00000
     10      -0.9822      2.00000
     11      -0.5602      2.00000
     12      -0.5602      2.00000
     13       0.0278      2.00000
     14       0.0278      2.00000
     15       0.1619      2.00000
     16       0.1619      2.00000
     17       0.1849      2.00000
     18       0.1849      2.00000
     19       0.7531      2.00000
     20       0.7531      2.00000
     21       0.9377      2.00000
     22       0.9377      2.00000
     23       5.1625      0.00000
     24       5.1625      0.00000
     25       8.4967      0.00000
     26       8.4967      0.00000
     27       8.7571      0.00000
     28       8.7571      0.00000

 k-point  19 :       0.2500    0.2500    0.0000
  band No.  band energies     occupation 
      1      -3.4977      2.00000
      2      -1.8567      2.00000
      3      -1.7764      2.00000
      4      -1.7764      2.00000
      5      -1.6523      2.00000
      6      -1.6523      2.00000
      7      -1.4141      2.00000
      8      -0.9985      2.00000
      9      -0.5272      2.00000
     10      -0.4812      2.00000
     11      -0.3397      2.00000
     12      -0.3397      2.00000
     13      -0.1118      2.00000
     14      -0.0516      2.00000
     15       0.3894      2.00000
     16       0.3994      2.00000
     17       0.5994      2.00000
     18       0.5994      2.00000
     19       0.7497      2.00000
     20       0.7497      2.00000
     21       0.8552      2.00000
     22       2.8066      1.81433
     23       2.8066      1.81433
     24       5.7842      0.00000
     25       6.9304      0.00000
     26       8.9306      0.00000
     27       9.7832      0.00000
     28       9.7832      0.00000

 k-point  20 :       0.3333    0.2500    0.0000
  band No.  band energies     occupation 
      1      -3.1238      2.00000
      2      -1.7479      2.00000
      3      -1.7386      2.00000
      4      -1.5524      2.00000
      5      -1.5453      2.00000
      6      -1.4703      2.00000
      7      -1.2309      2.00000
      8      -1.0746      2.00000
      9      -0.7127      2.00000
     10      -0.5964      2.00000
     11      -0.5304      2.00000
     12      -0.3819      2.00000
     13      -0.3606      2.00000
     14      -0.0892      2.00000
     15       0.2549      2.00000
     16       0.4346      2.00000
     17       0.4884      2.00000
     18       0.5166      2.00000
     19       0.5650      2.00000
     20       0.7462      2.00000
     21       0.7913      2.00000
     22       2.0194      2.00000
     23       3.3188      0.00000
     24       5.3108      0.00000
     25       7.6255      0.00000
     26       8.6804      0.00000
     27       9.3152      0.00000
     28      10.7219      0.00000

 k-point  21 :       0.4167    0.2500    0.0000
  band No.  band energies     occupation 
      1      -2.6859      2.00000
      2      -1.8873      2.00000
      3      -1.5682      2.00000
      4      -1.4350      2.00000
      5      -1.3223      2.00000
      6      -1.2423      2.00000
      7      -1.1838      2.00000
      8      -1.1042      2.00000
      9      -1.0292      2.00000
     10      -0.7340      2.00000
     11      -0.6814      2.00000
     12      -0.5991      2.00000
     13      -0.1852      2.00000
     14      -0.0357      2.00000
     15       0.1453      2.00000
     16       0.2627      2.00000
     17       0.2696      2.00000
     18       0.3128      2.00000
     19       0.7445      2.00000
     20       0.7600      2.00000
     21       0.7806      2.00000
     22       1.4480      2.00000
     23       3.8212      0.00000
     24       4.8123      0.00000
     25       8.4054      0.00000
     26       8.6120      0.00000
     27       8.9411      0.00000
     28      10.0903      0.00000

 k-point  22 :       0.5000    0.2500    0.0000
  band No.  band energies     occupation 
      1      -2.2391      2.00000
      2      -2.2391      2.00000
      3      -1.3550      2.00000
      4      -1.3550      2.00000
      5      -1.3085      2.00000
      6      -1.3085      2.00000
      7      -1.1084      2.00000
      8      -1.1084      2.00000
[...]
     14       0.1134      2.00000
     15       0.1134      2.00000
     16       0.1134      2.00000
     17       0.6573      2.00000
     18       0.6573      2.00000
     19       0.6573      2.00000
     20       0.6573      2.00000
     21       2.4298      2.00000
     22       2.4298      2.00000
     23       2.4298      2.00000
     24       2.4298      2.00000
     25       6.8110      0.00000
     26       6.8110      0.00000
     27       6.8110      0.00000
     28       6.8110      0.00000

 k-point  75 :       0.3333    0.3333    0.3333
  band No.  band energies     occupation 
      1      -2.6292      2.00000
      2      -2.0534      2.00000
      3      -2.0534      2.00000
      4      -2.0534      2.00000
      5      -0.9672      2.00000
      6      -0.9672      2.00000
      7      -0.9672      2.00000
      8      -0.6563      2.00000
      9      -0.6563      2.00000
     10      -0.4032      2.00000
     11      -0.4032      2.00000
     12      -0.4032      2.00000
     13      -0.2042      2.00000
     14      -0.2042      2.00000
     15      -0.2042      2.00000
     16      -0.0148      2.00000
     17       0.5734      2.00000
     18       0.5734      2.00000
     19       0.9494      2.00000
     20       0.9494      2.00000
     21       0.9494      2.00000
     22       3.3520      0.00000
     23       3.3520      0.00000
     24       3.3520      0.00000
     25       6.1023      0.00000
     26       6.1023      0.00000
     27       6.1023      0.00000
     28       9.2704      0.00000

 k-point  76 :       0.4167    0.3333    0.3333
  band No.  band energies     occupation 
      1      -2.5223      2.00000
      2      -2.2259      2.00000
      3      -2.1105      2.00000
      4      -2.1105      2.00000
      5      -0.9551      2.00000
      6      -0.9551      2.00000
      7      -0.8713      2.00000
      8      -0.7073      2.00000
      9      -0.6589      2.00000
     10      -0.5285      2.00000
     11      -0.4831      2.00000
     12      -0.4831      2.00000
     13      -0.0658      2.00000
     14       0.0230      2.00000
     15       0.0230      2.00000
     16       0.1761      2.00000
     17       0.7365      2.00000
     18       0.8483      2.00000
     19       0.9111      2.00000
     20       0.9111      2.00000
     21       0.9330      2.00000
     22       2.3826      2.00000
     23       3.8247      0.00000
     24       3.8247      0.00000
     25       5.2575      0.00000
     26       5.2575      0.00000
     27       6.7454      0.00000
     28       8.3385      0.00000

 k-point  77 :       0.5000    0.3333    0.3333
  band No.  band energies     occupation 
      1      -2.3861      2.00000
      2      -2.3861      2.00000
      3      -2.1294      2.00000
      4      -2.1294      2.00000
      5      -0.9530      2.00000
      6      -0.9530      2.00000
      7      -0.7808      2.00000
      8      -0.7808      2.00000
      9      -0.6155      2.00000
     10      -0.6155      2.00000
     11      -0.5088      2.00000
     12      -0.5088      2.00000
     13       0.0766      2.00000
     14       0.0766      2.00000
     15       0.1195      2.00000
     16       0.1195      2.00000
     17       0.8600      2.00000
     18       0.8600      2.00000
     19       0.8812      2.00000
     20       0.8812      2.00000
     21       1.5320      2.00000
     22       1.5320      2.00000
     23       4.2362      0.00000
     24       4.2362      0.00000
     25       4.7201      0.00000
     26       4.7201      0.00000
     27       7.4952      0.00000
     28       7.4952      0.00000

 k-point  78 :       0.4167    0.4167    0.3333
  band No.  band energies     occupation 
      1      -2.4844      2.00000
      2      -2.2741      2.00000
      3      -2.2741      2.00000
      4      -2.2158      2.00000
      5      -0.9050      2.00000
      6      -0.8671      2.00000
      7      -0.8671      2.00000
      8      -0.7253      2.00000
      9      -0.7005      2.00000
     10      -0.5985      2.00000
     11      -0.5985      2.00000
     12      -0.5790      2.00000
     13       0.2255      2.00000
     14       0.2255      2.00000
     15       0.2609      2.00000
     16       0.5182      2.00000
     17       0.6881      2.00000
     18       0.8916      2.00000
     19       0.9047      2.00000
     20       0.9047      2.00000
     21       1.2378      2.00000
     22       2.8170      0.88898
     23       2.8170      0.88898
     24       3.9706      0.00000
     25       4.7040      0.00000
     26       5.8701      0.00000
     27       5.8701      0.00000
     28       7.4149      0.00000

 k-point  79 :       0.5000    0.4167    0.3333
  band No.  band energies     occupation 
      1      -2.4010      2.00000
      2      -2.4010      2.00000
      3      -2.2707      2.00000
      4      -2.2707      2.00000
      5      -0.8753      2.00000
      6      -0.8753      2.00000
      7      -0.7864      2.00000
      8      -0.7864      2.00000
      9      -0.6734      2.00000
     10      -0.6734      2.00000
     11      -0.6184      2.00000
     12      -0.6184      2.00000
     13       0.3597      2.00000
     14       0.3597      2.00000
     15       0.4125      2.00000
     16       0.4125      2.00000
     17       0.8252      2.00000
     18       0.8252      2.00000
     19       0.8657      2.00000
     20       0.8657      2.00000
     21       1.9373      2.00000
     22       1.9373      2.00000
     23       3.3960      0.00000
     24       3.3960      0.00000
     25       5.1410      0.00000
     26       5.1410      0.00000
     27       6.5909      0.00000
     28       6.5909      0.00000

 k-point  80 :       0.5000    0.5000    0.3333
  band No.  band energies     occupation 
      1      -2.3622      2.00000
      2      -2.3622      2.00000
      3      -2.3622      2.00000
      4      -2.3622      2.00000
      5      -0.8136      2.00000
      6      -0.8136      2.00000
      7      -0.8136      2.00000
      8      -0.8136      2.00000
      9      -0.6789      2.00000
     10      -0.6789      2.00000
     11      -0.6789      2.00000
     12      -0.6789      2.00000
     13       0.5188      2.00000
     14       0.5188      2.00000
     15       0.5188      2.00000
     16       0.5188      2.00000
     17       0.7997      2.00000
     18       0.7997      2.00000
     19       0.7997      2.00000
     20       0.7997      2.00000
     21       2.5783      2.00000
     22       2.5783      2.00000
     23       2.5783      2.00000
     24       2.5783      2.00000
     25       5.8029      0.00000
     26       5.8029      0.00000
     27       5.8029      0.00000
     28       5.8029      0.00000

 k-point  81 :       0.4167    0.4167    0.4167
  band No.  band energies     occupation 
      1      -2.5015      2.00000
      2      -2.3643      2.00000
      3      -2.3643      2.00000
      4      -2.3643      2.00000
      5      -0.8357      2.00000
      6      -0.8357      2.00000
      7      -0.8357      2.00000
      8      -0.7408      2.00000
      9      -0.7408      2.00000
     10      -0.6780      2.00000
     11      -0.6780      2.00000
     12      -0.6780      2.00000
     13       0.5111      2.00000
     14       0.5111      2.00000
     15       0.5111      2.00000
     16       0.8242      2.00000
     17       0.8242      2.00000
     18       0.9305      2.00000
     19       0.9305      2.00000
     20       0.9305      2.00000
     21       1.5023      2.00000
     22       3.1372      0.00000
     23       3.1372      0.00000
     24       3.1372      0.00000
     25       5.0581      0.00000
     26       5.0581      0.00000
     27       5.0581      0.00000
     28       6.5019      0.00000

 k-point  82 :       0.5000    0.4167    0.4167
  band No.  band energies     occupation 
      1      -2.4610      2.00000
      2      -2.4610      2.00000
      3      -2.3946      2.00000
      4      -2.3946      2.00000
      5      -0.8225      2.00000
      6      -0.8225      2.00000
      7      -0.7785      2.00000
      8      -0.7785      2.00000
      9      -0.7331      2.00000
     10      -0.7331      2.00000
     11      -0.7072      2.00000
     12      -0.7072      2.00000
     13       0.6389      2.00000
     14       0.6389      2.00000
     15       0.7172      2.00000
     16       0.7172      2.00000
     17       0.9076      2.00000
     18       0.9076      2.00000
     19       0.9124      2.00000
     20       0.9124      2.00000
     21       2.2450      2.00000
     22       2.2450      2.00000
     23       3.3485      0.00000
     24       3.3485      0.00000
     25       4.6780      0.00000
     26       4.6780      0.00000
     27       5.7097      0.00000
     28       5.7097      0.00000

 k-point  83 :       0.5000    0.5000    0.4167
  band No.  band energies     occupation 
      1      -2.4588      2.00000
      2      -2.4588      2.00000
      3      -2.4588      2.00000
      4      -2.4588      2.00000
      5      -0.7848      2.00000
      6      -0.7848      2.00000
      7      -0.7848      2.00000
      8      -0.7848      2.00000
      9      -0.7502      2.00000
     10      -0.7502      2.00000
     11      -0.7502      2.00000
     12      -0.7502      2.00000
     13       0.8156      2.00000
     14       0.8156      2.00000
     15       0.8156      2.00000
     16       0.8156      2.00000
     17       0.8919      2.00000
     18       0.8919      2.00000
     19       0.8919      2.00000
     20       0.8919      2.00000
     21       2.7975      1.99105
     22       2.7975      1.99105
     23       2.7975      1.99105
     24       2.7975      1.99105
     25       5.0128      0.00000
     26       5.0128      0.00000
     27       5.0128      0.00000
     28       5.0128      0.00000

 k-point  84 :       0.5000    0.5000    0.5000
  band No.  band energies     occupation 
      1      -2.4913      2.00000
      2      -2.4913      2.00000
      3      -2.4913      2.00000
      4      -2.4913      2.00000
      5      -0.7744      2.00000
      6      -0.7744      2.00000
      7      -0.7744      2.00000
      8      -0.7744      2.00000
      9      -0.7744      2.00000
     10      -0.7744      2.00000
     11      -0.7744      2.00000
     12      -0.7744      2.00000
     13       0.9238      2.00000
     14       0.9238      2.00000
     15       0.9238      2.00000
     16       0.9238      2.00000
     17       0.9238      2.00000
     18       0.9238      2.00000
     19       0.9238      2.00000
     20       0.9238      2.00000
     21       2.9406      0.00000
     22       2.9406      0.00000
     23       2.9406      0.00000
     24       2.9406      0.00000
     25       4.6699      0.00000
     26       4.6699      0.00000
     27       4.6699      0.00000
     28       4.6699      0.00000


--------------------------------------------------------------------------------------------------------


 soft charge-density along one line, spin component           1
         0         1         2         3         4         5         6         7         8         9
 total charge-density along one line
 
 pseudopotential strength for first ion, spin component:           1
-10.743  -0.000   0.000  -0.000   0.000   0.031   0.000  -0.000
 -0.000 -10.743   0.000  -0.000   0.000   0.000   0.031  -0.000
  0.000   0.000 -10.732   0.000   0.000  -0.000  -0.000   0.030
 -0.000  -0.000   0.000 -10.743  -0.000   0.000   0.000  -0.000
  0.000   0.000   0.000  -0.000 -10.732  -0.000  -0.000  -0.000
  0.031   0.000  -0.000   0.000  -0.000   0.266  -0.000   0.000
  0.000   0.031  -0.000   0.000  -0.000  -0.000   0.266   0.000
 -0.000  -0.000   0.030  -0.000  -0.000   0.000   0.000   0.266
  0.000   0.000  -0.000   0.031   0.000  -0.000  -0.000   0.000
 -0.000  -0.000  -0.000   0.000   0.030   0.000   0.000   0.000
  0.000   0.000  -0.000   0.000   0.000   0.000   0.000  -0.000
 -0.000  -0.000   0.000  -0.000  -0.000   0.000   0.000  -0.000
  0.000  -0.000   0.000   0.000   0.000  -0.000   0.000  -0.000
  0.000  -0.000  -0.000   0.000  -0.000  -0.000   0.000   0.000
 -0.000   0.000  -0.000  -0.000   0.000   0.000  -0.000   0.000
 -0.000   0.000  -0.000  -0.000  -0.000   0.000  -0.000   0.000
 -0.000   0.000   0.000  -0.000   0.000   0.000  -0.000  -0.000
  0.000  -0.000   0.000   0.000  -0.000  -0.000   0.000  -0.000
 total augmentation occupancy for first ion, spin component:           1
  1.867  -0.011  -0.007   0.005  -0.016  -0.064   0.008  -0.013  -0.003   0.013   0.016  -0.016   0.000  -0.000  -0.000   0.000
 -0.011   1.958  -0.003  -0.013  -0.003   0.008  -0.108   0.006   0.012  -0.008   0.066   0.005   0.000  -0.000  -0.000   0.000
 -0.007  -0.003   1.931   0.006  -0.022  -0.013   0.006  -0.086  -0.002   0.020  -0.064  -0.048  -0.000  -0.000  -0.000   0.000
  0.005  -0.013   0.006   1.930  -0.002  -0.003   0.012  -0.002  -0.070   0.010   0.024  -0.004  -0.000  -0.000   0.000  -0.000
 -0.016  -0.003  -0.022  -0.002   1.983   0.013  -0.008   0.020   0.010  -0.129   0.096   0.032   0.000   0.000   0.000   0.000
 -0.064   0.008  -0.013  -0.003   0.013   0.116  -0.004   0.024   0.002  -0.009   0.027   0.025   0.000   0.000   0.000  -0.000
  0.008  -0.108   0.006   0.012  -0.008  -0.004   0.099  -0.007  -0.008   0.014  -0.021   0.012  -0.000   0.000   0.000  -0.000
 -0.013   0.006  -0.086  -0.002   0.020   0.024  -0.007   0.083  -0.001  -0.003   0.092   0.002  -0.000   0.000  -0.000  -0.000
 -0.003   0.012  -0.002  -0.070   0.010   0.002  -0.008  -0.001   0.072  -0.013   0.002   0.012  -0.000  -0.000  -0.000  -0.000
  0.013  -0.008   0.020   0.010  -0.129  -0.009   0.014  -0.003  -0.013   0.066  -0.072   0.009   0.000  -0.000   0.000   0.000
  0.016   0.066  -0.064   0.024   0.096   0.027  -0.021   0.092   0.002  -0.072   0.970  -0.242   0.000   0.000  -0.000  -0.000
 -0.016   0.005  -0.048  -0.004   0.032   0.025   0.012   0.002   0.012   0.009  -0.242   0.125   0.000  -0.000   0.000   0.000
  0.000   0.000  -0.000  -0.000   0.000   0.000  -0.000  -0.000  -0.000   0.000   0.000   0.000   0.080   0.012  -0.004  -0.006
 -0.000  -0.000  -0.000  -0.000   0.000   0.000   0.000   0.000  -0.000  -0.000   0.000  -0.000   0.012   0.062   0.001  -0.001
 -0.000  -0.000  -0.000   0.000   0.000   0.000   0.000  -0.000  -0.000   0.000  -0.000   0.000  -0.004   0.001   0.121  -0.000
  0.000   0.000   0.000  -0.000   0.000  -0.000  -0.000  -0.000  -0.000   0.000  -0.000   0.000  -0.006  -0.001  -0.000   0.000
  0.000  -0.000  -0.000  -0.000   0.000   0.000   0.000   0.000   0.000  -0.000   0.000  -0.000  -0.001  -0.004  -0.000   0.000
 -0.000  -0.000   0.000   0.000   0.000   0.000   0.000  -0.000   0.000  -0.000  -0.000   0.000  -0.000  -0.000  -0.008   0.000


------------------------ aborting loop because EDIFF is reached ----------------------------------------




--------------------------------------------------------------------------------------------------------


    CHARGE:  VPU time    1.26: CPU time    1.28
    FORLOC:  VPU time    0.01: CPU time    0.01
    FORNL :  VPU time    7.17: CPU time    7.18
    STRESS:  VPU time   10.64: CPU time   10.67
    FORCOR:  VPU time    0.13: CPU time    0.13
    FORHAR:  VPU time    0.03: CPU time    0.03
    MIXING:  VPU time    0.00: CPU time    0.00


--------------------------------------------------------------------------------------------------------



  FREE ENERGIE OF THE ION-ELECTRON SYSTEM (eV)
  ---------------------------------------------------
  free  energy   TOTEN  =       -12.118352 eV

  energy  without entropy=      -12.118161  energy(sigma->0) =      -12.118256
 

  FORCE on cell =-STRESS in cart. coord.  units (eV/reduce length):
  Direction    X        Y        Z        XY       YZ       ZX
  --------------------------------------------------------------------------------------
  Alpha Z    336.64    336.64    336.64
  Ewald    -1192.78  -1192.78  -1192.78      0.00      0.00     -0.00
  Hartree    199.71    199.71    199.71     -0.00     -0.00     -0.00
  E(xc)     -196.37   -196.37   -196.37      0.00      0.00      0.00
  Local      276.80    276.80    276.80      0.00     -0.00      0.00
  n-local   -203.24   -218.30   -221.55      0.90      4.95      1.79
  augment    172.17    172.17    172.17     -0.00     -0.00     -0.00
  Kinetic    614.01    609.62    606.04     -3.20     -0.65     -1.79
  -------------------------------------------------------------------------------------
  Total       -8.31     -8.31     -8.31     -0.00      0.00      0.00
  in kB     -149.51   -149.51   -149.51     -0.00      0.00      0.00
  external pressure =     -149.51 kB  Pullay stress =        0.00 kB


 VOLUME and BASIS-vectors are now :
 -----------------------------------------------------------------------------
  energy-cutoff  :      750.00
  volume of cell :       89.01
      direct lattice vectors                 reciprocal lattice vectors
     4.464951535  0.000000000  0.000000000     0.223966597  0.000000000  0.000000000
     0.000000000  4.464951535  0.000000000     0.000000000  0.223966597  0.000000000
     0.000000000  0.000000000  4.464951535     0.000000000  0.000000000  0.223966597

  length of vectors
     4.464951535  4.464951535  4.464951535     0.223966597  0.223966597  0.223966597


 FORCES acting on ions
    electron-ion (+dipol)            ewald-force                    non-local-force                 convergence-correction
 -----------------------------------------------------------------------------------------------
   0.114E-13 0.454E-14 0.901E-16   0.582E-14 0.323E-14 0.307E-14   0.103E-24 -.775E-25 -.132E-24   -.633E-13 -.696E-13 -.672E-13
   -.300E-13 -.668E-12 -.214E-11   -.449E-14 0.165E-13 0.288E-14   0.258E-25 -.162E-25 -.517E-25   0.300E-13 0.193E-13 -.666E-13
   -.298E-13 0.378E-14 -.279E-11   0.128E-13 -.178E-13 -.345E-14   -.517E-25 0.905E-25 -.517E-25   0.326E-13 -.695E-13 0.313E-13
   0.113E-13 -.370E-13 -.442E-13   -.123E-13 -.454E-14 -.365E-14   -.775E-25 0.517E-25 0.258E-25   -.638E-13 0.281E-13 0.309E-13
 -----------------------------------------------------------------------------------------------
   -.371E-13 -.697E-12 -.498E-11   0.186E-14 -.261E-14 -.115E-14   0.000E+00 0.485E-25 -.210E-24   -.645E-13 -.918E-13 -.715E-13
 
 
 POSITION                                       TOTAL-FORCE (eV/Angst)
 -----------------------------------------------------------------------------------
      0.00000      0.00000      0.00000         0.000000      0.000000      0.000000
      2.23248      2.23248      0.00000         0.000000     -0.000000      0.000000
      2.23248      0.00000      2.23248         0.000000      0.000000      0.000000
      0.00000      2.23248      2.23248         0.000000      0.000000      0.000000
 -----------------------------------------------------------------------------------
    total drift:                               -0.000000     -0.000000     -0.000000


--------------------------------------------------------------------------------------------------------



 mean value of Nose-termostat <S>:     1.000 mean value of <T> :     0.000
 mean temperature <T/S>/<1/S>  :     0.000

     LOOP+:  VPU time  336.42: CPU time  337.03
  
  
 General timing and accounting informations for this job:
 ========================================================
  
                  Total CPU time used (sec):      341.407
                            User time (sec):      301.213
                          System time (sec):       40.194
                         Elapsed time (sec):      342.066
  
                   Maximum memory used (kb):      532180.
                   Average memory used (kb):           0.
  
                          Minor page faults:       189386
                          Major page faults:            0
                 Voluntary context switches:          842
