<?xml version="1.0" encoding="ISO-8859-1"?>
<modeling>
 <generator>
  <i name="program" type="string">vasp</i>
  <i name="version" type="string">4.6.28 </i>
  <i name="subversion" type="string">25Jul05 complex  parallel</i>
  <i name="platform" type="string">LinuxIFC</i>
  <i name="date" type="string">2017 01 06</i>
  <i name="time" type="string">05:36:51</i>
 </generator>
 <incar>
  <i type="string" name="PREC">accurate</i>
  <i type="int" name="IALGO">    38</i>
  <i type="logical" name="ADDGRID"> T  </i>
  <i name="EDIFF">      0.00000001</i>
  <i type="int" name="IBRION">    -1</i>
  <i name="ENCUT">    750.00000000</i>
  <i type="logical" name="LREAL"> F  </i>
  <i type="int" name="ISMEAR">     0</i>
  <i name="SIGMA">      0.01000000</i>
  <i type="logical" name="LWAVE"> F  </i>
  <i type="logical" name="LCHARG"> F  </i>
 </incar>
 <kpoints>
  <generation param="Gamma">
   <v type="int" name="divisions">      12      12      12</v>
   <v name="usershift">      0.00000000      0.00000000      0.00000000</v>
   <v name="genvec1">      0.08333333      0.00000000      0.00000000</v>
   <v name="genvec2">      0.00000000      0.08333333      0.00000000</v>
   <v name="genvec3">      0.00000000      0.00000000      0.08333333</v>
   <v name="shift">      0.00000000      0.00000000      0.00000000</v>
  </generation>
  <varray name="kpointlist" >
   <v>       0.00000000      0.00000000      0.00000000</v>
   <v>       0.08333333      0.00000000      0.00000000</v>
   <v>       0.16666667      0.00000000      0.00000000</v>
   <v>       0.25000000      0.00000000      0.00000000</v>
   <v>       0.33333333      0.00000000      0.00000000</v>
   <v>       0.41666667      0.00000000      0.00000000</v>
   <v>       0.50000000      0.00000000      0.00000000</v>
   <v>       0.08333333      0.08333333      0.00000000</v>
   <v>       0.16666667      0.08333333      0.00000000</v>
   <v>       0.25000000      0.08333333      0.00000000</v>
   <v>       0.33333333      0.08333333      0.00000000</v>
   <v>       0.41666667      0.08333333      0.00000000</v>
   <v>       0.50000000      0.08333333      0.00000000</v>
   <v>       0.16666667      0.16666667      0.00000000</v>
   <v>       0.25000000      0.16666667      0.00000000</v>
   <v>       0.33333333      0.16666667      0.00000000</v>
   <v>       0.41666667      0.16666667      0.00000000</v>
   <v>       0.50000000      0.16666667      0.00000000</v>
   <v>       0.25000000      0.25000000      0.00000000</v>
   <v>       0.33333333      0.25000000      0.00000000</v>
   <v>       0.41666667      0.25000000      0.00000000</v>
   <v>       0.50000000      0.25000000      0.00000000</v>
   <v>       0.33333333      0.33333333      0.00000000</v>
   <v>       0.41666667      0.33333333      0.00000000</v>
   <v>       0.50000000      0.33333333      0.00000000</v>
   <v>       0.41666667      0.41666667      0.00000000</v>
   <v>       0.50000000      0.41666667      0.00000000</v>
   <v>       0.50000000      0.50000000      0.00000000</v>
   <v>       0.08333333      0.08333333      0.08333333</v>
   <v>       0.16666667      0.08333333      0.08333333</v>
   <v>       0.25000000      0.08333333      0.08333333</v>
   <v>       0.33333333      0.08333333      0.08333333</v>
   <v>       0.41666667      0.08333333      0.08333333</v>
   <v>       0.50000000      0.08333333      0.08333333</v>
   <v>       0.16666667      0.16666667      0.08333333</v>
   <v>       0.25000000      0.16666667      0.08333333</v>
   <v>       0.33333333      0.16666667      0.08333333</v>
   <v>       0.41666667      0.16666667      0.08333333</v>
   <v>       0.50000000      0.16666667      0.08333333</v>
   <v>       0.25000000      0.25000000      0.08333333</v>
   <v>       0.33333333      0.25000000      0.08333333</v>
   <v>       0.41666667      0.25000000      0.08333333</v>
   <v>       0.50000000      0.25000000      0.08333333</v>
   <v>       0.33333333      0.33333333      0.08333333</v>
   <v>       0.41666667      0.33333333      0.08333333</v>
   <v>       0.50000000      0.33333333      0.08333333</v>
   <v>       0.41666667      0.41666667      0.08333333</v>
   <v>       0.50000000      0.41666667      0.08333333</v>
   <v>       0.50000000      0.50000000      0.08333333</v>
   <v>       0.16666667      0.16666667      0.16666667</v>
   <v>       0.25000000      0.16666667      0.16666667</v>
   <v>       0.33333333      0.16666667      0.16666667</v>
   <v>       0.41666667      0.16666667      0.16666667</v>
   <v>       0.50000000      0.16666667      0.16666667</v>
   <v>       0.25000000      0.25000000      0.16666667</v>
   <v>       0.33333333      0.25000000      0.16666667</v>
   <v>       0.41666667      0.25000000      0.16666667</v>
   <v>       0.50000000      0.25000000      0.16666667</v>
   <v>       0.33333333      0.33333333      0.16666667</v>
   <v>       0.41666667      0.33333333      0.16666667</v>
   <v>       0.50000000      0.33333333      0.16666667</v>
   <v>       0.41666667      0.41666667      0.16666667</v>
   <v>       0.50000000      0.41666667      0.16666667</v>
   <v>       0.50000000      0.50000000      0.16666667</v>
   <v>       0.25000000      0.25000000      0.25000000</v>
   <v>       0.33333333      0.25000000      0.25000000</v>
   <v>       0.41666667      0.25000000      0.25000000</v>
   <v>       0.50000000      0.25000000      0.25000000</v>
   <v>       0.33333333      0.33333333      0.25000000</v>
   <v>       0.41666667      0.33333333      0.25000000</v>
   <v>       0.50000000      0.33333333      0.25000000</v>
   <v>       0.41666667      0.41666667      0.25000000</v>
   <v>       0.50000000      0.41666667      0.25000000</v>
   <v>       0.50000000      0.50000000      0.25000000</v>
   <v>       0.33333333      0.33333333      0.33333333</v>
   <v>       0.41666667      0.33333333      0.33333333</v>
   <v>       0.50000000      0.33333333      0.33333333</v>
   <v>       0.41666667      0.41666667      0.33333333</v>
   <v>       0.50000000      0.41666667      0.33333333</v>
   <v>       0.50000000      0.50000000      0.33333333</v>
   <v>       0.41666667      0.41666667      0.41666667</v>
   <v>       0.50000000      0.41666667      0.41666667</v>
   <v>       0.50000000      0.50000000      0.41666667</v>
   <v>       0.50000000      0.50000000      0.50000000</v>
  </varray>
  <varray name="weights" >
   <v>       0.00057870</v>
   <v>       0.00347222</v>
   <v>       0.00347222</v>
   <v>       0.00347222</v>
   <v>       0.00347222</v>
   <v>       0.00347222</v>
   <v>       0.00173611</v>
   <v>       0.00694444</v>
   <v>       0.01388889</v>
   <v>       0.01388889</v>
   <v>       0.01388889</v>
   <v>       0.01388889</v>
   <v>       0.00694444</v>
   <v>       0.00694444</v>
   <v>       0.01388889</v>
   <v>       0.01388889</v>
   <v>       0.01388889</v>
   <v>       0.00694444</v>
   <v>       0.00694444</v>
   <v>       0.01388889</v>
   <v>       0.01388889</v>
   <v>       0.00694444</v>
   <v>       0.00694444</v>
   <v>       0.01388889</v>
   <v>       0.00694444</v>
   <v>       0.00694444</v>
   <v>       0.00694444</v>
   <v>       0.00173611</v>
   <v>       0.00462963</v>
   <v>       0.01388889</v>
   <v>       0.01388889</v>
   <v>       0.01388889</v>
   <v>       0.01388889</v>
   <v>       0.00694444</v>
   <v>       0.01388889</v>
   <v>       0.02777778</v>
   <v>       0.02777778</v>
   <v>       0.02777778</v>
   <v>       0.01388889</v>
   <v>       0.01388889</v>
   <v>       0.02777778</v>
   <v>       0.02777778</v>
   <v>       0.01388889</v>
   <v>       0.01388889</v>
   <v>       0.02777778</v>
   <v>       0.01388889</v>
   <v>       0.01388889</v>
   <v>       0.01388889</v>
   <v>       0.00347222</v>
   <v>       0.00462963</v>
   <v>       0.01388889</v>
   <v>       0.01388889</v>
   <v>       0.01388889</v>
   <v>       0.00694444</v>
   <v>       0.01388889</v>
   <v>       0.02777778</v>
   <v>       0.02777778</v>
   <v>       0.01388889</v>
   <v>       0.01388889</v>
   <v>       0.02777778</v>
   <v>       0.01388889</v>
   <v>       0.01388889</v>
   <v>       0.01388889</v>
   <v>       0.00347222</v>
   <v>       0.00462963</v>
   <v>       0.01388889</v>
   <v>       0.01388889</v>
   <v>       0.00694444</v>
   <v>       0.01388889</v>
   <v>       0.02777778</v>
   <v>       0.01388889</v>
   <v>       0.01388889</v>
   <v>       0.01388889</v>
   <v>       0.00347222</v>
   <v>       0.00462963</v>
   <v>       0.01388889</v>
   <v>       0.00694444</v>
   <v>       0.01388889</v>
   <v>       0.01388889</v>
   <v>       0.00347222</v>
   <v>       0.00462963</v>
   <v>       0.00694444</v>
   <v>       0.00347222</v>
   <v>       0.00057870</v>
  </varray>
 </kpoints>
 <parameters>
  <separator name="general" >
   <i type="string" name="SYSTEM">unknown system</i>
   <i type="logical" name="LCOMPAT"> F  </i>
  </separator>
  <separator name="electronic" >
   <i type="string" name="PREC">accura</i>
   <i name="ENMAX">    750.00000000</i>
   <i name="ENAUG">    356.67000000</i>
   <i name="EDIFF">      0.00000001</i>
   <i type="int" name="IALGO">    38</i>
   <i type="int" name="IWAVPR">    10</i>
   <i type="int" name="NBANDS">    26</i>
   <i name="NELECT">     44.00000000</i>
   <separator name="electronic smearing" >
    <i type="int" name="ISMEAR">     0</i>
    <i name="SIGMA">      0.01000000</i>
   </separator>
   <separator name="electronic projectors" >
    <i type="logical" name="LREAL"> F  </i>
    <v name="ROPT">      0.00000000</v>
    <i type="int" name="LMAXPAW">  -100</i>
    <i type="int" name="LMAXMIX">     2</i>
   </separator>
   <separator name="electronic startup" >
    <i type="int" name="ISTART">     0</i>
    <i type="int" name="ICHARG">     2</i>
    <i type="int" name="INIWAV">     1</i>
   </separator>
   <separator name="electronic spin" >
    <i type="int" name="ISPIN">     1</i>
    <i type="logical" name="LNONCOLLINEAR"> F  </i>
    <v name="MAGMOM">      1.00000000      1.00000000      1.00000000      1.00000000</v>
    <i name="NUPDOWN">     -1.00000000</i>
    <i type="logical" name="LSORBIT"> F  </i>
    <v name="SAXIS">      0.00000000      0.00000000      1.00000000</v>
    <i type="logical" name="LSPIRAL"> F  </i>
    <v name="QSPIRAL">      0.00000000      0.00000000      0.00000000</v>
    <i type="logical" name="LZEROZ"> F  </i>
   </separator>
   <separator name="electronic exchange-correlation" >
    <i type="string" name="GGA">--</i>
    <i type="int" name="VOSKOWN">     0</i>
    <i type="logical" name="LASPH"> F  </i>
    <i type="logical" name="LMETAGGA"> F  </i>
    <i type="string" name="GGA2">--</i>
   </separator>
   <separator name="electronic convergence" >
    <i type="int" name="NELM">    60</i>
    <i type="int" name="NELMDL">    -5</i>
    <i type="int" name="NELMIN">     2</i>
    <i name="ENINI">    750.00000000</i>
    <separator name="electronic convergence detail" >
     <i type="logical" name="LDIAG"> T  </i>
     <i name="WEIMIN">      0.00000000</i>
     <i name="EBREAK">      0.00000000</i>
     <i name="DEPER">      0.30000000</i>
     <i type="int" name="NRMM">     4</i>
     <i name="TIME">      0.10000000</i>
    </separator>
   </separator>
   <separator name="electronic mixer" >
    <i name="AMIX">      0.40000000</i>
    <i name="BMIX">      1.00000000</i>
    <i name="AMIN">      0.10000000</i>
    <i name="AMIX_MAG">      1.60000000</i>
    <i name="BMIX_MAG">      1.00000000</i>
    <separator name="electronic mixer details" >
     <i type="int" name="IMIX">     4</i>
     <i type="int" name="MAXMIX">   -45</i>
     <i name="WC">    100.00000000</i>
     <i type="int" name="INIMIX">     1</i>
     <i type="int" name="MIXPRE">     1</i>
     <i type="int" name="MREMOVE">     5</i>
    </separator>
   </separator>
   <separator name="electronic dipolcorrection" >
    <i type="int" name="IDIPOL">     0</i>
    <i type="logical" name="LDIPOL"> F  </i>
    <v name="DIPOL">   -100.00000000</v>
    <i name="EFIELD">      0.00000000</i>
   </separator>
  </separator>
  <separator name="grids" >
   <i type="int" name="NGX">    40</i>
   <i type="int" name="NGY">    40</i>
   <i type="int" name="NGZ">    40</i>
   <i type="int" name="NGXF">    80</i>
   <i type="int" name="NGYF">    80</i>
   <i type="int" name="NGZF">    80</i>
   <i type="logical" name="ADDGRID"> T  </i>
  </separator>
  <separator name="ionic" >
   <i type="int" name="NSW">     0</i>
   <i type="int" name="IBRION">    -1</i>
   <i type="int" name="ISIF">     2</i>
   <i name="PSTRESS">      0.00000000</i>
   <i name="EDIFFG">      0.00000010</i>
   <i type="int" name="NFREE">     0</i>
   <i name="POTIM">      0.50000000</i>
   <i name="SMASS">     -3.00000000</i>
  </separator>
  <separator name="ionic md" >
   <i name="TEBEG">      0.00010000</i>
   <i name="TEEND">      0.00010000</i>
   <i type="int" name="NBLOCK">     1</i>
   <i type="int" name="KBLOCK">     1</i>
   <i type="int" name="NPACO">   256</i>
   <i name="APACO">     16.00000000</i>
  </separator>
  <separator name="symmetry" >
   <i type="int" name="ISYM">     2</i>
   <i name="SYMPREC">      0.00001000</i>
  </separator>
  <separator name="dos" >
   <i type="logical" name="LORBIT"> F  </i>
   <v name="RWIGS">     -1.00000000</v>
   <i type="int" name="NEDOS">   301</i>
   <i name="EMIN">     10.00000000</i>
   <i name="EMAX">    -10.00000000</i>
  </separator>
  <separator name="writing" >
   <i type="int" name="NWRITE">     2</i>
   <i type="logical" name="LWAVE"> F  </i>
   <i type="logical" name="LCHARG"> F  </i>
   <i type="logical" name="LPARD"> F  </i>
   <i type="logical" name="LVTOT"> F  </i>
   <i type="logical" name="LELF"> F  </i>
   <i type="logical" name="LOPTICS"> F  </i>
   <i name="STM">      0.00000000</i>
  </separator>
  <separator name="performance" >
   <i type="int" name="NPAR">     4</i>
   <i type="int" name="NSIM">     4</i>
   <i type="int" name="NBLK">   256</i>
   <i type="logical" name="LPLANE"> T  </i>
   <i type="logical" name="LCRITICAL_MEM"> F  </i>
   <i type="logical" name="LSCALAPACK"> F  </i>
   <i type="logical" name="LSCALU"> F  </i>
   <i type="logical" name="LASYNC"> F  </i>
  </separator>
  <separator name="miscellaneous" >
   <i type="int" name="IDIOT">     3</i>
   <i type="logical" name="LMUSIC"> F  </i>
   <v name="POMASS">    196.96600000</v>
   <i type="logical" name="LCORR"> T  </i>
  </separator>
  <i type="logical" name="LREAL_COMPAT"> F  </i>
  <i type="logical" name="GGA_COMPAT"> T  </i>
  <i type="logical" name="LBERRY"> F  </i>
  <i type="int" name="ICORELEVEL">     0</i>
  <i type="logical" name="LDAU"> F  </i>
  <i type="int" name="I_CONSTRAINED_M">     0</i>
 </parameters>
 <atominfo>
  <atoms>       4</atoms>
  <types>       1</types>
  <array name="atoms" >
   <dimension dim="1">ion</dimension>
   <field type="string">element</field>
   <field type="int">atomtype</field>
   <set>
    <rc><c>Au</c><c>   1</c></rc>
    <rc><c>Au</c><c>   1</c></rc>
    <rc><c>Au</c><c>   1</c></rc>
    <rc><c>Au</c><c>   1</c></rc>
   </set>
  </array>
  <array name="atomtypes" >
   <dimension dim="1">type</dimension>
   <field type="int">atomspertype</field>
   <field type="string">element</field>
   <field>mass</field>
   <field>valence</field>
   <field type="string">pseudopotential</field>
   <set>
    <rc><c>   4</c><c>Au</c><c>    196.96600000</c><c>     11.00000000</c><c> PAW_PBE Au 06Sep2000                   </c></rc>
   </set>
  </array>
 </atominfo>
 <structure name="initialpos" >
  <crystal>
   <varray name="basis" >
    <v>       4.46495154      0.00000000      0.00000000</v>
    <v>       0.00000000      4.46495154      0.00000000</v>
    <v>       0.00000000      0.00000000      4.46495154</v>
   </varray>
   <i name="volume">     89.01234606</i>
   <varray name="rec_basis" >
    <v>       0.22396660      0.00000000      0.00000000</v>
    <v>       0.00000000      0.22396660      0.00000000</v>
    <v>       0.00000000      0.00000000      0.22396660</v>
   </varray>
  </crystal>
  <varray name="positions" >
   <v>       0.00000000      0.00000000      0.00000000</v>
   <v>       0.50000000      0.50000000      0.00000000</v>
   <v>       0.50000000      0.00000000      0.50000000</v>
   <v>       0.00000000      0.50000000      0.50000000</v>
  </varray>
 </structure>
 <calculation>
  <scstep>
   <time name="dav">   21.05   21.10</time>
   <time name="total">   22.24   22.29</time>
   <energy>
    <i name="alphaZ">    336.64011485</i>
    <i name="ewald">  -3578.33478197</i>
    <i name="hartreedc">   -639.41837526</i>
    <i name="XCdc">     58.24174056</i>
    <i name="pawpsdc">   2990.04966927</i>
    <i name="pawaedc">  -2896.51663641</i>
    <i name="eentropy">     -0.00039041</i>
    <i name="bandstr">    530.93338636</i>
    <i name="atom">   3704.22372399</i>
    <i name="e_fr_energy">    505.81845097</i>
    <i name="e_wo_entrp">    505.81884139</i>
    <i name="e_0_energy">    505.81864618</i>
   </energy>
  </scstep>
  <scstep>
   <time name="dav">   21.41   21.44</time>
   <time name="total">   21.42   21.45</time>
   <energy>
    <i name="e_fr_energy">     12.50104787</i>
    <i name="e_wo_entrp">     12.50116816</i>
    <i name="e_0_energy">     12.50110802</i>
   </energy>
  </scstep>
  <scstep>
   <time name="dav">   23.02   23.07</time>
   <time name="total">   23.02   23.08</time>
   <energy>
    <i name="e_fr_energy">    -12.39208186</i>
    <i name="e_wo_entrp">    -12.39197567</i>
    <i name="e_0_energy">    -12.39202877</i>
   </energy>
  </scstep>
  <scstep>
   <time name="dav">   21.73   21.81</time>
   <time name="total">   21.74   21.82</time>
   <energy>
    <i name="e_fr_energy">    -12.93326727</i>
    <i name="e_wo_entrp">    -12.93312542</i>
    <i name="e_0_energy">    -12.93319634</i>
   </energy>
  </scstep>
  <scstep>
   <time name="dav">   22.21   22.23</time>
   <time name="total">   23.76   23.78</time>
   <energy>
    <i name="e_fr_energy">    -12.93889709</i>
    <i name="e_wo_entrp">    -12.93875515</i>
    <i name="e_0_energy">    -12.93882612</i>
   </energy>
  </scstep>
  <scstep>
   <time name="dav">   21.74   21.77</time>
   <time name="total">   24.72   24.76</time>
   <energy>
    <i name="e_fr_energy">    -12.14190903</i>
    <i name="e_wo_entrp">    -12.14167968</i>
    <i name="e_0_energy">    -12.14179436</i>
   </energy>
  </scstep>
  <scstep>
   <time name="dav">   21.92   21.94</time>
   <time name="total">   24.50   24.53</time>
   <energy>
    <i name="e_fr_energy">    -12.12195726</i>
    <i name="e_wo_entrp">    -12.12176804</i>
    <i name="e_0_energy">    -12.12186265</i>
   </energy>
  </scstep>
  <scstep>
   <time name="dav">   21.51   21.53</time>
   <time name="total">   24.08   24.11</time>
   <energy>
    <i name="e_fr_energy">    -12.11827051</i>
    <i name="e_wo_entrp">    -12.11808050</i>
    <i name="e_0_energy">    -12.11817550</i>
   </energy>
  </scstep>
  <scstep>
   <time name="dav">   22.27   22.29</time>
   <time name="total">   24.86   24.88</time>
   <energy>
    <i name="e_fr_energy">    -12.11833921</i>
    <i name="e_wo_entrp">    -12.11815019</i>
    <i name="e_0_energy">    -12.11824470</i>
   </energy>
  </scstep>
  <scstep>
   <time name="dav">   21.61   21.63</time>
   <time name="total">   24.20   24.23</time>
   <energy>
    <i name="e_fr_energy">    -12.11835088</i>
    <i name="e_wo_entrp">    -12.11816064</i>
    <i name="e_0_energy">    -12.11825576</i>
   </energy>
  </scstep>
  <scstep>
   <time name="dav">   22.21   22.24</time>
   <time name="total">   24.80   24.84</time>
   <energy>
    <i name="e_fr_energy">    -12.11835209</i>
    <i name="e_wo_entrp">    -12.11816165</i>
    <i name="e_0_energy">    -12.11825687</i>
   </energy>
  </scstep>
  <scstep>
   <time name="dav">   21.78   21.81</time>
   <time name="total">   24.36   24.40</time>
   <energy>
    <i name="e_fr_energy">    -12.11835155</i>
    <i name="e_wo_entrp">    -12.11816114</i>
    <i name="e_0_energy">    -12.11825635</i>
   </energy>
  </scstep>
  <scstep>
   <time name="dav">   14.87   14.91</time>
   <time name="total">   17.48   17.52</time>
   <energy>
    <i name="e_fr_energy">    -12.11835157</i>
    <i name="e_wo_entrp">    -12.11816116</i>
    <i name="e_0_energy">    -12.11825636</i>
   </energy>
  </scstep>
  <scstep>
   <time name="dav">   14.89   14.94</time>
   <time name="total">   15.92   15.97</time>
   <energy>
    <i name="alphaZ">    336.64011485</i>
    <i name="ewald">  -3578.33478197</i>
    <i name="hartreedc">   -599.12277233</i>
    <i name="XCdc">     56.37940170</i>
    <i name="pawpsdc">   2927.21030964</i>
    <i name="pawaedc">  -2839.72551392</i>
    <i name="eentropy">     -0.00019041</i>
    <i name="bandstr">    -19.38864311</i>
    <i name="atom">   3704.22372399</i>
    <i name="e_fr_energy">    -12.11835157</i>
    <i name="e_wo_entrp">    -12.11816116</i>
    <i name="e_0_energy">    -12.11825637</i>
   </energy>
  </scstep>
  <structure>
   <crystal>
    <varray name="basis" >
     <v>       4.46495154      0.00000000      0.00000000</v>
     <v>       0.00000000      4.46495154      0.00000000</v>
     <v>       0.00000000      0.00000000      4.46495154</v>
    </varray>
    <i name="volume">     89.01234606</i>
    <varray name="rec_basis" >
     <v>       0.22396660      0.00000000      0.00000000</v>
     <v>       0.00000000      0.22396660      0.00000000</v>
     <v>       0.00000000      0.00000000      0.22396660</v>
    </varray>
   </crystal>
   <varray name="positions" >
    <v>       0.00000000      0.00000000      0.00000000</v>
    <v>       0.50000000      0.50000000      0.00000000</v>
    <v>       0.50000000      0.00000000      0.50000000</v>
    <v>       0.00000000      0.50000000      0.50000000</v>
   </varray>
  </structure>
  <varray name="forces" >
   <v>       0.00000000      0.00000000      0.00000000</v>
   <v>       0.00000000     -0.00000000      0.00000000</v>
   <v>       0.00000000      0.00000000      0.00000000</v>
   <v>       0.00000000      0.00000000      0.00000000</v>
  </varray>
  <varray name="stress" >
   <v>    -149.51408941      0.00000000      0.00000000</v>
   <v>      -0.00000000   -149.51408941      0.00000000</v>
   <v>      -0.00000000      0.00000000   -149.51408941</v>
  </varray>
  <energy>
   <i name="e_fr_energy">    -12.11835157</i>
   <i name="e_wo_entrp">    -12.11825637</i>
   <i name="e_0_energy">     -0.00019041</i>
  </energy>
  <eigenvalues>
   <array>
    <dimension dim="1">band</dimension>
    <dimension dim="2">kpoint</dimension>
    <dimension dim="3">spin</dimension>
    <field>eigene</field>
    <field>occ</field>
    <set>
     <set comment="spin 1">
      <set comment="kpoint 1">
       <r>  -4.5770  1.0000</r>
       <r>  -2.2464  1.0000</r>
       <r>  -2.2464  1.0000</r>
       <r>  -2.2464  1.0000</r>
       <r>  -2.0626  1.0000</r>
       <r>  -2.0626  1.0000</r>
       <r>  -2.0626  1.0000</r>
       <r>  -0.7625  1.0000</r>
       <r>  -0.7625  1.0000</r>
       <r>  -0.7625  1.0000</r>
       <r>   0.1767  1.0000</r>
       <r>   0.1767  1.0000</r>
       <r>   0.8913  1.0000</r>
       <r>   0.8913  1.0000</r>
       <r>   0.8913  1.0000</r>
       <r>   1.1204  1.0000</r>
       <r>   1.1204  1.0000</r>
       <r>   1.1204  1.0000</r>
       <r>   1.1204  1.0000</r>
       <r>   1.1204  1.0000</r>
       <r>   1.1204  1.0000</r>
       <r>   4.4935  0.0000</r>
       <r>   4.4935  0.0000</r>
       <r>   4.4935  0.0000</r>
       <r>   6.7466  0.0000</r>
       <r>   6.7466  0.0000</r>
       <r>   6.7466  0.0000</r>
       <r>  12.0861  0.0000</r>
      </set>
      <set comment="kpoint 2">
       <r>  -4.5128  1.0000</r>
       <r>  -2.2284  1.0000</r>
       <r>  -2.2086  1.0000</r>
       <r>  -2.2086  1.0000</r>
       <r>  -2.0429  1.0000</r>
       <r>  -2.0324  1.0000</r>
       <r>  -2.0324  1.0000</r>
       <r>  -0.7877  1.0000</r>
       <r>  -0.7386  1.0000</r>
       <r>  -0.7386  1.0000</r>
       <r>   0.1506  1.0000</r>
       <r>   0.1882  1.0000</r>
       <r>   0.8552  1.0000</r>
       <r>   0.8552  1.0000</r>
       <r>   0.8784  1.0000</r>
       <r>   0.9849  1.0000</r>
       <r>   0.9849  1.0000</r>
       <r>   1.0755  1.0000</r>
       <r>   1.0755  1.0000</r>
       <r>   1.1205  1.0000</r>
       <r>   1.1205  1.0000</r>
       <r>   3.8036  0.0000</r>
       <r>   4.6808  0.0000</r>
       <r>   4.6808  0.0000</r>
       <r>   6.7134  0.0000</r>
       <r>   6.7134  0.0000</r>
       <r>   7.5520  0.0000</r>
       <r>  11.9286  0.0000</r>
      </set>
      <set comment="kpoint 3">
       <r>  -4.3222  1.0000</r>
       <r>  -2.1808  1.0000</r>
       <r>  -2.0992  1.0000</r>
       <r>  -2.0992  1.0000</r>
       <r>  -1.9848  1.0000</r>
       <r>  -1.9419  1.0000</r>
       <r>  -1.9419  1.0000</r>
       <r>  -0.8606  1.0000</r>
       <r>  -0.6672  1.0000</r>
       <r>  -0.6672  1.0000</r>
       <r>   0.0759  1.0000</r>
       <r>   0.2220  1.0000</r>
       <r>   0.6491  1.0000</r>
       <r>   0.6491  1.0000</r>
       <r>   0.7495  1.0000</r>
       <r>   0.7495  1.0000</r>
       <r>   0.8406  1.0000</r>
       <r>   0.9479  1.0000</r>
       <r>   0.9479  1.0000</r>
       <r>   1.1206  1.0000</r>
       <r>   1.1206  1.0000</r>
       <r>   2.6647  1.0000</r>
       <r>   5.1712  0.0000</r>
       <r>   5.1712  0.0000</r>
       <r>   6.6226  0.0000</r>
       <r>   6.6226  0.0000</r>
       <r>   9.0418  0.0000</r>
       <r>  11.4818  0.0000</r>
      </set>
      <set comment="kpoint 4">
       <r>  -4.0115  1.0000</r>
       <r>  -2.1270  1.0000</r>
       <r>  -1.9322  1.0000</r>
       <r>  -1.9322  1.0000</r>
       <r>  -1.8910  1.0000</r>
       <r>  -1.7915  1.0000</r>
       <r>  -1.7915  1.0000</r>
       <r>  -0.9745  1.0000</r>
       <r>  -0.5502  1.0000</r>
       <r>  -0.5502  1.0000</r>
       <r>  -0.0359  1.0000</r>
       <r>   0.2274  1.0000</r>
       <r>   0.2274  1.0000</r>
       <r>   0.2761  1.0000</r>
       <r>   0.5854  1.0000</r>
       <r>   0.5854  1.0000</r>
       <r>   0.7564  1.0000</r>
       <r>   0.7564  1.0000</r>
       <r>   0.7811  1.0000</r>
       <r>   1.1209  1.0000</r>
       <r>   1.1209  1.0000</r>
       <r>   1.5758  1.0000</r>
       <r>   5.8463  0.0000</r>
       <r>   5.8463  0.0000</r>
       <r>   6.4991  0.0000</r>
       <r>   6.4991  0.0000</r>
       <r>  10.7333  0.0000</r>
       <r>  10.8343  0.0000</r>
      </set>
      <set comment="kpoint 5">
       <r>  -3.5952  1.0000</r>
       <r>  -2.1202  1.0000</r>
       <r>  -1.7663  1.0000</r>
       <r>  -1.7354  1.0000</r>
       <r>  -1.7354  1.0000</r>
       <r>  -1.5818  1.0000</r>
       <r>  -1.5818  1.0000</r>
       <r>  -1.1192  1.0000</r>
       <r>  -0.3908  1.0000</r>
       <r>  -0.3908  1.0000</r>
       <r>  -0.2077  1.0000</r>
       <r>  -0.2077  1.0000</r>
       <r>  -0.1620  1.0000</r>
       <r>   0.3475  1.0000</r>
       <r>   0.3889  1.0000</r>
       <r>   0.3889  1.0000</r>
       <r>   0.5250  1.0000</r>
       <r>   0.5250  1.0000</r>
       <r>   0.6618  1.0000</r>
       <r>   0.7044  1.0000</r>
       <r>   1.1211  1.0000</r>
       <r>   1.1211  1.0000</r>
       <r>   6.3769  0.0000</r>
       <r>   6.3769  0.0000</r>
       <r>   6.6277  0.0000</r>
       <r>   6.6277  0.0000</r>
       <r>  10.0599  0.0000</r>
       <r>  10.0599  0.0000</r>
      </set>
      <set comment="kpoint 6">
       <r>  -3.1056  1.0000</r>
       <r>  -2.2590  1.0000</r>
       <r>  -1.6173  1.0000</r>
       <r>  -1.5610  1.0000</r>
       <r>  -1.5610  1.0000</r>
       <r>  -1.3145  1.0000</r>
       <r>  -1.3145  1.0000</r>
       <r>  -1.2828  1.0000</r>
       <r>  -0.6202  1.0000</r>
       <r>  -0.6202  1.0000</r>
       <r>  -0.2595  1.0000</r>
       <r>  -0.1941  1.0000</r>
       <r>  -0.1941  1.0000</r>
       <r>   0.0325  1.0000</r>
       <r>   0.2130  1.0000</r>
       <r>   0.2130  1.0000</r>
       <r>   0.2769  1.0000</r>
       <r>   0.2769  1.0000</r>
       <r>   0.4316  1.0000</r>
       <r>   0.6163  1.0000</r>
       <r>   1.1213  1.0000</r>
       <r>   1.1213  1.0000</r>
       <r>   6.2887  0.0000</r>
       <r>   6.2887  0.0000</r>
       <r>   7.4699  0.0000</r>
       <r>   7.4699  0.0000</r>
       <r>   9.2154  0.0000</r>
       <r>   9.2154  0.0000</r>
      </set>
      <set comment="kpoint 7">
       <r>  -2.6160  1.0000</r>
       <r>  -2.6160  1.0000</r>
       <r>  -1.4870  1.0000</r>
       <r>  -1.4870  1.0000</r>
       <r>  -1.4527  1.0000</r>
       <r>  -1.4527  1.0000</r>
       <r>  -0.9923  1.0000</r>
       <r>  -0.9923  1.0000</r>
       <r>  -0.9923  1.0000</r>
       <r>  -0.9923  1.0000</r>
       <r>  -0.2429  1.0000</r>
       <r>  -0.2429  1.0000</r>
       <r>   0.0322  1.0000</r>
       <r>   0.0322  1.0000</r>
       <r>   0.0322  1.0000</r>
       <r>   0.0322  1.0000</r>
       <r>   0.1381  1.0000</r>
       <r>   0.1381  1.0000</r>
       <r>   0.5233  1.0000</r>
       <r>   0.5233  1.0000</r>
       <r>   1.1214  1.0000</r>
       <r>   1.1214  1.0000</r>
       <r>   6.2567  0.0000</r>
       <r>   6.2567  0.0000</r>
       <r>   8.3417  0.0000</r>
       <r>   8.3417  0.0000</r>
       <r>   8.3417  0.0000</r>
       <r>   8.3417  0.0000</r>
      </set>
      <set comment="kpoint 8">
       <r>  -4.4492  1.0000</r>
       <r>  -2.1901  1.0000</r>
       <r>  -2.1901  1.0000</r>
       <r>  -2.1768  1.0000</r>
       <r>  -2.0131  1.0000</r>
       <r>  -2.0131  1.0000</r>
       <r>  -1.9978  1.0000</r>
       <r>  -0.7969  1.0000</r>
       <r>  -0.7298  1.0000</r>
       <r>  -0.7166  1.0000</r>
       <r>   0.1439  1.0000</r>
       <r>   0.1827  1.0000</r>
       <r>   0.8209  1.0000</r>
       <r>   0.8209  1.0000</r>
       <r>   0.8209  1.0000</r>
       <r>   0.8912  1.0000</r>
       <r>   0.9555  1.0000</r>
       <r>   0.9555  1.0000</r>
       <r>   1.0754  1.0000</r>
       <r>   1.0754  1.0000</r>
       <r>   1.0899  1.0000</r>
       <r>   3.9736  0.0000</r>
       <r>   3.9736  0.0000</r>
       <r>   4.8573  0.0000</r>
       <r>   6.6755  0.0000</r>
       <r>   7.5337  0.0000</r>
       <r>   7.5337  0.0000</r>
       <r>  11.3531  0.0000</r>
      </set>
      <set comment="kpoint 9">
       <r>  -4.2604  1.0000</r>
       <r>  -2.1414  1.0000</r>
       <r>  -2.0845  1.0000</r>
       <r>  -2.0796  1.0000</r>
       <r>  -1.9561  1.0000</r>
       <r>  -1.9238  1.0000</r>
       <r>  -1.8951  1.0000</r>
       <r>  -0.8605  1.0000</r>
       <r>  -0.6660  1.0000</r>
       <r>  -0.6518  1.0000</r>
       <r>   0.0796  1.0000</r>
       <r>   0.2139  1.0000</r>
       <r>   0.5460  1.0000</r>
       <r>   0.5931  1.0000</r>
       <r>   0.7014  1.0000</r>
       <r>   0.7204  1.0000</r>
       <r>   0.7839  1.0000</r>
       <r>   0.8878  1.0000</r>
       <r>   0.9475  1.0000</r>
       <r>   1.0743  1.0000</r>
       <r>   1.0752  1.0000</r>
       <r>   2.8532  0.0000</r>
       <r>   4.3906  0.0000</r>
       <r>   5.3264  0.0000</r>
       <r>   6.5694  0.0000</r>
       <r>   7.4950  0.0000</r>
       <r>   8.9967  0.0000</r>
       <r>  10.7187  0.0000</r>
      </set>
      <set comment="kpoint 10">
       <r>  -3.9528  1.0000</r>
       <r>  -2.0854  1.0000</r>
       <r>  -1.9392  1.0000</r>
       <r>  -1.9103  1.0000</r>
       <r>  -1.8642  1.0000</r>
       <r>  -1.7754  1.0000</r>
       <r>  -1.7312  1.0000</r>
       <r>  -0.9698  1.0000</r>
       <r>  -0.5508  1.0000</r>
       <r>  -0.5494  1.0000</r>
       <r>  -0.0220  1.0000</r>
       <r>   0.1348  1.0000</r>
       <r>   0.1950  1.0000</r>
       <r>   0.2745  1.0000</r>
       <r>   0.4806  1.0000</r>
       <r>   0.5636  1.0000</r>
       <r>   0.6142  1.0000</r>
       <r>   0.7556  1.0000</r>
       <r>   0.8007  1.0000</r>
       <r>   1.0712  1.0000</r>
       <r>   1.0748  1.0000</r>
       <r>   1.8268  1.0000</r>
       <r>   4.8979  0.0000</r>
       <r>   5.9826  0.0000</r>
       <r>   6.4173  0.0000</r>
       <r>   7.4877  0.0000</r>
       <r>  10.1046  0.0000</r>
       <r>  10.6076  0.0000</r>
      </set>
      <set comment="kpoint 11">
       <r>  -3.5409  1.0000</r>
       <r>  -2.0762  1.0000</r>
       <r>  -1.7532  1.0000</r>
       <r>  -1.7421  1.0000</r>
       <r>  -1.7103  1.0000</r>
       <r>  -1.5688  1.0000</r>
       <r>  -1.5232  1.0000</r>
       <r>  -1.1103  1.0000</r>
       <r>  -0.4327  1.0000</r>
       <r>  -0.3920  1.0000</r>
       <r>  -0.2883  1.0000</r>
       <r>  -0.2241  1.0000</r>
       <r>  -0.1133  1.0000</r>
       <r>   0.1563  1.0000</r>
       <r>   0.3560  1.0000</r>
       <r>   0.3757  1.0000</r>
       <r>   0.4171  1.0000</r>
       <r>   0.5237  1.0000</r>
       <r>   0.6752  1.0000</r>
       <r>   1.0613  1.0000</r>
       <r>   1.0709  1.0000</r>
       <r>   1.0742  1.0000</r>
       <r>   5.3646  0.0000</r>
       <r>   6.2483  0.0000</r>
       <r>   6.7501  0.0000</r>
       <r>   7.5979  0.0000</r>
       <r>   9.5178  0.0000</r>
       <r>  10.1634  0.0000</r>
      </set>
      <set comment="kpoint 12">
       <r>  -3.0563  1.0000</r>
       <r>  -2.2141  1.0000</r>
       <r>  -1.5964  1.0000</r>
       <r>  -1.5616  1.0000</r>
       <r>  -1.5324  1.0000</r>
       <r>  -1.3058  1.0000</r>
       <r>  -1.2914  1.0000</r>
       <r>  -1.2696  1.0000</r>
       <r>  -0.6814  1.0000</r>
       <r>  -0.6254  1.0000</r>
       <r>  -0.3907  1.0000</r>
       <r>  -0.1956  1.0000</r>
       <r>  -0.1953  1.0000</r>
       <r>  -0.0684  1.0000</r>
       <r>   0.2099  1.0000</r>
       <r>   0.2358  1.0000</r>
       <r>   0.2754  1.0000</r>
       <r>   0.4212  1.0000</r>
       <r>   0.4540  1.0000</r>
       <r>   0.7092  1.0000</r>
       <r>   1.0715  1.0000</r>
       <r>   1.0734  1.0000</r>
       <r>   5.7020  0.0000</r>
       <r>   6.0836  0.0000</r>
       <r>   7.5828  0.0000</r>
       <r>   7.9017  0.0000</r>
       <r>   8.9402  0.0000</r>
       <r>   9.3193  0.0000</r>
      </set>
      <set comment="kpoint 13">
       <r>  -2.5705  1.0000</r>
       <r>  -2.5705  1.0000</r>
       <r>  -1.4629  1.0000</r>
       <r>  -1.4629  1.0000</r>
       <r>  -1.4355  1.0000</r>
       <r>  -1.4355  1.0000</r>
       <r>  -1.0202  1.0000</r>
       <r>  -1.0202  1.0000</r>
       <r>  -0.9894  1.0000</r>
       <r>  -0.9894  1.0000</r>
       <r>  -0.3754  1.0000</r>
       <r>  -0.3754  1.0000</r>
       <r>   0.0306  1.0000</r>
       <r>   0.0306  1.0000</r>
       <r>   0.1371  1.0000</r>
       <r>   0.1371  1.0000</r>
       <r>   0.1483  1.0000</r>
       <r>   0.1483  1.0000</r>
       <r>   0.5663  1.0000</r>
       <r>   0.5663  1.0000</r>
       <r>   1.0724  1.0000</r>
       <r>   1.0724  1.0000</r>
       <r>   5.9176  0.0000</r>
       <r>   5.9176  0.0000</r>
       <r>   8.3798  0.0000</r>
       <r>   8.3798  0.0000</r>
       <r>   8.4486  0.0000</r>
       <r>   8.4486  0.0000</r>
      </set>
      <set comment="kpoint 14">
       <r>  -4.0771  1.0000</r>
       <r>  -2.0290  1.0000</r>
       <r>  -2.0270  1.0000</r>
       <r>  -2.0270  1.0000</r>
       <r>  -1.8703  1.0000</r>
       <r>  -1.8703  1.0000</r>
       <r>  -1.7701  1.0000</r>
       <r>  -0.8870  1.0000</r>
       <r>  -0.6338  1.0000</r>
       <r>  -0.6071  1.0000</r>
       <r>   0.0576  1.0000</r>
       <r>   0.2269  1.0000</r>
       <r>   0.3410  1.0000</r>
       <r>   0.3410  1.0000</r>
       <r>   0.4006  1.0000</r>
       <r>   0.6343  1.0000</r>
       <r>   0.7857  1.0000</r>
       <r>   0.7857  1.0000</r>
       <r>   0.9463  1.0000</r>
       <r>   0.9463  1.0000</r>
       <r>   0.9999  1.0000</r>
       <r>   3.2809  0.0000</r>
       <r>   3.2809  0.0000</r>
       <r>   5.7508  0.0000</r>
       <r>   6.4142  0.0000</r>
       <r>   8.8702  0.0000</r>
       <r>   8.8702  0.0000</r>
       <r>   9.9887  0.0000</r>
      </set>
      <set comment="kpoint 15">
       <r>  -3.7791  1.0000</r>
       <r>  -1.9645  1.0000</r>
       <r>  -1.9221  1.0000</r>
       <r>  -1.8508  1.0000</r>
       <r>  -1.7843  1.0000</r>
       <r>  -1.7281  1.0000</r>
       <r>  -1.5926  1.0000</r>
       <r>  -0.9680  1.0000</r>
       <r>  -0.5423  1.0000</r>
       <r>  -0.5386  1.0000</r>
       <r>  -0.0763  1.0000</r>
       <r>  -0.0128  1.0000</r>
       <r>   0.0691  1.0000</r>
       <r>   0.0867  1.0000</r>
       <r>   0.2996  1.0000</r>
       <r>   0.4977  1.0000</r>
       <r>   0.6367  1.0000</r>
       <r>   0.7271  1.0000</r>
       <r>   0.7531  1.0000</r>
       <r>   0.9443  1.0000</r>
       <r>   0.9593  1.0000</r>
       <r>   2.2960  1.0000</r>
       <r>   3.7846  0.0000</r>
       <r>   6.1722  0.0000</r>
       <r>   6.3637  0.0000</r>
       <r>   8.6967  0.0000</r>
       <r>   9.4007  0.0000</r>
       <r>  10.2575  0.0000</r>
      </set>
      <set comment="kpoint 16">
       <r>  -3.3808  1.0000</r>
       <r>  -1.9480  1.0000</r>
       <r>  -1.7635  1.0000</r>
       <r>  -1.6702  1.0000</r>
       <r>  -1.6399  1.0000</r>
       <r>  -1.5307  1.0000</r>
       <r>  -1.3934  1.0000</r>
       <r>  -1.0894  1.0000</r>
       <r>  -0.4933  1.0000</r>
       <r>  -0.4798  1.0000</r>
       <r>  -0.3887  1.0000</r>
       <r>  -0.2782  1.0000</r>
       <r>  -0.2401  1.0000</r>
       <r>  -0.0629  1.0000</r>
       <r>   0.3328  1.0000</r>
       <r>   0.4142  1.0000</r>
       <r>   0.4523  1.0000</r>
       <r>   0.5204  1.0000</r>
       <r>   0.6036  1.0000</r>
       <r>   0.9419  1.0000</r>
       <r>   0.9433  1.0000</r>
       <r>   1.5349  1.0000</r>
       <r>   4.2866  0.0000</r>
       <r>   5.8704  0.0000</r>
       <r>   7.0977  0.0000</r>
       <r>   8.5379  0.0000</r>
       <r>   8.9633  0.0000</r>
       <r>  10.4640  0.0000</r>
      </set>
      <set comment="kpoint 17">
       <r>  -2.9124  1.0000</r>
       <r>  -2.0843  1.0000</r>
       <r>  -1.5652  1.0000</r>
       <r>  -1.5346  1.0000</r>
       <r>  -1.4494  1.0000</r>
       <r>  -1.2806  1.0000</r>
       <r>  -1.2332  1.0000</r>
       <r>  -1.2197  1.0000</r>
       <r>  -0.8342  1.0000</r>
       <r>  -0.6434  1.0000</r>
       <r>  -0.5179  1.0000</r>
       <r>  -0.4863  1.0000</r>
       <r>  -0.1964  1.0000</r>
       <r>   0.0040  1.0000</r>
       <r>   0.1930  1.0000</r>
       <r>   0.2704  1.0000</r>
       <r>   0.2720  1.0000</r>
       <r>   0.4105  1.0000</r>
       <r>   0.5619  1.0000</r>
       <r>   0.9381  1.0000</r>
       <r>   0.9394  1.0000</r>
       <r>   1.0409  1.0000</r>
       <r>   4.7499  0.0000</r>
       <r>   5.5322  0.0000</r>
       <r>   7.9066  0.0000</r>
       <r>   8.4582  0.0000</r>
       <r>   8.6647  0.0000</r>
       <r>   9.6201  0.0000</r>
      </set>
      <set comment="kpoint 18">
       <r>  -2.4391  1.0000</r>
       <r>  -2.4391  1.0000</r>
       <r>  -1.4004  1.0000</r>
       <r>  -1.4004  1.0000</r>
       <r>  -1.3856  1.0000</r>
       <r>  -1.3856  1.0000</r>
       <r>  -1.0832  1.0000</r>
       <r>  -1.0832  1.0000</r>
       <r>  -0.9822  1.0000</r>
       <r>  -0.9822  1.0000</r>
       <r>  -0.5602  1.0000</r>
       <r>  -0.5602  1.0000</r>
       <r>   0.0278  1.0000</r>
       <r>   0.0278  1.0000</r>
       <r>   0.1619  1.0000</r>
       <r>   0.1619  1.0000</r>
       <r>   0.1849  1.0000</r>
       <r>   0.1849  1.0000</r>
       <r>   0.7531  1.0000</r>
       <r>   0.7531  1.0000</r>
       <r>   0.9377  1.0000</r>
       <r>   0.9377  1.0000</r>
       <r>   5.1625  0.0000</r>
       <r>   5.1625  0.0000</r>
       <r>   8.4967  0.0000</r>
       <r>   8.4967  0.0000</r>
       <r>   8.7571  0.0000</r>
       <r>   8.7571  0.0000</r>
      </set>
      <set comment="kpoint 19">
       <r>  -3.4977  1.0000</r>
       <r>  -1.8567  1.0000</r>
       <r>  -1.7764  1.0000</r>
       <r>  -1.7764  1.0000</r>
       <r>  -1.6523  1.0000</r>
       <r>  -1.6523  1.0000</r>
       <r>  -1.4141  1.0000</r>
       <r>  -0.9985  1.0000</r>
       <r>  -0.5272  1.0000</r>
       <r>  -0.4812  1.0000</r>
       <r>  -0.3397  1.0000</r>
       <r>  -0.3397  1.0000</r>
       <r>  -0.1118  1.0000</r>
       <r>  -0.0516  1.0000</r>
       <r>   0.3894  1.0000</r>
       <r>   0.3994  1.0000</r>
       <r>   0.5994  1.0000</r>
       <r>   0.5994  1.0000</r>
       <r>   0.7497  1.0000</r>
       <r>   0.7497  1.0000</r>
       <r>   0.8552  1.0000</r>
       <r>   2.8066  0.9072</r>
       <r>   2.8066  0.9072</r>
       <r>   5.7842  0.0000</r>
       <r>   6.9304  0.0000</r>
       <r>   8.9306  0.0000</r>
       <r>   9.7832  0.0000</r>
       <r>   9.7832  0.0000</r>
      </set>
      <set comment="kpoint 20">
       <r>  -3.1238  1.0000</r>
       <r>  -1.7479  1.0000</r>
       <r>  -1.7386  1.0000</r>
       <r>  -1.5524  1.0000</r>
       <r>  -1.5453  1.0000</r>
       <r>  -1.4703  1.0000</r>
       <r>  -1.2309  1.0000</r>
       <r>  -1.0746  1.0000</r>
       <r>  -0.7127  1.0000</r>
       <r>  -0.5964  1.0000</r>
       <r>  -0.5304  1.0000</r>
       <r>  -0.3819  1.0000</r>
       <r>  -0.3606  1.0000</r>
       <r>  -0.0892  1.0000</r>
       <r>   0.2549  1.0000</r>
       <r>   0.4346  1.0000</r>
       <r>   0.4884  1.0000</r>
       <r>   0.5166  1.0000</r>
       <r>   0.5650  1.0000</r>
       <r>   0.7462  1.0000</r>
       <r>   0.7913  1.0000</r>
       <r>   2.0194  1.0000</r>
       <r>   3.3188  0.0000</r>
       <r>   5.3108  0.0000</r>
       <r>   7.6255  0.0000</r>
       <r>   8.6804  0.0000</r>
       <r>   9.3152  0.0000</r>
       <r>  10.7219  0.0000</r>
      </set>
      <set comment="kpoint 21">
       <r>  -2.6859  1.0000</r>
       <r>  -1.8873  1.0000</r>
       <r>  -1.5682  1.0000</r>
       <r>  -1.4350  1.0000</r>
       <r>  -1.3223  1.0000</r>
       <r>  -1.2423  1.0000</r>
       <r>  -1.1838  1.0000</r>
       <r>  -1.1042  1.0000</r>
       <r>  -1.0292  1.0000</r>
       <r>  -0.7340  1.0000</r>
       <r>  -0.6814  1.0000</r>
       <r>  -0.5991  1.0000</r>
       <r>  -0.1852  1.0000</r>
       <r>  -0.0357  1.0000</r>
       <r>   0.1453  1.0000</r>
       <r>   0.2627  1.0000</r>
       <r>   0.2696  1.0000</r>
       <r>   0.3128  1.0000</r>
       <r>   0.7445  1.0000</r>
       <r>   0.7600  1.0000</r>
       <r>   0.7806  1.0000</r>
       <r>   1.4480  1.0000</r>
       <r>   3.8212  0.0000</r>
       <r>   4.8123  0.0000</r>
       <r>   8.4054  0.0000</r>
       <r>   8.6120  0.0000</r>
       <r>   8.9411  0.0000</r>
       <r>  10.0903  0.0000</r>
      </set>
      <set comment="kpoint 22">
       <r>  -2.2391  1.0000</r>
       <r>  -2.2391  1.0000</r>
       <r>  -1.3550  1.0000</r>
       <r>  -1.3550  1.0000</r>
       <r>  -1.3085  1.0000</r>
       <r>  -1.3085  1.0000</r>
       <r>  -1.1084  1.0000</r>
       <r>  -1.1084  1.0000</r>
       <r>  -0.9753  1.0000</r>
       <r>  -0.9753  1.0000</r>
       <r>  -0.7015  1.0000</r>
       <r>  -0.7015  1.0000</r>
       <r>   0.0300  1.0000</r>
       <r>   0.0300  1.0000</r>
       <r>   0.1165  1.0000</r>
       <r>   0.1165  1.0000</r>
       <r>   0.1429  1.0000</r>
       <r>   0.1429  1.0000</r>
       <r>   0.7474  1.0000</r>
       <r>   0.7474  1.0000</r>
       <r>   1.0586  1.0000</r>
       <r>   1.0586  1.0000</r>
       <r>   4.3160  0.0000</r>
       <r>   4.3160  0.0000</r>
       <r>   8.7020  0.0000</r>
       <r>   8.7020  0.0000</r>
       <r>   9.2367  0.0000</r>
       <r>   9.2367  0.0000</r>
      </set>
      <set comment="kpoint 23">
       <r>  -2.7872  1.0000</r>
       <r>  -1.6718  1.0000</r>
       <r>  -1.5013  1.0000</r>
       <r>  -1.5013  1.0000</r>
       <r>  -1.3924  1.0000</r>
       <r>  -1.3924  1.0000</r>
       <r>  -1.0880  1.0000</r>
       <r>  -1.0685  1.0000</r>
       <r>  -0.9034  1.0000</r>
       <r>  -0.9034  1.0000</r>
       <r>  -0.5578  1.0000</r>
       <r>  -0.5429  1.0000</r>
       <r>  -0.2824  1.0000</r>
       <r>  -0.1454  1.0000</r>
       <r>   0.1480  1.0000</r>
       <r>   0.3400  1.0000</r>
       <r>   0.3400  1.0000</r>
       <r>   0.5148  1.0000</r>
       <r>   0.5148  1.0000</r>
       <r>   0.6643  1.0000</r>
       <r>   0.7896  1.0000</r>
       <r>   2.5093  1.0000</r>
       <r>   2.5093  1.0000</r>
       <r>   4.6876  0.0000</r>
       <r>   8.2857  0.0000</r>
       <r>   8.6214  0.0000</r>
       <r>  10.0143  0.0000</r>
       <r>  10.0143  0.0000</r>
      </set>
      <set comment="kpoint 24">
       <r>  -2.3997  1.0000</r>
       <r>  -1.6657  1.0000</r>
       <r>  -1.5604  1.0000</r>
       <r>  -1.3041  1.0000</r>
       <r>  -1.2862  1.0000</r>
       <r>  -1.1967  1.0000</r>
       <r>  -1.1379  1.0000</r>
       <r>  -1.1201  1.0000</r>
       <r>  -0.9682  1.0000</r>
       <r>  -0.9071  1.0000</r>
       <r>  -0.7499  1.0000</r>
       <r>  -0.6346  1.0000</r>
       <r>  -0.1433  1.0000</r>
       <r>  -0.1293  1.0000</r>
       <r>   0.0567  1.0000</r>
       <r>   0.1778  1.0000</r>
       <r>   0.1819  1.0000</r>
       <r>   0.2743  1.0000</r>
       <r>   0.5196  1.0000</r>
       <r>   0.5821  1.0000</r>
       <r>   1.0697  1.0000</r>
       <r>   1.8821  1.0000</r>
       <r>   3.0075  0.0000</r>
       <r>   4.0840  0.0000</r>
       <r>   8.7367  0.0000</r>
       <r>   9.0381  0.0000</r>
       <r>   9.4364  0.0000</r>
       <r>  10.6958  0.0000</r>
      </set>
      <set comment="kpoint 25">
       <r>  -2.0044  1.0000</r>
       <r>  -2.0044  1.0000</r>
       <r>  -1.4053  1.0000</r>
       <r>  -1.4053  1.0000</r>
       <r>  -1.2150  1.0000</r>
       <r>  -1.2150  1.0000</r>
       <r>  -1.0128  1.0000</r>
       <r>  -1.0128  1.0000</r>
       <r>  -0.9765  1.0000</r>
       <r>  -0.9765  1.0000</r>
       <r>  -0.7744  1.0000</r>
       <r>  -0.7744  1.0000</r>
       <r>  -0.0028  1.0000</r>
       <r>  -0.0028  1.0000</r>
       <r>   0.0481  1.0000</r>
       <r>   0.0481  1.0000</r>
       <r>   0.0644  1.0000</r>
       <r>   0.0644  1.0000</r>
       <r>   0.5384  1.0000</r>
       <r>   0.5384  1.0000</r>
       <r>   1.4193  1.0000</r>
       <r>   1.4193  1.0000</r>
       <r>   3.5266  0.0000</r>
       <r>   3.5266  0.0000</r>
       <r>   9.0090  0.0000</r>
       <r>   9.0090  0.0000</r>
       <r>   9.8506  0.0000</r>
       <r>   9.8506  0.0000</r>
      </set>
      <set comment="kpoint 26">
       <r>  -2.0873  1.0000</r>
       <r>  -1.5348  1.0000</r>
       <r>  -1.5147  1.0000</r>
       <r>  -1.5147  1.0000</r>
       <r>  -1.1523  1.0000</r>
       <r>  -1.1523  1.0000</r>
       <r>  -1.1141  1.0000</r>
       <r>  -0.9490  1.0000</r>
       <r>  -0.9490  1.0000</r>
       <r>  -0.8639  1.0000</r>
       <r>  -0.8563  1.0000</r>
       <r>  -0.6675  1.0000</r>
       <r>  -0.1890  1.0000</r>
       <r>  -0.0517  1.0000</r>
       <r>  -0.0435  1.0000</r>
       <r>   0.0345  1.0000</r>
       <r>   0.0345  1.0000</r>
       <r>   0.2952  1.0000</r>
       <r>   0.2952  1.0000</r>
       <r>   0.4391  1.0000</r>
       <r>   1.4122  1.0000</r>
       <r>   2.3438  1.0000</r>
       <r>   2.3438  1.0000</r>
       <r>   3.4243  0.0000</r>
       <r>   9.0108  0.0000</r>
       <r>   9.7678  0.0000</r>
       <r>  10.0008  0.0000</r>
       <r>  10.0008  0.0000</r>
      </set>
      <set comment="kpoint 27">
       <r>  -1.7851  1.0000</r>
       <r>  -1.7851  1.0000</r>
       <r>  -1.5001  1.0000</r>
       <r>  -1.5001  1.0000</r>
       <r>  -1.1207  1.0000</r>
       <r>  -1.1207  1.0000</r>
       <r>  -0.9962  1.0000</r>
       <r>  -0.9962  1.0000</r>
       <r>  -0.8721  1.0000</r>
       <r>  -0.8721  1.0000</r>
       <r>  -0.7769  1.0000</r>
       <r>  -0.7769  1.0000</r>
       <r>  -0.1221  1.0000</r>
       <r>  -0.1221  1.0000</r>
       <r>  -0.0630  1.0000</r>
       <r>  -0.0630  1.0000</r>
       <r>   0.0977  1.0000</r>
       <r>   0.0977  1.0000</r>
       <r>   0.3454  1.0000</r>
       <r>   0.3454  1.0000</r>
       <r>   1.8243  1.0000</r>
       <r>   1.8243  1.0000</r>
       <r>   2.8496  0.0000</r>
       <r>   2.8496  0.0000</r>
       <r>   9.4311  0.0000</r>
       <r>   9.4311  0.0000</r>
       <r>  10.5641  0.0000</r>
       <r>  10.5666  0.0000</r>
      </set>
      <set comment="kpoint 28">
       <r>  -1.6195  1.0000</r>
       <r>  -1.6195  1.0000</r>
       <r>  -1.6195  1.0000</r>
       <r>  -1.6195  1.0000</r>
       <r>  -1.0440  1.0000</r>
       <r>  -1.0440  1.0000</r>
       <r>  -1.0440  1.0000</r>
       <r>  -1.0440  1.0000</r>
       <r>  -0.7784  1.0000</r>
       <r>  -0.7784  1.0000</r>
       <r>  -0.7784  1.0000</r>
       <r>  -0.7784  1.0000</r>
       <r>  -0.1582  1.0000</r>
       <r>  -0.1582  1.0000</r>
       <r>  -0.1582  1.0000</r>
       <r>  -0.1582  1.0000</r>
       <r>   0.1948  1.0000</r>
       <r>   0.1948  1.0000</r>
       <r>   0.1948  1.0000</r>
       <r>   0.1948  1.0000</r>
       <r>   2.2906  1.0000</r>
       <r>   2.2906  1.0000</r>
       <r>   2.2906  1.0000</r>
       <r>   2.2906  1.0000</r>
       <r>   9.9792  0.0000</r>
       <r>   9.9792  0.0000</r>
       <r>   9.9792  0.0000</r>
       <r>   9.9792  0.0000</r>
      </set>
      <set comment="kpoint 29">
       <r>  -4.3864  1.0000</r>
       <r>  -2.1584  1.0000</r>
       <r>  -2.1584  1.0000</r>
       <r>  -2.1584  1.0000</r>
       <r>  -1.9785  1.0000</r>
       <r>  -1.9785  1.0000</r>
       <r>  -1.9785  1.0000</r>
       <r>  -0.8041  1.0000</r>
       <r>  -0.7095  1.0000</r>
       <r>  -0.7095  1.0000</r>
       <r>   0.1585  1.0000</r>
       <r>   0.1585  1.0000</r>
       <r>   0.7899  1.0000</r>
       <r>   0.7899  1.0000</r>
       <r>   0.7899  1.0000</r>
       <r>   0.8333  1.0000</r>
       <r>   0.8333  1.0000</r>
       <r>   0.8333  1.0000</r>
       <r>   1.0668  1.0000</r>
       <r>   1.0668  1.0000</r>
       <r>   1.0668  1.0000</r>
       <r>   4.1288  0.0000</r>
       <r>   4.1288  0.0000</r>
       <r>   4.1288  0.0000</r>
       <r>   7.5080  0.0000</r>
       <r>   7.5080  0.0000</r>
       <r>   7.5080  0.0000</r>
       <r>  11.4822  0.0000</r>
      </set>
      <set comment="kpoint 30">
       <r>  -4.1996  1.0000</r>
       <r>  -2.1098  1.0000</r>
       <r>  -2.0664  1.0000</r>
       <r>  -2.0664  1.0000</r>
       <r>  -1.9215  1.0000</r>
       <r>  -1.8758  1.0000</r>
       <r>  -1.8758  1.0000</r>
       <r>  -0.8588  1.0000</r>
       <r>  -0.6546  1.0000</r>
       <r>  -0.6491  1.0000</r>
       <r>   0.0907  1.0000</r>
       <r>   0.2012  1.0000</r>
       <r>   0.5081  1.0000</r>
       <r>   0.5081  1.0000</r>
       <r>   0.6631  1.0000</r>
       <r>   0.6973  1.0000</r>
       <r>   0.7136  1.0000</r>
       <r>   0.7136  1.0000</r>
       <r>   1.0046  1.0000</r>
       <r>   1.0527  1.0000</r>
       <r>   1.0527  1.0000</r>
       <r>   3.0159  0.0000</r>
       <r>   4.5168  0.0000</r>
       <r>   4.5168  0.0000</r>
       <r>   7.4448  0.0000</r>
       <r>   7.4448  0.0000</r>
       <r>   8.9281  0.0000</r>
       <r>  10.8791  0.0000</r>
      </set>
      <set comment="kpoint 31">
       <r>  -3.8957  1.0000</r>
       <r>  -2.0535  1.0000</r>
       <r>  -1.9215  1.0000</r>
       <r>  -1.9215  1.0000</r>
       <r>  -1.8301  1.0000</r>
       <r>  -1.7120  1.0000</r>
       <r>  -1.7120  1.0000</r>
       <r>  -0.9621  1.0000</r>
       <r>  -0.5535  1.0000</r>
       <r>  -0.5498  1.0000</r>
       <r>  -0.0021  1.0000</r>
       <r>   0.1101  1.0000</r>
       <r>   0.1101  1.0000</r>
       <r>   0.2694  1.0000</r>
       <r>   0.3882  1.0000</r>
       <r>   0.5488  1.0000</r>
       <r>   0.5709  1.0000</r>
       <r>   0.5709  1.0000</r>
       <r>   0.9164  1.0000</r>
       <r>   1.0417  1.0000</r>
       <r>   1.0417  1.0000</r>
       <r>   2.0073  1.0000</r>
       <r>   4.9929  0.0000</r>
       <r>   4.9929  0.0000</r>
       <r>   7.3894  0.0000</r>
       <r>   7.3894  0.0000</r>
       <r>  10.3250  0.0000</r>
       <r>  10.3253  0.0000</r>
      </set>
      <set comment="kpoint 32">
       <r>  -3.4891  1.0000</r>
       <r>  -2.0429  1.0000</r>
       <r>  -1.7349  1.0000</r>
       <r>  -1.7349  1.0000</r>
       <r>  -1.7098  1.0000</r>
       <r>  -1.5061  1.0000</r>
       <r>  -1.5061  1.0000</r>
       <r>  -1.0974  1.0000</r>
       <r>  -0.4520  1.0000</r>
       <r>  -0.4142  1.0000</r>
       <r>  -0.2977  1.0000</r>
       <r>  -0.2977  1.0000</r>
       <r>  -0.0618  1.0000</r>
       <r>   0.0308  1.0000</r>
       <r>   0.3591  1.0000</r>
       <r>   0.3605  1.0000</r>
       <r>   0.3908  1.0000</r>
       <r>   0.3908  1.0000</r>
       <r>   0.8121  1.0000</r>
       <r>   1.0354  1.0000</r>
       <r>   1.0354  1.0000</r>
       <r>   1.2165  1.0000</r>
       <r>   5.4182  0.0000</r>
       <r>   5.4182  0.0000</r>
       <r>   7.4163  0.0000</r>
       <r>   7.4163  0.0000</r>
       <r>   9.8377  0.0000</r>
       <r>   9.8377  0.0000</r>
      </set>
      <set comment="kpoint 33">
       <r>  -3.0111  1.0000</r>
       <r>  -2.1786  1.0000</r>
       <r>  -1.5679  1.0000</r>
       <r>  -1.5382  1.0000</r>
       <r>  -1.5382  1.0000</r>
       <r>  -1.2869  1.0000</r>
       <r>  -1.2869  1.0000</r>
       <r>  -1.2514  1.0000</r>
       <r>  -0.6732  1.0000</r>
       <r>  -0.6732  1.0000</r>
       <r>  -0.4396  1.0000</r>
       <r>  -0.2984  1.0000</r>
       <r>  -0.2466  1.0000</r>
       <r>   0.0356  1.0000</r>
       <r>   0.1533  1.0000</r>
       <r>   0.2228  1.0000</r>
       <r>   0.2228  1.0000</r>
       <r>   0.4647  1.0000</r>
       <r>   0.6677  1.0000</r>
       <r>   0.6979  1.0000</r>
       <r>   1.0324  1.0000</r>
       <r>   1.0324  1.0000</r>
       <r>   5.6812  0.0000</r>
       <r>   5.6812  0.0000</r>
       <r>   7.5622  0.0000</r>
       <r>   7.5622  0.0000</r>
       <r>   9.4362  0.0000</r>
       <r>   9.4362  0.0000</r>
      </set>
      <set comment="kpoint 34">
       <r>  -2.5315  1.0000</r>
       <r>  -2.5315  1.0000</r>
       <r>  -1.4387  1.0000</r>
       <r>  -1.4387  1.0000</r>
       <r>  -1.4120  1.0000</r>
       <r>  -1.4120  1.0000</r>
       <r>  -1.1081  1.0000</r>
       <r>  -1.1081  1.0000</r>
       <r>  -0.9222  1.0000</r>
       <r>  -0.9222  1.0000</r>
       <r>  -0.4439  1.0000</r>
       <r>  -0.4439  1.0000</r>
       <r>  -0.0540  1.0000</r>
       <r>  -0.0540  1.0000</r>
       <r>   0.1494  1.0000</r>
       <r>   0.1494  1.0000</r>
       <r>   0.2911  1.0000</r>
       <r>   0.2911  1.0000</r>
       <r>   0.5799  1.0000</r>
       <r>   0.5799  1.0000</r>
       <r>   1.0315  1.0000</r>
       <r>   1.0315  1.0000</r>
       <r>   5.7615  0.0000</r>
       <r>   5.7615  0.0000</r>
       <r>   7.6714  0.0000</r>
       <r>   7.6714  0.0000</r>
       <r>   9.2537  0.0000</r>
       <r>   9.2537  0.0000</r>
      </set>
      <set comment="kpoint 35">
       <r>  -4.0194  1.0000</r>
       <r>  -2.0185  1.0000</r>
       <r>  -2.0185  1.0000</r>
       <r>  -2.0140  1.0000</r>
       <r>  -1.8187  1.0000</r>
       <r>  -1.8187  1.0000</r>
       <r>  -1.7491  1.0000</r>
       <r>  -0.8789  1.0000</r>
       <r>  -0.6268  1.0000</r>
       <r>  -0.6102  1.0000</r>
       <r>   0.0833  1.0000</r>
       <r>   0.2074  1.0000</r>
       <r>   0.3094  1.0000</r>
       <r>   0.3094  1.0000</r>
       <r>   0.3357  1.0000</r>
       <r>   0.5812  1.0000</r>
       <r>   0.6379  1.0000</r>
       <r>   0.6379  1.0000</r>
       <r>   0.9986  1.0000</r>
       <r>   0.9986  1.0000</r>
       <r>   1.0090  1.0000</r>
       <r>   3.4059  0.0000</r>
       <r>   3.4059  0.0000</r>
       <r>   4.8391  0.0000</r>
       <r>   7.3024  0.0000</r>
       <r>   8.7258  0.0000</r>
       <r>   8.7258  0.0000</r>
       <r>  10.2376  0.0000</r>
      </set>
      <set comment="kpoint 36">
       <r>  -3.7267  1.0000</r>
       <r>  -1.9626  1.0000</r>
       <r>  -1.9104  1.0000</r>
       <r>  -1.8754  1.0000</r>
       <r>  -1.7274  1.0000</r>
       <r>  -1.6544  1.0000</r>
       <r>  -1.5709  1.0000</r>
       <r>  -0.9513  1.0000</r>
       <r>  -0.5496  1.0000</r>
       <r>  -0.5452  1.0000</r>
       <r>  -0.0914  1.0000</r>
       <r>   0.0212  1.0000</r>
       <r>   0.0235  1.0000</r>
       <r>   0.0335  1.0000</r>
       <r>   0.2857  1.0000</r>
       <r>   0.4577  1.0000</r>
       <r>   0.4845  1.0000</r>
       <r>   0.5377  1.0000</r>
       <r>   0.9200  1.0000</r>
       <r>   0.9681  1.0000</r>
       <r>   0.9684  1.0000</r>
       <r>   2.4133  1.0000</r>
       <r>   3.8841  0.0000</r>
       <r>   5.2259  0.0000</r>
       <r>   7.1145  0.0000</r>
       <r>   8.4186  0.0000</r>
       <r>   9.8086  0.0000</r>
       <r>   9.9216  0.0000</r>
      </set>
      <set comment="kpoint 37">
       <r>  -3.3366  1.0000</r>
       <r>  -1.9494  1.0000</r>
       <r>  -1.7552  1.0000</r>
       <r>  -1.6892  1.0000</r>
       <r>  -1.6112  1.0000</r>
       <r>  -1.4521  1.0000</r>
       <r>  -1.3754  1.0000</r>
       <r>  -1.0644  1.0000</r>
       <r>  -0.5028  1.0000</r>
       <r>  -0.4743  1.0000</r>
       <r>  -0.4270  1.0000</r>
       <r>  -0.3314  1.0000</r>
       <r>  -0.2792  1.0000</r>
       <r>   0.0049  1.0000</r>
       <r>   0.2891  1.0000</r>
       <r>   0.3130  1.0000</r>
       <r>   0.3901  1.0000</r>
       <r>   0.4038  1.0000</r>
       <r>   0.8077  1.0000</r>
       <r>   0.9397  1.0000</r>
       <r>   0.9426  1.0000</r>
       <r>   1.6142  1.0000</r>
       <r>   4.3703  0.0000</r>
       <r>   5.4918  0.0000</r>
       <r>   7.0139  0.0000</r>
       <r>   8.0697  0.0000</r>
       <r>   9.6148  0.0000</r>
       <r>  10.6453  0.0000</r>
      </set>
      <set comment="kpoint 38">
       <r>  -2.8798  1.0000</r>
       <r>  -2.0798  1.0000</r>
       <r>  -1.5574  1.0000</r>
       <r>  -1.4809  1.0000</r>
       <r>  -1.4792  1.0000</r>
       <r>  -1.2722  1.0000</r>
       <r>  -1.2265  1.0000</r>
       <r>  -1.1993  1.0000</r>
       <r>  -0.7844  1.0000</r>
       <r>  -0.6541  1.0000</r>
       <r>  -0.5344  1.0000</r>
       <r>  -0.5193  1.0000</r>
       <r>  -0.2811  1.0000</r>
       <r>   0.0846  1.0000</r>
       <r>   0.1304  1.0000</r>
       <r>   0.1789  1.0000</r>
       <r>   0.2315  1.0000</r>
       <r>   0.5494  1.0000</r>
       <r>   0.6379  1.0000</r>
       <r>   0.9252  1.0000</r>
       <r>   0.9274  1.0000</r>
       <r>   1.0509  1.0000</r>
       <r>   4.8197  0.0000</r>
       <r>   5.4646  0.0000</r>
       <r>   7.1418  0.0000</r>
       <r>   7.7321  0.0000</r>
       <r>   9.6512  0.0000</r>
       <r>  10.2637  0.0000</r>
      </set>
      <set comment="kpoint 39">
       <r>  -2.4210  1.0000</r>
       <r>  -2.4210  1.0000</r>
       <r>  -1.3773  1.0000</r>
       <r>  -1.3773  1.0000</r>
       <r>  -1.3416  1.0000</r>
       <r>  -1.3416  1.0000</r>
       <r>  -1.2173  1.0000</r>
       <r>  -1.2173  1.0000</r>
       <r>  -0.8584  1.0000</r>
       <r>  -0.8584  1.0000</r>
       <r>  -0.5836  1.0000</r>
       <r>  -0.5836  1.0000</r>
       <r>  -0.1092  1.0000</r>
       <r>  -0.1092  1.0000</r>
       <r>   0.1385  1.0000</r>
       <r>   0.1385  1.0000</r>
       <r>   0.3797  1.0000</r>
       <r>   0.3797  1.0000</r>
       <r>   0.7348  1.0000</r>
       <r>   0.7348  1.0000</r>
       <r>   0.9217  1.0000</r>
       <r>   0.9217  1.0000</r>
       <r>   5.2009  0.0000</r>
       <r>   5.2009  0.0000</r>
       <r>   7.4180  0.0000</r>
       <r>   7.4180  0.0000</r>
       <r>   9.8933  0.0000</r>
       <r>   9.8933  0.0000</r>
      </set>
      <set comment="kpoint 40">
       <r>  -3.4540  1.0000</r>
       <r>  -1.8517  1.0000</r>
       <r>  -1.8232  1.0000</r>
       <r>  -1.8232  1.0000</r>
       <r>  -1.5609  1.0000</r>
       <r>  -1.5609  1.0000</r>
       <r>  -1.3934  1.0000</r>
       <r>  -0.9681  1.0000</r>
       <r>  -0.5347  1.0000</r>
       <r>  -0.5066  1.0000</r>
       <r>  -0.3476  1.0000</r>
       <r>  -0.3476  1.0000</r>
       <r>  -0.1581  1.0000</r>
       <r>   0.0031  1.0000</r>
       <r>   0.3241  1.0000</r>
       <r>   0.3824  1.0000</r>
       <r>   0.4191  1.0000</r>
       <r>   0.4191  1.0000</r>
       <r>   0.8724  1.0000</r>
       <r>   0.8724  1.0000</r>
       <r>   0.8899  1.0000</r>
       <r>   2.8950  0.0000</r>
       <r>   2.8950  0.0000</r>
       <r>   5.4235  0.0000</r>
       <r>   6.8198  0.0000</r>
       <r>   9.2868  0.0000</r>
       <r>   9.2868  0.0000</r>
       <r>   9.6057  0.0000</r>
      </set>
      <set comment="kpoint 41">
       <r>  -3.0937  1.0000</r>
       <r>  -1.8131  1.0000</r>
       <r>  -1.7420  1.0000</r>
       <r>  -1.6455  1.0000</r>
       <r>  -1.4455  1.0000</r>
       <r>  -1.3560  1.0000</r>
       <r>  -1.2199  1.0000</r>
       <r>  -1.0293  1.0000</r>
       <r>  -0.6878  1.0000</r>
       <r>  -0.5987  1.0000</r>
       <r>  -0.5369  1.0000</r>
       <r>  -0.4218  1.0000</r>
       <r>  -0.4024  1.0000</r>
       <r>   0.0009  1.0000</r>
       <r>   0.1976  1.0000</r>
       <r>   0.2376  1.0000</r>
       <r>   0.3158  1.0000</r>
       <r>   0.5475  1.0000</r>
       <r>   0.7442  1.0000</r>
       <r>   0.8193  1.0000</r>
       <r>   0.8257  1.0000</r>
       <r>   2.0761  1.0000</r>
       <r>   3.3955  0.0000</r>
       <r>   5.2962  0.0000</r>
       <r>   6.8368  0.0000</r>
       <r>   8.6567  0.0000</r>
       <r>   9.6702  0.0000</r>
       <r>  10.0775  0.0000</r>
      </set>
      <set comment="kpoint 42">
       <r>  -2.6764  1.0000</r>
       <r>  -1.9405  1.0000</r>
       <r>  -1.5837  1.0000</r>
       <r>  -1.4439  1.0000</r>
       <r>  -1.3320  1.0000</r>
       <r>  -1.2229  1.0000</r>
       <r>  -1.1326  1.0000</r>
       <r>  -1.1219  1.0000</r>
       <r>  -0.8929  1.0000</r>
       <r>  -0.7372  1.0000</r>
       <r>  -0.6348  1.0000</r>
       <r>  -0.6052  1.0000</r>
       <r>  -0.3026  1.0000</r>
       <r>   0.0376  1.0000</r>
       <r>   0.0966  1.0000</r>
       <r>   0.1158  1.0000</r>
       <r>   0.1856  1.0000</r>
       <r>   0.5617  1.0000</r>
       <r>   0.7616  1.0000</r>
       <r>   0.7841  1.0000</r>
       <r>   0.7858  1.0000</r>
       <r>   1.4613  1.0000</r>
       <r>   3.8963  0.0000</r>
       <r>   4.8819  0.0000</r>
       <r>   7.1613  0.0000</r>
       <r>   8.0906  0.0000</r>
       <r>   9.9513  0.0000</r>
       <r>  10.8696  0.0000</r>
      </set>
      <set comment="kpoint 43">
       <r>  -2.2587  1.0000</r>
       <r>  -2.2587  1.0000</r>
       <r>  -1.3942  1.0000</r>
       <r>  -1.3942  1.0000</r>
       <r>  -1.2263  1.0000</r>
       <r>  -1.2263  1.0000</r>
       <r>  -1.2200  1.0000</r>
       <r>  -1.2200  1.0000</r>
       <r>  -0.8023  1.0000</r>
       <r>  -0.8023  1.0000</r>
       <r>  -0.7072  1.0000</r>
       <r>  -0.7072  1.0000</r>
       <r>  -0.1482  1.0000</r>
       <r>  -0.1482  1.0000</r>
       <r>   0.0872  1.0000</r>
       <r>   0.0872  1.0000</r>
       <r>   0.3310  1.0000</r>
       <r>   0.3310  1.0000</r>
       <r>   0.7725  1.0000</r>
       <r>   0.7725  1.0000</r>
       <r>   1.0447  1.0000</r>
       <r>   1.0447  1.0000</r>
       <r>   4.3940  0.0000</r>
       <r>   4.3940  0.0000</r>
       <r>   7.5949  0.0000</r>
       <r>   7.5949  0.0000</r>
       <r>  10.4053  0.0000</r>
       <r>  10.4053  0.0000</r>
      </set>
      <set comment="kpoint 44">
       <r>  -2.7796  1.0000</r>
       <r>  -1.6909  1.0000</r>
       <r>  -1.6563  1.0000</r>
       <r>  -1.6563  1.0000</r>
       <r>  -1.2278  1.0000</r>
       <r>  -1.2278  1.0000</r>
       <r>  -1.0817  1.0000</r>
       <r>  -1.0179  1.0000</r>
       <r>  -0.8690  1.0000</r>
       <r>  -0.8690  1.0000</r>
       <r>  -0.5591  1.0000</r>
       <r>  -0.5112  1.0000</r>
       <r>  -0.3914  1.0000</r>
       <r>  -0.0125  1.0000</r>
       <r>   0.0753  1.0000</r>
       <r>   0.1655  1.0000</r>
       <r>   0.1655  1.0000</r>
       <r>   0.6709  1.0000</r>
       <r>   0.6709  1.0000</r>
       <r>   0.7202  1.0000</r>
       <r>   0.7703  1.0000</r>
       <r>   2.5591  1.0000</r>
       <r>   2.5591  1.0000</r>
       <r>   4.7657  0.0000</r>
       <r>   7.0655  0.0000</r>
       <r>   9.2805  0.0000</r>
       <r>   9.2805  0.0000</r>
       <r>   9.9334  0.0000</r>
      </set>
      <set comment="kpoint 45">
       <r>  -2.4250  1.0000</r>
       <r>  -1.7964  1.0000</r>
       <r>  -1.6049  1.0000</r>
       <r>  -1.5198  1.0000</r>
       <r>  -1.1280  1.0000</r>
       <r>  -1.1065  1.0000</r>
       <r>  -1.0408  1.0000</r>
       <r>  -1.0396  1.0000</r>
       <r>  -0.9368  1.0000</r>
       <r>  -0.8999  1.0000</r>
       <r>  -0.6313  1.0000</r>
       <r>  -0.6193  1.0000</r>
       <r>  -0.3212  1.0000</r>
       <r>  -0.0187  1.0000</r>
       <r>  -0.0163  1.0000</r>
       <r>   0.0682  1.0000</r>
       <r>   0.0731  1.0000</r>
       <r>   0.4813  1.0000</r>
       <r>   0.6187  1.0000</r>
       <r>   0.6421  1.0000</r>
       <r>   1.0513  1.0000</r>
       <r>   1.8977  1.0000</r>
       <r>   3.0600  0.0000</r>
       <r>   4.1615  0.0000</r>
       <r>   7.4797  0.0000</r>
       <r>   8.5837  0.0000</r>
       <r>   9.9725  0.0000</r>
       <r>  10.3665  0.0000</r>
      </set>
      <set comment="kpoint 46">
       <r>  -2.0760  1.0000</r>
       <r>  -2.0760  1.0000</r>
       <r>  -1.5107  1.0000</r>
       <r>  -1.5107  1.0000</r>
       <r>  -1.1083  1.0000</r>
       <r>  -1.1083  1.0000</r>
       <r>  -1.0824  1.0000</r>
       <r>  -1.0824  1.0000</r>
       <r>  -0.7707  1.0000</r>
       <r>  -0.7707  1.0000</r>
       <r>  -0.7451  1.0000</r>
       <r>  -0.7451  1.0000</r>
       <r>  -0.1920  1.0000</r>
       <r>  -0.1920  1.0000</r>
       <r>  -0.0176  1.0000</r>
       <r>  -0.0176  1.0000</r>
       <r>   0.2622  1.0000</r>
       <r>   0.2622  1.0000</r>
       <r>   0.6069  1.0000</r>
       <r>   0.6069  1.0000</r>
       <r>   1.4102  1.0000</r>
       <r>   1.4102  1.0000</r>
       <r>   3.5896  0.0000</r>
       <r>   3.5896  0.0000</r>
       <r>   7.9874  0.0000</r>
       <r>   7.9874  0.0000</r>
       <r>  10.7373  0.0000</r>
       <r>  10.7373  0.0000</r>
      </set>
      <set comment="kpoint 47">
       <r>  -2.1578  1.0000</r>
       <r>  -1.6864  1.0000</r>
       <r>  -1.6864  1.0000</r>
       <r>  -1.6168  1.0000</r>
       <r>  -1.0083  1.0000</r>
       <r>  -1.0083  1.0000</r>
       <r>  -0.9987  1.0000</r>
       <r>  -0.9886  1.0000</r>
       <r>  -0.8713  1.0000</r>
       <r>  -0.8713  1.0000</r>
       <r>  -0.6435  1.0000</r>
       <r>  -0.6106  1.0000</r>
       <r>  -0.3253  1.0000</r>
       <r>  -0.1243  1.0000</r>
       <r>  -0.0924  1.0000</r>
       <r>  -0.0924  1.0000</r>
       <r>   0.1014  1.0000</r>
       <r>   0.4296  1.0000</r>
       <r>   0.4296  1.0000</r>
       <r>   0.5162  1.0000</r>
       <r>   1.3981  1.0000</r>
       <r>   2.3662  1.0000</r>
       <r>   2.3662  1.0000</r>
       <r>   3.4814  0.0000</r>
       <r>   7.9430  0.0000</r>
       <r>   9.1863  0.0000</r>
       <r>   9.1863  0.0000</r>
       <r>  10.6837  0.0000</r>
      </set>
      <set comment="kpoint 48">
       <r>  -1.9050  1.0000</r>
       <r>  -1.9050  1.0000</r>
       <r>  -1.6329  1.0000</r>
       <r>  -1.6329  1.0000</r>
       <r>  -1.0111  1.0000</r>
       <r>  -1.0111  1.0000</r>
       <r>  -0.9802  1.0000</r>
       <r>  -0.9802  1.0000</r>
       <r>  -0.7312  1.0000</r>
       <r>  -0.7312  1.0000</r>
       <r>  -0.6818  1.0000</r>
       <r>  -0.6818  1.0000</r>
       <r>  -0.2449  1.0000</r>
       <r>  -0.2449  1.0000</r>
       <r>  -0.1536  1.0000</r>
       <r>  -0.1536  1.0000</r>
       <r>   0.2369  1.0000</r>
       <r>   0.2369  1.0000</r>
       <r>   0.4383  1.0000</r>
       <r>   0.4383  1.0000</r>
       <r>   1.8226  1.0000</r>
       <r>   1.8226  1.0000</r>
       <r>   2.8860  0.0000</r>
       <r>   2.8860  0.0000</r>
       <r>   8.5119  0.0000</r>
       <r>   8.5119  0.0000</r>
       <r>   9.8875  0.0000</r>
       <r>   9.8875  0.0000</r>
      </set>
      <set comment="kpoint 49">
       <r>  -1.7599  1.0000</r>
       <r>  -1.7599  1.0000</r>
       <r>  -1.7599  1.0000</r>
       <r>  -1.7599  1.0000</r>
       <r>  -0.9664  1.0000</r>
       <r>  -0.9664  1.0000</r>
       <r>  -0.9664  1.0000</r>
       <r>  -0.9664  1.0000</r>
       <r>  -0.6546  1.0000</r>
       <r>  -0.6546  1.0000</r>
       <r>  -0.6546  1.0000</r>
       <r>  -0.6546  1.0000</r>
       <r>  -0.2550  1.0000</r>
       <r>  -0.2550  1.0000</r>
       <r>  -0.2550  1.0000</r>
       <r>  -0.2550  1.0000</r>
       <r>   0.2989  1.0000</r>
       <r>   0.2989  1.0000</r>
       <r>   0.2989  1.0000</r>
       <r>   0.2989  1.0000</r>
       <r>   2.3036  1.0000</r>
       <r>   2.3036  1.0000</r>
       <r>   2.3036  1.0000</r>
       <r>   2.3036  1.0000</r>
       <r>   9.1462  0.0000</r>
       <r>   9.1462  0.0000</r>
       <r>   9.1462  0.0000</r>
       <r>   9.1462  0.0000</r>
      </set>
      <set comment="kpoint 50">
       <r>  -3.8485  1.0000</r>
       <r>  -1.9753  1.0000</r>
       <r>  -1.9753  1.0000</r>
       <r>  -1.9753  1.0000</r>
       <r>  -1.6862  1.0000</r>
       <r>  -1.6862  1.0000</r>
       <r>  -1.6862  1.0000</r>
       <r>  -0.8739  1.0000</r>
       <r>  -0.6027  1.0000</r>
       <r>  -0.6027  1.0000</r>
       <r>   0.1521  1.0000</r>
       <r>   0.1521  1.0000</r>
       <r>   0.1521  1.0000</r>
       <r>   0.1562  1.0000</r>
       <r>   0.1562  1.0000</r>
       <r>   0.4504  1.0000</r>
       <r>   0.4504  1.0000</r>
       <r>   0.4504  1.0000</r>
       <r>   1.0125  1.0000</r>
       <r>   1.0125  1.0000</r>
       <r>   1.0125  1.0000</r>
       <r>   3.7281  0.0000</r>
       <r>   3.7281  0.0000</r>
       <r>   3.7281  0.0000</r>
       <r>   8.3173  0.0000</r>
       <r>   8.3173  0.0000</r>
       <r>   8.3173  0.0000</r>
       <r>  11.0006  0.0000</r>
      </set>
      <set comment="kpoint 51">
       <r>  -3.5725  1.0000</r>
       <r>  -1.9342  1.0000</r>
       <r>  -1.8830  1.0000</r>
       <r>  -1.8830  1.0000</r>
       <r>  -1.5854  1.0000</r>
       <r>  -1.5051  1.0000</r>
       <r>  -1.5051  1.0000</r>
       <r>  -0.9112  1.0000</r>
       <r>  -0.5605  1.0000</r>
       <r>  -0.5557  1.0000</r>
       <r>  -0.1502  1.0000</r>
       <r>  -0.1502  1.0000</r>
       <r>  -0.1178  1.0000</r>
       <r>   0.1037  1.0000</r>
       <r>   0.2657  1.0000</r>
       <r>   0.2816  1.0000</r>
       <r>   0.3442  1.0000</r>
       <r>   0.3442  1.0000</r>
       <r>   0.9789  1.0000</r>
       <r>   0.9789  1.0000</r>
       <r>   0.9837  1.0000</r>
       <r>   2.7227  1.0000</r>
       <r>   4.1515  0.0000</r>
       <r>   4.1515  0.0000</r>
       <r>   7.7560  0.0000</r>
       <r>   7.7560  0.0000</r>
       <r>   9.1852  0.0000</r>
       <r>  10.8654  0.0000</r>
      </set>
      <set comment="kpoint 52">
       <r>  -3.2081  1.0000</r>
       <r>  -1.9354  1.0000</r>
       <r>  -1.7413  1.0000</r>
       <r>  -1.7413  1.0000</r>
       <r>  -1.4592  1.0000</r>
       <r>  -1.3181  1.0000</r>
       <r>  -1.3181  1.0000</r>
       <r>  -0.9933  1.0000</r>
       <r>  -0.5308  1.0000</r>
       <r>  -0.4803  1.0000</r>
       <r>  -0.4614  1.0000</r>
       <r>  -0.4614  1.0000</r>
       <r>  -0.4112  1.0000</r>
       <r>   0.0999  1.0000</r>
       <r>   0.1275  1.0000</r>
       <r>   0.2384  1.0000</r>
       <r>   0.2384  1.0000</r>
       <r>   0.3991  1.0000</r>
       <r>   0.9160  1.0000</r>
       <r>   0.9306  1.0000</r>
       <r>   0.9306  1.0000</r>
       <r>   1.8695  1.0000</r>
       <r>   4.5975  0.0000</r>
       <r>   4.5975  0.0000</r>
       <r>   7.1841  0.0000</r>
       <r>   7.1841  0.0000</r>
       <r>   9.9900  0.0000</r>
       <r>  10.8858  0.0000</r>
      </set>
      <set comment="kpoint 53">
       <r>  -2.7870  1.0000</r>
       <r>  -2.0623  1.0000</r>
       <r>  -1.5589  1.0000</r>
       <r>  -1.5589  1.0000</r>
       <r>  -1.3298  1.0000</r>
       <r>  -1.2274  1.0000</r>
       <r>  -1.2274  1.0000</r>
       <r>  -1.0985  1.0000</r>
       <r>  -0.6694  1.0000</r>
       <r>  -0.6694  1.0000</r>
       <r>  -0.6154  1.0000</r>
       <r>  -0.5787  1.0000</r>
       <r>  -0.3742  1.0000</r>
       <r>  -0.0776  1.0000</r>
       <r>   0.1242  1.0000</r>
       <r>   0.1242  1.0000</r>
       <r>   0.3163  1.0000</r>
       <r>   0.5433  1.0000</r>
       <r>   0.8136  1.0000</r>
       <r>   0.8936  1.0000</r>
       <r>   0.8936  1.0000</r>
       <r>   1.1876  1.0000</r>
       <r>   4.9898  0.0000</r>
       <r>   4.9898  0.0000</r>
       <r>   6.7126  0.0000</r>
       <r>   6.7126  0.0000</r>
       <r>  10.8017  0.0000</r>
       <r>  10.9709  0.0000</r>
      </set>
      <set comment="kpoint 54">
       <r>  -2.3707  1.0000</r>
       <r>  -2.3707  1.0000</r>
       <r>  -1.3968  1.0000</r>
       <r>  -1.3968  1.0000</r>
       <r>  -1.3075  1.0000</r>
       <r>  -1.3075  1.0000</r>
       <r>  -1.2113  1.0000</r>
       <r>  -1.2113  1.0000</r>
       <r>  -0.7100  1.0000</r>
       <r>  -0.7100  1.0000</r>
       <r>  -0.6475  1.0000</r>
       <r>  -0.6475  1.0000</r>
       <r>  -0.2383  1.0000</r>
       <r>  -0.2383  1.0000</r>
       <r>   0.0668  1.0000</r>
       <r>   0.0668  1.0000</r>
       <r>   0.6732  1.0000</r>
       <r>   0.6732  1.0000</r>
       <r>   0.6855  1.0000</r>
       <r>   0.6855  1.0000</r>
       <r>   0.8804  1.0000</r>
       <r>   0.8804  1.0000</r>
       <r>   5.1739  0.0000</r>
       <r>   5.1739  0.0000</r>
       <r>   6.5024  0.0000</r>
       <r>   6.5024  0.0000</r>
       <r>  11.0196  0.0000</r>
       <r>  11.0196  0.0000</r>
      </set>
      <set comment="kpoint 55">
       <r>  -3.3264  1.0000</r>
       <r>  -1.8629  1.0000</r>
       <r>  -1.8629  1.0000</r>
       <r>  -1.8460  1.0000</r>
       <r>  -1.3963  1.0000</r>
       <r>  -1.3963  1.0000</r>
       <r>  -1.3296  1.0000</r>
       <r>  -0.8810  1.0000</r>
       <r>  -0.5549  1.0000</r>
       <r>  -0.5513  1.0000</r>
       <r>  -0.3784  1.0000</r>
       <r>  -0.3784  1.0000</r>
       <r>  -0.2815  1.0000</r>
       <r>   0.1338  1.0000</r>
       <r>   0.1764  1.0000</r>
       <r>   0.1818  1.0000</r>
       <r>   0.1818  1.0000</r>
       <r>   0.3388  1.0000</r>
       <r>   0.9475  1.0000</r>
       <r>   0.9641  1.0000</r>
       <r>   0.9641  1.0000</r>
       <r>   3.1427  0.0000</r>
       <r>   3.1427  0.0000</r>
       <r>   4.5186  0.0000</r>
       <r>   6.9920  0.0000</r>
       <r>   8.3673  0.0000</r>
       <r>   8.3673  0.0000</r>
       <r>  10.9365  0.0000</r>
      </set>
      <set comment="kpoint 56">
       <r>  -3.0072  1.0000</r>
       <r>  -1.8916  1.0000</r>
       <r>  -1.7650  1.0000</r>
       <r>  -1.7521  1.0000</r>
       <r>  -1.2540  1.0000</r>
       <r>  -1.2162  1.0000</r>
       <r>  -1.1815  1.0000</r>
       <r>  -0.8951  1.0000</r>
       <r>  -0.6117  1.0000</r>
       <r>  -0.6036  1.0000</r>
       <r>  -0.5565  1.0000</r>
       <r>  -0.5105  1.0000</r>
       <r>  -0.4481  1.0000</r>
       <r>   0.0019  1.0000</r>
       <r>   0.0634  1.0000</r>
       <r>   0.1048  1.0000</r>
       <r>   0.1737  1.0000</r>
       <r>   0.5013  1.0000</r>
       <r>   0.8904  1.0000</r>
       <r>   0.9052  1.0000</r>
       <r>   0.9052  1.0000</r>
       <r>   2.2570  1.0000</r>
       <r>   3.6154  0.0000</r>
       <r>   4.8914  0.0000</r>
       <r>   6.3169  0.0000</r>
       <r>   7.5961  0.0000</r>
       <r>   9.0359  0.0000</r>
       <r>  11.1409  0.0000</r>
      </set>
      <set comment="kpoint 57">
       <r>  -2.6468  1.0000</r>
       <r>  -2.0279  1.0000</r>
       <r>  -1.6531  1.0000</r>
       <r>  -1.6250  1.0000</r>
       <r>  -1.1746  1.0000</r>
       <r>  -1.1525  1.0000</r>
       <r>  -1.1068  1.0000</r>
       <r>  -0.9426  1.0000</r>
       <r>  -0.7415  1.0000</r>
       <r>  -0.6629  1.0000</r>
       <r>  -0.6220  1.0000</r>
       <r>  -0.5345  1.0000</r>
       <r>  -0.4330  1.0000</r>
       <r>  -0.1702  1.0000</r>
       <r>  -0.0227  1.0000</r>
       <r>   0.0183  1.0000</r>
       <r>   0.3480  1.0000</r>
       <r>   0.7068  1.0000</r>
       <r>   0.7908  1.0000</r>
       <r>   0.8380  1.0000</r>
       <r>   0.8464  1.0000</r>
       <r>   1.5333  1.0000</r>
       <r>   4.1136  0.0000</r>
       <r>   4.9985  0.0000</r>
       <r>   6.0275  0.0000</r>
       <r>   6.9156  0.0000</r>
       <r>   9.7762  0.0000</r>
       <r>  11.4468  0.0000</r>
      </set>
      <set comment="kpoint 58">
       <r>  -2.2968  1.0000</r>
       <r>  -2.2968  1.0000</r>
       <r>  -1.5679  1.0000</r>
       <r>  -1.5679  1.0000</r>
       <r>  -1.2087  1.0000</r>
       <r>  -1.2087  1.0000</r>
       <r>  -1.0045  1.0000</r>
       <r>  -1.0045  1.0000</r>
       <r>  -0.7246  1.0000</r>
       <r>  -0.7246  1.0000</r>
       <r>  -0.5756  1.0000</r>
       <r>  -0.5756  1.0000</r>
       <r>  -0.3182  1.0000</r>
       <r>  -0.3182  1.0000</r>
       <r>  -0.0472  1.0000</r>
       <r>  -0.0472  1.0000</r>
       <r>   0.6010  1.0000</r>
       <r>   0.6010  1.0000</r>
       <r>   0.8196  1.0000</r>
       <r>   0.8196  1.0000</r>
       <r>   1.0136  1.0000</r>
       <r>   1.0136  1.0000</r>
       <r>   4.6157  0.0000</r>
       <r>   4.6157  0.0000</r>
       <r>   6.3511  0.0000</r>
       <r>   6.3511  0.0000</r>
       <r>  10.5820  0.0000</r>
       <r>  10.5820  0.0000</r>
      </set>
      <set comment="kpoint 59">
       <r>  -2.7542  1.0000</r>
       <r>  -1.8246  1.0000</r>
       <r>  -1.8246  1.0000</r>
       <r>  -1.7604  1.0000</r>
       <r>  -1.0879  1.0000</r>
       <r>  -1.0727  1.0000</r>
       <r>  -1.0727  1.0000</r>
       <r>  -0.8185  1.0000</r>
       <r>  -0.7310  1.0000</r>
       <r>  -0.7310  1.0000</r>
       <r>  -0.5568  1.0000</r>
       <r>  -0.5173  1.0000</r>
       <r>  -0.4324  1.0000</r>
       <r>  -0.0792  1.0000</r>
       <r>  -0.0606  1.0000</r>
       <r>  -0.0606  1.0000</r>
       <r>   0.1833  1.0000</r>
       <r>   0.7147  1.0000</r>
       <r>   0.8243  1.0000</r>
       <r>   0.8388  1.0000</r>
       <r>   0.8388  1.0000</r>
       <r>   2.7132  1.0000</r>
       <r>   2.7132  1.0000</r>
       <r>   4.9320  0.0000</r>
       <r>   5.8631  0.0000</r>
       <r>   8.1611  0.0000</r>
       <r>   8.1611  0.0000</r>
       <r>  11.3793  0.0000</r>
      </set>
      <set comment="kpoint 60">
       <r>  -2.4768  1.0000</r>
       <r>  -1.9799  1.0000</r>
       <r>  -1.7581  1.0000</r>
       <r>  -1.7387  1.0000</r>
       <r>  -1.0741  1.0000</r>
       <r>  -1.0684  1.0000</r>
       <r>  -0.9073  1.0000</r>
       <r>  -0.8016  1.0000</r>
       <r>  -0.7872  1.0000</r>
       <r>  -0.6248  1.0000</r>
       <r>  -0.5994  1.0000</r>
       <r>  -0.4688  1.0000</r>
       <r>  -0.4071  1.0000</r>
       <r>  -0.2258  1.0000</r>
       <r>  -0.1696  1.0000</r>
       <r>  -0.1210  1.0000</r>
       <r>   0.2971  1.0000</r>
       <r>   0.7092  1.0000</r>
       <r>   0.7566  1.0000</r>
       <r>   0.7655  1.0000</r>
       <r>   0.9968  1.0000</r>
       <r>   1.9578  1.0000</r>
       <r>   3.2180  0.0000</r>
       <r>   4.3898  0.0000</r>
       <r>   6.1676  0.0000</r>
       <r>   7.3878  0.0000</r>
       <r>   8.8384  0.0000</r>
       <r>  10.4526  0.0000</r>
      </set>
      <set comment="kpoint 61">
       <r>  -2.2075  1.0000</r>
       <r>  -2.2075  1.0000</r>
       <r>  -1.7271  1.0000</r>
       <r>  -1.7271  1.0000</r>
       <r>  -1.0931  1.0000</r>
       <r>  -1.0931  1.0000</r>
       <r>  -0.8157  1.0000</r>
       <r>  -0.8157  1.0000</r>
       <r>  -0.7204  1.0000</r>
       <r>  -0.7204  1.0000</r>
       <r>  -0.4592  1.0000</r>
       <r>  -0.4592  1.0000</r>
       <r>  -0.3669  1.0000</r>
       <r>  -0.3669  1.0000</r>
       <r>  -0.1780  1.0000</r>
       <r>  -0.1780  1.0000</r>
       <r>   0.5103  1.0000</r>
       <r>   0.5103  1.0000</r>
       <r>   0.7297  1.0000</r>
       <r>   0.7297  1.0000</r>
       <r>   1.3888  1.0000</r>
[...]
       <r>   2.3459  1.0000</r>
       <r>   2.3459  1.0000</r>
       <r>   2.3459  1.0000</r>
       <r>   7.9490  0.0000</r>
       <r>   7.9490  0.0000</r>
       <r>   7.9490  0.0000</r>
       <r>   7.9490  0.0000</r>
      </set>
      <set comment="kpoint 65">
       <r>  -3.1265  1.0000</r>
       <r>  -1.8643  1.0000</r>
       <r>  -1.8643  1.0000</r>
       <r>  -1.8643  1.0000</r>
       <r>  -1.2213  1.0000</r>
       <r>  -1.2213  1.0000</r>
       <r>  -1.2213  1.0000</r>
       <r>  -0.7613  1.0000</r>
       <r>  -0.5783  1.0000</r>
       <r>  -0.5783  1.0000</r>
       <r>  -0.4417  1.0000</r>
       <r>  -0.4417  1.0000</r>
       <r>  -0.4417  1.0000</r>
       <r>   0.0030  1.0000</r>
       <r>   0.0030  1.0000</r>
       <r>   0.0030  1.0000</r>
       <r>   0.2983  1.0000</r>
       <r>   0.2983  1.0000</r>
       <r>   0.9773  1.0000</r>
       <r>   0.9773  1.0000</r>
       <r>   0.9773  1.0000</r>
       <r>   3.5089  0.0000</r>
       <r>   3.5089  0.0000</r>
       <r>   3.5089  0.0000</r>
       <r>   7.4245  0.0000</r>
       <r>   7.4245  0.0000</r>
       <r>   7.4245  0.0000</r>
       <r>  12.2898  0.0000</r>
      </set>
      <set comment="kpoint 66">
       <r>  -2.8735  1.0000</r>
       <r>  -1.9392  1.0000</r>
       <r>  -1.8332  1.0000</r>
       <r>  -1.8332  1.0000</r>
       <r>  -1.1066  1.0000</r>
       <r>  -1.1066  1.0000</r>
       <r>  -1.0738  1.0000</r>
       <r>  -0.6946  1.0000</r>
       <r>  -0.5871  1.0000</r>
       <r>  -0.5740  1.0000</r>
       <r>  -0.5716  1.0000</r>
       <r>  -0.4847  1.0000</r>
       <r>  -0.4847  1.0000</r>
       <r>  -0.1675  1.0000</r>
       <r>  -0.0975  1.0000</r>
       <r>  -0.0975  1.0000</r>
       <r>   0.3422  1.0000</r>
       <r>   0.4724  1.0000</r>
       <r>   0.9352  1.0000</r>
       <r>   0.9352  1.0000</r>
       <r>   0.9607  1.0000</r>
       <r>   2.5652  1.0000</r>
       <r>   3.9549  0.0000</r>
       <r>   3.9549  0.0000</r>
       <r>   6.5581  0.0000</r>
       <r>   6.5581  0.0000</r>
       <r>   8.0140  0.0000</r>
       <r>  11.2933  0.0000</r>
      </set>
      <set comment="kpoint 67">
       <r>  -2.5945  1.0000</r>
       <r>  -2.0938  1.0000</r>
       <r>  -1.7888  1.0000</r>
       <r>  -1.7888  1.0000</r>
       <r>  -1.1064  1.0000</r>
       <r>  -1.1064  1.0000</r>
       <r>  -0.9040  1.0000</r>
       <r>  -0.7091  1.0000</r>
       <r>  -0.6768  1.0000</r>
       <r>  -0.5996  1.0000</r>
       <r>  -0.5258  1.0000</r>
       <r>  -0.4241  1.0000</r>
       <r>  -0.4241  1.0000</r>
       <r>  -0.3188  1.0000</r>
       <r>  -0.1642  1.0000</r>
       <r>  -0.1642  1.0000</r>
       <r>   0.5923  1.0000</r>
       <r>   0.6392  1.0000</r>
       <r>   0.8761  1.0000</r>
       <r>   0.8761  1.0000</r>
       <r>   0.8946  1.0000</r>
       <r>   1.7430  1.0000</r>
       <r>   4.4544  0.0000</r>
       <r>   4.4544  0.0000</r>
       <r>   5.8043  0.0000</r>
       <r>   5.8043  0.0000</r>
       <r>   8.7150  0.0000</r>
       <r>  10.3636  0.0000</r>
      </set>
      <set comment="kpoint 68">
       <r>  -2.3224  1.0000</r>
       <r>  -2.3224  1.0000</r>
       <r>  -1.7661  1.0000</r>
       <r>  -1.7661  1.0000</r>
       <r>  -1.1300  1.0000</r>
       <r>  -1.1300  1.0000</r>
       <r>  -0.7520  1.0000</r>
       <r>  -0.7520  1.0000</r>
       <r>  -0.6901  1.0000</r>
       <r>  -0.6901  1.0000</r>
       <r>  -0.4405  1.0000</r>
       <r>  -0.4405  1.0000</r>
       <r>  -0.3562  1.0000</r>
       <r>  -0.3562  1.0000</r>
       <r>  -0.2089  1.0000</r>
       <r>  -0.2089  1.0000</r>
       <r>   0.7841  1.0000</r>
       <r>   0.7841  1.0000</r>
       <r>   0.8478  1.0000</r>
       <r>   0.8478  1.0000</r>
       <r>   1.0740  1.0000</r>
       <r>   1.0740  1.0000</r>
       <r>   4.8528  0.0000</r>
       <r>   4.8528  0.0000</r>
       <r>   5.3207  0.0000</r>
       <r>   5.3207  0.0000</r>
       <r>   9.5025  0.0000</r>
       <r>   9.5025  0.0000</r>
      </set>
      <set comment="kpoint 69">
       <r>  -2.7056  1.0000</r>
       <r>  -1.9580  1.0000</r>
       <r>  -1.9580  1.0000</r>
       <r>  -1.8886  1.0000</r>
       <r>  -1.0477  1.0000</r>
       <r>  -0.9999  1.0000</r>
       <r>  -0.9999  1.0000</r>
       <r>  -0.6431  1.0000</r>
       <r>  -0.6082  1.0000</r>
       <r>  -0.4864  1.0000</r>
       <r>  -0.4864  1.0000</r>
       <r>  -0.4127  1.0000</r>
       <r>  -0.3275  1.0000</r>
       <r>  -0.2530  1.0000</r>
       <r>  -0.2530  1.0000</r>
       <r>  -0.2484  1.0000</r>
       <r>   0.3841  1.0000</r>
       <r>   0.6326  1.0000</r>
       <r>   0.9098  1.0000</r>
       <r>   0.9336  1.0000</r>
       <r>   0.9336  1.0000</r>
       <r>   2.9781  0.0000</r>
       <r>   2.9781  0.0000</r>
       <r>   4.3904  0.0000</r>
       <r>   5.6162  0.0000</r>
       <r>   7.0807  0.0000</r>
       <r>   7.0807  0.0000</r>
       <r>  10.2862  0.0000</r>
      </set>
      <set comment="kpoint 70">
       <r>  -2.5167  1.0000</r>
       <r>  -2.1269  1.0000</r>
       <r>  -1.9568  1.0000</r>
       <r>  -1.9232  1.0000</r>
       <r>  -1.0334  1.0000</r>
       <r>  -1.0140  1.0000</r>
       <r>  -0.8834  1.0000</r>
       <r>  -0.6985  1.0000</r>
       <r>  -0.5901  1.0000</r>
       <r>  -0.4691  1.0000</r>
       <r>  -0.3849  1.0000</r>
       <r>  -0.3601  1.0000</r>
       <r>  -0.3357  1.0000</r>
       <r>  -0.2934  1.0000</r>
       <r>  -0.2256  1.0000</r>
       <r>  -0.1885  1.0000</r>
       <r>   0.5288  1.0000</r>
       <r>   0.8563  1.0000</r>
       <r>   0.8702  1.0000</r>
       <r>   0.8724  1.0000</r>
       <r>   0.9096  1.0000</r>
       <r>   2.1033  1.0000</r>
       <r>   3.4799  0.0000</r>
       <r>   4.7540  0.0000</r>
       <r>   4.9511  0.0000</r>
       <r>   6.2552  0.0000</r>
       <r>   7.7429  0.0000</r>
       <r>   9.3560  0.0000</r>
      </set>
      <set comment="kpoint 71">
       <r>  -2.3192  1.0000</r>
       <r>  -2.3192  1.0000</r>
       <r>  -1.9443  1.0000</r>
       <r>  -1.9443  1.0000</r>
       <r>  -1.0313  1.0000</r>
       <r>  -1.0313  1.0000</r>
       <r>  -0.7800  1.0000</r>
       <r>  -0.7800  1.0000</r>
       <r>  -0.5296  1.0000</r>
       <r>  -0.5296  1.0000</r>
       <r>  -0.3670  1.0000</r>
       <r>  -0.3670  1.0000</r>
       <r>  -0.3278  1.0000</r>
       <r>  -0.3278  1.0000</r>
       <r>  -0.1493  1.0000</r>
       <r>  -0.1493  1.0000</r>
       <r>   0.7394  1.0000</r>
       <r>   0.7394  1.0000</r>
       <r>   0.8309  1.0000</r>
       <r>   0.8309  1.0000</r>
       <r>   1.3895  1.0000</r>
       <r>   1.3895  1.0000</r>
       <r>   4.0751  0.0000</r>
       <r>   4.0751  0.0000</r>
       <r>   5.5398  0.0000</r>
       <r>   5.5398  0.0000</r>
       <r>   8.5063  0.0000</r>
       <r>   8.5063  0.0000</r>
      </set>
      <set comment="kpoint 72">
       <r>  -2.4119  1.0000</r>
       <r>  -2.1262  1.0000</r>
       <r>  -2.1262  1.0000</r>
       <r>  -2.0245  1.0000</r>
       <r>  -0.9725  1.0000</r>
       <r>  -0.9071  1.0000</r>
       <r>  -0.9071  1.0000</r>
       <r>  -0.7334  1.0000</r>
       <r>  -0.6141  1.0000</r>
       <r>  -0.4849  1.0000</r>
       <r>  -0.4849  1.0000</r>
       <r>  -0.4430  1.0000</r>
       <r>  -0.1229  1.0000</r>
       <r>  -0.1229  1.0000</r>
       <r>  -0.0299  1.0000</r>
       <r>  -0.0192  1.0000</r>
       <r>   0.5117  1.0000</r>
       <r>   0.7970  1.0000</r>
       <r>   0.7990  1.0000</r>
       <r>   0.7990  1.0000</r>
       <r>   1.2912  1.0000</r>
       <r>   2.5817  1.0000</r>
       <r>   2.5817  1.0000</r>
       <r>   3.9145  0.0000</r>
       <r>   5.4672  0.0000</r>
       <r>   6.8762  0.0000</r>
       <r>   6.8762  0.0000</r>
       <r>   8.4359  0.0000</r>
      </set>
      <set comment="kpoint 73">
       <r>  -2.2807  1.0000</r>
       <r>  -2.2807  1.0000</r>
       <r>  -2.0921  1.0000</r>
       <r>  -2.0921  1.0000</r>
       <r>  -0.9332  1.0000</r>
       <r>  -0.9332  1.0000</r>
       <r>  -0.8078  1.0000</r>
       <r>  -0.8078  1.0000</r>
       <r>  -0.5735  1.0000</r>
       <r>  -0.5735  1.0000</r>
       <r>  -0.4912  1.0000</r>
       <r>  -0.4912  1.0000</r>
       <r>  -0.0155  1.0000</r>
       <r>  -0.0155  1.0000</r>
       <r>   0.0249  1.0000</r>
       <r>   0.0249  1.0000</r>
       <r>   0.6545  1.0000</r>
       <r>   0.6545  1.0000</r>
       <r>   0.7568  1.0000</r>
       <r>   0.7568  1.0000</r>
       <r>   1.8392  1.0000</r>
       <r>   1.8392  1.0000</r>
       <r>   3.1807  0.0000</r>
       <r>   3.1807  0.0000</r>
       <r>   6.1184  0.0000</r>
       <r>   6.1184  0.0000</r>
       <r>   7.6077  0.0000</r>
       <r>   7.6077  0.0000</r>
      </set>
      <set comment="kpoint 74">
       <r>  -2.2049  1.0000</r>
       <r>  -2.2049  1.0000</r>
       <r>  -2.2049  1.0000</r>
       <r>  -2.2049  1.0000</r>
       <r>  -0.8544  1.0000</r>
       <r>  -0.8544  1.0000</r>
       <r>  -0.8544  1.0000</r>
       <r>  -0.8544  1.0000</r>
       <r>  -0.5648  1.0000</r>
       <r>  -0.5648  1.0000</r>
       <r>  -0.5648  1.0000</r>
       <r>  -0.5648  1.0000</r>
       <r>   0.1134  1.0000</r>
       <r>   0.1134  1.0000</r>
       <r>   0.1134  1.0000</r>
       <r>   0.1134  1.0000</r>
       <r>   0.6573  1.0000</r>
       <r>   0.6573  1.0000</r>
       <r>   0.6573  1.0000</r>
       <r>   0.6573  1.0000</r>
       <r>   2.4298  1.0000</r>
       <r>   2.4298  1.0000</r>
       <r>   2.4298  1.0000</r>
       <r>   2.4298  1.0000</r>
       <r>   6.8110  0.0000</r>
       <r>   6.8110  0.0000</r>
       <r>   6.8110  0.0000</r>
       <r>   6.8110  0.0000</r>
      </set>
      <set comment="kpoint 75">
       <r>  -2.6292  1.0000</r>
       <r>  -2.0534  1.0000</r>
       <r>  -2.0534  1.0000</r>
       <r>  -2.0534  1.0000</r>
       <r>  -0.9672  1.0000</r>
       <r>  -0.9672  1.0000</r>
       <r>  -0.9672  1.0000</r>
       <r>  -0.6563  1.0000</r>
       <r>  -0.6563  1.0000</r>
       <r>  -0.4032  1.0000</r>
       <r>  -0.4032  1.0000</r>
       <r>  -0.4032  1.0000</r>
       <r>  -0.2042  1.0000</r>
       <r>  -0.2042  1.0000</r>
       <r>  -0.2042  1.0000</r>
       <r>  -0.0148  1.0000</r>
       <r>   0.5734  1.0000</r>
       <r>   0.5734  1.0000</r>
       <r>   0.9494  1.0000</r>
       <r>   0.9494  1.0000</r>
       <r>   0.9494  1.0000</r>
       <r>   3.3520  0.0000</r>
       <r>   3.3520  0.0000</r>
       <r>   3.3520  0.0000</r>
       <r>   6.1023  0.0000</r>
       <r>   6.1023  0.0000</r>
       <r>   6.1023  0.0000</r>
       <r>   9.2704  0.0000</r>
      </set>
      <set comment="kpoint 76">
       <r>  -2.5223  1.0000</r>
       <r>  -2.2259  1.0000</r>
       <r>  -2.1105  1.0000</r>
       <r>  -2.1105  1.0000</r>
       <r>  -0.9551  1.0000</r>
       <r>  -0.9551  1.0000</r>
       <r>  -0.8713  1.0000</r>
       <r>  -0.7073  1.0000</r>
       <r>  -0.6589  1.0000</r>
       <r>  -0.5285  1.0000</r>
       <r>  -0.4831  1.0000</r>
       <r>  -0.4831  1.0000</r>
       <r>  -0.0658  1.0000</r>
       <r>   0.0230  1.0000</r>
       <r>   0.0230  1.0000</r>
       <r>   0.1761  1.0000</r>
       <r>   0.7365  1.0000</r>
       <r>   0.8483  1.0000</r>
       <r>   0.9111  1.0000</r>
       <r>   0.9111  1.0000</r>
       <r>   0.9330  1.0000</r>
       <r>   2.3826  1.0000</r>
       <r>   3.8247  0.0000</r>
       <r>   3.8247  0.0000</r>
       <r>   5.2575  0.0000</r>
       <r>   5.2575  0.0000</r>
       <r>   6.7454  0.0000</r>
       <r>   8.3385  0.0000</r>
      </set>
      <set comment="kpoint 77">
       <r>  -2.3861  1.0000</r>
       <r>  -2.3861  1.0000</r>
       <r>  -2.1294  1.0000</r>
       <r>  -2.1294  1.0000</r>
       <r>  -0.9530  1.0000</r>
       <r>  -0.9530  1.0000</r>
       <r>  -0.7808  1.0000</r>
       <r>  -0.7808  1.0000</r>
       <r>  -0.6155  1.0000</r>
       <r>  -0.6155  1.0000</r>
       <r>  -0.5088  1.0000</r>
       <r>  -0.5088  1.0000</r>
       <r>   0.0766  1.0000</r>
       <r>   0.0766  1.0000</r>
       <r>   0.1195  1.0000</r>
       <r>   0.1195  1.0000</r>
       <r>   0.8600  1.0000</r>
       <r>   0.8600  1.0000</r>
       <r>   0.8812  1.0000</r>
       <r>   0.8812  1.0000</r>
       <r>   1.5320  1.0000</r>
       <r>   1.5320  1.0000</r>
       <r>   4.2362  0.0000</r>
       <r>   4.2362  0.0000</r>
       <r>   4.7201  0.0000</r>
       <r>   4.7201  0.0000</r>
       <r>   7.4952  0.0000</r>
       <r>   7.4952  0.0000</r>
      </set>
      <set comment="kpoint 78">
       <r>  -2.4844  1.0000</r>
       <r>  -2.2741  1.0000</r>
       <r>  -2.2741  1.0000</r>
       <r>  -2.2158  1.0000</r>
       <r>  -0.9050  1.0000</r>
       <r>  -0.8671  1.0000</r>
       <r>  -0.8671  1.0000</r>
       <r>  -0.7253  1.0000</r>
       <r>  -0.7005  1.0000</r>
       <r>  -0.5985  1.0000</r>
       <r>  -0.5985  1.0000</r>
       <r>  -0.5790  1.0000</r>
       <r>   0.2255  1.0000</r>
       <r>   0.2255  1.0000</r>
       <r>   0.2609  1.0000</r>
       <r>   0.5182  1.0000</r>
       <r>   0.6881  1.0000</r>
       <r>   0.8916  1.0000</r>
       <r>   0.9047  1.0000</r>
       <r>   0.9047  1.0000</r>
       <r>   1.2378  1.0000</r>
       <r>   2.8170  0.4445</r>
       <r>   2.8170  0.4445</r>
       <r>   3.9706  0.0000</r>
       <r>   4.7040  0.0000</r>
       <r>   5.8701  0.0000</r>
       <r>   5.8701  0.0000</r>
       <r>   7.4149  0.0000</r>
      </set>
      <set comment="kpoint 79">
       <r>  -2.4010  1.0000</r>
       <r>  -2.4010  1.0000</r>
       <r>  -2.2707  1.0000</r>
       <r>  -2.2707  1.0000</r>
       <r>  -0.8753  1.0000</r>
       <r>  -0.8753  1.0000</r>
       <r>  -0.7864  1.0000</r>
       <r>  -0.7864  1.0000</r>
       <r>  -0.6734  1.0000</r>
       <r>  -0.6734  1.0000</r>
       <r>  -0.6184  1.0000</r>
       <r>  -0.6184  1.0000</r>
       <r>   0.3597  1.0000</r>
       <r>   0.3597  1.0000</r>
       <r>   0.4125  1.0000</r>
       <r>   0.4125  1.0000</r>
       <r>   0.8252  1.0000</r>
       <r>   0.8252  1.0000</r>
       <r>   0.8657  1.0000</r>
       <r>   0.8657  1.0000</r>
       <r>   1.9373  1.0000</r>
       <r>   1.9373  1.0000</r>
       <r>   3.3960  0.0000</r>
       <r>   3.3960  0.0000</r>
       <r>   5.1410  0.0000</r>
       <r>   5.1410  0.0000</r>
       <r>   6.5909  0.0000</r>
       <r>   6.5909  0.0000</r>
      </set>
      <set comment="kpoint 80">
       <r>  -2.3622  1.0000</r>
       <r>  -2.3622  1.0000</r>
       <r>  -2.3622  1.0000</r>
       <r>  -2.3622  1.0000</r>
       <r>  -0.8136  1.0000</r>
       <r>  -0.8136  1.0000</r>
       <r>  -0.8136  1.0000</r>
       <r>  -0.8136  1.0000</r>
       <r>  -0.6789  1.0000</r>
       <r>  -0.6789  1.0000</r>
       <r>  -0.6789  1.0000</r>
       <r>  -0.6789  1.0000</r>
       <r>   0.5188  1.0000</r>
       <r>   0.5188  1.0000</r>
       <r>   0.5188  1.0000</r>
       <r>   0.5188  1.0000</r>
       <r>   0.7997  1.0000</r>
       <r>   0.7997  1.0000</r>
       <r>   0.7997  1.0000</r>
       <r>   0.7997  1.0000</r>
       <r>   2.5783  1.0000</r>
       <r>   2.5783  1.0000</r>
       <r>   2.5783  1.0000</r>
       <r>   2.5783  1.0000</r>
       <r>   5.8029  0.0000</r>
       <r>   5.8029  0.0000</r>
       <r>   5.8029  0.0000</r>
       <r>   5.8029  0.0000</r>
      </set>
      <set comment="kpoint 81">
       <r>  -2.5015  1.0000</r>
       <r>  -2.3643  1.0000</r>
       <r>  -2.3643  1.0000</r>
       <r>  -2.3643  1.0000</r>
       <r>  -0.8357  1.0000</r>
       <r>  -0.8357  1.0000</r>
       <r>  -0.8357  1.0000</r>
       <r>  -0.7408  1.0000</r>
       <r>  -0.7408  1.0000</r>
       <r>  -0.6780  1.0000</r>
       <r>  -0.6780  1.0000</r>
       <r>  -0.6780  1.0000</r>
       <r>   0.5111  1.0000</r>
       <r>   0.5111  1.0000</r>
       <r>   0.5111  1.0000</r>
       <r>   0.8242  1.0000</r>
       <r>   0.8242  1.0000</r>
       <r>   0.9305  1.0000</r>
       <r>   0.9305  1.0000</r>
       <r>   0.9305  1.0000</r>
       <r>   1.5023  1.0000</r>
       <r>   3.1372  0.0000</r>
       <r>   3.1372  0.0000</r>
       <r>   3.1372  0.0000</r>
       <r>   5.0581  0.0000</r>
       <r>   5.0581  0.0000</r>
       <r>   5.0581  0.0000</r>
       <r>   6.5019  0.0000</r>
      </set>
      <set comment="kpoint 82">
       <r>  -2.4610  1.0000</r>
       <r>  -2.4610  1.0000</r>
       <r>  -2.3946  1.0000</r>
       <r>  -2.3946  1.0000</r>
       <r>  -0.8225  1.0000</r>
       <r>  -0.8225  1.0000</r>
       <r>  -0.7785  1.0000</r>
       <r>  -0.7785  1.0000</r>
       <r>  -0.7331  1.0000</r>
       <r>  -0.7331  1.0000</r>
       <r>  -0.7072  1.0000</r>
       <r>  -0.7072  1.0000</r>
       <r>   0.6389  1.0000</r>
       <r>   0.6389  1.0000</r>
       <r>   0.7172  1.0000</r>
       <r>   0.7172  1.0000</r>
       <r>   0.9076  1.0000</r>
       <r>   0.9076  1.0000</r>
       <r>   0.9124  1.0000</r>
       <r>   0.9124  1.0000</r>
       <r>   2.2450  1.0000</r>
       <r>   2.2450  1.0000</r>
       <r>   3.3485  0.0000</r>
       <r>   3.3485  0.0000</r>
       <r>   4.6780  0.0000</r>
       <r>   4.6780  0.0000</r>
       <r>   5.7097  0.0000</r>
       <r>   5.7097  0.0000</r>
      </set>
      <set comment="kpoint 83">
       <r>  -2.4588  1.0000</r>
       <r>  -2.4588  1.0000</r>
       <r>  -2.4588  1.0000</r>
       <r>  -2.4588  1.0000</r>
       <r>  -0.7848  1.0000</r>
       <r>  -0.7848  1.0000</r>
       <r>  -0.7848  1.0000</r>
       <r>  -0.7848  1.0000</r>
       <r>  -0.7502  1.0000</r>
       <r>  -0.7502  1.0000</r>
       <r>  -0.7502  1.0000</r>
       <r>  -0.7502  1.0000</r>
       <r>   0.8156  1.0000</r>
       <r>   0.8156  1.0000</r>
       <r>   0.8156  1.0000</r>
       <r>   0.8156  1.0000</r>
       <r>   0.8919  1.0000</r>
       <r>   0.8919  1.0000</r>
       <r>   0.8919  1.0000</r>
       <r>   0.8919  1.0000</r>
       <r>   2.7975  0.9955</r>
       <r>   2.7975  0.9955</r>
       <r>   2.7975  0.9955</r>
       <r>   2.7975  0.9955</r>
       <r>   5.0128  0.0000</r>
       <r>   5.0128  0.0000</r>
       <r>   5.0128  0.0000</r>
       <r>   5.0128  0.0000</r>
      </set>
      <set comment="kpoint 84">
       <r>  -2.4913  1.0000</r>
       <r>  -2.4913  1.0000</r>
       <r>  -2.4913  1.0000</r>
       <r>  -2.4913  1.0000</r>
       <r>  -0.7744  1.0000</r>
       <r>  -0.7744  1.0000</r>
       <r>  -0.7744  1.0000</r>
       <r>  -0.7744  1.0000</r>
       <r>  -0.7744  1.0000</r>
       <r>  -0.7744  1.0000</r>
       <r>  -0.7744  1.0000</r>
       <r>  -0.7744  1.0000</r>
       <r>   0.9238  1.0000</r>
       <r>   0.9238  1.0000</r>
       <r>   0.9238  1.0000</r>
       <r>   0.9238  1.0000</r>
       <r>   0.9238  1.0000</r>
       <r>   0.9238  1.0000</r>
       <r>   0.9238  1.0000</r>
       <r>   0.9238  1.0000</r>
       <r>   2.9406  0.0000</r>
       <r>   2.9406  0.0000</r>
       <r>   2.9406  0.0000</r>
       <r>   2.9406  0.0000</r>
       <r>   4.6699  0.0000</r>
       <r>   4.6699  0.0000</r>
       <r>   4.6699  0.0000</r>
       <r>   4.6699  0.0000</r>
      </set>
     </set>
    </set>
   </array>
  </eigenvalues>
 </calculation>
 <structure name="finalpos" >
  <crystal>
   <varray name="basis" >
    <v>       4.46495154      0.00000000      0.00000000</v>
    <v>       0.00000000      4.46495154      0.00000000</v>
    <v>       0.00000000      0.00000000      4.46495154</v>
   </varray>
   <i name="volume">     89.01234606</i>
   <varray name="rec_basis" >
    <v>       0.22396660      0.00000000      0.00000000</v>
    <v>       0.00000000      0.22396660      0.00000000</v>
    <v>       0.00000000      0.00000000      0.22396660</v>
   </varray>
  </crystal>
  <varray name="positions" >
   <v>       0.00000000      0.00000000      0.00000000</v>
   <v>       0.50000000      0.50000000      0.00000000</v>
   <v>       0.50000000      0.00000000      0.50000000</v>
   <v>       0.00000000      0.50000000      0.50000000</v>
  </varray>
 </structure>
</modeling>
