   4   4   0   0
  0.2336195E+02  0.4537915E-09  0.4537915E-09  0.4537915E-09  0.5000000E-15
  1.000000000000000E-004
  CAR 
 unknown system                          
     11.12262507     -5.31547756  301      1.27258751      1.00000000
     -5.315  0.0000E+00  0.0000E+00
     -5.261  0.0000E+00  0.0000E+00
     -5.206  0.0000E+00  0.0000E+00
     -5.151  0.0000E+00  0.0000E+00
     -5.096  0.0000E+00  0.0000E+00
     -5.042  0.0000E+00  0.0000E+00
     -4.987  0.0000E+00  0.0000E+00
     -4.932  0.0000E+00  0.0000E+00
     -4.877  0.0000E+00  0.0000E+00
     -4.822  0.0000E+00  0.0000E+00
     -4.768  0.0000E+00  0.0000E+00
     -4.713  0.0000E+00  0.0000E+00
     -4.658  0.0000E+00  0.0000E+00
     -4.603  0.8632E-08  0.4730E-09
     -4.548  0.2107E-01  0.1155E-02
     -4.494  0.1261E+00  0.8063E-02
     -4.439  0.2519E+00  0.2186E-01
     -4.384  0.1696E+00  0.3116E-01
     -4.329  0.1260E+00  0.3806E-01
     -4.274  0.5032E+00  0.6564E-01
     -4.220  0.5111E+00  0.9364E-01
     -4.165  0.1964E-02  0.9375E-01
     -4.110  0.2536E+00  0.1076E+00
     -4.055  0.6334E+00  0.1424E+00
     -4.000  0.5092E+00  0.1703E+00
     -3.946  0.6536E+00  0.2061E+00
     -3.891  0.1362E+00  0.2135E+00
     -3.836  0.1387E+01  0.2896E+00
     -3.781  0.1753E-01  0.2905E+00
     -3.726  0.6306E+00  0.3251E+00
     -3.672  0.6695E+00  0.3617E+00
     -3.617  0.3680E+01  0.5634E+00
     -3.562  0.8002E+01  0.1002E+01
     -3.507  0.1067E+02  0.1587E+01
     -3.452  0.1497E+02  0.2407E+01
     -3.398  0.1752E+02  0.3367E+01
     -3.343  0.2325E+02  0.4641E+01
     -3.288  0.2588E+02  0.6059E+01
     -3.233  0.2123E+02  0.7222E+01
     -3.179  0.2133E+02  0.8391E+01
     -3.124  0.1556E+02  0.9243E+01
     -3.069  0.1485E+02  0.1006E+02
     -3.014  0.1390E+02  0.1082E+02
     -2.959  0.1871E+02  0.1184E+02
     -2.905  0.1722E+02  0.1279E+02
     -2.850  0.2534E+02  0.1418E+02
     -2.795  0.1760E+02  0.1514E+02
     -2.740  0.1628E+02  0.1603E+02
     -2.685  0.2099E+02  0.1718E+02
     -2.631  0.2355E+02  0.1847E+02
     -2.576  0.3527E+02  0.2041E+02
     -2.521  0.2397E+02  0.2172E+02
     -2.466  0.2059E+02  0.2285E+02
     -2.411  0.1448E+02  0.2364E+02
     -2.357  0.2233E+02  0.2486E+02
     -2.302  0.1733E+02  0.2581E+02
     -2.247  0.2461E+02  0.2716E+02
     -2.192  0.2309E+02  0.2843E+02
     -2.137  0.2233E+02  0.2965E+02
     -2.083  0.2454E+02  0.3099E+02
     -2.028  0.1767E+02  0.3196E+02
     -1.973  0.2145E+02  0.3314E+02
     -1.918  0.1832E+02  0.3414E+02
     -1.863  0.1942E+02  0.3521E+02
     -1.809  0.2441E+02  0.3654E+02
     -1.754  0.2719E+02  0.3803E+02
     -1.699  0.3391E+02  0.3989E+02
     -1.644  0.1240E+02  0.4057E+02
     -1.590  0.7341E+01  0.4097E+02
     -1.535  0.1896E+01  0.4108E+02
     -1.480  0.2410E+01  0.4121E+02
     -1.425  0.3538E+00  0.4123E+02
     -1.370  0.1176E+01  0.4129E+02
     -1.316  0.4989E+00  0.4132E+02
     -1.261  0.8439E-01  0.4133E+02
     -1.206  0.7176E+00  0.4136E+02
     -1.151  0.1004E+01  0.4142E+02
     -1.096  0.1987E+01  0.4153E+02
     -1.042  0.7268E+00  0.4157E+02
     -0.987  0.2357E+01  0.4170E+02
     -0.932  0.3888E+00  0.4172E+02
     -0.877  0.6338E+00  0.4175E+02
     -0.822  0.1770E-01  0.4175E+02
     -0.768  0.4893E+00  0.4178E+02
     -0.713  0.1066E+01  0.4184E+02
     -0.658  0.1718E+01  0.4193E+02
     -0.603  0.1409E+01  0.4201E+02
     -0.548  0.6359E+00  0.4205E+02
     -0.494  0.1510E+01  0.4213E+02
     -0.439  0.5041E+00  0.4216E+02
     -0.384  0.6360E+00  0.4219E+02
     -0.329  0.1369E+01  0.4227E+02
     -0.274  0.1163E+01  0.4233E+02
     -0.220  0.2262E-01  0.4233E+02
     -0.165  0.2005E+01  0.4244E+02
     -0.110  0.1444E+00  0.4245E+02
     -0.055  0.1376E+01  0.4252E+02
     -0.000  0.7599E+00  0.4257E+02
      0.054  0.1531E+01  0.4265E+02
      0.109  0.2726E+01  0.4280E+02
      0.164  0.5335E-01  0.4280E+02
      0.219  0.1062E+01  0.4286E+02
      0.273  0.1034E+01  0.4292E+02
      0.328  0.6066E+00  0.4295E+02
      0.383  0.1074E+00  0.4296E+02
      0.438  0.4127E+00  0.4298E+02
      0.493  0.3007E+01  0.4314E+02
      0.547  0.7053E+00  0.4318E+02
      0.602  0.4397E+00  0.4321E+02
      0.657  0.3168E+01  0.4338E+02
      0.712  0.1444E+00  0.4339E+02
      0.767  0.1074E+01  0.4345E+02
      0.821  0.9390E+00  0.4350E+02
      0.876  0.8669E+00  0.4355E+02
      0.931  0.1791E+01  0.4364E+02
      0.986  0.1881E+01  0.4375E+02
      1.041  0.1052E+01  0.4380E+02
      1.095  0.9486E+00  0.4386E+02
      1.150  0.5722E+00  0.4389E+02
      1.205  0.2328E-05  0.4389E+02
      1.260  0.1202E+01  0.4395E+02
      1.315  0.1997E+01  0.4406E+02
      1.369  0.1137E+01  0.4413E+02
      1.424  0.2812E+01  0.4428E+02
      1.479  0.6785E+00  0.4432E+02
      1.534  0.8296E+00  0.4436E+02
      1.589  0.6183E+00  0.4440E+02
      1.643  0.3054E+01  0.4456E+02
      1.698  0.5562E+00  0.4459E+02
      1.753  0.9071E+00  0.4464E+02
      1.808  0.1809E+01  0.4474E+02
      1.862  0.4629E+00  0.4477E+02
      1.917  0.1921E+01  0.4487E+02
      1.972  0.1195E+01  0.4494E+02
      2.027  0.1471E+01  0.4502E+02
      2.082  0.1571E+01  0.4511E+02
      2.136  0.1422E+01  0.4518E+02
      2.191  0.1222E+01  0.4525E+02
      2.246  0.4437E+00  0.4527E+02
      2.301  0.1813E+01  0.4537E+02
      2.356  0.8563E+00  0.4542E+02
      2.410  0.2014E+01  0.4553E+02
      2.465  0.2879E+01  0.4569E+02
      2.520  0.4345E-01  0.4569E+02
      2.575  0.1213E+00  0.4570E+02
      2.630  0.1084E+01  0.4576E+02
      2.684  0.1450E+01  0.4584E+02
      2.739  0.6075E+00  0.4587E+02
      2.794  0.6879E+00  0.4591E+02
      2.849  0.1263E+01  0.4598E+02
      2.904  0.1563E+01  0.4606E+02
      2.958  0.2469E+01  0.4620E+02
      3.013  0.1853E+01  0.4630E+02
      3.068  0.1608E+01  0.4639E+02
      3.123  0.1119E+01  0.4645E+02
      3.178  0.7753E+00  0.4649E+02
      3.232  0.3016E+00  0.4651E+02
      3.287  0.1467E+01  0.4659E+02
      3.342  0.5529E+00  0.4662E+02
      3.397  0.8765E+00  0.4667E+02
      3.452  0.1434E+01  0.4675E+02
      3.506  0.3064E+01  0.4691E+02
      3.561  0.5311E+00  0.4694E+02
      3.616  0.7422E+00  0.4698E+02
      3.671  0.1034E+01  0.4704E+02
      3.725  0.4462E+01  0.4728E+02
      3.780  0.1531E+01  0.4737E+02
      3.835  0.1013E+01  0.4742E+02
      3.890  0.1122E+01  0.4748E+02
      3.945  0.1757E+01  0.4758E+02
      3.999  0.1251E+01  0.4765E+02
      4.054  0.1511E+01  0.4773E+02
      4.109  0.3454E+01  0.4792E+02
      4.164  0.6280E+00  0.4796E+02
      4.219  0.7966E+00  0.4800E+02
      4.273  0.1231E+01  0.4807E+02
      4.328  0.2334E+01  0.4820E+02
      4.383  0.6935E+00  0.4823E+02
      4.438  0.1036E+01  0.4829E+02
      4.493  0.1344E+01  0.4836E+02
      4.547  0.1687E+01  0.4846E+02
      4.602  0.2032E+01  0.4857E+02
      4.657  0.2761E+01  0.4872E+02
      4.712  0.7998E+00  0.4876E+02
      4.767  0.2636E+01  0.4891E+02
      4.821  0.8097E+00  0.4895E+02
      4.876  0.8837E-01  0.4896E+02
      4.931  0.1161E+01  0.4902E+02
      4.986  0.8720E+00  0.4907E+02
      5.041  0.2348E+01  0.4920E+02
      5.095  0.2050E+01  0.4931E+02
      5.150  0.1865E+01  0.4941E+02
      5.205  0.1233E+01  0.4948E+02
      5.260  0.2717E+00  0.4949E+02
      5.314  0.1274E+01  0.4956E+02
      5.369  0.1262E+01  0.4963E+02
      5.424  0.2252E+01  0.4976E+02
      5.479  0.1292E+01  0.4983E+02
      5.534  0.4540E-01  0.4983E+02
      5.588  0.2268E+01  0.4995E+02
      5.643  0.1857E+01  0.5005E+02
      5.698  0.9759E+00  0.5011E+02
      5.753  0.9334E+00  0.5016E+02
      5.808  0.3050E+01  0.5033E+02
      5.862  0.1500E+01  0.5041E+02
      5.917  0.1611E+01  0.5050E+02
      5.972  0.2462E+01  0.5063E+02
      6.027  0.1079E+01  0.5069E+02
      6.082  0.7150E+00  0.5073E+02
      6.136  0.2989E+01  0.5089E+02
      6.191  0.1167E+01  0.5096E+02
      6.246  0.3029E+01  0.5112E+02
      6.301  0.8882E-01  0.5113E+02
      6.356  0.1010E+01  0.5118E+02
      6.410  0.2549E-04  0.5118E+02
      6.465  0.2137E+01  0.5130E+02
      6.520  0.2046E+01  0.5141E+02
      6.575  0.3385E+01  0.5160E+02
      6.630  0.3204E+01  0.5177E+02
      6.684  0.1381E+01  0.5185E+02
      6.739  0.8045E+00  0.5189E+02
      6.794  0.3401E+01  0.5208E+02
      6.849  0.1399E+01  0.5216E+02
      6.904  0.1522E+01  0.5224E+02
      6.958  0.2075E+01  0.5235E+02
      7.013  0.2044E+01  0.5247E+02
      7.068  0.1753E+01  0.5256E+02
      7.123  0.3685E+00  0.5258E+02
      7.177  0.7136E+00  0.5262E+02
      7.232  0.1430E+01  0.5270E+02
      7.287  0.9730E+00  0.5275E+02
      7.342  0.2402E+01  0.5288E+02
      7.397  0.2012E+01  0.5300E+02
      7.451  0.2313E+01  0.5312E+02
      7.506  0.4349E+01  0.5336E+02
      7.561  0.2613E+00  0.5337E+02
      7.616  0.1893E+01  0.5348E+02
      7.671  0.1228E+01  0.5355E+02
      7.725  0.3411E+01  0.5373E+02
      7.780  0.3728E+01  0.5394E+02
      7.835  0.1647E+01  0.5403E+02
      7.890  0.1982E+01  0.5414E+02
      7.945  0.1650E+01  0.5423E+02
      7.999  0.9279E+00  0.5428E+02
      8.054  0.2028E+01  0.5439E+02
      8.109  0.2538E+01  0.5453E+02
      8.164  0.1011E+01  0.5458E+02
      8.219  0.5068E+00  0.5461E+02
      8.273  0.1014E+01  0.5467E+02
      8.328  0.1306E+01  0.5474E+02
      8.383  0.7223E+00  0.5478E+02
      8.438  0.1551E+01  0.5486E+02
      8.493  0.2550E+01  0.5500E+02
      8.547  0.4597E+01  0.5525E+02
      8.602  0.1882E+00  0.5526E+02
      8.657  0.7120E+00  0.5530E+02
      8.712  0.2265E+01  0.5543E+02
      8.766  0.9778E+00  0.5548E+02
      8.821  0.5826E+00  0.5551E+02
      8.876  0.1496E+01  0.5559E+02
      8.931  0.4577E+00  0.5562E+02
      8.986  0.1260E+01  0.5569E+02
      9.040  0.2233E+01  0.5581E+02
      9.095  0.5603E-01  0.5581E+02
      9.150  0.0000E+00  0.5581E+02
      9.205  0.1166E-03  0.5581E+02
      9.260  0.9768E+00  0.5587E+02
      9.314  0.4862E+00  0.5589E+02
      9.369  0.1053E+01  0.5595E+02
      9.424  0.2717E+00  0.5597E+02
      9.479  0.1993E+00  0.5598E+02
      9.534  0.9643E-01  0.5598E+02
      9.588  0.0000E+00  0.5598E+02
      9.643  0.0000E+00  0.5598E+02
      9.698  0.0000E+00  0.5598E+02
      9.753  0.0000E+00  0.5598E+02
      9.808  0.0000E+00  0.5598E+02
      9.862  0.0000E+00  0.5598E+02
      9.917  0.0000E+00  0.5598E+02
      9.972  0.0000E+00  0.5598E+02
     10.027  0.0000E+00  0.5598E+02
     10.082  0.4557E-08  0.5598E+02
     10.136  0.1256E+00  0.5599E+02
     10.191  0.1701E+00  0.5600E+02
     10.246  0.0000E+00  0.5600E+02
     10.301  0.0000E+00  0.5600E+02
     10.356  0.5107E-04  0.5600E+02
     10.410  0.2107E-01  0.5600E+02
     10.465  0.0000E+00  0.5600E+02
     10.520  0.0000E+00  0.5600E+02
     10.575  0.0000E+00  0.5600E+02
     10.629  0.0000E+00  0.5600E+02
     10.684  0.0000E+00  0.5600E+02
     10.739  0.0000E+00  0.5600E+02
     10.794  0.0000E+00  0.5600E+02
     10.849  0.0000E+00  0.5600E+02
     10.903  0.0000E+00  0.5600E+02
     10.958  0.0000E+00  0.5600E+02
     11.013  0.0000E+00  0.5600E+02
     11.068  0.0000E+00  0.5600E+02
     11.123  0.0000E+00  0.5600E+02
