    4    4    1    1
  0.2336195E+02  0.4537915E-09  0.4537915E-09  0.4537915E-09  0.5000000E-15
  1.000000000000000E-004
  CAR 
 unknown system                          
   44   84   28
 
  0.0000000E+00  0.0000000E+00  0.0000000E+00  0.5787037E-03
   1       -4.5683
   2       -3.6607
   3       -3.6607
   4       -3.6607
   5       -3.6156
   6       -3.6156
   7       -3.6156
   8       -2.7659
   9       -2.7659
  10       -2.7659
  11       -2.1826
  12       -2.1826
  13       -1.7490
  14       -1.7490
  15       -1.7490
  16       -1.6105
  17       -1.6105
  18       -1.6105
  19       -1.6105
  20       -1.6105
  21       -1.6105
  22        3.0543
  23        3.0543
  24        3.0543
  25        5.8277
  26        5.8277
  27        5.8277
  28       10.3754
 
  0.8333333E-01  0.0000000E+00  0.0000000E+00  0.3472222E-02
   1       -4.5115
   2       -3.6420
   3       -3.6368
   4       -3.6368
   5       -3.6020
   6       -3.5942
   7       -3.5942
   8       -2.7815
   9       -2.7501
  10       -2.7501
  11       -2.1979
  12       -2.1755
  13       -1.7690
  14       -1.7690
  15       -1.7566
  16       -1.6738
  17       -1.6738
  18       -1.6355
  19       -1.6355
  20       -1.6105
  21       -1.6105
  22        2.5321
  23        3.1695
  24        3.1695
  25        5.8437
  26        5.8437
  27        6.4493
  28       10.1196
 
  0.1666667E+00  0.0000000E+00  0.0000000E+00  0.3472222E-02
   1       -4.3439
   2       -3.5878
   3       -3.5684
   4       -3.5684
   5       -3.5622
   6       -3.5301
   7       -3.5301
   8       -2.8267
   9       -2.7032
  10       -2.7032
  11       -2.2399
  12       -2.1545
  13       -1.8452
  14       -1.8452
  15       -1.8270
  16       -1.8270
  17       -1.7790
  18       -1.7073
  19       -1.7073
  20       -1.6104
  21       -1.6104
  22        1.5504
  23        3.4962
  24        3.4962
  25        5.8917
  26        5.8917
  27        7.7299
  28        9.4838
 
  0.2500000E+00  0.0000000E+00  0.0000000E+00  0.3472222E-02
   1       -4.0763
   2       -3.5049
   3       -3.4982
   4       -3.4655
   5       -3.4655
   6       -3.4240
   7       -3.4240
   8       -2.8980
   9       -2.6267
  10       -2.6267
  11       -2.2949
  12       -2.1209
  13       -2.0843
  14       -2.0843
  15       -1.9158
  16       -1.9158
  17       -1.8174
  18       -1.8174
  19       -1.8143
  20       -1.6103
  21       -1.6103
  22        0.5356
  23        3.9921
  24        3.9921
  25        5.9711
  26        5.9711
  27        8.6789
  28        8.6789
 
  0.3333333E+00  0.0000000E+00  0.0000000E+00  0.3472222E-02
   1       -3.7405
   2       -3.4139
   3       -3.4060
   4       -3.3475
   5       -3.3475
   6       -3.2769
   7       -3.2769
   8       -2.9896
   9       -2.5234
  10       -2.5234
  11       -2.3518
  12       -2.3518
  13       -2.3266
  14       -2.0769
  15       -2.0198
  16       -2.0198
  17       -1.9537
  18       -1.9537
  19       -1.8602
  20       -1.6102
  21       -1.6102
  22       -0.4057
  23        4.6149
  24        4.6149
  25        6.0747
  26        6.0747
  27        7.8174
  28        7.8174
 
  0.4166667E+00  0.0000000E+00  0.0000000E+00  0.3472222E-02
   1       -3.4286
   2       -3.3159
   3       -3.3142
   4       -3.2464
   5       -3.2464
   6       -3.0947
   7       -3.0908
   8       -3.0908
   9       -2.6196
  10       -2.6196
  11       -2.3975
  12       -2.3975
  13       -2.2368
  14       -2.1109
  15       -2.1109
  16       -2.1035
  17       -2.1035
  18       -2.0253
  19       -1.9131
  20       -1.6101
  21       -1.6101
  22       -1.2268
  23        5.3318
  24        5.3318
  25        6.1772
  26        6.1772
  27        6.9539
  28        6.9539
 
  0.5000000E+00  0.0000000E+00  0.0000000E+00  0.1736111E-02
   1       -3.2893
   2       -3.2893
   3       -3.2054
   4       -3.2054
   5       -3.2048
   6       -3.2048
   7       -2.8696
   8       -2.8696
   9       -2.8696
  10       -2.8696
  11       -2.2548
  12       -2.2548
  13       -2.2548
  14       -2.2548
  15       -2.1488
  16       -2.1488
  17       -1.9695
  18       -1.9695
  19       -1.8700
  20       -1.8700
  21       -1.6100
  22       -1.6100
  23        6.1183
  24        6.1183
  25        6.1183
  26        6.1183
  27        6.2242
  28        6.2242
 
  0.8333333E-01  0.8333333E-01  0.0000000E+00  0.6944444E-02
   1       -4.4555
   2       -3.6209
   3       -3.6180
   4       -3.6180
   5       -3.5809
   6       -3.5809
   7       -3.5657
   8       -2.7862
   9       -2.7447
  10       -2.7352
  11       -2.2017
  12       -2.1783
  13       -1.7883
  14       -1.7855
  15       -1.7855
  16       -1.7165
  17       -1.6898
  18       -1.6898
  19       -1.6356
  20       -1.6356
  21       -1.6283
  22        2.6377
  23        2.6377
  24        3.2820
  25        5.8588
  26        6.4733
  27        6.4733
  28        9.3673
 
  0.1666667E+00  0.8333333E-01  0.0000000E+00  0.1388889E-01
   1       -4.2903
   2       -3.5690
   3       -3.5634
   4       -3.5491
   5       -3.5419
   6       -3.5178
   7       -3.4879
   8       -2.8252
   9       -2.7029
  10       -2.6912
  11       -2.2378
  12       -2.1585
  13       -1.9074
  14       -1.8723
  15       -1.8442
  16       -1.8400
  17       -1.7963
  18       -1.7296
  19       -1.7076
  20       -1.6369
  21       -1.6357
  22        1.6507
  23        2.9336
  24        3.6022
  25        5.9026
  26        6.5449
  27        7.7534
  28        8.5237
 
  0.2500000E+00  0.8333333E-01  0.0000000E+00  0.1388889E-01
   1       -4.0274
   2       -3.4802
   3       -3.4797
   4       -3.4793
   5       -3.4457
   6       -3.4131
   7       -3.3722
   8       -2.8936
   9       -2.6275
  10       -2.6229
  11       -2.2858
  12       -2.1306
  13       -2.1204
  14       -2.1016
  15       -1.9365
  16       -1.9300
  17       -1.8978
  18       -1.8180
  19       -1.7798
  20       -1.6385
  21       -1.6360
  22        0.6375
  23        3.3739
  24        4.0905
  25        5.9635
  26        6.6586
  27        7.7110
  28        8.7566
 
  0.3333333E+00  0.8333333E-01  0.0000000E+00  0.1388889E-01
   1       -3.6989
   2       -3.3968
   3       -3.3794
   4       -3.3631
   5       -3.3270
   6       -3.2681
   7       -3.2303
   8       -2.9827
   9       -2.5499
  10       -2.5246
  11       -2.3876
  12       -2.3613
  13       -2.2898
  14       -2.0685
  15       -2.0661
  16       -2.0305
  17       -2.0073
  18       -1.9546
  19       -1.8368
  20       -1.6385
  21       -1.6364
  22       -0.2972
  23        3.9123
  24        4.7062
  25        5.9778
  26        6.7883
  27        7.0341
  28        7.8945
 
  0.4166667E+00  0.8333333E-01  0.0000000E+00  0.1388889E-01
   1       -3.3942
   2       -3.2994
   3       -3.2871
   4       -3.2466
   5       -3.2262
   6       -3.0850
   7       -3.0850
   8       -3.0681
   9       -2.6425
  10       -2.6227
  11       -2.4884
  12       -2.3987
  13       -2.2162
  14       -2.1513
  15       -2.1173
  16       -2.1047
  17       -2.1042
  18       -1.9967
  19       -1.9005
  20       -1.6381
  21       -1.6369
  22       -1.1054
  23        4.5112
  24        5.4174
  25        5.7056
  26        6.7353
  27        6.8549
  28        7.0323
 
  0.5000000E+00  0.8333333E-01  0.0000000E+00  0.6944444E-02
   1       -3.2578
   2       -3.2578
   3       -3.1931
   4       -3.1931
   5       -3.1896
   6       -3.1896
   7       -2.8737
   8       -2.8737
   9       -2.8677
  10       -2.8677
  11       -2.3715
  12       -2.3715
  13       -2.2561
  14       -2.2561
  15       -2.1493
  16       -2.1493
  17       -1.9756
  18       -1.9756
  19       -1.7245
  20       -1.7245
  21       -1.6375
  22       -1.6375
  23        5.1353
  24        5.1353
  25        6.1995
  26        6.1995
  27        6.7895
  28        6.7895
 
  0.1666667E+00  0.1666667E+00  0.0000000E+00  0.6944444E-02
   1       -4.1332
   2       -3.5395
   3       -3.4934
   4       -3.4934
   5       -3.4813
   6       -3.4813
   7       -3.3957
   8       -2.8393
   9       -2.6828
  10       -2.6565
  11       -2.2523
  12       -2.1453
  13       -2.0064
  14       -2.0064
  15       -1.9759
  16       -1.8944
  17       -1.7889
  18       -1.7889
  19       -1.7084
  20       -1.7084
  21       -1.6808
  22        1.9290
  23        1.9290
  24        3.9062
  25        5.9210
  26        7.5856
  27        7.8129
  28        7.8129
 
  0.2500000E+00  0.1666667E+00  0.0000000E+00  0.1388889E-01
   1       -3.8856
   2       -3.4710
   3       -3.4229
   4       -3.4073
   5       -3.3880
   6       -3.3810
   7       -3.2726
   8       -2.8890
   9       -2.6209
  10       -2.6080
  11       -2.2854
  12       -2.2323
  13       -2.1626
  14       -2.1295
  15       -2.0910
  16       -1.9719
  17       -1.8792
  18       -1.8196
  19       -1.8104
  20       -1.7097
  21       -1.7038
  22        0.9153
  23        2.3392
  24        4.3748
  25        5.8458
  26        6.8520
  27        7.8542
  28        8.9855
 
  0.3333333E+00  0.1666667E+00  0.0000000E+00  0.1388889E-01
   1       -3.5811
   2       -3.3674
   3       -3.3461
   4       -3.3030
   5       -3.2672
   6       -3.2426
   7       -3.1350
   8       -2.9659
   9       -2.5828
  10       -2.5236
  11       -2.4745
  12       -2.3932
  13       -2.2698
  14       -2.2675
  15       -2.0628
  16       -1.9952
  17       -1.9891
  18       -1.9570
  19       -1.8575
  20       -1.7122
  21       -1.7113
  22       -0.0121
  23        2.8421
  24        4.9720
  25        5.3942
  26        6.6289
  27        7.7347
  28        8.1214
 
  0.4166667E+00  0.1666667E+00  0.0000000E+00  0.1388889E-01
   1       -3.2994
   2       -3.2556
   3       -3.2432
   4       -3.2041
   5       -3.1674
   6       -3.0683
   7       -3.0582
   8       -3.0039
   9       -2.7001
  10       -2.6337
  11       -2.5941
  12       -2.4181
  13       -2.4003
  14       -2.1517
  15       -2.1383
  16       -2.1074
  17       -2.0946
  18       -1.9276
  19       -1.8130
  20       -1.7146
  21       -1.7130
  22       -0.8096
  23        3.4139
  24        4.7178
  25        5.6676
  26        6.7745
  27        7.2627
  28        7.4144
 
  0.5000000E+00  0.1666667E+00  0.0000000E+00  0.6944444E-02
   1       -3.1687
   2       -3.1687
   3       -3.1573
   4       -3.1573
   5       -3.1503
   6       -3.1503
   7       -2.8770
   8       -2.8770
   9       -2.8629
  10       -2.8629
  11       -2.5472
  12       -2.5472
  13       -2.2587
  14       -2.2587
  15       -2.1553
  16       -2.1553
  17       -2.0229
  18       -2.0229
  19       -1.7143
  20       -1.7143
  21       -1.4288
  22       -1.4288
  23        4.0427
  24        4.0427
  25        6.4379
  26        6.4379
  27        7.0601
  28        7.0601
 
  0.2500000E+00  0.2500000E+00  0.0000000E+00  0.6944444E-02
   1       -3.6677
   2       -3.4250
   3       -3.3299
   4       -3.3299
   5       -3.2982
   6       -3.2982
   7       -3.1476
   8       -2.9048
   9       -2.5850
  10       -2.5825
  11       -2.3573
  12       -2.3573
  13       -2.3167
  14       -2.2832
  15       -2.0377
  16       -1.9928
  17       -1.8866
  18       -1.8866
  19       -1.8220
  20       -1.8220
  21       -1.7657
  22        1.3181
  23        1.3181
  24        4.8186
  25        5.2851
  26        6.5746
  27        8.8853
  28        8.8853
 
  0.3333333E+00  0.2500000E+00  0.0000000E+00  0.1388889E-01
   1       -3.4101
   2       -3.3428
   3       -3.2630
   4       -3.2022
   5       -3.1870
   6       -3.1729
   7       -3.0153
   8       -2.9515
   9       -2.5844
  10       -2.5835
  11       -2.5074
  12       -2.4916
  13       -2.4576
  14       -2.3153
  15       -2.1160
  16       -1.9912
  17       -1.9600
  18       -1.9262
  19       -1.8246
  20       -1.8171
  21       -1.8026
  22        0.3887
  23        1.8101
  24        4.4896
  25        5.3913
  26        6.6897
  27        8.3365
  28        8.4862
 
  0.4166667E+00  0.2500000E+00  0.0000000E+00  0.1388889E-01
   1       -3.2294
   2       -3.1851
   3       -3.1736
   4       -3.0778
   5       -3.0766
   6       -3.0431
   7       -3.0210
   8       -2.9072
   9       -2.7703
  10       -2.6578
  11       -2.6489
  12       -2.6203
  13       -2.3950
  14       -2.2244
  15       -2.1782
  16       -2.1100
  17       -2.1012
  18       -1.9987
  19       -1.8264
  20       -1.8196
  21       -1.5259
  22       -0.4152
  23        2.3754
  24        3.7168
  25        6.0656
  26        6.9513
  27        7.6325
  28        7.7884
 
  0.5000000E+00  0.2500000E+00  0.0000000E+00  0.6944444E-02
   1       -3.1073
   2       -3.1073
   3       -3.1020
   4       -3.1020
   5       -3.0416
   6       -3.0416
   7       -2.8583
   8       -2.8583
   9       -2.8534
  10       -2.8534
  11       -2.6933
  12       -2.6933
  13       -2.2588
  14       -2.2588
  15       -2.1775
  16       -2.1775
  17       -2.1024
  18       -2.1024
  19       -1.8257
  20       -1.8257
  21       -1.0626
  22       -1.0626
  23        3.0106
  24        3.0106
  25        6.8192
  26        6.8192
  27        7.3203
  28        7.3203
 
  0.3333333E+00  0.3333333E+00  0.0000000E+00  0.6944444E-02
   1       -3.2866
   2       -3.2263
   3       -3.1504
   4       -3.1504
   5       -3.0524
   6       -3.0524
   7       -2.9556
   8       -2.8891
   9       -2.6974
  10       -2.6974
  11       -2.5656
  12       -2.5628
  13       -2.4590
  14       -2.3720
  15       -2.1833
  16       -2.0265
  17       -2.0265
  18       -1.9622
  19       -1.9622
  20       -1.8788
  21       -1.5454
  22        0.8733
  23        0.8733
  24        3.6022
  25        5.9387
  26        6.9045
  27        8.8287
  28        8.8287
 
  0.4166667E+00  0.3333333E+00  0.0000000E+00  0.1388889E-01
   1       -3.1985
   2       -3.0922
   3       -3.0690
   4       -3.0132
   5       -2.9853
   6       -2.9740
   7       -2.9257
   8       -2.8241
   9       -2.7992
  10       -2.7917
  11       -2.7030
  12       -2.6253
  13       -2.3707
  14       -2.3237
  15       -2.2380
  16       -2.1386
  17       -2.1088
  18       -2.0994
  19       -1.9607
  20       -1.9270
  21       -1.1578
  22        0.0552
  23        1.4331
  24        2.7930
  25        6.5901
  26        7.2261
  27        8.1248
  28        8.1874
 
  0.5000000E+00  0.3333333E+00  0.0000000E+00  0.6944444E-02
   1       -3.0810
   2       -3.0810
   3       -3.0342
   4       -3.0342
   5       -2.9467
   6       -2.9467
   7       -2.8596
   8       -2.8596
   9       -2.7796
  10       -2.7796
  11       -2.7490
  12       -2.7490
  13       -2.2497
  14       -2.2497
  15       -2.2262
  16       -2.2262
  17       -2.2064
  18       -2.2064
  19       -1.9513
  20       -1.9513
  21       -0.6261
  22       -0.6261
  23        2.0710
  24        2.0710
  25        7.3248
  26        7.3248
  27        7.6526
  28        7.6526
 
  0.4166667E+00  0.4166667E+00  0.0000000E+00  0.6944444E-02
   1       -3.1442
   2       -3.0141
   3       -2.9846
   4       -2.9846
   5       -2.9645
   6       -2.9469
   7       -2.9469
   8       -2.7760
   9       -2.7743
  10       -2.7743
  11       -2.6874
  12       -2.5681
  13       -2.3965
  14       -2.3145
  15       -2.3018
  16       -2.2135
  17       -2.2135
  18       -2.0982
  19       -2.0982
  20       -2.0139
  21       -0.6905
  22        0.6028
  23        0.6028
  24        1.9652
  25        7.2197
  26        7.5996
  27        8.6660
  28        8.6671
 
  0.5000000E+00  0.4166667E+00  0.0000000E+00  0.6944444E-02
   1       -3.0615
   2       -3.0615
   3       -2.9795
   4       -2.9795
   5       -2.9655
   6       -2.9655
   7       -2.8741
   8       -2.8741
   9       -2.6706
  10       -2.6706
  11       -2.6489
  12       -2.6489
  13       -2.3196
  14       -2.3196
  15       -2.3037
  16       -2.3037
  17       -2.2211
  18       -2.2211
  19       -2.0697
  20       -2.0697
  21       -0.1061
  22       -0.1061
  23        1.2366
  24        1.2366
  25        7.9356
  26        7.9356
  27        8.0777
  28        8.0777
 
  0.5000000E+00  0.5000000E+00  0.0000000E+00  0.1736111E-02
   1       -3.0297
   2       -3.0297
   3       -3.0297
   4       -3.0297
   5       -2.9092
   6       -2.9092
   7       -2.9092
   8       -2.9092
   9       -2.5852
  10       -2.5852
  11       -2.5852
  12       -2.5852
  13       -2.3749
  14       -2.3749
  15       -2.3749
  16       -2.3749
  17       -2.1625
  18       -2.1625
  19       -2.1625
  20       -2.1625
  21        0.5117
  22        0.5117
  23        0.5117
  24        0.5117
  25        8.6048
  26        8.6048
  27        8.6048
  28        8.6048
 
  0.8333333E-01  0.8333333E-01  0.8333333E-01  0.4629630E-02
   1       -4.4004
   2       -3.6033
   3       -3.6033
   4       -3.6033
   5       -3.5514
   6       -3.5514
   7       -3.5514
   8       -2.7879
   9       -2.7314
  10       -2.7314
  11       -2.1927
  12       -2.1927
  13       -1.8058
  14       -1.8058
  15       -1.8058
  16       -1.7429
  17       -1.7429
  18       -1.7429
  19       -1.6417
  20       -1.6417
  21       -1.6417
  22        2.7402
  23        2.7402
  24        2.7402
  25        6.4954
  26        6.4954
  27        6.4954
  28        9.4513
 
  0.1666667E+00  0.8333333E-01  0.8333333E-01  0.1388889E-01
   1       -4.2384
   2       -3.5540
   3       -3.5530
   4       -3.5530
   5       -3.5078
   6       -3.4727
   7       -3.4727
   8       -2.8198
   9       -2.6934
  10       -2.6917
  11       -2.2310
  12       -2.1662
  13       -1.9215
  14       -1.9215
  15       -1.8585
  16       -1.8382
  17       -1.8382
  18       -1.8191
  19       -1.6783
  20       -1.6496
  21       -1.6496
  22        1.7473
  23        3.0288
  24        3.0288
  25        6.5559
  26        6.5559
  27        7.7675
  28        8.6167
 
  0.2500000E+00  0.8333333E-01  0.8333333E-01  0.1388889E-01
   1       -3.9818
   2       -3.4833
   3       -3.4653
   4       -3.4653
   5       -3.4331
   6       -3.3572
   7       -3.3572
   8       -2.8833
   9       -2.6268
  10       -2.6239
  11       -2.2720
  12       -2.1431
  13       -2.1431
  14       -2.1239
  15       -1.9444
  16       -1.9371
  17       -1.9242
  18       -1.9242
  19       -1.7308
  20       -1.6550
  21       -1.6550
  22        0.7339
  23        3.4605
  24        3.4605
  25        6.6151
  26        6.6151
  27        7.8542
  28        7.8542
 
  0.3333333E+00  0.8333333E-01  0.8333333E-01  0.1388889E-01
   1       -3.6642
   2       -3.4006
   3       -3.3479
   4       -3.3479
   5       -3.3338
   6       -3.2180
   7       -3.2180
   8       -2.9667
   9       -2.5620
  10       -2.5389
  11       -2.3936
  12       -2.3936
  13       -2.2477
  14       -2.0862
  15       -2.0687
  16       -2.0559
  17       -2.0250
  18       -2.0250
  19       -1.7934
  20       -1.6581
  21       -1.6581
  22       -0.1988
  23        3.9912
  24        3.9912
  25        6.4580
  26        6.4580
  27        7.4180
  28        7.4180
 
  0.4166667E+00  0.8333333E-01  0.8333333E-01  0.1388889E-01
   1       -3.3756
   2       -3.3143
   3       -3.2307
   4       -3.2288
   5       -3.2288
   6       -3.0646
   7       -3.0646
   8       -3.0595
   9       -2.6395
  10       -2.6395
  11       -2.5253
  12       -2.4315
  13       -2.2547
  14       -2.1815
  15       -2.1157
  16       -2.1157
  17       -2.0525
  18       -2.0039
  19       -1.8622
  20       -1.6595
  21       -1.6595
  22       -1.0058
  23        4.5826
  24        4.5826
  25        5.9146
  26        5.9146
  27        7.4638
  28        7.4638
 
  0.5000000E+00  0.8333333E-01  0.8333333E-01  0.6944444E-02
   1       -3.2630
   2       -3.2630
   3       -3.1744
   4       -3.1744
   5       -3.1460
   6       -3.1460
   7       -2.9231
   8       -2.9231
   9       -2.8193
  10       -2.8193
  11       -2.4209
  12       -2.4209
  13       -2.3099
  14       -2.3099
  15       -2.1543
  16       -2.1543
  17       -1.9337
  18       -1.9337
  19       -1.6600
  20       -1.6600
  21       -1.6397
  22       -1.6397
  23        5.0874
  24        5.0874
  25        5.3976
  26        5.3976
  27        7.5664
  28        7.5664
 
  0.1666667E+00  0.1666667E+00  0.8333333E-01  0.1388889E-01
   1       -4.0869
   2       -3.5260
   3       -3.5088
   4       -3.5088
   5       -3.4259
   6       -3.4259
   7       -3.3793
   8       -2.8225
   9       -2.6781
  10       -2.6612
  11       -2.2363
  12       -2.1585
  13       -2.0154
  14       -2.0154
  15       -2.0023
  16       -1.9254
  17       -1.8741
  18       -1.8741
  19       -1.6812
  20       -1.6812
  21       -1.6760
  22        2.0171
  23        2.0171
  24        3.2991
  25        6.5432
  26        7.7407
  27        7.7661
  28        7.7661
 
  0.2500000E+00  0.1666667E+00  0.8333333E-01  0.2777778E-01
   1       -3.8510
   2       -3.4595
   3       -3.4453
   4       -3.4247
   5       -3.3468
   6       -3.3105
   7       -3.2568
   8       -2.8602
   9       -2.6254
  10       -2.6129
  11       -2.2607
  12       -2.2389
  13       -2.1912
  14       -2.1367
  15       -2.1035
  16       -1.9948
  17       -1.9595
  18       -1.9372
  19       -1.7250
  20       -1.6989
  21       -1.6973
  22        0.9998
  23        2.4183
  24        3.7090
  25        6.2335
  26        7.2954
  27        7.4951
  28        8.5025
 
  0.3333333E+00  0.1666667E+00  0.8333333E-01  0.2777778E-01
   1       -3.5694
   2       -3.3714
   3       -3.3574
   4       -3.3077
   5       -3.2418
   6       -3.1782
   7       -3.1231
   8       -2.9212
   9       -2.5883
  10       -2.5479
  11       -2.4729
  12       -2.4152
  13       -2.2778
  14       -2.2125
  15       -2.0776
  16       -2.0766
  17       -2.0270
  18       -2.0104
  19       -1.7822
  20       -1.7135
  21       -1.7108
  22        0.0678
  23        2.9143
  24        4.2193
  25        5.5481
  26        6.8508
  27        7.3858
  28        8.5129
 
  0.4166667E+00  0.1666667E+00  0.8333333E-01  0.2777778E-01
   1       -3.3300
   2       -3.2972
   3       -3.2321
   4       -3.1800
   5       -3.1286
   6       -3.0542
   7       -3.0090
   8       -2.9828
   9       -2.6791
  10       -2.6322
  11       -2.6057
  12       -2.4512
  13       -2.4291
  14       -2.2084
  15       -2.1511
  16       -2.1204
  17       -2.0640
  18       -1.8546
  19       -1.8170
  20       -1.7205
  21       -1.7187
  22       -0.7406
  23        3.4823
  24        4.7160
  25        4.9038
  26        6.1409
  27        7.6866
  28        8.4515
 
  0.5000000E+00  0.1666667E+00  0.8333333E-01  0.1388889E-01
   1       -3.2522
   2       -3.2522
   3       -3.1351
   4       -3.1351
   5       -3.0380
   6       -3.0380
   7       -2.9695
   8       -2.9695
   9       -2.7690
  10       -2.7690
  11       -2.5611
  12       -2.5611
  13       -2.3363
  14       -2.3363
  15       -2.1732
  16       -2.1732
  17       -1.9437
  18       -1.9437
  19       -1.7219
  20       -1.7219
  21       -1.3871
  22       -1.3871
  23        4.1108
  24        4.1108
  25        5.4599
  26        5.4599
  27        8.0858
  28        8.0858
 
  0.2500000E+00  0.2500000E+00  0.8333333E-01  0.1388889E-01
   1       -3.6565
   2       -3.4169
   3       -3.3685
   4       -3.3685
   5       -3.2299
   6       -3.2299
   7       -3.1337
   8       -2.8491
   9       -2.6012
  10       -2.5851
  11       -2.3592
  12       -2.3592
  13       -2.3004
  14       -2.2827
  15       -2.0773
  16       -2.0085
  17       -1.9978
  18       -1.9978
  19       -1.7511
  20       -1.7511
  21       -1.7456
  22        1.3913
  23        1.3913
  24        4.0916
  25        5.4220
  26        7.3261
  27        8.0281
  28        8.0281
 
  0.3333333E+00  0.2500000E+00  0.8333333E-01  0.2777778E-01
   1       -3.4423
   2       -3.3383
   3       -3.3067
   4       -3.2577
   5       -3.1197
   6       -3.1040
   7       -3.0096
   8       -2.8626
   9       -2.5828
  10       -2.5714
  11       -2.5443
  12       -2.4888
  13       -2.4621
  14       -2.2555
  15       -2.1516
  16       -2.1014
  17       -2.0641
  18       -1.8319
  19       -1.8142
  20       -1.7822
  21       -1.7821
  22        0.4536
  23        1.8752
  24        4.5272
  25        4.6237
  26        7.2272
  27        7.5753
  28        8.5377
 
  0.4166667E+00  0.2500000E+00  0.8333333E-01  0.2777778E-01
   1       -3.2776
   2       -3.2496
   3       -3.2281
   4       -3.1222
   5       -3.0294
   6       -2.9950
   7       -2.9332
   8       -2.8747
   9       -2.7158
  10       -2.6513
  11       -2.6222
  12       -2.6134
  13       -2.4594
  14       -2.2257
  15       -2.2099
  16       -2.1492
  17       -2.1339
  18       -1.8954
  19       -1.8033
  20       -1.8026
  21       -1.5259
  22       -0.3643
  23        2.4362
  24        3.7806
  25        5.1497
  26        6.4745
  27        7.9524
  28        9.0071
 
  0.5000000E+00  0.2500000E+00  0.8333333E-01  0.1388889E-01
   1       -3.2218
   2       -3.2218
   3       -3.1024
   4       -3.1024
   5       -2.9836
   6       -2.9836
   7       -2.8933
   8       -2.8933
   9       -2.7149
  10       -2.7149
  11       -2.6939
  12       -2.6939
  13       -2.3501
  14       -2.3501
  15       -2.2134
  16       -2.2134
  17       -2.0017
  18       -2.0017
  19       -1.8097
  20       -1.8097
  21       -1.0347
  22       -1.0347
  23        3.0706
  24        3.0706
  25        5.7815
  26        5.7815
  27        8.4383
  28        8.4383
 
  0.3333333E+00  0.3333333E+00  0.8333333E-01  0.1388889E-01
   1       -3.3205
   2       -3.2890
   3       -3.2124
   4       -3.2124
   5       -2.9952
   6       -2.9952
   7       -2.9034
   8       -2.8270
   9       -2.6687
  10       -2.6687
  11       -2.5388
  12       -2.5372
  13       -2.5274
  14       -2.2897
  15       -2.2286
  16       -2.1444
  17       -2.1444
  18       -1.8626
  19       -1.8626
  20       -1.8455
  21       -1.5543
  22        0.9290
  23        0.9290
  24        3.6634
  25        5.0441
  26        7.6906
  27        7.6906
  28        7.8875
 
  0.4166667E+00  0.3333333E+00  0.8333333E-01  0.2777778E-01
   1       -3.2308
   2       -3.2100
   3       -3.1828
   4       -3.1051
   5       -2.9653
   6       -2.8684
   7       -2.8641
   8       -2.8179
   9       -2.7480
  10       -2.7205
  11       -2.6017
  12       -2.5960
  13       -2.4606
  14       -2.2840
  15       -2.2524
  16       -2.2115
  17       -2.2086
  18       -1.9576
  19       -1.8995
  20       -1.8908
  21       -1.1525
  22        0.0976
  23        1.4844
  24        2.8469
  25        5.5929
  26        6.9169
  27        8.2487
  28        8.3122
 
  0.5000000E+00  0.3333333E+00  0.8333333E-01  0.1388889E-01
   1       -3.1846
   2       -3.1846
   3       -3.1113
   4       -3.1113
   5       -2.9427
   6       -2.9427
   7       -2.8026
   8       -2.8026
   9       -2.7193
  10       -2.7193
  11       -2.6488
  12       -2.6488
  13       -2.3642
  14       -2.3642
  15       -2.2777
  16       -2.2777
  17       -2.0757
  18       -2.0757
  19       -1.9097
  20       -1.9097
  21       -0.6013
  22       -0.6013
  23        2.1218
  24        2.1218
  25        6.2181
  26        6.2181
  27        8.8452
  28        8.8455
 
  0.4166667E+00  0.4166667E+00  0.8333333E-01  0.1388889E-01
   1       -3.1914
   2       -3.1743
   3       -3.1245
   4       -3.1245
   5       -2.8952
   6       -2.8952
   7       -2.8600
   8       -2.8241
   9       -2.6702
  10       -2.6702
  11       -2.5577
  12       -2.4903
  13       -2.4835
  14       -2.3531
  15       -2.2990
  16       -2.2990
  17       -2.2187
  18       -2.0072
  19       -2.0072
  20       -1.9670
  21       -0.6755
  22        0.6429
  23        0.6429
  24        2.0118
  25        6.1307
  26        7.4594
  27        7.4594
  28        8.7765
 
  0.5000000E+00  0.4166667E+00  0.8333333E-01  0.1388889E-01
   1       -3.1562
   2       -3.1562
   3       -3.1295
   4       -3.1295
   5       -2.8975
   6       -2.8975
   7       -2.8499
   8       -2.8499
   9       -2.5753
  10       -2.5753
  11       -2.5645
  12       -2.5645
  13       -2.3929
  14       -2.3929
  15       -2.3585
  16       -2.3585
  17       -2.1248
  18       -2.1248
  19       -2.0119
  20       -2.0119
  21       -0.0786
  22       -0.0786
  23        1.2785
  24        1.2785
  25        6.7536
  26        6.7536
  27        8.0948
  28        8.0948
 
  0.5000000E+00  0.5000000E+00  0.8333333E-01  0.3472222E-02
   1       -3.1417
   2       -3.1417
   3       -3.1417
   4       -3.1417
   5       -2.8723
   6       -2.8723
   7       -2.8723
   8       -2.8723
   9       -2.4850
  10       -2.4850
  11       -2.4850
  12       -2.4850
  13       -2.4368
  14       -2.4368
  15       -2.4368
  16       -2.4368
  17       -2.0981
  18       -2.0981
  19       -2.0981
  20       -2.0981
  21        0.5455
  22        0.5455
  23        0.5455
  24        0.5455
  25        7.3802
  26        7.3802
  27        7.3802
  28        7.3802
 
  0.1666667E+00  0.1666667E+00  0.1666667E+00  0.4629630E-02
   1       -3.9540
   2       -3.4885
   3       -3.4885
   4       -3.4885
   5       -3.3296
   6       -3.3296
   7       -3.3296
   8       -2.7850
   9       -2.6622
  10       -2.6622
  11       -2.1911
  12       -2.1911
  13       -2.0780
  14       -2.0780
  15       -2.0780
  16       -2.0027
  17       -2.0027
  18       -2.0027
  19       -1.6748
  20       -1.6748
  21       -1.6748
  22        2.2667
  23        2.2667
  24        2.2667
  25        7.3805
  26        7.3805
  27        7.3805
  28        8.4424
 
  0.2500000E+00  0.1666667E+00  0.1666667E+00  0.1388889E-01