<?xml version="1.0" encoding="ISO-8859-1"?>
<modeling>
 <generator>
  <i name="program" type="string">vasp</i>
  <i name="version" type="string">4.6.28 </i>
  <i name="subversion" type="string">25Jul05 complex  parallel</i>
  <i name="platform" type="string">LinuxIFC</i>
  <i name="date" type="string">2017 01 06</i>
  <i name="time" type="string">05:48:30</i>
 </generator>
 <incar>
  <i type="string" name="PREC">accurate</i>
  <i type="int" name="IALGO">    38</i>
  <i type="logical" name="ADDGRID"> T  </i>
  <i name="EDIFF">      0.00000001</i>
  <i type="int" name="IBRION">    -1</i>
  <i name="ENCUT">    750.00000000</i>
  <i type="logical" name="LREAL"> F  </i>
  <i type="int" name="ISMEAR">     0</i>
  <i name="SIGMA">      0.01000000</i>
  <i type="logical" name="LWAVE"> F  </i>
  <i type="logical" name="LCHARG"> F  </i>
 </incar>
 <kpoints>
  <generation param="Gamma">
   <v type="int" name="divisions">      12      12      12</v>
   <v name="usershift">      0.00000000      0.00000000      0.00000000</v>
   <v name="genvec1">      0.08333333      0.00000000      0.00000000</v>
   <v name="genvec2">      0.00000000      0.08333333      0.00000000</v>
   <v name="genvec3">      0.00000000      0.00000000      0.08333333</v>
   <v name="shift">      0.00000000      0.00000000      0.00000000</v>
  </generation>
  <varray name="kpointlist" >
   <v>       0.00000000      0.00000000      0.00000000</v>
   <v>       0.08333333      0.00000000      0.00000000</v>
   <v>       0.16666667      0.00000000      0.00000000</v>
   <v>       0.25000000      0.00000000      0.00000000</v>
   <v>       0.33333333      0.00000000      0.00000000</v>
   <v>       0.41666667      0.00000000      0.00000000</v>
   <v>       0.50000000      0.00000000      0.00000000</v>
   <v>       0.08333333      0.08333333      0.00000000</v>
   <v>       0.16666667      0.08333333      0.00000000</v>
   <v>       0.25000000      0.08333333      0.00000000</v>
   <v>       0.33333333      0.08333333      0.00000000</v>
   <v>       0.41666667      0.08333333      0.00000000</v>
   <v>       0.50000000      0.08333333      0.00000000</v>
   <v>       0.16666667      0.16666667      0.00000000</v>
   <v>       0.25000000      0.16666667      0.00000000</v>
   <v>       0.33333333      0.16666667      0.00000000</v>
   <v>       0.41666667      0.16666667      0.00000000</v>
   <v>       0.50000000      0.16666667      0.00000000</v>
   <v>       0.25000000      0.25000000      0.00000000</v>
   <v>       0.33333333      0.25000000      0.00000000</v>
   <v>       0.41666667      0.25000000      0.00000000</v>
   <v>       0.50000000      0.25000000      0.00000000</v>
   <v>       0.33333333      0.33333333      0.00000000</v>
   <v>       0.41666667      0.33333333      0.00000000</v>
   <v>       0.50000000      0.33333333      0.00000000</v>
   <v>       0.41666667      0.41666667      0.00000000</v>
   <v>       0.50000000      0.41666667      0.00000000</v>
   <v>       0.50000000      0.50000000      0.00000000</v>
   <v>       0.08333333      0.08333333      0.08333333</v>
   <v>       0.16666667      0.08333333      0.08333333</v>
   <v>       0.25000000      0.08333333      0.08333333</v>
   <v>       0.33333333      0.08333333      0.08333333</v>
   <v>       0.41666667      0.08333333      0.08333333</v>
   <v>       0.50000000      0.08333333      0.08333333</v>
   <v>       0.16666667      0.16666667      0.08333333</v>
   <v>       0.25000000      0.16666667      0.08333333</v>
   <v>       0.33333333      0.16666667      0.08333333</v>
   <v>       0.41666667      0.16666667      0.08333333</v>
   <v>       0.50000000      0.16666667      0.08333333</v>
   <v>       0.25000000      0.25000000      0.08333333</v>
   <v>       0.33333333      0.25000000      0.08333333</v>
   <v>       0.41666667      0.25000000      0.08333333</v>
   <v>       0.50000000      0.25000000      0.08333333</v>
   <v>       0.33333333      0.33333333      0.08333333</v>
   <v>       0.41666667      0.33333333      0.08333333</v>
   <v>       0.50000000      0.33333333      0.08333333</v>
   <v>       0.41666667      0.41666667      0.08333333</v>
   <v>       0.50000000      0.41666667      0.08333333</v>
   <v>       0.50000000      0.50000000      0.08333333</v>
   <v>       0.16666667      0.16666667      0.16666667</v>
   <v>       0.25000000      0.16666667      0.16666667</v>
   <v>       0.33333333      0.16666667      0.16666667</v>
   <v>       0.41666667      0.16666667      0.16666667</v>
   <v>       0.50000000      0.16666667      0.16666667</v>
   <v>       0.25000000      0.25000000      0.16666667</v>
   <v>       0.33333333      0.25000000      0.16666667</v>
   <v>       0.41666667      0.25000000      0.16666667</v>
   <v>       0.50000000      0.25000000      0.16666667</v>
   <v>       0.33333333      0.33333333      0.16666667</v>
   <v>       0.41666667      0.33333333      0.16666667</v>
   <v>       0.50000000      0.33333333      0.16666667</v>
   <v>       0.41666667      0.41666667      0.16666667</v>
   <v>       0.50000000      0.41666667      0.16666667</v>
   <v>       0.50000000      0.50000000      0.16666667</v>
   <v>       0.25000000      0.25000000      0.25000000</v>
   <v>       0.33333333      0.25000000      0.25000000</v>
   <v>       0.41666667      0.25000000      0.25000000</v>
   <v>       0.50000000      0.25000000      0.25000000</v>
   <v>       0.33333333      0.33333333      0.25000000</v>
   <v>       0.41666667      0.33333333      0.25000000</v>
   <v>       0.50000000      0.33333333      0.25000000</v>
   <v>       0.41666667      0.41666667      0.25000000</v>
   <v>       0.50000000      0.41666667      0.25000000</v>
   <v>       0.50000000      0.50000000      0.25000000</v>
   <v>       0.33333333      0.33333333      0.33333333</v>
   <v>       0.41666667      0.33333333      0.33333333</v>
   <v>       0.50000000      0.33333333      0.33333333</v>
   <v>       0.41666667      0.41666667      0.33333333</v>
   <v>       0.50000000      0.41666667      0.33333333</v>
   <v>       0.50000000      0.50000000      0.33333333</v>
   <v>       0.41666667      0.41666667      0.41666667</v>
   <v>       0.50000000      0.41666667      0.41666667</v>
   <v>       0.50000000      0.50000000      0.41666667</v>
   <v>       0.50000000      0.50000000      0.50000000</v>
  </varray>
  <varray name="weights" >
   <v>       0.00057870</v>
   <v>       0.00347222</v>
   <v>       0.00347222</v>
   <v>       0.00347222</v>
   <v>       0.00347222</v>
   <v>       0.00347222</v>
   <v>       0.00173611</v>
   <v>       0.00694444</v>
   <v>       0.01388889</v>
   <v>       0.01388889</v>
   <v>       0.01388889</v>
   <v>       0.01388889</v>
   <v>       0.00694444</v>
   <v>       0.00694444</v>
   <v>       0.01388889</v>
   <v>       0.01388889</v>
   <v>       0.01388889</v>
   <v>       0.00694444</v>
   <v>       0.00694444</v>
   <v>       0.01388889</v>
   <v>       0.01388889</v>
   <v>       0.00694444</v>
   <v>       0.00694444</v>
   <v>       0.01388889</v>
   <v>       0.00694444</v>
   <v>       0.00694444</v>
   <v>       0.00694444</v>
   <v>       0.00173611</v>
   <v>       0.00462963</v>
   <v>       0.01388889</v>
   <v>       0.01388889</v>
   <v>       0.01388889</v>
   <v>       0.01388889</v>
   <v>       0.00694444</v>
   <v>       0.01388889</v>
   <v>       0.02777778</v>
   <v>       0.02777778</v>
   <v>       0.02777778</v>
   <v>       0.01388889</v>
   <v>       0.01388889</v>
   <v>       0.02777778</v>
   <v>       0.02777778</v>
   <v>       0.01388889</v>
   <v>       0.01388889</v>
   <v>       0.02777778</v>
   <v>       0.01388889</v>
   <v>       0.01388889</v>
   <v>       0.01388889</v>
   <v>       0.00347222</v>
   <v>       0.00462963</v>
   <v>       0.01388889</v>
   <v>       0.01388889</v>
   <v>       0.01388889</v>
   <v>       0.00694444</v>
   <v>       0.01388889</v>
   <v>       0.02777778</v>
   <v>       0.02777778</v>
   <v>       0.01388889</v>
   <v>       0.01388889</v>
   <v>       0.02777778</v>
   <v>       0.01388889</v>
   <v>       0.01388889</v>
   <v>       0.01388889</v>
   <v>       0.00347222</v>
   <v>       0.00462963</v>
   <v>       0.01388889</v>
   <v>       0.01388889</v>
   <v>       0.00694444</v>
   <v>       0.01388889</v>
   <v>       0.02777778</v>
   <v>       0.01388889</v>
   <v>       0.01388889</v>
   <v>       0.01388889</v>
   <v>       0.00347222</v>
   <v>       0.00462963</v>
   <v>       0.01388889</v>
   <v>       0.00694444</v>
   <v>       0.01388889</v>
   <v>       0.01388889</v>
   <v>       0.00347222</v>
   <v>       0.00462963</v>
   <v>       0.00694444</v>
   <v>       0.00347222</v>
   <v>       0.00057870</v>
  </varray>
 </kpoints>
 <parameters>
  <separator name="general" >
   <i type="string" name="SYSTEM">unknown system</i>
   <i type="logical" name="LCOMPAT"> F  </i>
  </separator>
  <separator name="electronic" >
   <i type="string" name="PREC">accura</i>
   <i name="ENMAX">    750.00000000</i>
   <i name="ENAUG">    412.49600000</i>
   <i name="EDIFF">      0.00000001</i>
   <i type="int" name="IALGO">    38</i>
   <i type="int" name="IWAVPR">    10</i>
   <i type="int" name="NBANDS">    26</i>
   <i name="NELECT">     44.00000000</i>
   <separator name="electronic smearing" >
    <i type="int" name="ISMEAR">     0</i>
    <i name="SIGMA">      0.01000000</i>
   </separator>
   <separator name="electronic projectors" >
    <i type="logical" name="LREAL"> F  </i>
    <v name="ROPT">      0.00000000</v>
    <i type="int" name="LMAXPAW">  -100</i>
    <i type="int" name="LMAXMIX">     2</i>
   </separator>
   <separator name="electronic startup" >
    <i type="int" name="ISTART">     0</i>
    <i type="int" name="ICHARG">     2</i>
    <i type="int" name="INIWAV">     1</i>
   </separator>
   <separator name="electronic spin" >
    <i type="int" name="ISPIN">     1</i>
    <i type="logical" name="LNONCOLLINEAR"> F  </i>
    <v name="MAGMOM">      1.00000000      1.00000000      1.00000000      1.00000000</v>
    <i name="NUPDOWN">     -1.00000000</i>
    <i type="logical" name="LSORBIT"> F  </i>
    <v name="SAXIS">      0.00000000      0.00000000      1.00000000</v>
    <i type="logical" name="LSPIRAL"> F  </i>
    <v name="QSPIRAL">      0.00000000      0.00000000      0.00000000</v>
    <i type="logical" name="LZEROZ"> F  </i>
   </separator>
   <separator name="electronic exchange-correlation" >
    <i type="string" name="GGA">--</i>
    <i type="int" name="VOSKOWN">     0</i>
    <i type="logical" name="LASPH"> F  </i>
    <i type="logical" name="LMETAGGA"> F  </i>
    <i type="string" name="GGA2">--</i>
   </separator>
   <separator name="electronic convergence" >
    <i type="int" name="NELM">    60</i>
    <i type="int" name="NELMDL">     0</i>
    <i type="int" name="NELMIN">     2</i>
    <i name="ENINI">    750.00000000</i>
    <separator name="electronic convergence detail" >
     <i type="logical" name="LDIAG"> T  </i>
     <i name="WEIMIN">      0.00000000</i>
     <i name="EBREAK">      0.00000000</i>
     <i name="DEPER">      0.30000000</i>
     <i type="int" name="NRMM">     4</i>
     <i name="TIME">      0.10000000</i>
    </separator>
   </separator>
   <separator name="electronic mixer" >
    <i name="AMIX">      0.40000000</i>
    <i name="BMIX">      1.00000000</i>
    <i name="AMIN">      0.10000000</i>
    <i name="AMIX_MAG">      1.60000000</i>
    <i name="BMIX_MAG">      1.00000000</i>
    <separator name="electronic mixer details" >
     <i type="int" name="IMIX">     4</i>
     <i type="int" name="MAXMIX">   -45</i>
     <i name="WC">    100.00000000</i>
     <i type="int" name="INIMIX">     1</i>
     <i type="int" name="MIXPRE">     1</i>
     <i type="int" name="MREMOVE">     5</i>
    </separator>
   </separator>
   <separator name="electronic dipolcorrection" >
    <i type="int" name="IDIPOL">     0</i>
    <i type="logical" name="LDIPOL"> F  </i>
    <v name="DIPOL">   -100.00000000</v>
    <i name="EFIELD">      0.00000000</i>
   </separator>
  </separator>
  <separator name="grids" >
   <i type="int" name="NGX">    42</i>
   <i type="int" name="NGY">    42</i>
   <i type="int" name="NGZ">    42</i>
   <i type="int" name="NGXF">    84</i>
   <i type="int" name="NGYF">    84</i>
   <i type="int" name="NGZF">    84</i>
   <i type="logical" name="ADDGRID"> T  </i>
  </separator>
  <separator name="ionic" >
   <i type="int" name="NSW">     0</i>
   <i type="int" name="IBRION">    -1</i>
   <i type="int" name="ISIF">     2</i>
   <i name="PSTRESS">      0.00000000</i>
   <i name="EDIFFG">      0.00000010</i>
   <i type="int" name="NFREE">     0</i>
   <i name="POTIM">      0.50000000</i>
   <i name="SMASS">     -3.00000000</i>
  </separator>
  <separator name="ionic md" >
   <i name="TEBEG">      0.00010000</i>
   <i name="TEEND">      0.00010000</i>
   <i type="int" name="NBLOCK">     1</i>
   <i type="int" name="KBLOCK">     1</i>
   <i type="int" name="NPACO">   256</i>
   <i name="APACO">     16.00000000</i>
  </separator>
  <separator name="symmetry" >
   <i type="int" name="ISYM">     2</i>
   <i name="SYMPREC">      0.00001000</i>
  </separator>
  <separator name="dos" >
   <i type="logical" name="LORBIT"> F  </i>
   <v name="RWIGS">     -1.00000000</v>
   <i type="int" name="NEDOS">   301</i>
   <i name="EMIN">     10.00000000</i>
   <i name="EMAX">    -10.00000000</i>
  </separator>
  <separator name="writing" >
   <i type="int" name="NWRITE">     2</i>
   <i type="logical" name="LWAVE"> F  </i>
   <i type="logical" name="LCHARG"> F  </i>
   <i type="logical" name="LPARD"> F  </i>
   <i type="logical" name="LVTOT"> F  </i>
   <i type="logical" name="LELF"> F  </i>
   <i type="logical" name="LOPTICS"> F  </i>
   <i name="STM">      0.00000000</i>
  </separator>
  <separator name="performance" >
   <i type="int" name="NPAR">     4</i>
   <i type="int" name="NSIM">     4</i>
   <i type="int" name="NBLK">   256</i>
   <i type="logical" name="LPLANE"> T  </i>
   <i type="logical" name="LCRITICAL_MEM"> F  </i>
   <i type="logical" name="LSCALAPACK"> F  </i>
   <i type="logical" name="LSCALU"> F  </i>
   <i type="logical" name="LASYNC"> F  </i>
  </separator>
  <separator name="miscellaneous" >
   <i type="int" name="IDIOT">     3</i>
   <i type="logical" name="LMUSIC"> F  </i>
   <v name="POMASS">    107.86800000</v>
   <i type="logical" name="LCORR"> T  </i>
  </separator>
  <i type="logical" name="LREAL_COMPAT"> F  </i>
  <i type="logical" name="GGA_COMPAT"> T  </i>
  <i type="logical" name="LBERRY"> F  </i>
  <i type="int" name="ICORELEVEL">     0</i>
  <i type="logical" name="LDAU"> F  </i>
  <i type="int" name="I_CONSTRAINED_M">     0</i>
 </parameters>
 <atominfo>
  <atoms>       4</atoms>
  <types>       1</types>
  <array name="atoms" >
   <dimension dim="1">ion</dimension>
   <field type="string">element</field>
   <field type="int">atomtype</field>
   <set>
    <rc><c>Ag</c><c>   1</c></rc>
    <rc><c>Ag</c><c>   1</c></rc>
    <rc><c>Ag</c><c>   1</c></rc>
    <rc><c>Ag</c><c>   1</c></rc>
   </set>
  </array>
  <array name="atomtypes" >
   <dimension dim="1">type</dimension>
   <field type="int">atomspertype</field>
   <field type="string">element</field>
   <field>mass</field>
   <field>valence</field>
   <field type="string">pseudopotential</field>
   <set>
    <rc><c>   4</c><c>Ag</c><c>    107.86800000</c><c>     11.00000000</c><c> PAW_PBE Ag 06Sep2000                   </c></rc>
   </set>
  </array>
 </atominfo>
 <structure name="initialpos" >
  <crystal>
   <varray name="basis" >
    <v>       4.53791501      0.00000000      0.00000000</v>
    <v>       0.00000000      4.53791501      0.00000000</v>
    <v>       0.00000000      0.00000000      4.53791501</v>
   </varray>
   <i name="volume">     93.44779838</i>
   <varray name="rec_basis" >
    <v>       0.22036552      0.00000000      0.00000000</v>
    <v>       0.00000000      0.22036552      0.00000000</v>
    <v>       0.00000000      0.00000000      0.22036552</v>
   </varray>
  </crystal>
  <varray name="positions" >
   <v>       0.00000000      0.00000000      0.00000000</v>
   <v>       0.50000000      0.50000000      0.00000000</v>
   <v>       0.50000000      0.00000000      0.50000000</v>
   <v>       0.00000000      0.50000000      0.50000000</v>
  </varray>
 </structure>
 <calculation>
  <scstep>
   <time name="dav">   14.94   14.97</time>
   <time name="total">   15.49   15.53</time>
   <energy>
    <i name="alphaZ">    304.04604252</i>
    <i name="ewald">  -3520.80004520</i>
    <i name="hartreedc">  -1009.73507088</i>
    <i name="XCdc">    -45.66803158</i>
    <i name="pawpsdc">   3482.67677651</i>
    <i name="pawaedc">  -3297.07979946</i>
    <i name="eentropy">     -0.00011158</i>
    <i name="bandstr">    382.17751837</i>
    <i name="atom">   4149.64961272</i>
    <i name="e_fr_energy">    445.26689142</i>
    <i name="e_wo_entrp">    445.26700300</i>
    <i name="e_0_energy">    445.26694721</i>
   </energy>
  </scstep>
  <scstep>
   <time name="dav">   14.92   14.97</time>
   <time name="total">   14.93   14.98</time>
   <energy>
    <i name="e_fr_energy">      5.53707172</i>
    <i name="e_wo_entrp">      5.53718495</i>
    <i name="e_0_energy">      5.53712834</i>
   </energy>
  </scstep>
  <scstep>
   <time name="dav">   15.72   15.76</time>
   <time name="total">   15.72   15.77</time>
   <energy>
    <i name="e_fr_energy">    -10.75057663</i>
    <i name="e_wo_entrp">    -10.75056072</i>
    <i name="e_0_energy">    -10.75056868</i>
   </energy>
  </scstep>
  <scstep>
   <time name="dav">   15.34   15.39</time>
   <time name="total">   15.35   15.40</time>
   <energy>
    <i name="e_fr_energy">    -10.88715208</i>
    <i name="e_wo_entrp">    -10.88713458</i>
    <i name="e_0_energy">    -10.88714333</i>
   </energy>
  </scstep>
  <scstep>
   <time name="dav">   15.42   15.43</time>
   <time name="total">   16.87   16.89</time>
   <energy>
    <i name="e_fr_energy">    -10.88773165</i>
    <i name="e_wo_entrp">    -10.88771415</i>
    <i name="e_0_energy">    -10.88772290</i>
   </energy>
  </scstep>
  <scstep>
   <time name="dav">   15.20   15.21</time>
   <time name="total">   17.17   17.18</time>
   <energy>
    <i name="e_fr_energy">    -10.35123764</i>
    <i name="e_wo_entrp">    -10.35101978</i>
    <i name="e_0_energy">    -10.35112871</i>
   </energy>
  </scstep>
  <scstep>
   <time name="dav">   14.99   15.03</time>
   <time name="total">   16.85   16.90</time>
   <energy>
    <i name="e_fr_energy">    -10.34713399</i>
    <i name="e_wo_entrp">    -10.34692122</i>
    <i name="e_0_energy">    -10.34702761</i>
   </energy>
  </scstep>
  <scstep>
   <time name="dav">   12.99   13.02</time>
   <time name="total">   14.55   14.58</time>
   <energy>
    <i name="e_fr_energy">    -10.34519852</i>
    <i name="e_wo_entrp">    -10.34498433</i>
    <i name="e_0_energy">    -10.34509143</i>
   </energy>
  </scstep>
  <scstep>
   <time name="dav">   10.17   10.18</time>
   <time name="total">   11.38   11.39</time>
   <energy>
    <i name="e_fr_energy">    -10.34528853</i>
    <i name="e_wo_entrp">    -10.34506728</i>
    <i name="e_0_energy">    -10.34517790</i>
   </energy>
  </scstep>
  <scstep>
   <time name="dav">    8.15    8.16</time>
   <time name="total">    9.18    9.19</time>
   <energy>
    <i name="e_fr_energy">    -10.34529337</i>
    <i name="e_wo_entrp">    -10.34507741</i>
    <i name="e_0_energy">    -10.34518539</i>
   </energy>
  </scstep>
  <scstep>
   <time name="dav">    6.94    6.94</time>
   <time name="total">    7.90    7.90</time>
   <energy>
    <i name="e_fr_energy">    -10.34529325</i>
    <i name="e_wo_entrp">    -10.34507849</i>
    <i name="e_0_energy">    -10.34518587</i>
   </energy>
  </scstep>
  <scstep>
   <time name="dav">    7.79    7.80</time>
   <time name="total">    9.00    9.01</time>
   <energy>
    <i name="e_fr_energy">    -10.34529275</i>
    <i name="e_wo_entrp">    -10.34507803</i>
    <i name="e_0_energy">    -10.34518539</i>
   </energy>
  </scstep>
  <scstep>
   <time name="dav">    6.97    6.98</time>
   <time name="total">    7.37    7.38</time>
   <energy>
    <i name="alphaZ">    304.04604252</i>
    <i name="ewald">  -3520.80004520</i>
    <i name="hartreedc">   -971.53681888</i>
    <i name="XCdc">    -47.13169465</i>
    <i name="pawpsdc">   3430.60687403</i>
    <i name="pawaedc">  -3249.14982203</i>
    <i name="eentropy">     -0.00021474</i>
    <i name="bandstr">   -106.02922653</i>
    <i name="atom">   4149.64961272</i>
    <i name="e_fr_energy">    -10.34529275</i>
    <i name="e_wo_entrp">    -10.34507802</i>
    <i name="e_0_energy">    -10.34518538</i>
   </energy>
  </scstep>
  <structure>
   <crystal>
    <varray name="basis" >
     <v>       4.53791501      0.00000000      0.00000000</v>
     <v>       0.00000000      4.53791501      0.00000000</v>
     <v>       0.00000000      0.00000000      4.53791501</v>
    </varray>
    <i name="volume">     93.44779838</i>
    <varray name="rec_basis" >
     <v>       0.22036552      0.00000000      0.00000000</v>
     <v>       0.00000000      0.22036552      0.00000000</v>
     <v>       0.00000000      0.00000000      0.22036552</v>
    </varray>
   </crystal>
   <varray name="positions" >
    <v>       0.00000000      0.00000000      0.00000000</v>
    <v>       0.50000000      0.50000000      0.00000000</v>
    <v>       0.50000000      0.00000000      0.50000000</v>
    <v>       0.00000000      0.50000000      0.50000000</v>
   </varray>
  </structure>
  <varray name="forces" >
   <v>       0.00000000      0.00000000     -0.00000000</v>
   <v>       0.00000000      0.00000000     -0.00000000</v>
   <v>       0.00000000      0.00000000     -0.00000000</v>
   <v>       0.00000000      0.00000000     -0.00000000</v>
  </varray>
  <varray name="stress" >
   <v>    -108.23204747     -0.00000000      0.00000000</v>
   <v>       0.00000000   -108.23204747      0.00000000</v>
   <v>       0.00000000      0.00000000   -108.23204747</v>
  </varray>
  <energy>
   <i name="e_fr_energy">    -10.34529275</i>
   <i name="e_wo_entrp">    -10.34518538</i>
   <i name="e_0_energy">     -0.00021474</i>
  </energy>
  <eigenvalues>
   <array>
    <dimension dim="1">band</dimension>
    <dimension dim="2">kpoint</dimension>
    <dimension dim="3">spin</dimension>
    <field>eigene</field>
    <field>occ</field>
    <set>
     <set comment="spin 1">
      <set comment="kpoint 1">
       <r>  -4.5683  1.0000</r>
       <r>  -3.6607  1.0000</r>
       <r>  -3.6607  1.0000</r>
       <r>  -3.6607  1.0000</r>
       <r>  -3.6156  1.0000</r>
       <r>  -3.6156  1.0000</r>
       <r>  -3.6156  1.0000</r>
       <r>  -2.7659  1.0000</r>
       <r>  -2.7659  1.0000</r>
       <r>  -2.7659  1.0000</r>
       <r>  -2.1826  1.0000</r>
       <r>  -2.1826  1.0000</r>
       <r>  -1.7490  1.0000</r>
       <r>  -1.7490  1.0000</r>
       <r>  -1.7490  1.0000</r>
       <r>  -1.6105  1.0000</r>
       <r>  -1.6105  1.0000</r>
       <r>  -1.6105  1.0000</r>
       <r>  -1.6105  1.0000</r>
       <r>  -1.6105  1.0000</r>
       <r>  -1.6105  1.0000</r>
       <r>   3.0543  0.0000</r>
       <r>   3.0543  0.0000</r>
       <r>   3.0543  0.0000</r>
       <r>   5.8277  0.0000</r>
       <r>   5.8277  0.0000</r>
       <r>   5.8277  0.0000</r>
       <r>  10.3754  0.0000</r>
      </set>
      <set comment="kpoint 2">
       <r>  -4.5115  1.0000</r>
       <r>  -3.6420  1.0000</r>
       <r>  -3.6368  1.0000</r>
       <r>  -3.6368  1.0000</r>
       <r>  -3.6020  1.0000</r>
       <r>  -3.5942  1.0000</r>
       <r>  -3.5942  1.0000</r>
       <r>  -2.7815  1.0000</r>
       <r>  -2.7501  1.0000</r>
       <r>  -2.7501  1.0000</r>
       <r>  -2.1979  1.0000</r>
       <r>  -2.1755  1.0000</r>
       <r>  -1.7690  1.0000</r>
       <r>  -1.7690  1.0000</r>
       <r>  -1.7566  1.0000</r>
       <r>  -1.6738  1.0000</r>
       <r>  -1.6738  1.0000</r>
       <r>  -1.6355  1.0000</r>
       <r>  -1.6355  1.0000</r>
       <r>  -1.6105  1.0000</r>
       <r>  -1.6105  1.0000</r>
       <r>   2.5321  0.0000</r>
       <r>   3.1695  0.0000</r>
       <r>   3.1695  0.0000</r>
       <r>   5.8437  0.0000</r>
       <r>   5.8437  0.0000</r>
       <r>   6.4493  0.0000</r>
       <r>  10.1196  0.0000</r>
      </set>
      <set comment="kpoint 3">
       <r>  -4.3439  1.0000</r>
       <r>  -3.5878  1.0000</r>
       <r>  -3.5684  1.0000</r>
       <r>  -3.5684  1.0000</r>
       <r>  -3.5622  1.0000</r>
       <r>  -3.5301  1.0000</r>
       <r>  -3.5301  1.0000</r>
       <r>  -2.8267  1.0000</r>
       <r>  -2.7032  1.0000</r>
       <r>  -2.7032  1.0000</r>
       <r>  -2.2399  1.0000</r>
       <r>  -2.1545  1.0000</r>
       <r>  -1.8452  1.0000</r>
       <r>  -1.8452  1.0000</r>
       <r>  -1.8270  1.0000</r>
       <r>  -1.8270  1.0000</r>
       <r>  -1.7790  1.0000</r>
       <r>  -1.7073  1.0000</r>
       <r>  -1.7073  1.0000</r>
       <r>  -1.6104  1.0000</r>
       <r>  -1.6104  1.0000</r>
       <r>   1.5504  0.0000</r>
       <r>   3.4962  0.0000</r>
       <r>   3.4962  0.0000</r>
       <r>   5.8917  0.0000</r>
       <r>   5.8917  0.0000</r>
       <r>   7.7299  0.0000</r>
       <r>   9.4838  0.0000</r>
      </set>
      <set comment="kpoint 4">
       <r>  -4.0763  1.0000</r>
       <r>  -3.5049  1.0000</r>
       <r>  -3.4982  1.0000</r>
       <r>  -3.4655  1.0000</r>
       <r>  -3.4655  1.0000</r>
       <r>  -3.4240  1.0000</r>
       <r>  -3.4240  1.0000</r>
       <r>  -2.8980  1.0000</r>
       <r>  -2.6267  1.0000</r>
       <r>  -2.6267  1.0000</r>
       <r>  -2.2949  1.0000</r>
       <r>  -2.1209  1.0000</r>
       <r>  -2.0843  1.0000</r>
       <r>  -2.0843  1.0000</r>
       <r>  -1.9158  1.0000</r>
       <r>  -1.9158  1.0000</r>
       <r>  -1.8174  1.0000</r>
       <r>  -1.8174  1.0000</r>
       <r>  -1.8143  1.0000</r>
       <r>  -1.6103  1.0000</r>
       <r>  -1.6103  1.0000</r>
       <r>   0.5356  1.0000</r>
       <r>   3.9921  0.0000</r>
       <r>   3.9921  0.0000</r>
       <r>   5.9711  0.0000</r>
       <r>   5.9711  0.0000</r>
       <r>   8.6789  0.0000</r>
       <r>   8.6789  0.0000</r>
      </set>
      <set comment="kpoint 5">
       <r>  -3.7405  1.0000</r>
       <r>  -3.4139  1.0000</r>
       <r>  -3.4060  1.0000</r>
       <r>  -3.3475  1.0000</r>
       <r>  -3.3475  1.0000</r>
       <r>  -3.2769  1.0000</r>
       <r>  -3.2769  1.0000</r>
       <r>  -2.9896  1.0000</r>
       <r>  -2.5234  1.0000</r>
       <r>  -2.5234  1.0000</r>
       <r>  -2.3518  1.0000</r>
       <r>  -2.3518  1.0000</r>
       <r>  -2.3266  1.0000</r>
       <r>  -2.0769  1.0000</r>
       <r>  -2.0198  1.0000</r>
       <r>  -2.0198  1.0000</r>
       <r>  -1.9537  1.0000</r>
       <r>  -1.9537  1.0000</r>
       <r>  -1.8602  1.0000</r>
       <r>  -1.6102  1.0000</r>
       <r>  -1.6102  1.0000</r>
       <r>  -0.4057  1.0000</r>
       <r>   4.6149  0.0000</r>
       <r>   4.6149  0.0000</r>
       <r>   6.0747  0.0000</r>
       <r>   6.0747  0.0000</r>
       <r>   7.8174  0.0000</r>
       <r>   7.8174  0.0000</r>
      </set>
      <set comment="kpoint 6">
       <r>  -3.4286  1.0000</r>
       <r>  -3.3159  1.0000</r>
       <r>  -3.3142  1.0000</r>
       <r>  -3.2464  1.0000</r>
       <r>  -3.2464  1.0000</r>
       <r>  -3.0947  1.0000</r>
       <r>  -3.0908  1.0000</r>
       <r>  -3.0908  1.0000</r>
       <r>  -2.6196  1.0000</r>
       <r>  -2.6196  1.0000</r>
       <r>  -2.3975  1.0000</r>
       <r>  -2.3975  1.0000</r>
       <r>  -2.2368  1.0000</r>
       <r>  -2.1109  1.0000</r>
       <r>  -2.1109  1.0000</r>
       <r>  -2.1035  1.0000</r>
       <r>  -2.1035  1.0000</r>
       <r>  -2.0253  1.0000</r>
       <r>  -1.9131  1.0000</r>
       <r>  -1.6101  1.0000</r>
       <r>  -1.6101  1.0000</r>
       <r>  -1.2268  1.0000</r>
       <r>   5.3318  0.0000</r>
       <r>   5.3318  0.0000</r>
       <r>   6.1772  0.0000</r>
       <r>   6.1772  0.0000</r>
       <r>   6.9539  0.0000</r>
       <r>   6.9539  0.0000</r>
      </set>
      <set comment="kpoint 7">
       <r>  -3.2893  1.0000</r>
       <r>  -3.2893  1.0000</r>
       <r>  -3.2054  1.0000</r>
       <r>  -3.2054  1.0000</r>
       <r>  -3.2048  1.0000</r>
       <r>  -3.2048  1.0000</r>
       <r>  -2.8696  1.0000</r>
       <r>  -2.8696  1.0000</r>
       <r>  -2.8696  1.0000</r>
       <r>  -2.8696  1.0000</r>
       <r>  -2.2548  1.0000</r>
       <r>  -2.2548  1.0000</r>
       <r>  -2.2548  1.0000</r>
       <r>  -2.2548  1.0000</r>
       <r>  -2.1488  1.0000</r>
       <r>  -2.1488  1.0000</r>
       <r>  -1.9695  1.0000</r>
       <r>  -1.9695  1.0000</r>
       <r>  -1.8700  1.0000</r>
       <r>  -1.8700  1.0000</r>
       <r>  -1.6100  1.0000</r>
       <r>  -1.6100  1.0000</r>
       <r>   6.1183  0.0000</r>
       <r>   6.1183  0.0000</r>
       <r>   6.1183  0.0000</r>
       <r>   6.1183  0.0000</r>
       <r>   6.2242  0.0000</r>
       <r>   6.2242  0.0000</r>
      </set>
      <set comment="kpoint 8">
       <r>  -4.4555  1.0000</r>
       <r>  -3.6209  1.0000</r>
       <r>  -3.6180  1.0000</r>
       <r>  -3.6180  1.0000</r>
       <r>  -3.5809  1.0000</r>
       <r>  -3.5809  1.0000</r>
       <r>  -3.5657  1.0000</r>
       <r>  -2.7862  1.0000</r>
       <r>  -2.7447  1.0000</r>
       <r>  -2.7352  1.0000</r>
       <r>  -2.2017  1.0000</r>
       <r>  -2.1783  1.0000</r>
       <r>  -1.7883  1.0000</r>
       <r>  -1.7855  1.0000</r>
       <r>  -1.7855  1.0000</r>
       <r>  -1.7165  1.0000</r>
       <r>  -1.6898  1.0000</r>
       <r>  -1.6898  1.0000</r>
       <r>  -1.6356  1.0000</r>
       <r>  -1.6356  1.0000</r>
       <r>  -1.6283  1.0000</r>
       <r>   2.6377  0.0000</r>
       <r>   2.6377  0.0000</r>
       <r>   3.2820  0.0000</r>
       <r>   5.8588  0.0000</r>
       <r>   6.4733  0.0000</r>
       <r>   6.4733  0.0000</r>
       <r>   9.3673  0.0000</r>
      </set>
      <set comment="kpoint 9">
       <r>  -4.2903  1.0000</r>
       <r>  -3.5690  1.0000</r>
       <r>  -3.5634  1.0000</r>
       <r>  -3.5491  1.0000</r>
       <r>  -3.5419  1.0000</r>
       <r>  -3.5178  1.0000</r>
       <r>  -3.4879  1.0000</r>
       <r>  -2.8252  1.0000</r>
       <r>  -2.7029  1.0000</r>
       <r>  -2.6912  1.0000</r>
       <r>  -2.2378  1.0000</r>
       <r>  -2.1585  1.0000</r>
       <r>  -1.9074  1.0000</r>
       <r>  -1.8723  1.0000</r>
       <r>  -1.8442  1.0000</r>
       <r>  -1.8400  1.0000</r>
       <r>  -1.7963  1.0000</r>
       <r>  -1.7296  1.0000</r>
       <r>  -1.7076  1.0000</r>
       <r>  -1.6369  1.0000</r>
       <r>  -1.6357  1.0000</r>
       <r>   1.6507  0.0000</r>
       <r>   2.9336  0.0000</r>
       <r>   3.6022  0.0000</r>
       <r>   5.9026  0.0000</r>
       <r>   6.5449  0.0000</r>
       <r>   7.7534  0.0000</r>
       <r>   8.5237  0.0000</r>
      </set>
      <set comment="kpoint 10">
       <r>  -4.0274  1.0000</r>
       <r>  -3.4802  1.0000</r>
       <r>  -3.4797  1.0000</r>
       <r>  -3.4793  1.0000</r>
       <r>  -3.4457  1.0000</r>
       <r>  -3.4131  1.0000</r>
       <r>  -3.3722  1.0000</r>
       <r>  -2.8936  1.0000</r>
       <r>  -2.6275  1.0000</r>
       <r>  -2.6229  1.0000</r>
       <r>  -2.2858  1.0000</r>
       <r>  -2.1306  1.0000</r>
       <r>  -2.1204  1.0000</r>
       <r>  -2.1016  1.0000</r>
       <r>  -1.9365  1.0000</r>
       <r>  -1.9300  1.0000</r>
       <r>  -1.8978  1.0000</r>
       <r>  -1.8180  1.0000</r>
       <r>  -1.7798  1.0000</r>
       <r>  -1.6385  1.0000</r>
       <r>  -1.6360  1.0000</r>
       <r>   0.6375  1.0000</r>
       <r>   3.3739  0.0000</r>
       <r>   4.0905  0.0000</r>
       <r>   5.9635  0.0000</r>
       <r>   6.6586  0.0000</r>
       <r>   7.7110  0.0000</r>
       <r>   8.7566  0.0000</r>
      </set>
      <set comment="kpoint 11">
       <r>  -3.6989  1.0000</r>
       <r>  -3.3968  1.0000</r>
       <r>  -3.3794  1.0000</r>
       <r>  -3.3631  1.0000</r>
       <r>  -3.3270  1.0000</r>
       <r>  -3.2681  1.0000</r>
       <r>  -3.2303  1.0000</r>
       <r>  -2.9827  1.0000</r>
       <r>  -2.5499  1.0000</r>
       <r>  -2.5246  1.0000</r>
       <r>  -2.3876  1.0000</r>
       <r>  -2.3613  1.0000</r>
       <r>  -2.2898  1.0000</r>
       <r>  -2.0685  1.0000</r>
       <r>  -2.0661  1.0000</r>
       <r>  -2.0305  1.0000</r>
       <r>  -2.0073  1.0000</r>
       <r>  -1.9546  1.0000</r>
       <r>  -1.8368  1.0000</r>
       <r>  -1.6385  1.0000</r>
       <r>  -1.6364  1.0000</r>
       <r>  -0.2972  1.0000</r>
       <r>   3.9123  0.0000</r>
       <r>   4.7062  0.0000</r>
       <r>   5.9778  0.0000</r>
       <r>   6.7883  0.0000</r>
       <r>   7.0341  0.0000</r>
       <r>   7.8945  0.0000</r>
      </set>
      <set comment="kpoint 12">
       <r>  -3.3942  1.0000</r>
       <r>  -3.2994  1.0000</r>
       <r>  -3.2871  1.0000</r>
       <r>  -3.2466  1.0000</r>
       <r>  -3.2262  1.0000</r>
       <r>  -3.0850  1.0000</r>
       <r>  -3.0850  1.0000</r>
       <r>  -3.0681  1.0000</r>
       <r>  -2.6425  1.0000</r>
       <r>  -2.6227  1.0000</r>
       <r>  -2.4884  1.0000</r>
       <r>  -2.3987  1.0000</r>
       <r>  -2.2162  1.0000</r>
       <r>  -2.1513  1.0000</r>
       <r>  -2.1173  1.0000</r>
       <r>  -2.1047  1.0000</r>
       <r>  -2.1042  1.0000</r>
       <r>  -1.9967  1.0000</r>
       <r>  -1.9005  1.0000</r>
       <r>  -1.6381  1.0000</r>
       <r>  -1.6369  1.0000</r>
       <r>  -1.1054  1.0000</r>
       <r>   4.5112  0.0000</r>
       <r>   5.4174  0.0000</r>
       <r>   5.7056  0.0000</r>
       <r>   6.7353  0.0000</r>
       <r>   6.8549  0.0000</r>
       <r>   7.0323  0.0000</r>
      </set>
      <set comment="kpoint 13">
       <r>  -3.2578  1.0000</r>
       <r>  -3.2578  1.0000</r>
       <r>  -3.1931  1.0000</r>
       <r>  -3.1931  1.0000</r>
       <r>  -3.1896  1.0000</r>
       <r>  -3.1896  1.0000</r>
       <r>  -2.8737  1.0000</r>
       <r>  -2.8737  1.0000</r>
       <r>  -2.8677  1.0000</r>
       <r>  -2.8677  1.0000</r>
       <r>  -2.3715  1.0000</r>
       <r>  -2.3715  1.0000</r>
       <r>  -2.2561  1.0000</r>
       <r>  -2.2561  1.0000</r>
       <r>  -2.1493  1.0000</r>
       <r>  -2.1493  1.0000</r>
       <r>  -1.9756  1.0000</r>
       <r>  -1.9756  1.0000</r>
       <r>  -1.7245  1.0000</r>
       <r>  -1.7245  1.0000</r>
       <r>  -1.6375  1.0000</r>
       <r>  -1.6375  1.0000</r>
       <r>   5.1353  0.0000</r>
       <r>   5.1353  0.0000</r>
       <r>   6.1995  0.0000</r>
       <r>   6.1995  0.0000</r>
       <r>   6.7895  0.0000</r>
       <r>   6.7895  0.0000</r>
      </set>
      <set comment="kpoint 14">
       <r>  -4.1332  1.0000</r>
       <r>  -3.5395  1.0000</r>
       <r>  -3.4934  1.0000</r>
       <r>  -3.4934  1.0000</r>
       <r>  -3.4813  1.0000</r>
       <r>  -3.4813  1.0000</r>
       <r>  -3.3957  1.0000</r>
       <r>  -2.8393  1.0000</r>
       <r>  -2.6828  1.0000</r>
       <r>  -2.6565  1.0000</r>
       <r>  -2.2523  1.0000</r>
       <r>  -2.1453  1.0000</r>
       <r>  -2.0064  1.0000</r>
       <r>  -2.0064  1.0000</r>
       <r>  -1.9759  1.0000</r>
       <r>  -1.8944  1.0000</r>
       <r>  -1.7889  1.0000</r>
       <r>  -1.7889  1.0000</r>
       <r>  -1.7084  1.0000</r>
       <r>  -1.7084  1.0000</r>
       <r>  -1.6808  1.0000</r>
       <r>   1.9290  0.0000</r>
       <r>   1.9290  0.0000</r>
       <r>   3.9062  0.0000</r>
       <r>   5.9210  0.0000</r>
       <r>   7.5856  0.0000</r>
       <r>   7.8129  0.0000</r>
       <r>   7.8129  0.0000</r>
      </set>
      <set comment="kpoint 15">
       <r>  -3.8856  1.0000</r>
       <r>  -3.4710  1.0000</r>
       <r>  -3.4229  1.0000</r>
       <r>  -3.4073  1.0000</r>
       <r>  -3.3880  1.0000</r>
       <r>  -3.3810  1.0000</r>
       <r>  -3.2726  1.0000</r>
       <r>  -2.8890  1.0000</r>
       <r>  -2.6209  1.0000</r>
       <r>  -2.6080  1.0000</r>
       <r>  -2.2854  1.0000</r>
       <r>  -2.2323  1.0000</r>
       <r>  -2.1626  1.0000</r>
       <r>  -2.1295  1.0000</r>
       <r>  -2.0910  1.0000</r>
       <r>  -1.9719  1.0000</r>
       <r>  -1.8792  1.0000</r>
       <r>  -1.8196  1.0000</r>
       <r>  -1.8104  1.0000</r>
       <r>  -1.7097  1.0000</r>
       <r>  -1.7038  1.0000</r>
       <r>   0.9153  1.0000</r>
       <r>   2.3392  0.0000</r>
       <r>   4.3748  0.0000</r>
       <r>   5.8458  0.0000</r>
       <r>   6.8520  0.0000</r>
       <r>   7.8542  0.0000</r>
       <r>   8.9855  0.0000</r>
      </set>
      <set comment="kpoint 16">
       <r>  -3.5811  1.0000</r>
       <r>  -3.3674  1.0000</r>
       <r>  -3.3461  1.0000</r>
       <r>  -3.3030  1.0000</r>
       <r>  -3.2672  1.0000</r>
       <r>  -3.2426  1.0000</r>
       <r>  -3.1350  1.0000</r>
       <r>  -2.9659  1.0000</r>
       <r>  -2.5828  1.0000</r>
       <r>  -2.5236  1.0000</r>
       <r>  -2.4745  1.0000</r>
       <r>  -2.3932  1.0000</r>
       <r>  -2.2698  1.0000</r>
       <r>  -2.2675  1.0000</r>
       <r>  -2.0628  1.0000</r>
       <r>  -1.9952  1.0000</r>
       <r>  -1.9891  1.0000</r>
       <r>  -1.9570  1.0000</r>
       <r>  -1.8575  1.0000</r>
       <r>  -1.7122  1.0000</r>
       <r>  -1.7113  1.0000</r>
       <r>  -0.0121  1.0000</r>
       <r>   2.8421  0.0000</r>
       <r>   4.9720  0.0000</r>
       <r>   5.3942  0.0000</r>
       <r>   6.6289  0.0000</r>
       <r>   7.7347  0.0000</r>
       <r>   8.1214  0.0000</r>
      </set>
      <set comment="kpoint 17">
       <r>  -3.2994  1.0000</r>
       <r>  -3.2556  1.0000</r>
       <r>  -3.2432  1.0000</r>
       <r>  -3.2041  1.0000</r>
       <r>  -3.1674  1.0000</r>
       <r>  -3.0683  1.0000</r>
       <r>  -3.0582  1.0000</r>
       <r>  -3.0039  1.0000</r>
       <r>  -2.7001  1.0000</r>
       <r>  -2.6337  1.0000</r>
       <r>  -2.5941  1.0000</r>
       <r>  -2.4181  1.0000</r>
       <r>  -2.4003  1.0000</r>
       <r>  -2.1517  1.0000</r>
       <r>  -2.1383  1.0000</r>
       <r>  -2.1074  1.0000</r>
       <r>  -2.0946  1.0000</r>
       <r>  -1.9276  1.0000</r>
       <r>  -1.8130  1.0000</r>
       <r>  -1.7146  1.0000</r>
       <r>  -1.7130  1.0000</r>
       <r>  -0.8096  1.0000</r>
       <r>   3.4139  0.0000</r>
       <r>   4.7178  0.0000</r>
       <r>   5.6676  0.0000</r>
       <r>   6.7745  0.0000</r>
       <r>   7.2627  0.0000</r>
       <r>   7.4144  0.0000</r>
      </set>
      <set comment="kpoint 18">
       <r>  -3.1687  1.0000</r>
       <r>  -3.1687  1.0000</r>
       <r>  -3.1573  1.0000</r>
       <r>  -3.1573  1.0000</r>
       <r>  -3.1503  1.0000</r>
       <r>  -3.1503  1.0000</r>
       <r>  -2.8770  1.0000</r>
       <r>  -2.8770  1.0000</r>
       <r>  -2.8629  1.0000</r>
       <r>  -2.8629  1.0000</r>
       <r>  -2.5472  1.0000</r>
       <r>  -2.5472  1.0000</r>
       <r>  -2.2587  1.0000</r>
       <r>  -2.2587  1.0000</r>
       <r>  -2.1553  1.0000</r>
       <r>  -2.1553  1.0000</r>
       <r>  -2.0229  1.0000</r>
       <r>  -2.0229  1.0000</r>
       <r>  -1.7143  1.0000</r>
       <r>  -1.7143  1.0000</r>
       <r>  -1.4288  1.0000</r>
       <r>  -1.4288  1.0000</r>
       <r>   4.0427  0.0000</r>
       <r>   4.0427  0.0000</r>
       <r>   6.4379  0.0000</r>
       <r>   6.4379  0.0000</r>
       <r>   7.0601  0.0000</r>
       <r>   7.0601  0.0000</r>
      </set>
      <set comment="kpoint 19">
       <r>  -3.6677  1.0000</r>
       <r>  -3.4250  1.0000</r>
       <r>  -3.3299  1.0000</r>
       <r>  -3.3299  1.0000</r>
       <r>  -3.2982  1.0000</r>
       <r>  -3.2982  1.0000</r>
       <r>  -3.1476  1.0000</r>
       <r>  -2.9048  1.0000</r>
       <r>  -2.5850  1.0000</r>
       <r>  -2.5825  1.0000</r>
       <r>  -2.3573  1.0000</r>
       <r>  -2.3573  1.0000</r>
       <r>  -2.3167  1.0000</r>
       <r>  -2.2832  1.0000</r>
       <r>  -2.0377  1.0000</r>
       <r>  -1.9928  1.0000</r>
       <r>  -1.8866  1.0000</r>
       <r>  -1.8866  1.0000</r>
       <r>  -1.8220  1.0000</r>
       <r>  -1.8220  1.0000</r>
       <r>  -1.7657  1.0000</r>
       <r>   1.3181  0.0000</r>
       <r>   1.3181  0.0000</r>
       <r>   4.8186  0.0000</r>
       <r>   5.2851  0.0000</r>
       <r>   6.5746  0.0000</r>
       <r>   8.8853  0.0000</r>
       <r>   8.8853  0.0000</r>
      </set>
      <set comment="kpoint 20">
       <r>  -3.4101  1.0000</r>
       <r>  -3.3428  1.0000</r>
       <r>  -3.2630  1.0000</r>
       <r>  -3.2022  1.0000</r>
       <r>  -3.1870  1.0000</r>
       <r>  -3.1729  1.0000</r>
       <r>  -3.0153  1.0000</r>
       <r>  -2.9515  1.0000</r>
       <r>  -2.5844  1.0000</r>
       <r>  -2.5835  1.0000</r>
       <r>  -2.5074  1.0000</r>
       <r>  -2.4916  1.0000</r>
       <r>  -2.4576  1.0000</r>
       <r>  -2.3153  1.0000</r>
       <r>  -2.1160  1.0000</r>
       <r>  -1.9912  1.0000</r>
       <r>  -1.9600  1.0000</r>
       <r>  -1.9262  1.0000</r>
       <r>  -1.8246  1.0000</r>
       <r>  -1.8171  1.0000</r>
       <r>  -1.8026  1.0000</r>
       <r>   0.3887  1.0000</r>
       <r>   1.8101  0.0000</r>
       <r>   4.4896  0.0000</r>
       <r>   5.3913  0.0000</r>
       <r>   6.6897  0.0000</r>
       <r>   8.3365  0.0000</r>
       <r>   8.4862  0.0000</r>
      </set>
      <set comment="kpoint 21">
       <r>  -3.2294  1.0000</r>
       <r>  -3.1851  1.0000</r>
       <r>  -3.1736  1.0000</r>
       <r>  -3.0778  1.0000</r>
       <r>  -3.0766  1.0000</r>
       <r>  -3.0431  1.0000</r>
       <r>  -3.0210  1.0000</r>
       <r>  -2.9072  1.0000</r>
       <r>  -2.7703  1.0000</r>
       <r>  -2.6578  1.0000</r>
       <r>  -2.6489  1.0000</r>
       <r>  -2.6203  1.0000</r>
       <r>  -2.3950  1.0000</r>
       <r>  -2.2244  1.0000</r>
       <r>  -2.1782  1.0000</r>
       <r>  -2.1100  1.0000</r>
       <r>  -2.1012  1.0000</r>
       <r>  -1.9987  1.0000</r>
       <r>  -1.8264  1.0000</r>
       <r>  -1.8196  1.0000</r>
       <r>  -1.5259  1.0000</r>
       <r>  -0.4152  1.0000</r>
       <r>   2.3754  0.0000</r>
       <r>   3.7168  0.0000</r>
       <r>   6.0656  0.0000</r>
       <r>   6.9513  0.0000</r>
       <r>   7.6325  0.0000</r>
       <r>   7.7884  0.0000</r>
      </set>
      <set comment="kpoint 22">
       <r>  -3.1073  1.0000</r>
       <r>  -3.1073  1.0000</r>
       <r>  -3.1020  1.0000</r>
       <r>  -3.1020  1.0000</r>
       <r>  -3.0416  1.0000</r>
       <r>  -3.0416  1.0000</r>
       <r>  -2.8583  1.0000</r>
       <r>  -2.8583  1.0000</r>
       <r>  -2.8534  1.0000</r>
       <r>  -2.8534  1.0000</r>
       <r>  -2.6933  1.0000</r>
       <r>  -2.6933  1.0000</r>
       <r>  -2.2588  1.0000</r>
       <r>  -2.2588  1.0000</r>
       <r>  -2.1775  1.0000</r>
       <r>  -2.1775  1.0000</r>
       <r>  -2.1024  1.0000</r>
       <r>  -2.1024  1.0000</r>
       <r>  -1.8257  1.0000</r>
       <r>  -1.8257  1.0000</r>
       <r>  -1.0626  1.0000</r>
       <r>  -1.0626  1.0000</r>
       <r>   3.0106  0.0000</r>
       <r>   3.0106  0.0000</r>
       <r>   6.8192  0.0000</r>
       <r>   6.8192  0.0000</r>
       <r>   7.3203  0.0000</r>
       <r>   7.3203  0.0000</r>
      </set>
      <set comment="kpoint 23">
       <r>  -3.2866  1.0000</r>
       <r>  -3.2263  1.0000</r>
       <r>  -3.1504  1.0000</r>
       <r>  -3.1504  1.0000</r>
       <r>  -3.0524  1.0000</r>
       <r>  -3.0524  1.0000</r>
       <r>  -2.9556  1.0000</r>
       <r>  -2.8891  1.0000</r>
       <r>  -2.6974  1.0000</r>
       <r>  -2.6974  1.0000</r>
       <r>  -2.5656  1.0000</r>
       <r>  -2.5628  1.0000</r>
       <r>  -2.4590  1.0000</r>
       <r>  -2.3720  1.0000</r>
       <r>  -2.1833  1.0000</r>
       <r>  -2.0265  1.0000</r>
       <r>  -2.0265  1.0000</r>
       <r>  -1.9622  1.0000</r>
       <r>  -1.9622  1.0000</r>
       <r>  -1.8788  1.0000</r>
       <r>  -1.5454  1.0000</r>
       <r>   0.8733  1.0000</r>
       <r>   0.8733  1.0000</r>
       <r>   3.6022  0.0000</r>
       <r>   5.9387  0.0000</r>
       <r>   6.9045  0.0000</r>
       <r>   8.8287  0.0000</r>
       <r>   8.8287  0.0000</r>
      </set>
      <set comment="kpoint 24">
       <r>  -3.1985  1.0000</r>
       <r>  -3.0922  1.0000</r>
       <r>  -3.0690  1.0000</r>
       <r>  -3.0132  1.0000</r>
       <r>  -2.9853  1.0000</r>
       <r>  -2.9740  1.0000</r>
       <r>  -2.9257  1.0000</r>
       <r>  -2.8241  1.0000</r>
       <r>  -2.7992  1.0000</r>
       <r>  -2.7917  1.0000</r>
       <r>  -2.7030  1.0000</r>
       <r>  -2.6253  1.0000</r>
       <r>  -2.3707  1.0000</r>
       <r>  -2.3237  1.0000</r>
       <r>  -2.2380  1.0000</r>
       <r>  -2.1386  1.0000</r>
       <r>  -2.1088  1.0000</r>
       <r>  -2.0994  1.0000</r>
       <r>  -1.9607  1.0000</r>
       <r>  -1.9270  1.0000</r>
       <r>  -1.1578  1.0000</r>
       <r>   0.0552  1.0000</r>
       <r>   1.4331  0.0000</r>
       <r>   2.7930  0.0000</r>
       <r>   6.5901  0.0000</r>
       <r>   7.2261  0.0000</r>
       <r>   8.1248  0.0000</r>
       <r>   8.1874  0.0000</r>
      </set>
      <set comment="kpoint 25">
       <r>  -3.0810  1.0000</r>
       <r>  -3.0810  1.0000</r>
       <r>  -3.0342  1.0000</r>
       <r>  -3.0342  1.0000</r>
       <r>  -2.9467  1.0000</r>
       <r>  -2.9467  1.0000</r>
       <r>  -2.8596  1.0000</r>
       <r>  -2.8596  1.0000</r>
       <r>  -2.7796  1.0000</r>
       <r>  -2.7796  1.0000</r>
       <r>  -2.7490  1.0000</r>
       <r>  -2.7490  1.0000</r>
       <r>  -2.2497  1.0000</r>
       <r>  -2.2497  1.0000</r>
       <r>  -2.2262  1.0000</r>
       <r>  -2.2262  1.0000</r>
       <r>  -2.2064  1.0000</r>
       <r>  -2.2064  1.0000</r>
       <r>  -1.9513  1.0000</r>
       <r>  -1.9513  1.0000</r>
       <r>  -0.6261  1.0000</r>
       <r>  -0.6261  1.0000</r>
       <r>   2.0710  0.0000</r>
       <r>   2.0710  0.0000</r>
       <r>   7.3248  0.0000</r>
       <r>   7.3248  0.0000</r>
       <r>   7.6526  0.0000</r>
       <r>   7.6526  0.0000</r>
      </set>
      <set comment="kpoint 26">
       <r>  -3.1442  1.0000</r>
       <r>  -3.0141  1.0000</r>
       <r>  -2.9846  1.0000</r>
       <r>  -2.9846  1.0000</r>
       <r>  -2.9645  1.0000</r>
       <r>  -2.9469  1.0000</r>
       <r>  -2.9469  1.0000</r>
       <r>  -2.7760  1.0000</r>
       <r>  -2.7743  1.0000</r>
       <r>  -2.7743  1.0000</r>
       <r>  -2.6874  1.0000</r>
       <r>  -2.5681  1.0000</r>
       <r>  -2.3965  1.0000</r>
       <r>  -2.3145  1.0000</r>
       <r>  -2.3018  1.0000</r>
       <r>  -2.2135  1.0000</r>
       <r>  -2.2135  1.0000</r>
       <r>  -2.0982  1.0000</r>
       <r>  -2.0982  1.0000</r>
       <r>  -2.0139  1.0000</r>
       <r>  -0.6905  1.0000</r>
       <r>   0.6028  1.0000</r>
       <r>   0.6028  1.0000</r>
       <r>   1.9652  0.0000</r>
       <r>   7.2197  0.0000</r>
       <r>   7.5996  0.0000</r>
       <r>   8.6660  0.0000</r>
       <r>   8.6671  0.0000</r>
      </set>
      <set comment="kpoint 27">
       <r>  -3.0615  1.0000</r>
       <r>  -3.0615  1.0000</r>
       <r>  -2.9795  1.0000</r>
       <r>  -2.9795  1.0000</r>
       <r>  -2.9655  1.0000</r>
       <r>  -2.9655  1.0000</r>
       <r>  -2.8741  1.0000</r>
       <r>  -2.8741  1.0000</r>
       <r>  -2.6706  1.0000</r>
       <r>  -2.6706  1.0000</r>
       <r>  -2.6489  1.0000</r>
       <r>  -2.6489  1.0000</r>
       <r>  -2.3196  1.0000</r>
       <r>  -2.3196  1.0000</r>
       <r>  -2.3037  1.0000</r>
       <r>  -2.3037  1.0000</r>
       <r>  -2.2211  1.0000</r>
       <r>  -2.2211  1.0000</r>
       <r>  -2.0697  1.0000</r>
       <r>  -2.0697  1.0000</r>
       <r>  -0.1061  1.0000</r>
       <r>  -0.1061  1.0000</r>
       <r>   1.2366  1.0000</r>
       <r>   1.2366  1.0000</r>
       <r>   7.9356  0.0000</r>
       <r>   7.9356  0.0000</r>
       <r>   8.0777  0.0000</r>
       <r>   8.0777  0.0000</r>
      </set>
      <set comment="kpoint 28">
       <r>  -3.0297  1.0000</r>
       <r>  -3.0297  1.0000</r>
       <r>  -3.0297  1.0000</r>
       <r>  -3.0297  1.0000</r>
       <r>  -2.9092  1.0000</r>
       <r>  -2.9092  1.0000</r>
       <r>  -2.9092  1.0000</r>
       <r>  -2.9092  1.0000</r>
       <r>  -2.5852  1.0000</r>
       <r>  -2.5852  1.0000</r>
       <r>  -2.5852  1.0000</r>
       <r>  -2.5852  1.0000</r>
       <r>  -2.3749  1.0000</r>
       <r>  -2.3749  1.0000</r>
       <r>  -2.3749  1.0000</r>
       <r>  -2.3749  1.0000</r>
       <r>  -2.1625  1.0000</r>
       <r>  -2.1625  1.0000</r>
       <r>  -2.1625  1.0000</r>
       <r>  -2.1625  1.0000</r>
       <r>   0.5117  1.0000</r>
       <r>   0.5117  1.0000</r>
       <r>   0.5117  1.0000</r>
       <r>   0.5117  1.0000</r>
       <r>   8.6048  0.0000</r>
       <r>   8.6048  0.0000</r>
       <r>   8.6048  0.0000</r>
       <r>   8.6048  0.0000</r>
      </set>
      <set comment="kpoint 29">
       <r>  -4.4004  1.0000</r>
       <r>  -3.6033  1.0000</r>
       <r>  -3.6033  1.0000</r>
       <r>  -3.6033  1.0000</r>
       <r>  -3.5514  1.0000</r>
       <r>  -3.5514  1.0000</r>
       <r>  -3.5514  1.0000</r>
       <r>  -2.7879  1.0000</r>
       <r>  -2.7314  1.0000</r>
       <r>  -2.7314  1.0000</r>
       <r>  -2.1927  1.0000</r>
       <r>  -2.1927  1.0000</r>
       <r>  -1.8058  1.0000</r>
       <r>  -1.8058  1.0000</r>
       <r>  -1.8058  1.0000</r>
       <r>  -1.7429  1.0000</r>
       <r>  -1.7429  1.0000</r>
       <r>  -1.7429  1.0000</r>
       <r>  -1.6417  1.0000</r>
       <r>  -1.6417  1.0000</r>
       <r>  -1.6417  1.0000</r>
       <r>   2.7402  0.0000</r>
       <r>   2.7402  0.0000</r>
       <r>   2.7402  0.0000</r>
       <r>   6.4954  0.0000</r>
       <r>   6.4954  0.0000</r>
       <r>   6.4954  0.0000</r>
       <r>   9.4513  0.0000</r>
      </set>
      <set comment="kpoint 30">
       <r>  -4.2384  1.0000</r>
       <r>  -3.5540  1.0000</r>
       <r>  -3.5530  1.0000</r>
       <r>  -3.5530  1.0000</r>
       <r>  -3.5078  1.0000</r>
       <r>  -3.4727  1.0000</r>
       <r>  -3.4727  1.0000</r>
       <r>  -2.8198  1.0000</r>
       <r>  -2.6934  1.0000</r>
       <r>  -2.6917  1.0000</r>
       <r>  -2.2310  1.0000</r>
       <r>  -2.1662  1.0000</r>
       <r>  -1.9215  1.0000</r>
       <r>  -1.9215  1.0000</r>
       <r>  -1.8585  1.0000</r>
       <r>  -1.8382  1.0000</r>
       <r>  -1.8382  1.0000</r>
       <r>  -1.8191  1.0000</r>
       <r>  -1.6783  1.0000</r>
       <r>  -1.6496  1.0000</r>
       <r>  -1.6496  1.0000</r>
       <r>   1.7473  0.0000</r>
       <r>   3.0288  0.0000</r>
       <r>   3.0288  0.0000</r>
       <r>   6.5559  0.0000</r>
       <r>   6.5559  0.0000</r>
       <r>   7.7675  0.0000</r>
       <r>   8.6167  0.0000</r>
      </set>
      <set comment="kpoint 31">
       <r>  -3.9818  1.0000</r>
       <r>  -3.4833  1.0000</r>
       <r>  -3.4653  1.0000</r>
       <r>  -3.4653  1.0000</r>
       <r>  -3.4331  1.0000</r>
       <r>  -3.3572  1.0000</r>
       <r>  -3.3572  1.0000</r>
       <r>  -2.8833  1.0000</r>
       <r>  -2.6268  1.0000</r>
       <r>  -2.6239  1.0000</r>
       <r>  -2.2720  1.0000</r>
       <r>  -2.1431  1.0000</r>
       <r>  -2.1431  1.0000</r>
       <r>  -2.1239  1.0000</r>
       <r>  -1.9444  1.0000</r>
       <r>  -1.9371  1.0000</r>
       <r>  -1.9242  1.0000</r>
       <r>  -1.9242  1.0000</r>
       <r>  -1.7308  1.0000</r>
       <r>  -1.6550  1.0000</r>
       <r>  -1.6550  1.0000</r>
       <r>   0.7339  1.0000</r>
       <r>   3.4605  0.0000</r>
       <r>   3.4605  0.0000</r>
       <r>   6.6151  0.0000</r>
       <r>   6.6151  0.0000</r>
       <r>   7.8542  0.0000</r>
       <r>   7.8542  0.0000</r>
      </set>
      <set comment="kpoint 32">
       <r>  -3.6642  1.0000</r>
       <r>  -3.4006  1.0000</r>
       <r>  -3.3479  1.0000</r>
       <r>  -3.3479  1.0000</r>
       <r>  -3.3338  1.0000</r>
       <r>  -3.2180  1.0000</r>
       <r>  -3.2180  1.0000</r>
       <r>  -2.9667  1.0000</r>
       <r>  -2.5620  1.0000</r>
       <r>  -2.5389  1.0000</r>
       <r>  -2.3936  1.0000</r>
       <r>  -2.3936  1.0000</r>
       <r>  -2.2477  1.0000</r>
       <r>  -2.0862  1.0000</r>
       <r>  -2.0687  1.0000</r>
       <r>  -2.0559  1.0000</r>
       <r>  -2.0250  1.0000</r>
       <r>  -2.0250  1.0000</r>
       <r>  -1.7934  1.0000</r>
       <r>  -1.6581  1.0000</r>
       <r>  -1.6581  1.0000</r>
       <r>  -0.1988  1.0000</r>
       <r>   3.9912  0.0000</r>
       <r>   3.9912  0.0000</r>
       <r>   6.4580  0.0000</r>
       <r>   6.4580  0.0000</r>
       <r>   7.4180  0.0000</r>
       <r>   7.4180  0.0000</r>
      </set>
      <set comment="kpoint 33">
       <r>  -3.3756  1.0000</r>
       <r>  -3.3143  1.0000</r>
       <r>  -3.2307  1.0000</r>
       <r>  -3.2288  1.0000</r>
       <r>  -3.2288  1.0000</r>
       <r>  -3.0646  1.0000</r>
       <r>  -3.0646  1.0000</r>
       <r>  -3.0595  1.0000</r>
       <r>  -2.6395  1.0000</r>
       <r>  -2.6395  1.0000</r>
       <r>  -2.5253  1.0000</r>
       <r>  -2.4315  1.0000</r>
       <r>  -2.2547  1.0000</r>
       <r>  -2.1815  1.0000</r>
       <r>  -2.1157  1.0000</r>
       <r>  -2.1157  1.0000</r>
       <r>  -2.0525  1.0000</r>
       <r>  -2.0039  1.0000</r>
       <r>  -1.8622  1.0000</r>
       <r>  -1.6595  1.0000</r>
       <r>  -1.6595  1.0000</r>
       <r>  -1.0058  1.0000</r>
       <r>   4.5826  0.0000</r>
       <r>   4.5826  0.0000</r>
       <r>   5.9146  0.0000</r>
       <r>   5.9146  0.0000</r>
       <r>   7.4638  0.0000</r>
       <r>   7.4638  0.0000</r>
      </set>
      <set comment="kpoint 34">
       <r>  -3.2630  1.0000</r>
       <r>  -3.2630  1.0000</r>
       <r>  -3.1744  1.0000</r>
       <r>  -3.1744  1.0000</r>
       <r>  -3.1460  1.0000</r>
       <r>  -3.1460  1.0000</r>
       <r>  -2.9231  1.0000</r>
       <r>  -2.9231  1.0000</r>
       <r>  -2.8193  1.0000</r>
       <r>  -2.8193  1.0000</r>
       <r>  -2.4209  1.0000</r>
       <r>  -2.4209  1.0000</r>
       <r>  -2.3099  1.0000</r>
       <r>  -2.3099  1.0000</r>
       <r>  -2.1543  1.0000</r>
       <r>  -2.1543  1.0000</r>
       <r>  -1.9337  1.0000</r>
       <r>  -1.9337  1.0000</r>
       <r>  -1.6600  1.0000</r>
       <r>  -1.6600  1.0000</r>
       <r>  -1.6397  1.0000</r>
       <r>  -1.6397  1.0000</r>
       <r>   5.0874  0.0000</r>
       <r>   5.0874  0.0000</r>
       <r>   5.3976  0.0000</r>
       <r>   5.3976  0.0000</r>
       <r>   7.5664  0.0000</r>
       <r>   7.5664  0.0000</r>
      </set>
      <set comment="kpoint 35">
       <r>  -4.0869  1.0000</r>
       <r>  -3.5260  1.0000</r>
       <r>  -3.5088  1.0000</r>
       <r>  -3.5088  1.0000</r>
       <r>  -3.4259  1.0000</r>
       <r>  -3.4259  1.0000</r>
       <r>  -3.3793  1.0000</r>
       <r>  -2.8225  1.0000</r>
       <r>  -2.6781  1.0000</r>
       <r>  -2.6612  1.0000</r>
       <r>  -2.2363  1.0000</r>
       <r>  -2.1585  1.0000</r>
       <r>  -2.0154  1.0000</r>
       <r>  -2.0154  1.0000</r>
       <r>  -2.0023  1.0000</r>
       <r>  -1.9254  1.0000</r>
       <r>  -1.8741  1.0000</r>
       <r>  -1.8741  1.0000</r>
       <r>  -1.6812  1.0000</r>
       <r>  -1.6812  1.0000</r>
       <r>  -1.6760  1.0000</r>
       <r>   2.0171  0.0000</r>
       <r>   2.0171  0.0000</r>
       <r>   3.2991  0.0000</r>
       <r>   6.5432  0.0000</r>
       <r>   7.7407  0.0000</r>
       <r>   7.7661  0.0000</r>
       <r>   7.7661  0.0000</r>
      </set>
      <set comment="kpoint 36">
       <r>  -3.8510  1.0000</r>
       <r>  -3.4595  1.0000</r>
       <r>  -3.4453  1.0000</r>
       <r>  -3.4247  1.0000</r>
       <r>  -3.3468  1.0000</r>
       <r>  -3.3105  1.0000</r>
       <r>  -3.2568  1.0000</r>
       <r>  -2.8602  1.0000</r>
       <r>  -2.6254  1.0000</r>
       <r>  -2.6129  1.0000</r>
       <r>  -2.2607  1.0000</r>
       <r>  -2.2389  1.0000</r>
       <r>  -2.1912  1.0000</r>
       <r>  -2.1367  1.0000</r>
       <r>  -2.1035  1.0000</r>
       <r>  -1.9948  1.0000</r>
       <r>  -1.9595  1.0000</r>
       <r>  -1.9372  1.0000</r>
       <r>  -1.7250  1.0000</r>
       <r>  -1.6989  1.0000</r>
       <r>  -1.6973  1.0000</r>
       <r>   0.9998  1.0000</r>
       <r>   2.4183  0.0000</r>
       <r>   3.7090  0.0000</r>
       <r>   6.2335  0.0000</r>
       <r>   7.2954  0.0000</r>
       <r>   7.4951  0.0000</r>
       <r>   8.5025  0.0000</r>
      </set>
      <set comment="kpoint 37">
       <r>  -3.5694  1.0000</r>
       <r>  -3.3714  1.0000</r>
       <r>  -3.3574  1.0000</r>
       <r>  -3.3077  1.0000</r>
       <r>  -3.2418  1.0000</r>
       <r>  -3.1782  1.0000</r>
       <r>  -3.1231  1.0000</r>
       <r>  -2.9212  1.0000</r>
       <r>  -2.5883  1.0000</r>
       <r>  -2.5479  1.0000</r>
       <r>  -2.4729  1.0000</r>
       <r>  -2.4152  1.0000</r>
       <r>  -2.2778  1.0000</r>
       <r>  -2.2125  1.0000</r>
       <r>  -2.0776  1.0000</r>
       <r>  -2.0766  1.0000</r>
       <r>  -2.0270  1.0000</r>
       <r>  -2.0104  1.0000</r>
       <r>  -1.7822  1.0000</r>
       <r>  -1.7135  1.0000</r>
       <r>  -1.7108  1.0000</r>
       <r>   0.0678  1.0000</r>
       <r>   2.9143  0.0000</r>
       <r>   4.2193  0.0000</r>
       <r>   5.5481  0.0000</r>
       <r>   6.8508  0.0000</r>
       <r>   7.3858  0.0000</r>
       <r>   8.5129  0.0000</r>
      </set>
      <set comment="kpoint 38">
       <r>  -3.3300  1.0000</r>
       <r>  -3.2972  1.0000</r>
       <r>  -3.2321  1.0000</r>
       <r>  -3.1800  1.0000</r>
       <r>  -3.1286  1.0000</r>
       <r>  -3.0542  1.0000</r>
       <r>  -3.0090  1.0000</r>
       <r>  -2.9828  1.0000</r>
       <r>  -2.6791  1.0000</r>
       <r>  -2.6322  1.0000</r>
       <r>  -2.6057  1.0000</r>
       <r>  -2.4512  1.0000</r>
       <r>  -2.4291  1.0000</r>
       <r>  -2.2084  1.0000</r>
       <r>  -2.1511  1.0000</r>
       <r>  -2.1204  1.0000</r>
       <r>  -2.0640  1.0000</r>
       <r>  -1.8546  1.0000</r>
       <r>  -1.8170  1.0000</r>
       <r>  -1.7205  1.0000</r>
       <r>  -1.7187  1.0000</r>
       <r>  -0.7406  1.0000</r>
       <r>   3.4823  0.0000</r>
       <r>   4.7160  0.0000</r>
       <r>   4.9038  0.0000</r>
       <r>   6.1409  0.0000</r>
       <r>   7.6866  0.0000</r>
       <r>   8.4515  0.0000</r>
      </set>
      <set comment="kpoint 39">
       <r>  -3.2522  1.0000</r>
       <r>  -3.2522  1.0000</r>
       <r>  -3.1351  1.0000</r>
       <r>  -3.1351  1.0000</r>
       <r>  -3.0380  1.0000</r>
       <r>  -3.0380  1.0000</r>
       <r>  -2.9695  1.0000</r>
       <r>  -2.9695  1.0000</r>
       <r>  -2.7690  1.0000</r>
       <r>  -2.7690  1.0000</r>
       <r>  -2.5611  1.0000</r>
       <r>  -2.5611  1.0000</r>
       <r>  -2.3363  1.0000</r>
       <r>  -2.3363  1.0000</r>
       <r>  -2.1732  1.0000</r>
       <r>  -2.1732  1.0000</r>
       <r>  -1.9437  1.0000</r>
       <r>  -1.9437  1.0000</r>
       <r>  -1.7219  1.0000</r>
       <r>  -1.7219  1.0000</r>
       <r>  -1.3871  1.0000</r>
       <r>  -1.3871  1.0000</r>
       <r>   4.1108  0.0000</r>
       <r>   4.1108  0.0000</r>
       <r>   5.4599  0.0000</r>
       <r>   5.4599  0.0000</r>
       <r>   8.0858  0.0000</r>
       <r>   8.0858  0.0000</r>
      </set>
      <set comment="kpoint 40">
       <r>  -3.6565  1.0000</r>
       <r>  -3.4169  1.0000</r>
       <r>  -3.3685  1.0000</r>
       <r>  -3.3685  1.0000</r>
       <r>  -3.2299  1.0000</r>
       <r>  -3.2299  1.0000</r>
       <r>  -3.1337  1.0000</r>
       <r>  -2.8491  1.0000</r>
       <r>  -2.6012  1.0000</r>
       <r>  -2.5851  1.0000</r>
       <r>  -2.3592  1.0000</r>
       <r>  -2.3592  1.0000</r>
       <r>  -2.3004  1.0000</r>
       <r>  -2.2827  1.0000</r>
       <r>  -2.0773  1.0000</r>
       <r>  -2.0085  1.0000</r>
       <r>  -1.9978  1.0000</r>
       <r>  -1.9978  1.0000</r>
       <r>  -1.7511  1.0000</r>
       <r>  -1.7511  1.0000</r>
       <r>  -1.7456  1.0000</r>
       <r>   1.3913  0.0000</r>
       <r>   1.3913  0.0000</r>
       <r>   4.0916  0.0000</r>
       <r>   5.4220  0.0000</r>
       <r>   7.3261  0.0000</r>
       <r>   8.0281  0.0000</r>
       <r>   8.0281  0.0000</r>
      </set>
      <set comment="kpoint 41">
       <r>  -3.4423  1.0000</r>
       <r>  -3.3383  1.0000</r>
       <r>  -3.3067  1.0000</r>
       <r>  -3.2577  1.0000</r>
       <r>  -3.1197  1.0000</r>
       <r>  -3.1040  1.0000</r>
       <r>  -3.0096  1.0000</r>
       <r>  -2.8626  1.0000</r>
       <r>  -2.5828  1.0000</r>
       <r>  -2.5714  1.0000</r>
       <r>  -2.5443  1.0000</r>
       <r>  -2.4888  1.0000</r>
       <r>  -2.4621  1.0000</r>
       <r>  -2.2555  1.0000</r>
       <r>  -2.1516  1.0000</r>
       <r>  -2.1014  1.0000</r>
       <r>  -2.0641  1.0000</r>
       <r>  -1.8319  1.0000</r>
       <r>  -1.8142  1.0000</r>
       <r>  -1.7822  1.0000</r>
       <r>  -1.7821  1.0000</r>
       <r>   0.4536  1.0000</r>
       <r>   1.8752  0.0000</r>
       <r>   4.5272  0.0000</r>
       <r>   4.6237  0.0000</r>
       <r>   7.2272  0.0000</r>
       <r>   7.5753  0.0000</r>
       <r>   8.5377  0.0000</r>
      </set>
      <set comment="kpoint 42">
       <r>  -3.2776  1.0000</r>
       <r>  -3.2496  1.0000</r>
       <r>  -3.2281  1.0000</r>
       <r>  -3.1222  1.0000</r>
       <r>  -3.0294  1.0000</r>
       <r>  -2.9950  1.0000</r>
       <r>  -2.9332  1.0000</r>
       <r>  -2.8747  1.0000</r>
       <r>  -2.7158  1.0000</r>
       <r>  -2.6513  1.0000</r>
       <r>  -2.6222  1.0000</r>
       <r>  -2.6134  1.0000</r>
       <r>  -2.4594  1.0000</r>
       <r>  -2.2257  1.0000</r>
       <r>  -2.2099  1.0000</r>
       <r>  -2.1492  1.0000</r>
       <r>  -2.1339  1.0000</r>
       <r>  -1.8954  1.0000</r>
       <r>  -1.8033  1.0000</r>
       <r>  -1.8026  1.0000</r>
       <r>  -1.5259  1.0000</r>
       <r>  -0.3643  1.0000</r>
       <r>   2.4362  0.0000</r>
       <r>   3.7806  0.0000</r>
       <r>   5.1497  0.0000</r>
       <r>   6.4745  0.0000</r>
       <r>   7.9524  0.0000</r>
       <r>   9.0071  0.0000</r>
      </set>
      <set comment="kpoint 43">
       <r>  -3.2218  1.0000</r>
       <r>  -3.2218  1.0000</r>
       <r>  -3.1024  1.0000</r>
       <r>  -3.1024  1.0000</r>
       <r>  -2.9836  1.0000</r>
       <r>  -2.9836  1.0000</r>
       <r>  -2.8933  1.0000</r>
       <r>  -2.8933  1.0000</r>
       <r>  -2.7149  1.0000</r>
       <r>  -2.7149  1.0000</r>
       <r>  -2.6939  1.0000</r>
       <r>  -2.6939  1.0000</r>
       <r>  -2.3501  1.0000</r>
       <r>  -2.3501  1.0000</r>
       <r>  -2.2134  1.0000</r>
       <r>  -2.2134  1.0000</r>
       <r>  -2.0017  1.0000</r>
       <r>  -2.0017  1.0000</r>
       <r>  -1.8097  1.0000</r>
       <r>  -1.8097  1.0000</r>
       <r>  -1.0347  1.0000</r>
       <r>  -1.0347  1.0000</r>
       <r>   3.0706  0.0000</r>
       <r>   3.0706  0.0000</r>
       <r>   5.7815  0.0000</r>
       <r>   5.7815  0.0000</r>
       <r>   8.4383  0.0000</r>
       <r>   8.4383  0.0000</r>
      </set>
      <set comment="kpoint 44">
       <r>  -3.3205  1.0000</r>
       <r>  -3.2890  1.0000</r>
       <r>  -3.2124  1.0000</r>
       <r>  -3.2124  1.0000</r>
       <r>  -2.9952  1.0000</r>
       <r>  -2.9952  1.0000</r>
       <r>  -2.9034  1.0000</r>
       <r>  -2.8270  1.0000</r>
       <r>  -2.6687  1.0000</r>
       <r>  -2.6687  1.0000</r>
       <r>  -2.5388  1.0000</r>
       <r>  -2.5372  1.0000</r>
       <r>  -2.5274  1.0000</r>
       <r>  -2.2897  1.0000</r>
       <r>  -2.2286  1.0000</r>
       <r>  -2.1444  1.0000</r>
       <r>  -2.1444  1.0000</r>
       <r>  -1.8626  1.0000</r>
       <r>  -1.8626  1.0000</r>
       <r>  -1.8455  1.0000</r>
       <r>  -1.5543  1.0000</r>
       <r>   0.9290  1.0000</r>
       <r>   0.9290  1.0000</r>
       <r>   3.6634  0.0000</r>
       <r>   5.0441  0.0000</r>
       <r>   7.6906  0.0000</r>
       <r>   7.6906  0.0000</r>
       <r>   7.8875  0.0000</r>
      </set>
      <set comment="kpoint 45">
       <r>  -3.2308  1.0000</r>
       <r>  -3.2100  1.0000</r>
       <r>  -3.1828  1.0000</r>
       <r>  -3.1051  1.0000</r>
       <r>  -2.9653  1.0000</r>
       <r>  -2.8684  1.0000</r>
       <r>  -2.8641  1.0000</r>
       <r>  -2.8179  1.0000</r>
       <r>  -2.7480  1.0000</r>
       <r>  -2.7205  1.0000</r>
       <r>  -2.6017  1.0000</r>
       <r>  -2.5960  1.0000</r>
       <r>  -2.4606  1.0000</r>
       <r>  -2.2840  1.0000</r>
       <r>  -2.2524  1.0000</r>
       <r>  -2.2115  1.0000</r>
       <r>  -2.2086  1.0000</r>
       <r>  -1.9576  1.0000</r>
       <r>  -1.8995  1.0000</r>
       <r>  -1.8908  1.0000</r>
       <r>  -1.1525  1.0000</r>
       <r>   0.0976  1.0000</r>
       <r>   1.4844  0.0000</r>
       <r>   2.8469  0.0000</r>
       <r>   5.5929  0.0000</r>
       <r>   6.9169  0.0000</r>
       <r>   8.2487  0.0000</r>
       <r>   8.3122  0.0000</r>
      </set>
      <set comment="kpoint 46">
       <r>  -3.1846  1.0000</r>
       <r>  -3.1846  1.0000</r>
       <r>  -3.1113  1.0000</r>
       <r>  -3.1113  1.0000</r>
       <r>  -2.9427  1.0000</r>
       <r>  -2.9427  1.0000</r>
       <r>  -2.8026  1.0000</r>
       <r>  -2.8026  1.0000</r>
       <r>  -2.7193  1.0000</r>
       <r>  -2.7193  1.0000</r>
       <r>  -2.6488  1.0000</r>
       <r>  -2.6488  1.0000</r>
       <r>  -2.3642  1.0000</r>
       <r>  -2.3642  1.0000</r>
       <r>  -2.2777  1.0000</r>
       <r>  -2.2777  1.0000</r>
       <r>  -2.0757  1.0000</r>
       <r>  -2.0757  1.0000</r>
       <r>  -1.9097  1.0000</r>
       <r>  -1.9097  1.0000</r>
       <r>  -0.6013  1.0000</r>
       <r>  -0.6013  1.0000</r>
       <r>   2.1218  0.0000</r>
       <r>   2.1218  0.0000</r>
       <r>   6.2181  0.0000</r>
       <r>   6.2181  0.0000</r>
       <r>   8.8452  0.0000</r>
       <r>   8.8455  0.0000</r>
      </set>
      <set comment="kpoint 47">
       <r>  -3.1914  1.0000</r>
       <r>  -3.1743  1.0000</r>
       <r>  -3.1245  1.0000</r>
       <r>  -3.1245  1.0000</r>
       <r>  -2.8952  1.0000</r>
       <r>  -2.8952  1.0000</r>
       <r>  -2.8600  1.0000</r>
       <r>  -2.8241  1.0000</r>
       <r>  -2.6702  1.0000</r>
       <r>  -2.6702  1.0000</r>
       <r>  -2.5577  1.0000</r>
       <r>  -2.4903  1.0000</r>
       <r>  -2.4835  1.0000</r>
       <r>  -2.3531  1.0000</r>
       <r>  -2.2990  1.0000</r>
       <r>  -2.2990  1.0000</r>
       <r>  -2.2187  1.0000</r>
       <r>  -2.0072  1.0000</r>
       <r>  -2.0072  1.0000</r>
       <r>  -1.9670  1.0000</r>
       <r>  -0.6755  1.0000</r>
       <r>   0.6429  1.0000</r>
       <r>   0.6429  1.0000</r>
       <r>   2.0118  0.0000</r>
       <r>   6.1307  0.0000</r>
       <r>   7.4594  0.0000</r>
       <r>   7.4594  0.0000</r>
       <r>   8.7765  0.0000</r>
      </set>
      <set comment="kpoint 48">
       <r>  -3.1562  1.0000</r>
       <r>  -3.1562  1.0000</r>
       <r>  -3.1295  1.0000</r>
       <r>  -3.1295  1.0000</r>
       <r>  -2.8975  1.0000</r>
       <r>  -2.8975  1.0000</r>
       <r>  -2.8499  1.0000</r>
       <r>  -2.8499  1.0000</r>
       <r>  -2.5753  1.0000</r>
       <r>  -2.5753  1.0000</r>
       <r>  -2.5645  1.0000</r>
       <r>  -2.5645  1.0000</r>
       <r>  -2.3929  1.0000</r>
       <r>  -2.3929  1.0000</r>
       <r>  -2.3585  1.0000</r>
       <r>  -2.3585  1.0000</r>
       <r>  -2.1248  1.0000</r>
       <r>  -2.1248  1.0000</r>
       <r>  -2.0119  1.0000</r>
       <r>  -2.0119  1.0000</r>
       <r>  -0.0786  1.0000</r>
       <r>  -0.0786  1.0000</r>
       <r>   1.2785  0.2029</r>
       <r>   1.2785  0.2029</r>
       <r>   6.7536  0.0000</r>
       <r>   6.7536  0.0000</r>
       <r>   8.0948  0.0000</r>
       <r>   8.0948  0.0000</r>
      </set>
      <set comment="kpoint 49">
       <r>  -3.1417  1.0000</r>
       <r>  -3.1417  1.0000</r>
       <r>  -3.1417  1.0000</r>
       <r>  -3.1417  1.0000</r>
       <r>  -2.8723  1.0000</r>
       <r>  -2.8723  1.0000</r>
       <r>  -2.8723  1.0000</r>
       <r>  -2.8723  1.0000</r>
       <r>  -2.4850  1.0000</r>
       <r>  -2.4850  1.0000</r>
       <r>  -2.4850  1.0000</r>
       <r>  -2.4850  1.0000</r>
       <r>  -2.4368  1.0000</r>
       <r>  -2.4368  1.0000</r>
       <r>  -2.4368  1.0000</r>
       <r>  -2.4368  1.0000</r>
       <r>  -2.0981  1.0000</r>
       <r>  -2.0981  1.0000</r>
       <r>  -2.0981  1.0000</r>
       <r>  -2.0981  1.0000</r>
       <r>   0.5455  1.0000</r>
       <r>   0.5455  1.0000</r>
       <r>   0.5455  1.0000</r>
       <r>   0.5455  1.0000</r>
       <r>   7.3802  0.0000</r>
       <r>   7.3802  0.0000</r>
       <r>   7.3802  0.0000</r>
       <r>   7.3802  0.0000</r>
      </set>
      <set comment="kpoint 50">
       <r>  -3.9540  1.0000</r>
       <r>  -3.4885  1.0000</r>
       <r>  -3.4885  1.0000</r>
       <r>  -3.4885  1.0000</r>
       <r>  -3.3296  1.0000</r>
       <r>  -3.3296  1.0000</r>
       <r>  -3.3296  1.0000</r>
       <r>  -2.7850  1.0000</r>
       <r>  -2.6622  1.0000</r>
       <r>  -2.6622  1.0000</r>
       <r>  -2.1911  1.0000</r>
       <r>  -2.1911  1.0000</r>
       <r>  -2.0780  1.0000</r>
       <r>  -2.0780  1.0000</r>
       <r>  -2.0780  1.0000</r>
       <r>  -2.0027  1.0000</r>
       <r>  -2.0027  1.0000</r>
       <r>  -2.0027  1.0000</r>
       <r>  -1.6748  1.0000</r>
       <r>  -1.6748  1.0000</r>
       <r>  -1.6748  1.0000</r>
       <r>   2.2667  0.0000</r>
       <r>   2.2667  0.0000</r>
       <r>   2.2667  0.0000</r>
       <r>   7.3805  0.0000</r>
       <r>   7.3805  0.0000</r>
       <r>   7.3805  0.0000</r>
       <r>   8.4424  0.0000</r>
      </set>
      <set comment="kpoint 51">
       <r>  -3.7558  1.0000</r>
       <r>  -3.4353  1.0000</r>
       <r>  -3.4287  1.0000</r>
       <r>  -3.4287  1.0000</r>
       <r>  -3.2466  1.0000</r>
       <r>  -3.2084  1.0000</r>
       <r>  -3.2084  1.0000</r>
       <r>  -2.7772  1.0000</r>
       <r>  -2.6313  1.0000</r>
       <r>  -2.6201  1.0000</r>
       <r>  -2.2668  1.0000</r>
       <r>  -2.2668  1.0000</r>
       <r>  -2.2070  1.0000</r>
       <r>  -2.1932  1.0000</r>
       <r>  -2.1235  1.0000</r>
       <r>  -2.1042  1.0000</r>
       <r>  -2.0587  1.0000</r>
       <r>  -2.0587  1.0000</r>
       <r>  -1.6934  1.0000</r>
       <r>  -1.6934  1.0000</r>
       <r>  -1.6922  1.0000</r>
       <r>   1.2390  1.0000</r>
       <r>   2.6457  0.0000</r>
       <r>   2.6457  0.0000</r>
       <r>   6.5965  0.0000</r>
       <r>   6.5965  0.0000</r>
       <r>   7.9029  0.0000</r>
       <r>   8.4871  0.0000</r>
      </set>
      <set comment="kpoint 52">
       <r>  -3.5377  1.0000</r>
       <r>  -3.3763  1.0000</r>
       <r>  -3.3327  1.0000</r>
       <r>  -3.3327  1.0000</r>
       <r>  -3.1352  1.0000</r>
       <r>  -3.0856  1.0000</r>
       <r>  -3.0856  1.0000</r>
       <r>  -2.7986  1.0000</r>
       <r>  -2.5978  1.0000</r>
       <r>  -2.5822  1.0000</r>
       <r>  -2.4700  1.0000</r>
       <r>  -2.4700  1.0000</r>
       <r>  -2.3344  1.0000</r>
       <r>  -2.2153  1.0000</r>
       <r>  -2.1213  1.0000</r>
       <r>  -2.1213  1.0000</r>
       <r>  -2.0927  1.0000</r>
       <r>  -2.0419  1.0000</r>
       <r>  -1.7321  1.0000</r>
       <r>  -1.7188  1.0000</r>
       <r>  -1.7188  1.0000</r>
       <r>   0.2953  1.0000</r>
       <r>   3.1236  0.0000</r>
       <r>   3.1236  0.0000</r>
       <r>   5.7748  0.0000</r>
       <r>   5.7748  0.0000</r>
       <r>   8.4181  0.0000</r>
       <r>   8.7222  0.0000</r>
      </set>
      <set comment="kpoint 53">
       <r>  -3.3703  1.0000</r>
       <r>  -3.3248  1.0000</r>
       <r>  -3.2086  1.0000</r>
       <r>  -3.2086  1.0000</r>
       <r>  -3.0166  1.0000</r>
       <r>  -3.0166  1.0000</r>
       <r>  -3.0071  1.0000</r>
       <r>  -2.8176  1.0000</r>
       <r>  -2.6391  1.0000</r>
       <r>  -2.6234  1.0000</r>
       <r>  -2.6234  1.0000</r>
       <r>  -2.5137  1.0000</r>
       <r>  -2.4834  1.0000</r>
       <r>  -2.3255  1.0000</r>
       <r>  -2.1903  1.0000</r>
       <r>  -2.1903  1.0000</r>
       <r>  -1.9544  1.0000</r>
       <r>  -1.7927  1.0000</r>
       <r>  -1.7580  1.0000</r>
       <r>  -1.7374  1.0000</r>
       <r>  -1.7374  1.0000</r>
       <r>  -0.5348  1.0000</r>
       <r>   3.6808  0.0000</r>
       <r>   3.6808  0.0000</r>
       <r>   5.0076  0.0000</r>
       <r>   5.0076  0.0000</r>
       <r>   9.0094  0.0000</r>
       <r>   9.0318  0.0000</r>
      </set>
      <set comment="kpoint 54">
       <r>  -3.3069  1.0000</r>
       <r>  -3.3069  1.0000</r>
       <r>  -3.0928  1.0000</r>
       <r>  -3.0928  1.0000</r>
       <r>  -3.0627  1.0000</r>
       <r>  -3.0627  1.0000</r>
       <r>  -2.8846  1.0000</r>
       <r>  -2.8846  1.0000</r>
       <r>  -2.6691  1.0000</r>
       <r>  -2.6691  1.0000</r>
       <r>  -2.6083  1.0000</r>
       <r>  -2.6083  1.0000</r>
       <r>  -2.4269  1.0000</r>
       <r>  -2.4269  1.0000</r>
       <r>  -2.2244  1.0000</r>
       <r>  -2.2244  1.0000</r>
       <r>  -1.8689  1.0000</r>
       <r>  -1.8689  1.0000</r>
       <r>  -1.7439  1.0000</r>
       <r>  -1.7439  1.0000</r>
       <r>  -1.2281  1.0000</r>
       <r>  -1.2281  1.0000</r>
       <r>   4.2974  0.0000</r>
       <r>   4.2974  0.0000</r>
       <r>   4.3212  0.0000</r>
       <r>   4.3212  0.0000</r>
       <r>   9.2296  0.0000</r>
       <r>   9.2296  0.0000</r>
      </set>
      <set comment="kpoint 55">
       <r>  -3.6250  1.0000</r>
       <r>  -3.3969  1.0000</r>
       <r>  -3.3879  1.0000</r>
       <r>  -3.3879  1.0000</r>
       <r>  -3.1267  1.0000</r>
       <r>  -3.1267  1.0000</r>
       <r>  -3.0913  1.0000</r>
       <r>  -2.6988  1.0000</r>
       <r>  -2.6296  1.0000</r>
       <r>  -2.5761  1.0000</r>
       <r>  -2.3693  1.0000</r>
       <r>  -2.3693  1.0000</r>
       <r>  -2.3469  1.0000</r>
       <r>  -2.2017  1.0000</r>
       <r>  -2.1674  1.0000</r>
       <r>  -2.1518  1.0000</r>
       <r>  -2.1518  1.0000</r>
       <r>  -2.0527  1.0000</r>
       <r>  -1.7127  1.0000</r>
       <r>  -1.7023  1.0000</r>
       <r>  -1.7023  1.0000</r>
       <r>   1.6027  0.0000</r>
       <r>   1.6027  0.0000</r>
       <r>   2.9980  0.0000</r>
       <r>   5.6488  0.0000</r>
       <r>   6.9780  0.0000</r>
       <r>   6.9780  0.0000</r>
       <r>   8.6727  0.0000</r>
      </set>
      <set comment="kpoint 56">
       <r>  -3.4928  1.0000</r>
       <r>  -3.3487  1.0000</r>
       <r>  -3.3314  1.0000</r>
       <r>  -3.3072  1.0000</r>
       <r>  -3.0200  1.0000</r>
       <r>  -3.0154  1.0000</r>
       <r>  -2.9897  1.0000</r>
       <r>  -2.6971  1.0000</r>
       <r>  -2.6038  1.0000</r>
       <r>  -2.5345  1.0000</r>
       <r>  -2.5243  1.0000</r>
       <r>  -2.4798  1.0000</r>
       <r>  -2.4707  1.0000</r>
       <r>  -2.2597  1.0000</r>
       <r>  -2.2336  1.0000</r>
       <r>  -2.1957  1.0000</r>
       <r>  -2.1294  1.0000</r>
       <r>  -1.8732  1.0000</r>
       <r>  -1.7446  1.0000</r>
       <r>  -1.7346  1.0000</r>
       <r>  -1.7344  1.0000</r>
       <r>   0.6447  1.0000</r>
       <r>   2.0649  0.0000</r>
       <r>   3.4497  0.0000</r>
       <r>   4.7688  0.0000</r>
       <r>   6.1156  0.0000</r>
       <r>   7.4529  0.0000</r>
       <r>   8.9700  0.0000</r>
      </set>
      <set comment="kpoint 57">
       <r>  -3.3896  1.0000</r>
       <r>  -3.3247  1.0000</r>
       <r>  -3.2381  1.0000</r>
       <r>  -3.2040  1.0000</r>
       <r>  -2.9992  1.0000</r>
       <r>  -2.9672  1.0000</r>
       <r>  -2.8839  1.0000</r>
       <r>  -2.6976  1.0000</r>
       <r>  -2.6129  1.0000</r>
       <r>  -2.5997  1.0000</r>
       <r>  -2.5804  1.0000</r>
       <r>  -2.5465  1.0000</r>
       <r>  -2.5368  1.0000</r>
       <r>  -2.3682  1.0000</r>
       <r>  -2.2856  1.0000</r>
       <r>  -2.2534  1.0000</r>
       <r>  -1.9861  1.0000</r>
       <r>  -1.7920  1.0000</r>
       <r>  -1.7721  1.0000</r>
       <r>  -1.7665  1.0000</r>
       <r>  -1.5027  1.0000</r>
       <r>  -0.2053  1.0000</r>
       <r>   2.6115  0.0000</r>
       <r>   3.8677  0.0000</r>
       <r>   4.0938  0.0000</r>
       <r>   5.3330  0.0000</r>
       <r>   8.0244  0.0000</r>
       <r>   9.3625  0.0000</r>
      </set>
      <set comment="kpoint 58">
       <r>  -3.3333  1.0000</r>
       <r>  -3.3333  1.0000</r>
       <r>  -3.1483  1.0000</r>
       <r>  -3.1483  1.0000</r>
       <r>  -3.0283  1.0000</r>
       <r>  -3.0283  1.0000</r>
       <r>  -2.7486  1.0000</r>
       <r>  -2.7486  1.0000</r>
       <r>  -2.6506  1.0000</r>
       <r>  -2.6506  1.0000</r>
       <r>  -2.5710  1.0000</r>
       <r>  -2.5710  1.0000</r>
       <r>  -2.4646  1.0000</r>
       <r>  -2.4646  1.0000</r>
       <r>  -2.2995  1.0000</r>
       <r>  -2.2995  1.0000</r>
       <r>  -1.8751  1.0000</r>
       <r>  -1.8751  1.0000</r>
       <r>  -1.7811  1.0000</r>
       <r>  -1.7811  1.0000</r>
       <r>  -0.9297  1.0000</r>
       <r>  -0.9297  1.0000</r>
       <r>   3.2368  0.0000</r>
       <r>   3.2368  0.0000</r>
       <r>   4.6344  0.0000</r>
       <r>   4.6344  0.0000</r>
       <r>   8.6857  0.0000</r>
       <r>   8.6857  0.0000</r>
      </set>
      <set comment="kpoint 59">
       <r>  -3.4407  1.0000</r>
       <r>  -3.3045  1.0000</r>
       <r>  -3.2954  1.0000</r>
       <r>  -3.2954  1.0000</r>
       <r>  -2.9309  1.0000</r>
       <r>  -2.9309  1.0000</r>
       <r>  -2.9230  1.0000</r>
       <r>  -2.6992  1.0000</r>
       <r>  -2.6073  1.0000</r>
       <r>  -2.5842  1.0000</r>
       <r>  -2.5842  1.0000</r>
       <r>  -2.4741  1.0000</r>
       <r>  -2.3704  1.0000</r>
       <r>  -2.3251  1.0000</r>
       <r>  -2.2872  1.0000</r>
       <r>  -2.2872  1.0000</r>
       <r>  -2.1692  1.0000</r>
       <r>  -1.7845  1.0000</r>
       <r>  -1.7705  1.0000</r>
       <r>  -1.7705  1.0000</r>
       <r>  -1.5731  1.0000</r>
       <r>   1.0945  1.0000</r>
       <r>   1.0945  1.0000</r>
       <r>   3.7146  0.0000</r>
       <r>   4.0198  0.0000</r>
       <r>   6.5694  0.0000</r>
       <r>   6.5694  0.0000</r>
       <r>   9.3059  0.0000</r>
      </set>
      <set comment="kpoint 60">
       <r>  -3.3870  1.0000</r>
       <r>  -3.3061  1.0000</r>
       <r>  -3.2583  1.0000</r>
       <r>  -3.2360  1.0000</r>
       <r>  -2.9424  1.0000</r>
       <r>  -2.9229  1.0000</r>
       <r>  -2.8379  1.0000</r>
       <r>  -2.7266  1.0000</r>
       <r>  -2.5975  1.0000</r>
       <r>  -2.5876  1.0000</r>
       <r>  -2.5614  1.0000</r>
       <r>  -2.4604  1.0000</r>
       <r>  -2.3884  1.0000</r>
       <r>  -2.3809  1.0000</r>
       <r>  -2.3761  1.0000</r>
       <r>  -2.3239  1.0000</r>
       <r>  -2.0600  1.0000</r>
       <r>  -1.8342  1.0000</r>
       <r>  -1.8230  1.0000</r>
       <r>  -1.8143  1.0000</r>
       <r>  -1.1214  1.0000</r>
       <r>   0.2304  1.0000</r>
       <r>   1.6351  0.0000</r>
       <r>   2.9865  0.0000</r>
       <r>   4.4548  0.0000</r>
       <r>   5.7742  0.0000</r>
       <r>   7.1265  0.0000</r>
       <r>   8.5191  0.0000</r>
      </set>
      <set comment="kpoint 61">
       <r>  -3.3390  1.0000</r>
       <r>  -3.3390  1.0000</r>
       <r>  -3.2183  1.0000</r>
       <r>  -3.2183  1.0000</r>
       <r>  -2.9570  1.0000</r>
       <r>  -2.9570  1.0000</r>
       <r>  -2.7690  1.0000</r>
       <r>  -2.7690  1.0000</r>
       <r>  -2.5772  1.0000</r>
       <r>  -2.5772  1.0000</r>
       <r>  -2.4856  1.0000</r>
       <r>  -2.4856  1.0000</r>
       <r>  -2.4270  1.0000</r>
       <r>  -2.4270  1.0000</r>
       <r>  -2.3713  1.0000</r>
       <r>  -2.3713  1.0000</r>
       <r>  -1.9305  1.0000</r>
       <r>  -1.9305  1.0000</r>
       <r>  -1.8369  1.0000</r>
       <r>  -1.8369  1.0000</r>
       <r>  -0.5137  1.0000</r>
       <r>  -0.5137  1.0000</r>
       <r>   2.2656  0.0000</r>
       <r>   2.2656  0.0000</r>
       <r>   5.0686  0.0000</r>
       <r>   5.0686  0.0000</r>
       <r>   7.7783  0.0000</r>
       <r>   7.7783  0.0000</r>
      </set>
      <set comment="kpoint 62">
       <r>  -3.3659  1.0000</r>
[...]
       <r>   0.6498  1.0000</r>
       <r>   0.6498  1.0000</r>
       <r>   0.6498  1.0000</r>
       <r>   6.2365  0.0000</r>
       <r>   6.2365  0.0000</r>
       <r>   6.2365  0.0000</r>
       <r>   6.2365  0.0000</r>
      </set>
      <set comment="kpoint 65">
       <r>  -3.5782  1.0000</r>
       <r>  -3.3760  1.0000</r>
       <r>  -3.3760  1.0000</r>
       <r>  -3.3760  1.0000</r>
       <r>  -3.0201  1.0000</r>
       <r>  -3.0201  1.0000</r>
       <r>  -3.0201  1.0000</r>
       <r>  -2.6463  1.0000</r>
       <r>  -2.6463  1.0000</r>
       <r>  -2.4087  1.0000</r>
       <r>  -2.4087  1.0000</r>
       <r>  -2.4087  1.0000</r>
       <r>  -2.3802  1.0000</r>
       <r>  -2.2746  1.0000</r>
       <r>  -2.2746  1.0000</r>
       <r>  -2.2746  1.0000</r>
       <r>  -2.1009  1.0000</r>
       <r>  -2.1009  1.0000</r>
       <r>  -1.6960  1.0000</r>
       <r>  -1.6960  1.0000</r>
       <r>  -1.6960  1.0000</r>
       <r>   1.9335  0.0000</r>
       <r>   1.9335  0.0000</r>
       <r>   1.9335  0.0000</r>
       <r>   5.9931  0.0000</r>
       <r>   5.9931  0.0000</r>
       <r>   5.9931  0.0000</r>
       <r>  10.1647  0.0000</r>
      </set>
      <set comment="kpoint 66">
       <r>  -3.5217  1.0000</r>
       <r>  -3.3662  1.0000</r>
       <r>  -3.3365  1.0000</r>
       <r>  -3.3365  1.0000</r>
       <r>  -2.9505  1.0000</r>
       <r>  -2.9505  1.0000</r>
       <r>  -2.9261  1.0000</r>
       <r>  -2.6678  1.0000</r>
       <r>  -2.6413  1.0000</r>
       <r>  -2.4731  1.0000</r>
       <r>  -2.4731  1.0000</r>
       <r>  -2.4649  1.0000</r>
       <r>  -2.3814  1.0000</r>
       <r>  -2.3273  1.0000</r>
       <r>  -2.3273  1.0000</r>
       <r>  -2.2849  1.0000</r>
       <r>  -1.9954  1.0000</r>
       <r>  -1.8800  1.0000</r>
       <r>  -1.7194  1.0000</r>
       <r>  -1.7194  1.0000</r>
       <r>  -1.7061  1.0000</r>
       <r>   0.9522  1.0000</r>
       <r>   2.3633  0.0000</r>
       <r>   2.3633  0.0000</r>
       <r>   5.1003  0.0000</r>
       <r>   5.1003  0.0000</r>
       <r>   6.4520  0.0000</r>
       <r>   9.2494  0.0000</r>
      </set>
      <set comment="kpoint 67">
       <r>  -3.4628  1.0000</r>
       <r>  -3.3771  1.0000</r>
       <r>  -3.2822  1.0000</r>
       <r>  -3.2822  1.0000</r>
       <r>  -2.9582  1.0000</r>
       <r>  -2.9582  1.0000</r>
       <r>  -2.8264  1.0000</r>
       <r>  -2.7001  1.0000</r>
       <r>  -2.6110  1.0000</r>
       <r>  -2.4894  1.0000</r>
       <r>  -2.4775  1.0000</r>
       <r>  -2.4710  1.0000</r>
       <r>  -2.4710  1.0000</r>
       <r>  -2.3734  1.0000</r>
       <r>  -2.3637  1.0000</r>
       <r>  -2.3637  1.0000</r>
       <r>  -1.8956  1.0000</r>
       <r>  -1.7513  1.0000</r>
       <r>  -1.7513  1.0000</r>
       <r>  -1.7448  1.0000</r>
       <r>  -1.3574  1.0000</r>
       <r>   0.0709  1.0000</r>
       <r>   2.8685  0.0000</r>
       <r>   2.8685  0.0000</r>
       <r>   4.3190  0.0000</r>
       <r>   4.3190  0.0000</r>
       <r>   7.0149  0.0000</r>
       <r>   8.4184  0.0000</r>
      </set>
      <set comment="kpoint 68">
       <r>  -3.4112  1.0000</r>
       <r>  -3.4112  1.0000</r>
       <r>  -3.2510  1.0000</r>
       <r>  -3.2510  1.0000</r>
       <r>  -2.9843  1.0000</r>
       <r>  -2.9843  1.0000</r>
       <r>  -2.7479  1.0000</r>
       <r>  -2.7479  1.0000</r>
       <r>  -2.5556  1.0000</r>
       <r>  -2.5556  1.0000</r>
       <r>  -2.4572  1.0000</r>
       <r>  -2.4572  1.0000</r>
       <r>  -2.4279  1.0000</r>
       <r>  -2.4279  1.0000</r>
       <r>  -2.4035  1.0000</r>
       <r>  -2.4035  1.0000</r>
       <r>  -1.8097  1.0000</r>
       <r>  -1.8097  1.0000</r>
       <r>  -1.7662  1.0000</r>
       <r>  -1.7662  1.0000</r>
       <r>  -0.7014  1.0000</r>
       <r>  -0.7014  1.0000</r>
       <r>   3.2673  0.0000</r>
       <r>   3.2673  0.0000</r>
       <r>   3.8285  0.0000</r>
       <r>   3.8285  0.0000</r>
       <r>   7.6724  0.0000</r>
       <r>   7.6724  0.0000</r>
      </set>
      <set comment="kpoint 69">
       <r>  -3.5223  1.0000</r>
       <r>  -3.3631  1.0000</r>
       <r>  -3.3631  1.0000</r>
       <r>  -3.3467  1.0000</r>
       <r>  -2.9153  1.0000</r>
       <r>  -2.8931  1.0000</r>
       <r>  -2.8931  1.0000</r>
       <r>  -2.6805  1.0000</r>
       <r>  -2.6652  1.0000</r>
       <r>  -2.4839  1.0000</r>
       <r>  -2.4839  1.0000</r>
       <r>  -2.4319  1.0000</r>
       <r>  -2.3906  1.0000</r>
       <r>  -2.3865  1.0000</r>
       <r>  -2.3865  1.0000</r>
       <r>  -2.0713  1.0000</r>
       <r>  -2.0472  1.0000</r>
       <r>  -1.7351  1.0000</r>
       <r>  -1.7203  1.0000</r>
       <r>  -1.7203  1.0000</r>
       <r>  -1.5470  1.0000</r>
       <r>   1.3647  0.0000</r>
       <r>   1.3647  0.0000</r>
       <r>   2.7343  0.0000</r>
       <r>   4.2166  0.0000</r>
       <r>   5.5481  0.0000</r>
       <r>   5.5481  0.0000</r>
       <r>   8.3285  0.0000</r>
      </set>
      <set comment="kpoint 70">
       <r>  -3.4980  1.0000</r>
       <r>  -3.4071  1.0000</r>
       <r>  -3.3502  1.0000</r>
       <r>  -3.3445  1.0000</r>
       <r>  -2.9162  1.0000</r>
       <r>  -2.9101  1.0000</r>
       <r>  -2.8283  1.0000</r>
       <r>  -2.7174  1.0000</r>
       <r>  -2.6521  1.0000</r>
       <r>  -2.5467  1.0000</r>
       <r>  -2.5035  1.0000</r>
       <r>  -2.4862  1.0000</r>
       <r>  -2.3501  1.0000</r>
       <r>  -2.3244  1.0000</r>
       <r>  -2.3175  1.0000</r>
       <r>  -2.1620  1.0000</r>
       <r>  -1.9162  1.0000</r>
       <r>  -1.7652  1.0000</r>
       <r>  -1.7558  1.0000</r>
       <r>  -1.7526  1.0000</r>
       <r>  -1.0042  1.0000</r>
       <r>   0.4657  1.0000</r>
       <r>   1.8716  0.0000</r>
       <r>   2.9345  0.0000</r>
       <r>   3.7057  0.0000</r>
       <r>   4.7500  0.0000</r>
       <r>   6.1014  0.0000</r>
       <r>   7.4955  0.0000</r>
      </set>
      <set comment="kpoint 71">
       <r>  -3.4562  1.0000</r>
       <r>  -3.4562  1.0000</r>
       <r>  -3.3422  1.0000</r>
       <r>  -3.3422  1.0000</r>
       <r>  -2.9239  1.0000</r>
       <r>  -2.9239  1.0000</r>
       <r>  -2.7679  1.0000</r>
       <r>  -2.7679  1.0000</r>
       <r>  -2.6102  1.0000</r>
       <r>  -2.6102  1.0000</r>
       <r>  -2.5048  1.0000</r>
       <r>  -2.5048  1.0000</r>
       <r>  -2.2882  1.0000</r>
       <r>  -2.2882  1.0000</r>
       <r>  -2.2652  1.0000</r>
       <r>  -2.2652  1.0000</r>
       <r>  -1.8176  1.0000</r>
       <r>  -1.8176  1.0000</r>
       <r>  -1.7786  1.0000</r>
       <r>  -1.7786  1.0000</r>
       <r>  -0.3266  1.0000</r>
       <r>  -0.3266  1.0000</r>
       <r>   2.4526  0.0000</r>
       <r>   2.4526  0.0000</r>
       <r>   4.0780  0.0000</r>
       <r>   4.0780  0.0000</r>
       <r>   6.7522  0.0000</r>
       <r>   6.7522  0.0000</r>
      </set>
      <set comment="kpoint 72">
       <r>  -3.4989  1.0000</r>
       <r>  -3.4179  1.0000</r>
       <r>  -3.4179  1.0000</r>
       <r>  -3.3874  1.0000</r>
       <r>  -2.8836  1.0000</r>
       <r>  -2.8476  1.0000</r>
       <r>  -2.8476  1.0000</r>
       <r>  -2.7406  1.0000</r>
       <r>  -2.6680  1.0000</r>
       <r>  -2.5809  1.0000</r>
       <r>  -2.5809  1.0000</r>
       <r>  -2.5560  1.0000</r>
       <r>  -2.2204  1.0000</r>
       <r>  -2.2204  1.0000</r>
       <r>  -2.2064  1.0000</r>
       <r>  -2.0237  1.0000</r>
       <r>  -1.9698  1.0000</r>
       <r>  -1.8008  1.0000</r>
       <r>  -1.7937  1.0000</r>
       <r>  -1.7937  1.0000</r>
       <r>  -0.4773  1.0000</r>
       <r>   0.9749  1.0000</r>
       <r>   0.9749  1.0000</r>
       <r>   2.2993  0.0000</r>
       <r>   4.0035  0.0000</r>
       <r>   5.2895  0.0000</r>
       <r>   5.2895  0.0000</r>
       <r>   6.6652  0.0000</r>
      </set>
      <set comment="kpoint 73">
       <r>  -3.4703  1.0000</r>
       <r>  -3.4703  1.0000</r>
       <r>  -3.4114  1.0000</r>
       <r>  -3.4114  1.0000</r>
       <r>  -2.8639  1.0000</r>
       <r>  -2.8639  1.0000</r>
       <r>  -2.7872  1.0000</r>
       <r>  -2.7872  1.0000</r>
       <r>  -2.6405  1.0000</r>
       <r>  -2.6405  1.0000</r>
       <r>  -2.5865  1.0000</r>
       <r>  -2.5865  1.0000</r>
       <r>  -2.1590  1.0000</r>
       <r>  -2.1590  1.0000</r>
       <r>  -2.1099  1.0000</r>
       <r>  -2.1099  1.0000</r>
       <r>  -1.8695  1.0000</r>
       <r>  -1.8695  1.0000</r>
       <r>  -1.8228  1.0000</r>
       <r>  -1.8228  1.0000</r>
       <r>   0.1884  1.0000</r>
       <r>   0.1884  1.0000</r>
       <r>   1.5924  0.0000</r>
       <r>   1.5924  0.0000</r>
       <r>   4.5844  0.0000</r>
       <r>   4.5844  0.0000</r>
       <r>   5.9292  0.0000</r>
       <r>   5.9292  0.0000</r>
      </set>
      <set comment="kpoint 74">
       <r>  -3.4548  1.0000</r>
       <r>  -3.4548  1.0000</r>
       <r>  -3.4548  1.0000</r>
       <r>  -3.4548  1.0000</r>
       <r>  -2.8160  1.0000</r>
       <r>  -2.8160  1.0000</r>
       <r>  -2.8160  1.0000</r>
       <r>  -2.8160  1.0000</r>
       <r>  -2.6350  1.0000</r>
       <r>  -2.6350  1.0000</r>
       <r>  -2.6350  1.0000</r>
       <r>  -2.6350  1.0000</r>
       <r>  -2.0662  1.0000</r>
       <r>  -2.0662  1.0000</r>
       <r>  -2.0662  1.0000</r>
       <r>  -2.0662  1.0000</r>
       <r>  -1.8830  1.0000</r>
       <r>  -1.8830  1.0000</r>
       <r>  -1.8830  1.0000</r>
       <r>  -1.8830  1.0000</r>
       <r>   0.8318  1.0000</r>
       <r>   0.8318  1.0000</r>
       <r>   0.8318  1.0000</r>
       <r>   0.8318  1.0000</r>
       <r>   5.2055  0.0000</r>
       <r>   5.2055  0.0000</r>
       <r>   5.2055  0.0000</r>
       <r>   5.2055  0.0000</r>
      </set>
      <set comment="kpoint 75">
       <r>  -3.5619  1.0000</r>
       <r>  -3.4109  1.0000</r>
       <r>  -3.4109  1.0000</r>
       <r>  -3.4109  1.0000</r>
       <r>  -2.8771  1.0000</r>
       <r>  -2.8771  1.0000</r>
       <r>  -2.8771  1.0000</r>
       <r>  -2.6957  1.0000</r>
       <r>  -2.6957  1.0000</r>
       <r>  -2.5306  1.0000</r>
       <r>  -2.5306  1.0000</r>
       <r>  -2.5306  1.0000</r>
       <r>  -2.2939  1.0000</r>
       <r>  -2.2939  1.0000</r>
       <r>  -2.2939  1.0000</r>
       <r>  -1.9337  1.0000</r>
       <r>  -1.9337  1.0000</r>
       <r>  -1.7125  1.0000</r>
       <r>  -1.7125  1.0000</r>
       <r>  -1.7125  1.0000</r>
       <r>  -1.2607  1.0000</r>
       <r>   1.7269  0.0000</r>
       <r>   1.7269  0.0000</r>
       <r>   1.7269  0.0000</r>
       <r>   4.6452  0.0000</r>
       <r>   4.6452  0.0000</r>
       <r>   4.6452  0.0000</r>
       <r>   7.4014  0.0000</r>
      </set>
      <set comment="kpoint 76">
       <r>  -3.5636  1.0000</r>
       <r>  -3.4784  1.0000</r>
       <r>  -3.4386  1.0000</r>
       <r>  -3.4386  1.0000</r>
       <r>  -2.8757  1.0000</r>
       <r>  -2.8757  1.0000</r>
       <r>  -2.8243  1.0000</r>
       <r>  -2.7273  1.0000</r>
       <r>  -2.6967  1.0000</r>
       <r>  -2.6114  1.0000</r>
       <r>  -2.5812  1.0000</r>
       <r>  -2.5812  1.0000</r>
       <r>  -2.1881  1.0000</r>
       <r>  -2.1787  1.0000</r>
       <r>  -2.1787  1.0000</r>
       <r>  -1.9822  1.0000</r>
       <r>  -1.8372  1.0000</r>
       <r>  -1.7340  1.0000</r>
       <r>  -1.7340  1.0000</r>
       <r>  -1.7223  1.0000</r>
       <r>  -0.7011  1.0000</r>
       <r>   0.8124  1.0000</r>
       <r>   2.1407  0.0000</r>
       <r>   2.1407  0.0000</r>
       <r>   3.9051  0.0000</r>
       <r>   3.9051  0.0000</r>
       <r>   5.1856  0.0000</r>
       <r>   6.5672  0.0000</r>
      </set>
      <set comment="kpoint 77">
       <r>  -3.5331  1.0000</r>
       <r>  -3.5331  1.0000</r>
       <r>  -3.4476  1.0000</r>
       <r>  -3.4476  1.0000</r>
       <r>  -2.8775  1.0000</r>
       <r>  -2.8775  1.0000</r>
       <r>  -2.7715  1.0000</r>
       <r>  -2.7715  1.0000</r>
       <r>  -2.6680  1.0000</r>
       <r>  -2.6680  1.0000</r>
       <r>  -2.5972  1.0000</r>
       <r>  -2.5972  1.0000</r>
       <r>  -2.1288  1.0000</r>
       <r>  -2.1288  1.0000</r>
       <r>  -2.0796  1.0000</r>
       <r>  -2.0796  1.0000</r>
       <r>  -1.7649  1.0000</r>
       <r>  -1.7649  1.0000</r>
       <r>  -1.7508  1.0000</r>
       <r>  -1.7508  1.0000</r>
       <r>   0.0000  1.0000</r>
       <r>   0.0000  1.0000</r>
       <r>   2.3957  0.0000</r>
       <r>   2.3957  0.0000</r>
       <r>   3.5411  0.0000</r>
       <r>   3.5411  0.0000</r>
       <r>   5.8277  0.0000</r>
       <r>   5.8277  0.0000</r>
      </set>
      <set comment="kpoint 78">
       <r>  -3.5862  1.0000</r>
       <r>  -3.5176  1.0000</r>
       <r>  -3.5176  1.0000</r>
       <r>  -3.4972  1.0000</r>
       <r>  -2.8471  1.0000</r>
       <r>  -2.8248  1.0000</r>
       <r>  -2.8248  1.0000</r>
       <r>  -2.7386  1.0000</r>
       <r>  -2.7236  1.0000</r>
       <r>  -2.6562  1.0000</r>
       <r>  -2.6562  1.0000</r>
       <r>  -2.6436  1.0000</r>
       <r>  -2.0488  1.0000</r>
       <r>  -2.0488  1.0000</r>
       <r>  -2.0466  1.0000</r>
       <r>  -1.8652  1.0000</r>
       <r>  -1.8480  1.0000</r>
       <r>  -1.7460  1.0000</r>
       <r>  -1.7370  1.0000</r>
       <r>  -1.7370  1.0000</r>
       <r>  -0.1900  1.0000</r>
       <r>   1.2662  0.8180</r>
       <r>   1.2662  0.8180</r>
       <r>   2.1991  0.0000</r>
       <r>   3.4902  0.0000</r>
       <r>   4.3948  0.0000</r>
       <r>   4.3948  0.0000</r>
       <r>   5.7382  0.0000</r>
      </set>
      <set comment="kpoint 79">
       <r>  -3.5692  1.0000</r>
       <r>  -3.5692  1.0000</r>
       <r>  -3.5239  1.0000</r>
       <r>  -3.5239  1.0000</r>
       <r>  -2.8306  1.0000</r>
       <r>  -2.8306  1.0000</r>
       <r>  -2.7764  1.0000</r>
       <r>  -2.7764  1.0000</r>
       <r>  -2.7053  1.0000</r>
       <r>  -2.7053  1.0000</r>
       <r>  -2.6689  1.0000</r>
       <r>  -2.6689  1.0000</r>
       <r>  -1.9866  1.0000</r>
       <r>  -1.9866  1.0000</r>
       <r>  -1.9360  1.0000</r>
       <r>  -1.9360  1.0000</r>
       <r>  -1.7774  1.0000</r>
       <r>  -1.7774  1.0000</r>
       <r>  -1.7604  1.0000</r>
       <r>  -1.7604  1.0000</r>
       <r>   0.4784  1.0000</r>
       <r>   0.4784  1.0000</r>
       <r>   1.7894  0.0000</r>
       <r>   1.7894  0.0000</r>
       <r>   3.7696  0.0000</r>
       <r>   3.7696  0.0000</r>
       <r>   5.0122  0.0000</r>
       <r>   5.0122  0.0000</r>
      </set>
      <set comment="kpoint 80">
       <r>  -3.5655  1.0000</r>
       <r>  -3.5655  1.0000</r>
       <r>  -3.5655  1.0000</r>
       <r>  -3.5655  1.0000</r>
       <r>  -2.7930  1.0000</r>
       <r>  -2.7930  1.0000</r>
       <r>  -2.7930  1.0000</r>
       <r>  -2.7930  1.0000</r>
       <r>  -2.7088  1.0000</r>
       <r>  -2.7088  1.0000</r>
       <r>  -2.7088  1.0000</r>
       <r>  -2.7088  1.0000</r>
       <r>  -1.8865  1.0000</r>
       <r>  -1.8865  1.0000</r>
       <r>  -1.8865  1.0000</r>
       <r>  -1.8865  1.0000</r>
       <r>  -1.7996  1.0000</r>
       <r>  -1.7996  1.0000</r>
       <r>  -1.7996  1.0000</r>
       <r>  -1.7996  1.0000</r>
       <r>   1.0901  1.0000</r>
       <r>   1.0901  1.0000</r>
       <r>   1.0901  1.0000</r>
       <r>   1.0901  1.0000</r>
       <r>   4.3160  0.0000</r>
       <r>   4.3160  0.0000</r>
       <r>   4.3160  0.0000</r>
       <r>   4.3160  0.0000</r>
      </set>
      <set comment="kpoint 81">
       <r>  -3.6274  1.0000</r>
       <r>  -3.5789  1.0000</r>
       <r>  -3.5789  1.0000</r>
       <r>  -3.5789  1.0000</r>
       <r>  -2.8070  1.0000</r>
       <r>  -2.8070  1.0000</r>
       <r>  -2.8070  1.0000</r>
       <r>  -2.7495  1.0000</r>
       <r>  -2.7495  1.0000</r>
       <r>  -2.7080  1.0000</r>
       <r>  -2.7080  1.0000</r>
       <r>  -2.7080  1.0000</r>
       <r>  -1.9123  1.0000</r>
       <r>  -1.9123  1.0000</r>
       <r>  -1.9123  1.0000</r>
       <r>  -1.7856  1.0000</r>
       <r>  -1.7856  1.0000</r>
       <r>  -1.7237  1.0000</r>
       <r>  -1.7237  1.0000</r>
       <r>  -1.7237  1.0000</r>
       <r>   0.2751  1.0000</r>
       <r>   1.5932  0.0000</r>
       <r>   1.5932  0.0000</r>
       <r>   1.5932  0.0000</r>
       <r>   3.6987  0.0000</r>
       <r>   3.6987  0.0000</r>
       <r>   3.6987  0.0000</r>
       <r>   4.9228  0.0000</r>
      </set>
      <set comment="kpoint 82">
       <r>  -3.6240  1.0000</r>
       <r>  -3.6240  1.0000</r>
       <r>  -3.5996  1.0000</r>
       <r>  -3.5996  1.0000</r>
       <r>  -2.7995  1.0000</r>
       <r>  -2.7995  1.0000</r>
       <r>  -2.7728  1.0000</r>
       <r>  -2.7728  1.0000</r>
       <r>  -2.7441  1.0000</r>
       <r>  -2.7441  1.0000</r>
       <r>  -2.7269  1.0000</r>
       <r>  -2.7269  1.0000</r>
       <r>  -1.8501  1.0000</r>
       <r>  -1.8501  1.0000</r>
       <r>  -1.8178  1.0000</r>
       <r>  -1.8178  1.0000</r>
       <r>  -1.7371  1.0000</r>
       <r>  -1.7371  1.0000</r>
       <r>  -1.7341  1.0000</r>
       <r>  -1.7341  1.0000</r>
       <r>   0.8905  1.0000</r>
       <r>   0.8905  1.0000</r>
       <r>   1.7723  0.0000</r>
       <r>   1.7723  0.0000</r>
       <r>   3.3955  0.0000</r>
       <r>   3.3955  0.0000</r>
       <r>   4.2314  0.0000</r>
       <r>   4.2314  0.0000</r>
      </set>
      <set comment="kpoint 83">
       <r>  -3.6338  1.0000</r>
       <r>  -3.6338  1.0000</r>
       <r>  -3.6338  1.0000</r>
       <r>  -3.6338  1.0000</r>
       <r>  -2.7768  1.0000</r>
       <r>  -2.7768  1.0000</r>
       <r>  -2.7768  1.0000</r>
       <r>  -2.7768  1.0000</r>
       <r>  -2.7551  1.0000</r>
       <r>  -2.7551  1.0000</r>
       <r>  -2.7551  1.0000</r>
       <r>  -2.7551  1.0000</r>
       <r>  -1.7686  1.0000</r>
       <r>  -1.7686  1.0000</r>
       <r>  -1.7686  1.0000</r>
       <r>  -1.7686  1.0000</r>
       <r>  -1.7461  1.0000</r>
       <r>  -1.7461  1.0000</r>
       <r>  -1.7461  1.0000</r>
       <r>  -1.7461  1.0000</r>
       <r>   1.3805  0.0000</r>
       <r>   1.3805  0.0000</r>
       <r>   1.3805  0.0000</r>
       <r>   1.3805  0.0000</r>
       <r>   3.6369  0.0000</r>
       <r>   3.6369  0.0000</r>
       <r>   3.6369  0.0000</r>
       <r>   3.6369  0.0000</r>
      </set>
      <set comment="kpoint 84">
       <r>  -3.6569  1.0000</r>
       <r>  -3.6569  1.0000</r>
       <r>  -3.6569  1.0000</r>
       <r>  -3.6569  1.0000</r>
       <r>  -2.7709  1.0000</r>
       <r>  -2.7709  1.0000</r>
       <r>  -2.7709  1.0000</r>
       <r>  -2.7709  1.0000</r>
       <r>  -2.7709  1.0000</r>
       <r>  -2.7709  1.0000</r>
       <r>  -2.7709  1.0000</r>
       <r>  -2.7709  1.0000</r>
       <r>  -1.7277  1.0000</r>
       <r>  -1.7277  1.0000</r>
       <r>  -1.7277  1.0000</r>
       <r>  -1.7277  1.0000</r>
       <r>  -1.7277  1.0000</r>
       <r>  -1.7277  1.0000</r>
       <r>  -1.7277  1.0000</r>
       <r>  -1.7277  1.0000</r>
       <r>   1.5349  0.0000</r>
       <r>   1.5349  0.0000</r>
       <r>   1.5349  0.0000</r>
       <r>   1.5349  0.0000</r>
       <r>   3.3514  0.0000</r>
       <r>   3.3514  0.0000</r>
       <r>   3.3514  0.0000</r>
       <r>   3.3514  0.0000</r>
      </set>
     </set>
    </set>
   </array>
  </eigenvalues>
 </calculation>
 <structure name="finalpos" >
  <crystal>
   <varray name="basis" >
    <v>       4.53791501      0.00000000      0.00000000</v>
    <v>       0.00000000      4.53791501      0.00000000</v>
    <v>       0.00000000      0.00000000      4.53791501</v>
   </varray>
   <i name="volume">     93.44779838</i>
   <varray name="rec_basis" >
    <v>       0.22036552      0.00000000      0.00000000</v>
    <v>       0.00000000      0.22036552      0.00000000</v>
    <v>       0.00000000      0.00000000      0.22036552</v>
   </varray>
  </crystal>
  <varray name="positions" >
   <v>       0.00000000      0.00000000      0.00000000</v>
   <v>       0.50000000      0.50000000      0.00000000</v>
   <v>       0.50000000      0.00000000      0.50000000</v>
   <v>       0.00000000      0.50000000      0.50000000</v>
  </varray>
 </structure>
</modeling>
