 running on    8 nodes
 distr:  one band on    1 nodes,    8 groups
 vasp.4.6.28 25Jul05 complex 
 POSCAR found :  1 types and    4 ions
 LDA part: xc-table for Pade appr. of Perdew
 POSCAR, INCAR and KPOINTS ok, starting setup
 FFT: planning ...           1
 reading WAVECAR
 WARNING: random wavefunctions but no delay for mixing, default for NELMDL
 entering main loop
       N       E                     dE             d eps       ncg     rms          rms(c)
DAV:   1     0.361456751223E+03    0.36146E+03   -0.31302E+04 88656   0.338E+03
DAV:   2     0.108546652750E+02   -0.35060E+03   -0.33182E+03 85216   0.483E+02
DAV:   3    -0.179068657774E+02   -0.28762E+02   -0.27954E+02 91824   0.160E+02
DAV:   4    -0.183301989526E+02   -0.42333E+00   -0.42287E+00 96576   0.203E+01
DAV:   5    -0.183310133574E+02   -0.81440E-03   -0.81439E-03 93968   0.859E-01    0.141E+01
DAV:   6    -0.159362246108E+02    0.23948E+01   -0.22273E+01 93816   0.780E+01    0.571E+00
DAV:   7    -0.148472478916E+02    0.10890E+01   -0.39276E+00 96960   0.319E+01    0.129E+00
DAV:   8    -0.147993006252E+02    0.47947E-01   -0.29194E-02 92928   0.134E+00    0.587E-01
DAV:   9    -0.147921043872E+02    0.71962E-02   -0.76277E-03103488   0.143E+00    0.274E-02
DAV:  10    -0.147921833444E+02   -0.78957E-04   -0.58125E-04 92464   0.173E-01    0.108E-02
DAV:  11    -0.147921815928E+02    0.17516E-05   -0.42828E-05 96248   0.849E-02    0.749E-03
DAV:  12    -0.147921863186E+02   -0.47257E-05   -0.17194E-06 99016   0.231E-02    0.131E-03
DAV:  13    -0.147921868025E+02   -0.48397E-06   -0.70393E-08 96224   0.405E-03    0.431E-04
DAV:  14    -0.147921869228E+02   -0.12032E-06   -0.49387E-09 57304   0.103E-03    0.588E-05
DAV:  15    -0.147921869011E+02    0.21741E-07   -0.11921E-09 52688   0.257E-04    0.330E-05
DAV:  16    -0.147921869068E+02   -0.57180E-08   -0.99089E-11 50824   0.126E-04
   1 F= -.14792187E+02 E0= -.14792149E+02  d E =-.756984E-04
