 vasp.4.6.28 25Jul05 complex 
 executed on             LinuxIFC date 2016.08.29  18:44:02
 running on    4 nodes
 distr:  one band on    1 nodes,    4 groups


--------------------------------------------------------------------------------------------------------


 INCAR:
 POTCAR:   PAW_PBE Cu 05Jan2001                   
 POTCAR:   PAW_PBE Cu 05Jan2001                   
   VRHFIN =Cu: d10 p1                                                           
   LEXCH  = PE                                                                  
   EATOM  =  1390.9800 eV,  102.2341 Ry                                         
                                                                                
   TITEL  = PAW_PBE Cu 05Jan2001                                                
   LULTRA =        F    use ultrasoft PP ?                                      
   IUNSCR =        1    unscreen: 0-lin 1-nonlin 2-no                           
   RPACOR =    2.000    partial core radius                                     
   POMASS =   63.546; ZVAL   =   11.000    mass and valenz                      
   RCORE  =    2.300    outmost cutoff radius                                   
   RWIGS  =    2.480; RWIGS  =    1.312    wigner-seitz radius (au A)           
   ENMAX  =  273.214; ENMIN  =  204.910 eV                                      
   RCLOC  =    1.712    cutoff for local pot                                    
   LCOR   =        T    correct aug charges                                     
   LPAW   =        T    paw PP                                                  
   EAUG   =  516.456                                                            
   DEXC   =    -.008                                                            
   RMAX   =    2.789    core radius for proj-oper                               
   RAUG   =    1.300    factor for augmentation sphere                          
   RDEP   =    2.302    radius for radial grids                                 
   QCUT   =   -4.481; QGAM   =    8.962    optimization parameters              
                                                                                
   Description                                                                  
     l     E      TYP  RCUT    TYP  RCUT                                        
     2   .000     23  2.300                                                     
     2   .000     23  2.300                                                     
     0   .000     23  2.300                                                     
     0   .000     23  2.300                                                     
     1  -.200     23  2.300                                                     
     1   .000     23  2.300                                                     
     3   .000      7   .000                                                     
  local pseudopotential read in
  partial core-charges read in
  atomic valenz-charges read in
  non local Contribution for L=           2  read in
    real space projection operators read in
  non local Contribution for L=           2  read in
    real space projection operators read in
  non local Contribution for L=           0  read in
    real space projection operators read in
  non local Contribution for L=           0  read in
    real space projection operators read in
  non local Contribution for L=           1  read in
    real space projection operators read in
  non local Contribution for L=           1  read in
    real space projection operators read in
    PAW grid and wavefunctions read in
 
   number of l-projection  operators is LMAX  =           6
   number of lm-projection operators is LMMAX =          18
 

 ----------------------------------------------------------------------------- 
|                                                                             |
|  ADVICE TO THIS USER RUNNING 'VASP/VAMP'   (HEAR YOUR MASTER'S VOICE ...):  |
|                                                                             |
|      You have a (more or less) 'large supercell' and for larger cells       |
|      it might be more efficient to use real space projection operators      |
|      So try LREAL= Auto  in the INCAR   file.                               |
|      Mind: If you want to do an extremely accurate calculations keep the    |
|      reciprocal projection scheme          (i.e. LREAL=.FALSE.)             |
|                                                                             |
 ----------------------------------------------------------------------------- 

 PAW_PBE Cu 05Jan2001                   :
 energy of atom  1       EATOM=-1390.9800
 kinetic energy error for atom=    0.0395 (will be added to EATOM!!)
 
 EXHCAR: internal setup
 exchange correlation table for  LEXCH =        8
   RHO(1)=    0.500       N(1)  =     2000
   RHO(2)=  100.500       N(2)  =     4000
 
 POSCAR: No title                                
  positions in direct lattice
  No initial velocities read in
 


--------------------------------------------------------------------------------------------------------


 ion  position               nearest neighbor table
   1  0.667  0.667  0.333-   5 2.55   8 2.55   9 2.55  43 2.55  60 2.55  59 2.55   3 2.55  38 2.55
                             2 2.55  19 2.55  34 2.55 101 2.55
   2  0.667  0.833  0.500-   3 2.55  14 2.55   9 2.55  10 2.55  34 2.55  39 2.55   1 2.55   6 2.55
                            61 2.55  97 2.55  60 2.55  35 2.55
   3  0.833  0.667  0.500-   2 2.55   9 2.55  14 2.55  12 2.55   1 2.55  19 2.55  39 2.55  11 2.55
                            49 2.55  87 2.55  44 2.55  43 2.55
   4  0.667  0.667  0.000-  21 2.55  15 2.55  66 2.55  83 2.55  20 2.55   8 2.55   5 2.55  38 2.55
                            59 2.55 107 2.55  82 2.55  63 2.55
   5  0.667  0.833  0.167-   1 2.55   8 2.55   9 2.55  21 2.55  60 2.55  59 2.55  22 2.55   6 2.55
                             4 2.55  16 2.55  84 2.55  83 2.55
   6  0.667  0.000  0.333-  22 2.55  17 2.55   9 2.55  10 2.55  23 2.55  84 2.55   5 2.55  61 2.55
                             2 2.55  85 2.55  60 2.55   7 2.55
   7  0.667  0.167  0.500-  24 2.55  18 2.55  10 2.55  86 2.55  23 2.55  64 2.55  62 2.55  35 2.55
                           105 2.55  61 2.55  85 2.55   6 2.55
   8  0.833  0.667  0.167-   1 2.55   5 2.55   9 2.55  21 2.55  43 2.55   4 2.55  26 2.55  38 2.55
                            11 2.55  25 2.55  70 2.55  66 2.55
   9  0.833  0.833  0.333-   1 2.55   5 2.55   8 2.55   6 2.55   3 2.55  11 2.55  22 2.55   2 2.55
                            26 2.55  27 2.55  12 2.55  10 2.55
  10  0.833  0.000  0.500-   7 2.55  35 2.55   2 2.55   6 2.55  23 2.55  27 2.55  12 2.55  39 2.55
                            28 2.55  67 2.55  64 2.55   9 2.55
  11  0.000  0.667  0.333-  26 2.55   9 2.55  29 2.55   8 2.55  30 2.55  70 2.55  12 2.55  49 2.55
                             3 2.55  75 2.55  43 2.55  13 2.55
  12  0.000  0.833  0.500-  13 2.55  44 2.55   3 2.55  11 2.55  27 2.55  30 2.55  39 2.55  10 2.55
                            31 2.55   9 2.55  71 2.55  67 2.55
  13  0.167  0.667  0.500-  33 2.55  30 2.55  12 2.55  81 2.55  32 2.55  76 2.55  71 2.55  44 2.55
                           102 2.55  49 2.55  11 2.55  75 2.55
  14  0.667  0.667  0.667-  20 2.55  39 2.55  15 2.55   2 2.55  63 2.55  87 2.55  97 2.55   3 2.55
                            82 2.55 108 2.55  34 2.55  19 2.55
  15  0.667  0.833  0.833-  20 2.55  39 2.55  14 2.55  35 2.55   4 2.55  21 2.55  40 2.55  82 2.55
                            97 2.55  83 2.55  98 2.55  16 2.55
  16  0.667  0.000  0.000-  21 2.55  40 2.55  22 2.55  41 2.55   5 2.55  36 2.55  84 2.55  99 2.55
                            83 2.55  98 2.55  17 2.55  15 2.55
  17  0.667  0.167  0.167-  23 2.55  42 2.55  18 2.55   6 2.55  37 2.55  22 2.55 100 2.55  85 2.55
                            41 2.55  84 2.55  99 2.55  16 2.55
  18  0.667  0.333  0.333-  23 2.55  42 2.55  17 2.55  38 2.55   7 2.55  24 2.55  43 2.55  85 2.55
                           100 2.55  86 2.55 101 2.55  19 2.55
  19  0.667  0.500  0.500-  24 2.55  43 2.55   3 2.55  87 2.55   1 2.55  62 2.55  34 2.55 108 2.55
                            86 2.55 101 2.55  14 2.55  18 2.55
  20  0.833  0.667  0.833-  15 2.55  39 2.55  14 2.55   4 2.55  44 2.55  45 2.55  63 2.55  87 2.55
                            21 2.55  66 2.55  89 2.55  25 2.55
  21  0.833  0.833  0.000-   4 2.55   8 2.55  16 2.55  25 2.55   5 2.55  15 2.55  20 2.55  40 2.55
                            45 2.55  26 2.55  22 2.55  46 2.56
  22  0.833  0.000  0.167-   6 2.55   9 2.55  17 2.55  16 2.55   5 2.55  27 2.55  23 2.55  26 2.55
                            41 2.55  47 2.55  21 2.55  46 2.56
  23  0.833  0.167  0.333-  18 2.55  42 2.55  17 2.55   7 2.55  47 2.55   6 2.55  48 2.55  22 2.55
                            24 2.55  27 2.55  10 2.55  28 2.55
  24  0.833  0.333  0.500-   7 2.55  19 2.55  28 2.55  64 2.55  62 2.55  18 2.55  23 2.55  43 2.55
                            48 2.55  49 2.55  88 2.55  87 2.55
  25  0.000  0.667  0.000-  21 2.55  45 2.55  51 2.55  26 2.55  50 2.55   8 2.55  70 2.55  92 2.55
                            66 2.55  20 2.55  29 2.55  89 2.55
  26  0.000  0.833  0.167-  11 2.55  29 2.55   9 2.55   8 2.55  30 2.55  27 2.55  25 2.55  22 2.55
                            51 2.55  52 2.55  21 2.55  46 2.55
  27  0.000  0.000  0.333-  47 2.55  52 2.55  22 2.55  26 2.55  12 2.55  30 2.55  10 2.55  23 2.55
                             9 2.55  53 2.55  31 2.55  28 2.55
  28  0.000  0.167  0.500-  24 2.55  48 2.55  54 2.55  88 2.55  31 2.55  64 2.55  67 2.55  53 2.55
                            10 2.55  23 2.55  90 2.55  27 2.55
  29  0.167  0.667  0.167-  32 2.55  56 2.55  30 2.55  51 2.55  26 2.55  75 2.55  96 2.55  55 2.55
                            11 2.55  70 2.55  25 2.55  92 2.55
  30  0.167  0.833  0.333-  32 2.55  56 2.55  29 2.55  52 2.55  13 2.55  33 2.55  11 2.55  26 2.55
                            57 2.55  12 2.55  27 2.55  31 2.55
  31  0.167  0.000  0.500-  33 2.55  57 2.55  58 2.55  93 2.55  53 2.55  67 2.55  71 2.55  28 2.55
                            12 2.55  27 2.55  90 2.55  30 2.55
  32  0.333  0.667  0.333-  30 2.55  56 2.55  29 2.55  13 2.55  59 2.55  60 2.55  75 2.55  96 2.55
                            33 2.55  81 2.55 101 2.55  34 2.55
  33  0.333  0.833  0.500-  13 2.55  31 2.55  34 2.55  76 2.55  71 2.55  30 2.55  32 2.55  57 2.55
                            60 2.55  61 2.55  97 2.55  93 2.55
  34  0.500  0.667  0.500-  33 2.55  60 2.55   2 2.55  97 2.55  19 2.55  76 2.55   1 2.55 108 2.55
                            81 2.55  14 2.55  32 2.55 101 2.55
  35  0.667  0.000  0.667-  40 2.55  39 2.55  15 2.55  10 2.55  98 2.55  64 2.55  36 2.55   7 2.55
                           105 2.55  97 2.55  61 2.55   2 2.55
  36  0.667  0.167  0.833-  62 2.55  64 2.55  65 2.55  40 2.55 106 2.55 105 2.55  41 2.55  35 2.55
                            37 2.55  16 2.55  99 2.55  98 2.55
  37  0.667  0.333  0.000-  41 2.55  17 2.55  65 2.55  42 2.55  66 2.55  99 2.55  36 2.55  63 2.55
                           100 2.55 107 2.55 106 2.55  38 2.55
  38  0.667  0.500  0.167-  43 2.55  42 2.55  18 2.55  66 2.55 101 2.55   8 2.55   1 2.55   4 2.55
                            59 2.55 100 2.55 107 2.55  37 2.55
  39  0.833  0.833  0.667-  15 2.55  20 2.55  14 2.55  35 2.55  44 2.55   2 2.55  45 2.55  40 2.55
                             3 2.55  12 2.55  10 2.55  67 2.55
  40  0.833  0.000  0.833-  35 2.55  36 2.55  64 2.55  16 2.55  67 2.55  15 2.55  39 2.55  21 2.55
                            45 2.55  68 2.55  41 2.55  46 2.56
  41  0.833  0.167  0.000-  37 2.55  65 2.55  17 2.55  16 2.55  36 2.55  69 2.55  42 2.55  68 2.55
                            22 2.55  47 2.55  40 2.55  46 2.56
  42  0.833  0.333  0.167-  18 2.55  23 2.55  17 2.55  38 2.55  47 2.55  37 2.55  48 2.55  43 2.55
                            41 2.55  66 2.55  69 2.55  70 2.55
  43  0.833  0.500  0.333-  38 2.55   8 2.55   1 2.55  19 2.55  70 2.55  18 2.55  42 2.55  48 2.55
                            24 2.55  11 2.55  49 2.55   3 2.55
  44  0.000  0.667  0.667-  45 2.55  39 2.55  12 2.55  89 2.55  20 2.55  71 2.55  50 2.55  13 2.55
                           102 2.55  87 2.55   3 2.55  49 2.55
  45  0.000  0.833  0.833-  44 2.55  25 2.55  50 2.55  67 2.55  71 2.55  20 2.55  39 2.55  21 2.55
                            40 2.55  72 2.55  51 2.55  46 2.55
  46  0.002  0.000  0.000-  51 2.53  72 2.53  52 2.53  73 2.53  26 2.55  68 2.55  47 2.55  45 2.55
                            41 2.56  22 2.56  21 2.56  40 2.56
  47  0.000  0.167  0.167-  48 2.55  42 2.55  27 2.55  69 2.55  23 2.55  53 2.55  74 2.55  73 2.55
                            52 2.55  22 2.55  41 2.55  46 2.55
  48  0.000  0.333  0.333-  47 2.55  28 2.55  53 2.55  70 2.55  74 2.55  23 2.55  42 2.55  24 2.55
                            43 2.55  75 2.55  54 2.55  49 2.55
  49  0.000  0.500  0.500-   3 2.55  11 2.55  54 2.55  75 2.55  87 2.55  88 2.55  13 2.55  24 2.55
                            43 2.55 102 2.55  48 2.55  44 2.55
  50  0.167  0.667  0.833-  71 2.55  76 2.55  77 2.55  45 2.55 104 2.55  44 2.55  55 2.55 102 2.55
                            51 2.55  25 2.55  92 2.55  89 2.55
  51  0.167  0.833  0.000-  46 2.53  55 2.55  29 2.55  77 2.55  56 2.55  25 2.55  78 2.55  50 2.55
                            26 2.55  72 2.55  45 2.55  52 2.55
  52  0.167  0.000  0.167-  46 2.53  57 2.55  56 2.55  30 2.55  27 2.55  78 2.55  79 2.55  53 2.55
                            47 2.55  73 2.55  26 2.55  51 2.55
  53  0.167  0.167  0.333-  74 2.55  79 2.55  80 2.55  57 2.55  48 2.55  58 2.55  47 2.55  52 2.55
                            54 2.55  31 2.55  28 2.55  27 2.55
  54  0.167  0.333  0.500-  58 2.55  90 2.55  80 2.55  81 2.55  28 2.55 103 2.55  53 2.55  88 2.55
                            49 2.55  75 2.55  48 2.55 102 2.55
  55  0.333  0.667  0.000-  51 2.55  77 2.55  29 2.55  50 2.55  83 2.55  92 2.55  56 2.55  82 2.55
                            96 2.55 107 2.55  59 2.55 104 2.55
  56  0.333  0.833  0.167-  30 2.55  32 2.55  29 2.55  52 2.55  59 2.55  51 2.55  60 2.55  57 2.55
                            55 2.55  78 2.55  83 2.55  84 2.55
  57  0.333  0.000  0.333-  52 2.55  53 2.55  79 2.55  31 2.55  84 2.55  30 2.55  56 2.55  33 2.55
                            60 2.55  85 2.55  61 2.55  58 2.55
  58  0.333  0.167  0.500-  54 2.55  80 2.55  90 2.55  53 2.55  86 2.55  31 2.55 103 2.55  85 2.55
                            93 2.55  61 2.55 105 2.55  57 2.55
  59  0.500  0.667  0.167-  60 2.55  56 2.55  83 2.55 101 2.55  32 2.55   5 2.55   1 2.55   4 2.55
                            38 2.55  96 2.55  55 2.55 107 2.55
  60  0.500  0.833  0.333-  59 2.55  34 2.55   1 2.55  84 2.55   5 2.55  32 2.55  56 2.55  33 2.55
                            57 2.55   6 2.55   2 2.55  61 2.55
  61  0.500  0.000  0.500-   2 2.55   6 2.55  58 2.55  85 2.55  93 2.55  97 2.55   7 2.55  33 2.55
                            35 2.55  57 2.55  60 2.55 105 2.55
  62  0.667  0.333  0.667-  36 2.55  64 2.55  65 2.55  24 2.55 106 2.55 105 2.55  87 2.55  63 2.55
                             7 2.55  19 2.55 108 2.55  86 2.55
  63  0.667  0.500  0.833-  87 2.55  65 2.55  14 2.55  66 2.55  20 2.55 108 2.55  62 2.55  37 2.55
                           107 2.55  82 2.55 106 2.55   4 2.55
  64  0.833  0.167  0.667-  36 2.55  62 2.55  65 2.55  24 2.55  40 2.55   7 2.55  35 2.55  68 2.55
                            88 2.55  28 2.55  67 2.55  10 2.55
  65  0.833  0.333  0.833-  36 2.55  62 2.55  64 2.55  63 2.55  41 2.55  68 2.55  87 2.55  37 2.55
                            88 2.55  89 2.55  69 2.55  66 2.55
  66  0.833  0.500  0.000-   4 2.55  38 2.55  37 2.55  63 2.55  42 2.55  20 2.55  69 2.55  89 2.55
                            25 2.55  70 2.55  65 2.55   8 2.55
  67  0.000  0.000  0.667-  45 2.55  40 2.55  72 2.55  68 2.55  64 2.55  28 2.55  71 2.55  31 2.55
                            39 2.55  90 2.55  10 2.55  12 2.55
  68  0.000  0.167  0.833-  88 2.55  65 2.55  90 2.55  64 2.55  91 2.55  67 2.55  69 2.55  72 2.55
                            41 2.55  40 2.55  73 2.55  46 2.55
  69  0.000  0.333  0.000-  47 2.55  73 2.55  41 2.55  68 2.55  42 2.55  66 2.55  89 2.55  91 2.55
                            92 2.55  74 2.55  65 2.55  70 2.55
  70  0.000  0.500  0.167-  48 2.55  43 2.55  75 2.55  11 2.55  25 2.55  74 2.55   8 2.55  92 2.55
                            42 2.55  29 2.55  66 2.55  69 2.55
  71  0.167  0.833  0.667-  50 2.55  76 2.55  77 2.55  45 2.55  33 2.55  44 2.55  93 2.55  72 2.55
                            13 2.55  31 2.55  67 2.55  12 2.55
  72  0.167  0.000  0.833-  46 2.53  93 2.55  90 2.55  77 2.55  67 2.55  78 2.55  94 2.55  71 2.55
                            51 2.55  68 2.55  45 2.55  73 2.55
  73  0.167  0.167  0.000-  46 2.53  95 2.55  78 2.55  91 2.55  69 2.55  94 2.55  79 2.55  74 2.55
                            52 2.55  47 2.55  68 2.55  72 2.55
  74  0.167  0.333  0.167-  53 2.55  79 2.55  80 2.55  48 2.55  95 2.55  47 2.55  96 2.55  75 2.55
                            73 2.55  70 2.55  92 2.55  69 2.55
  75  0.167  0.500  0.333-  96 2.55  80 2.55  29 2.55  32 2.55  81 2.55  70 2.55  74 2.55  54 2.55
                            11 2.55  49 2.55  48 2.55  13 2.55
  76  0.333  0.667  0.667-  50 2.55  71 2.55  77 2.55  33 2.55 104 2.55  82 2.55  97 2.55 102 2.55
                            13 2.55  34 2.55 108 2.55  81 2.55
  77  0.333  0.833  0.833-  50 2.55  71 2.55  76 2.55  72 2.55  55 2.55  82 2.55  93 2.55  51 2.55
                            97 2.55  98 2.55  83 2.55  78 2.55
  78  0.333  0.000  0.000-  73 2.55  52 2.55  72 2.55  51 2.55  56 2.55  83 2.55  94 2.55  98 2.55
                            99 2.55  84 2.55  79 2.55  77 2.55
  79  0.333  0.167  0.167-  53 2.55  74 2.55  80 2.55  57 2.55  95 2.55  73 2.55  85 2.55  52 2.55
                           100 2.55  99 2.55  84 2.55  78 2.55
  80  0.333  0.333  0.333-  53 2.55  74 2.55  79 2.55  75 2.55  58 2.55  85 2.55  96 2.55  54 2.55
                           100 2.55 101 2.55  86 2.55  81 2.55
  81  0.333  0.500  0.500-  13 2.55 102 2.55  75 2.55  54 2.55  86 2.55 101 2.55  32 2.55 103 2.55
                            34 2.55 108 2.55  80 2.55  76 2.55
  82  0.500  0.667  0.833-  97 2.55  77 2.55  14 2.55  15 2.55  76 2.55 108 2.55  83 2.55  63 2.55
                           107 2.55  55 2.55 104 2.55   4 2.55
  83  0.500  0.833  0.000-   4 2.55  59 2.55  55 2.55  82 2.55  15 2.55  78 2.55  56 2.55  98 2.55
                            16 2.55  77 2.55   5 2.55  84 2.55
  84  0.500  0.000  0.167-  60 2.55  57 2.55   6 2.55  85 2.55  16 2.55  79 2.55   5 2.55  99 2.55
                            56 2.55  17 2.55  78 2.55  83 2.55
  85  0.500  0.167  0.333- 100 2.55  80 2.55  17 2.55  18 2.55  79 2.55  84 2.55  86 2.55  61 2.55
                             6 2.55  58 2.55  57 2.55   7 2.55
  86  0.500  0.333  0.500-   7 2.55 105 2.55  58 2.55  85 2.55  18 2.55 101 2.55 103 2.55  81 2.55
                            19 2.55  80 2.55  62 2.55 108 2.55
  87  0.833  0.500  0.667-  63 2.55  14 2.55  65 2.55  19 2.55  62 2.55  89 2.55  20 2.55   3 2.55
                            88 2.55  49 2.55  44 2.55  24 2.55
  88  0.000  0.333  0.667-  68 2.55  90 2.55  65 2.55  64 2.55  91 2.55  89 2.55  28 2.55  54 2.55
                            49 2.55  87 2.55 102 2.55  24 2.55
  89  0.000  0.500  0.833-  44 2.55 102 2.55  87 2.55  88 2.55  20 2.55  66 2.55  91 2.55  69 2.55
                            50 2.55  65 2.55  92 2.55  25 2.55
  90  0.167  0.167  0.667-  94 2.55 103 2.55  91 2.55  54 2.55  93 2.55  72 2.55  88 2.55  58 2.55
                            68 2.55  67 2.55  28 2.55  31 2.55
  91  0.167  0.333  0.833-  94 2.55 103 2.55  90 2.55 102 2.55  73 2.55  95 2.55  68 2.55  88 2.55
                           104 2.55  69 2.55  89 2.55  92 2.55
  92  0.167  0.500  0.000-  95 2.55 104 2.55  96 2.55  55 2.55  74 2.55  50 2.55  25 2.55  70 2.55
                            69 2.55  89 2.55  91 2.55  29 2.55
  93  0.333  0.000  0.667-  72 2.55  77 2.55  90 2.55  71 2.55  31 2.55  98 2.55  94 2.55  58 2.55
                            97 2.55  61 2.55 105 2.55  33 2.55
  94  0.333  0.167  0.833-  91 2.55 103 2.55  90 2.55  73 2.55 105 2.55  72 2.55 106 2.55  93 2.55
                            95 2.55  98 2.55  78 2.55  99 2.55
  95  0.333  0.333  0.000-  73 2.55  79 2.55  92 2.55  99 2.55  74 2.55  91 2.55  94 2.55 104 2.55
                           106 2.55 107 2.55 100 2.55  96 2.55
  96  0.333  0.500  0.167-  75 2.55  29 2.55  80 2.55  74 2.55  92 2.55 101 2.55  32 2.55 100 2.55
                            55 2.55 107 2.55  59 2.55  95 2.55
  97  0.500  0.833  0.667-  82 2.55  14 2.55  77 2.55  15 2.55  76 2.55  98 2.55  34 2.55   2 2.55
                            93 2.55  61 2.55  35 2.55  33 2.55
  98  0.500  0.000  0.833- 105 2.55  35 2.55  93 2.55  97 2.55  15 2.55  94 2.55  78 2.55  83 2.55
                            36 2.55  77 2.55  16 2.55  99 2.55
  99  0.500  0.167  0.000-  95 2.55 106 2.55  37 2.55 100 2.55  84 2.55  36 2.55  16 2.55  79 2.55
                            78 2.55  94 2.55  17 2.55  98 2.55
 100  0.500  0.333  0.167-  85 2.55  17 2.55  80 2.55  18 2.55  79 2.55 101 2.55  99 2.55  37 2.55
                            96 2.55 107 2.55  38 2.55  95 2.55
 101  0.500  0.500  0.333-  59 2.55  38 2.55  96 2.55 100 2.55  81 2.55  86 2.55  18 2.55  32 2.55
                             1 2.55  80 2.55  19 2.55  34 2.55
 102  0.167  0.500  0.667- 104 2.55 103 2.55  91 2.55  89 2.55  81 2.55  76 2.55  50 2.55  44 2.55
                            13 2.55  88 2.55  49 2.55  54 2.55
 103  0.333  0.333  0.667-  91 2.55  94 2.55  90 2.55 102 2.55 105 2.55  54 2.55 106 2.55 104 2.55
                            58 2.55  86 2.55  81 2.55 108 2.55
 104  0.333  0.500  0.833- 102 2.55  76 2.55  50 2.55  92 2.55 108 2.55  91 2.55 103 2.55 106 2.55
                            95 2.55  82 2.55 107 2.55  55 2.55
 105  0.500  0.167  0.667- 106 2.55  98 2.55 103 2.55  86 2.55  94 2.55  62 2.55  36 2.55  35 2.55
                             7 2.55  93 2.55  58 2.55  61 2.55
 106  0.500  0.333  0.833- 105 2.55  99 2.55  36 2.55 108 2.55  62 2.55  94 2.55 103 2.55  95 2.55
                           104 2.55  63 2.55  37 2.55 107 2.55
 107  0.500  0.500  0.000-  37 2.55  55 2.55  63 2.55  82 2.55  96 2.55 100 2.55   4 2.55  95 2.55
                            38 2.55 104 2.55  59 2.55 106 2.55
 108  0.500  0.500  0.667- 106 2.55 104 2.55  63 2.55  82 2.55  76 2.55  34 2.55  62 2.55  19 2.55
                            14 2.55 103 2.55  81 2.55  86 2.55
 
  LATTYP: Found a simple cubic cell.
 ALAT       =    10.8072293000
  
  Lattice vectors:
  
 A1 = (  10.8072293000,   0.0000000000,   0.0000000000)
 A2 = (   0.0000002000,  10.8072293000,   0.0000000000)
 A3 = (   0.0000002000,   0.0000002000,  10.8072293000)
 Subroutine PRICEL returns:
 Original cell was already a primitive cell.
 

Analysis of symmetry for initial positions (statically):

 Routine SETGRP: Setting up the symmetry group for a 
 simple cubic supercell.


 Subroutine GETGRP returns: Found  8 space group operations
 (whereof  8 operations were pure point group operations)
 out of a pool of 48 trial point group operations.


The static configuration has the point symmetry C_4v.

Analysis of symmetry for dynamics (positions and initial velocities):

 Subroutine DYNSYM returns: Found  8 space group operations
 (whereof  8 operations were pure point group operations)
 out of a pool of  8 trial space group operations
 (whereof  8 operations were pure point group operations)
 and found also     1 'primitive' translations


The dynamic configuration has the point symmetry C_4v.
 
 
 KPOINTS: Automatic mesh                          

Automatic generation of k-mesh.
 
 Subroutine IBZKPT returns following result:
 ===========================================
 
 Found      1 irreducible k-points:
 
 Following reciprocal coordinates:
            Coordinates               Weight
  0.250000  0.250000  0.250000      8.000000
 
 Following cartesian coordinates:
            Coordinates               Weight
  0.023133  0.023133  0.023133      8.000000
 


--------------------------------------------------------------------------------------------------------




 Dimension of arrays:
   k-Points           NKPTS =      1   number of bands    NBANDS=    712
   number of dos      NEDOS =    301   number of ions     NIONS =    108
   non local maximal  LDIM  =      6   non local SUM 2l+1 LMDIM =     18
   total plane-waves  NPLWV = 110592
   max r-space proj   IRMAX =      1   max aug-charges    IRDMAX=   3274
   dimension x,y,z NGX =    48 NGY =   48 NGZ =   48
   dimension x,y,z NGXF=    96 NGYF=   96 NGZF=   96
   support grid    NGXF=    96 NGYF=   96 NGZF=   96
   ions per type =             108
 NGX,Y,Z   is equivalent  to a cutoff of   7.38,  7.38,  7.38 a.u.
 NGXF,Y,Z  is equivalent  to a cutoff of  14.77, 14.77, 14.77 a.u.


 I would recommend the setting:
   dimension x,y,z NGX =    44 NGY =   44 NGZ =   44
 SYSTEM =  No title                                
 POSCAR =  No title                                

 Startparameter for this run:
   NWRITE =      2    write-flag & timer
   PREC   = normal    medium, high low
   ISTART =      1    job   : 0-new  1-cont  2-samecut
   ICHARG =      0    charge: 1-file 2-atom 10-const
   ISPIN  =      1    spin polarized calculation?
   LNONCOLLINEAR =      F non collinear calculations
   LSORBIT =      F    spin-orbit coupling
   INIWAV =      1    electr: 0-lowe 1-rand  2-diag
   LASPH  =      F    aspherical Exc in radial PAW
   METAGGA=      F    non-selfconsistent MetaGGA calc.

 Electronic Relaxation 1
   ENCUT  =  273.2 eV  20.08 Ry    4.48 a.u.  14.57 14.57 14.57*2*pi/ulx,y,z
   ENINI  =  273.2     initial cutoff
   ENAUG  =  516.5 eV  augmentation charge cutoff
   NELM   =     60;   NELMIN=  2; NELMDL=  0     # of ELM steps 
   EDIFF  = 0.1E-04   stopping-criterion for ELM
   LREAL  =      F    real-space projection
   LCOMPAT=      F    compatible to vasp.4.4
   LREAL_COMPAT= F    compatible to vasp.4.5.1-3
   GGA_COMPAT  = T    GGA compatible to vasp.4.4-vasp.4.6
   LMAXPAW     = -100 max onsite density
   LMAXMIX     =    2 max onsite mixed and CHGCAR
   VOSKOWN=      1    Vosko Wilk Nusair interpolation
   ROPT   =    0.00000
 Ionic relaxation
   EDIFFG = -.2E-01   stopping-criterion for IOM
   NSW    =      0    number of steps for IOM
   NBLOCK =      1;   KBLOCK =      1    inner block; outer block 
   IBRION =     -1    ionic relax: 0-MD 1-quasi-New 2-CG
   NFREE  =      0    steps in history (QN), initial steepest desc. (CG)
   ISIF   =      2    stress and relaxation
   IWAVPR =     10    prediction:  0-non 1-charg 2-wave 3-comb
   ISYM   =      2    0-nonsym 1-usesym 2-fastsym
   LCORR  =      T    Harris-Foulkes like correction to forces

   POTIM  =   0.50    time-step for ionic-motion
   TEIN   =    0.0    initial temperature
   TEBEG  =    0.0;   TEEND  =   0.0 temperature during run
   SMASS  =  -3.00    Nose mass-parameter (am)
   estimated Nose-frequenzy (Omega)   =  0.10E-29 period in steps =****** mass=  -0.267E-26a.u.
   NPACO  =    256;   APACO  = 16.0  distance and # of slots for P.C.
   PSTRESS=    0.0 pullay stress

  Mass of Ions in am
   POMASS =  63.55
  Ionic Valenz
   ZVAL   =  11.00
  Atomic Wigner-Seitz radii
   RWIGS  =   1.17
   NELECT =    1188.0000    total number of electrons
   NUPDOWN=      -1.0000    fix difference up-down

 DOS related values:
   EMIN   =  10.00;   EMAX   =-10.00  energy-range for DOS
   ISMEAR =     1;   SIGMA  =   0.20  broadening in eV -4-tet -1-fermi 0-gaus

 Electronic relaxation 2 (details)
   IALGO  =     38    algorithm
   LDIAG  =      T    sub-space diagonalisation
   IMIX   =      4    mixing-type and parameters
     AMIX     =   0.40;   BMIX     =  1.00
     AMIX_MAG =   1.60;   BMIX_MAG =  1.00
     AMIN     =   0.10
     WC   =   100.;   INIMIX=   1;  MIXPRE=   1

 Intra band minimization:
   WEIMIN = 0.0000     energy-eigenvalue tresh-hold
   EBREAK =  0.35E-08  absolut break condition
   DEPER  =   0.30     relativ break condition  

   TIME   =   0.10     timestep for ELM

  volume/ion in A,a.u.               =      11.69        78.87
  Fermi-wavevector in a.u.,eV,Ry     =   1.604351 35.020591  2.573941

 Second variation
   LSECVAR=     F    do a second variation
 
 Write flags
   LWAVE  =      F    write WAVECAR
   LCHARG =      F    write CHGCAR
   LVTOT  =      F    write LOCPOT, local potential
   LELF   =      F    write electronic localiz. function (ELF)
   LORBIT =      0    0 simple, 1 ext, 2 COOP (PROOUT)


 Dipole corrections
   IDIPOL =      0    1-x, 2-y, 3-z
   LDIPOL =      F    correct potential



--------------------------------------------------------------------------------------------------------


 Static calculation
 charge density will be updated during run
 non-spin polarized calculation
 Variant of blocked Davidson
 Davidson routine will perform the subspace rotation
 performe sub-space diagonalisation
    after iterative eigenvector-optimisation
 modified Broyden-mixing scheme, WC =      100.0
 initial mixing is a Kerker type mixing with AMIX =  0.4000 and BMIX =      1.0000
 Hartree-type preconditioning will be used
 using additional bands          118
 reciprocal scheme for non local part
 use partial core corrections
 calculate Harris-corrections to forces 
   (improved forces if not selfconsistent)
 use gradient corrections 
 use of overlap-Matrix (Vanderbilt PP)
 Methfessel and Paxton  Order N= 1 SIGMA  =   0.20


--------------------------------------------------------------------------------------------------------


  energy-cutoff  :      273.21
  volume of cell :     1262.24
      direct lattice vectors                 reciprocal lattice vectors
    10.807229300  0.000000000  0.000000000     0.092530654 -0.000000002 -0.000000002
     0.000000200 10.807229300  0.000000000     0.000000000  0.092530654 -0.000000002
     0.000000200  0.000000200 10.807229300     0.000000000  0.000000000  0.092530654

  length of vectors
    10.807229300 10.807229300 10.807229300     0.092530654  0.092530654  0.092530654


 
 old parameters found on file WAVECAR:
  energy-cutoff  :      273.21
  volume of cell :     1262.24
      direct lattice vectors                 reciprocal lattice vectors
    10.807229300  0.000000000  0.000000000     0.092530654 -0.000000002 -0.000000002
     0.000000200 10.807229300  0.000000000     0.000000000  0.092530654 -0.000000002
     0.000000200  0.000000200 10.807229300     0.000000000  0.000000000  0.092530654

  length of vectors

 
 k-points in units of 2pi/SCALE and weight: Automatic mesh                          
   0.02313266  0.02313266  0.02313266       1.000
 
 k-points in reciprocal lattice and weights: Automatic mesh                          
   0.25000000  0.25000000  0.25000000       1.000
 
 position of ions in fractional coordinates (direct lattice) 
   0.66666667  0.66666667  0.33333333
   0.66666667  0.83333333  0.50000000
   0.83333333  0.66666667  0.50000000
   0.66666667  0.66666667  0.00000000
   0.66666667  0.83333333  0.16666667
   0.66666667  0.00000000  0.33333333
   0.66666667  0.16666667  0.50000000
   0.83333333  0.66666667  0.16666667
   0.83333333  0.83333333  0.33333333
   0.83333333  0.00000000  0.50000000
   0.00000000  0.66666667  0.33333333
   0.00000000  0.83333333  0.50000000
   0.16666667  0.66666667  0.50000000
   0.66666667  0.66666667  0.66666667
   0.66666667  0.83333333  0.83333333
   0.66666667  0.00000000  0.00000000
   0.66666667  0.16666667  0.16666667
   0.66666667  0.33333333  0.33333333
   0.66666667  0.50000000  0.50000000
   0.83333333  0.66666667  0.83333333
   0.83333333  0.83333333  0.00000000
   0.83333333  0.00000000  0.16666667
   0.83333333  0.16666667  0.33333333
   0.83333333  0.33333333  0.50000000
   0.00000000  0.66666667  0.00000000
   0.00000000  0.83333333  0.16666667
   0.00000000  0.00000000  0.33333333
   0.00000000  0.16666667  0.50000000
   0.16666667  0.66666667  0.16666667
   0.16666667  0.83333333  0.33333333
   0.16666667  0.00000000  0.50000000
   0.33333333  0.66666667  0.33333333
   0.33333333  0.83333333  0.50000000
   0.50000000  0.66666667  0.50000000
   0.66666667  0.00000000  0.66666667
   0.66666667  0.16666667  0.83333333
   0.66666667  0.33333333  0.00000000
   0.66666667  0.50000000  0.16666667
   0.83333333  0.83333333  0.66666667
   0.83333333  0.00000000  0.83333333
   0.83333333  0.16666667  0.00000000
   0.83333333  0.33333333  0.16666667
   0.83333333  0.50000000  0.33333333
   0.00000000  0.66666667  0.66666667
   0.00000000  0.83333333  0.83333333
   0.00185100  0.00000000  0.00000000
   0.00000000  0.16666667  0.16666667
   0.00000000  0.33333333  0.33333333
   0.00000000  0.50000000  0.50000000
   0.16666667  0.66666667  0.83333333
   0.16666667  0.83333333  0.00000000
   0.16666667  0.00000000  0.16666667
   0.16666667  0.16666667  0.33333333
   0.16666667  0.33333333  0.50000000
   0.33333333  0.66666667  0.00000000
   0.33333333  0.83333333  0.16666667
   0.33333333  0.00000000  0.33333333
   0.33333333  0.16666667  0.50000000
   0.50000000  0.66666667  0.16666667
   0.50000000  0.83333333  0.33333333
   0.50000000  0.00000000  0.50000000
   0.66666667  0.33333333  0.66666667
   0.66666667  0.50000000  0.83333333
   0.83333333  0.16666667  0.66666667
   0.83333333  0.33333333  0.83333333
   0.83333333  0.50000000  0.00000000
   0.00000000  0.00000000  0.66666667
   0.00000000  0.16666667  0.83333333
   0.00000000  0.33333333  0.00000000
   0.00000000  0.50000000  0.16666667
   0.16666667  0.83333333  0.66666667
   0.16666667  0.00000000  0.83333333
   0.16666667  0.16666667  0.00000000
   0.16666667  0.33333333  0.16666667
   0.16666667  0.50000000  0.33333333
   0.33333333  0.66666667  0.66666667
   0.33333333  0.83333333  0.83333333
   0.33333333  0.00000000  0.00000000
   0.33333333  0.16666667  0.16666667
   0.33333333  0.33333333  0.33333333
   0.33333333  0.50000000  0.50000000
   0.50000000  0.66666667  0.83333333
   0.50000000  0.83333333  0.00000000
   0.50000000  0.00000000  0.16666667
   0.50000000  0.16666667  0.33333333
   0.50000000  0.33333333  0.50000000
   0.83333333  0.50000000  0.66666667
   0.00000000  0.33333333  0.66666667
   0.00000000  0.50000000  0.83333333
   0.16666667  0.16666667  0.66666667
   0.16666667  0.33333333  0.83333333
   0.16666667  0.50000000  0.00000000
   0.33333333  0.00000000  0.66666667
   0.33333333  0.16666667  0.83333333
   0.33333333  0.33333333  0.00000000
   0.33333333  0.50000000  0.16666667
   0.50000000  0.83333333  0.66666667
   0.50000000  0.00000000  0.83333333
   0.50000000  0.16666667  0.00000000
   0.50000000  0.33333333  0.16666667
   0.50000000  0.50000000  0.33333333
   0.16666667  0.50000000  0.66666667
   0.33333333  0.33333333  0.66666667
   0.33333333  0.50000000  0.83333333
   0.50000000  0.16666667  0.66666667
   0.50000000  0.33333333  0.83333333
   0.50000000  0.50000000  0.00000000
   0.50000000  0.50000000  0.66666667
 
 position of ions in cartesian coordinates  (Angst):
   7.20481977  7.20481964  3.60240973
   7.20481984  9.00602448  5.40361465
   9.00602461  7.20481967  5.40361465
   7.20481970  7.20481957  0.00000000
   7.20481977  9.00602441  1.80120492
   7.20481964  0.00000007  3.60240973
   7.20481970  1.80120502  5.40361465
   9.00602455  7.20481960  1.80120492
   9.00602461  9.00602445  3.60240973
   9.00602448  0.00000010  5.40361465
   0.00000020  7.20481964  3.60240973
   0.00000027  9.00602448  5.40361465
   1.80120515  7.20481967  5.40361465
   7.20481984  7.20481970  7.20481957
   7.20481990  9.00602455  9.00602438
   7.20481957  0.00000000  0.00000000
   7.20481964  1.80120495  1.80120492
   7.20481970  3.60240980  3.60240973
   7.20481977  5.40361475  5.40361465
   9.00602468  7.20481974  9.00602438
   9.00602455  9.00602438  0.00000000
   9.00602441  0.00000003  1.80120492
   9.00602448  1.80120499  3.60240973
   9.00602455  3.60240983  5.40361465
   0.00000013  7.20481957  0.00000000
   0.00000020  9.00602441  1.80120492
   0.00000007  0.00000007  3.60240973
   0.00000013  1.80120502  5.40361465
   1.80120509  7.20481960  1.80120492
   1.80120515  9.00602445  3.60240973
   1.80120502  0.00000010  5.40361465
   3.60240993  7.20481964  3.60240973
   3.60241000  9.00602448  5.40361465
   5.40361488  7.20481967  5.40361465
   7.20481970  0.00000013  7.20481957
   7.20481977  1.80120509  9.00602438
   7.20481964  3.60240973  0.00000000
   7.20481970  5.40361468  1.80120492
   9.00602468  9.00602451  7.20481957
   9.00602455  0.00000017  9.00602438
   9.00602441  1.80120492  0.00000000
   9.00602448  3.60240976  1.80120492
   9.00602455  5.40361472  3.60240973
   0.00000027  7.20481970  7.20481957
   0.00000033  9.00602455  9.00602438
   0.02000418  0.00000000  0.00000000
   0.00000007  1.80120495  1.80120492
   0.00000013  3.60240980  3.60240973
   0.00000020  5.40361475  5.40361465
   1.80120522  7.20481974  9.00602438
   1.80120509  9.00602438  0.00000000
   1.80120495  0.00000003  1.80120492
   1.80120502  1.80120499  3.60240973
   1.80120509  3.60240983  5.40361465
   3.60240986  7.20481957  0.00000000
   3.60240993  9.00602441  1.80120492
   3.60240980  0.00000007  3.60240973
   3.60240986  1.80120502  5.40361465
   5.40361482  7.20481960  1.80120492
   5.40361488  9.00602445  3.60240973
   5.40361475  0.00000010  5.40361465
   7.20481977  3.60240986  7.20481957
   7.20481984  5.40361482  9.00602438
   9.00602455  1.80120505  7.20481957
   9.00602461  3.60240990  9.00602438
   9.00602448  5.40361465  0.00000000
   0.00000013  0.00000013  7.20481957
   0.00000020  1.80120509  9.00602438
   0.00000007  3.60240973  0.00000000
   0.00000013  5.40361468  1.80120492
   1.80120522  9.00602451  7.20481957
   1.80120509  0.00000017  9.00602438
   1.80120495  1.80120492  0.00000000
   1.80120502  3.60240976  1.80120492
   1.80120509  5.40361472  3.60240973
   3.60241000  7.20481970  7.20481957
   3.60241006  9.00602455  9.00602438
   3.60240973  0.00000000  0.00000000
   3.60240980  1.80120495  1.80120492
   3.60240986  3.60240980  3.60240973
   3.60240993  5.40361475  5.40361465
   5.40361495  7.20481974  9.00602438
   5.40361482  9.00602438  0.00000000
   5.40361468  0.00000003  1.80120492
   5.40361475  1.80120499  3.60240973
   5.40361482  3.60240983  5.40361465
   9.00602461  5.40361478  7.20481957
   0.00000020  3.60240986  7.20481957
   0.00000027  5.40361482  9.00602438
   1.80120509  1.80120505  7.20481957
   1.80120515  3.60240990  9.00602438
   1.80120502  5.40361465  0.00000000
   3.60240986  0.00000013  7.20481957
   3.60240993  1.80120509  9.00602438
   3.60240980  3.60240973  0.00000000
   3.60240986  5.40361468  1.80120492
   5.40361495  9.00602451  7.20481957
   5.40361482  0.00000017  9.00602438
   5.40361468  1.80120492  0.00000000
   5.40361475  3.60240976  1.80120492
   5.40361482  5.40361472  3.60240973
   1.80120515  5.40361478  7.20481957
   3.60240993  3.60240986  7.20481957
   3.60241000  5.40361482  9.00602438
   5.40361482  1.80120505  7.20481957
   5.40361488  3.60240990  9.00602438
   5.40361475  5.40361465  0.00000000
   5.40361488  5.40361478  7.20481957
 


--------------------------------------------------------------------------------------------------------


 k-point  1 :  0.25000.25000.2500  plane waves:  12923

 maximum and minimum number of plane-waves per node :  12923 12923

 maximum number of plane-waves:  12923
 maximal index in each direction: 
   IXMAX= 14   IYMAX= 14   IZMAX= 14
   IXMIN=-14   IYMIN=-14   IZMIN=-14

 WARNING: wrap around error must be expected set NGX to  58
 WARNING: wrap around error must be expected set NGY to  58
 WARNING: wrap around error must be expected set NGZ to  58

 parallel 3dFFT wavefunction:
    minimum data exchange during FFTs selected (reduces bandwidth)
 parallel 3dFFT charge:
    minimum data exchange during FFTs selected (reduces bandwidth)

 For storing wavefunctions  147.22 MBYTES are necessary
 For predicting wavefunctions  341.52 MBYTES are necessary
Broyden mixing: mesh for mixing (old mesh)
   NGX = 29   NGY = 29   NGZ = 29
  (NGX  = 96   NGY  = 96   NGZ  = 96)
 gives a total of  24389 points
 charge density for first step will be calculated from the start-wavefunctions


--------------------------------------------------------------------------------------------------------


 Maximum index for augmentation-charges          745 (set IRDMAX)


--------------------------------------------------------------------------------------------------------


 initial charge from wavefunction
 First call to EWALD:  gamma=   0.164
 Maximum number of real-space cells 3x 3x 3
 Maximum number of reciprocal cells 3x 3x 3

    FEWALD:  VPU time    0.11: CPU time    0.11


----------------------------------------- Iteration    1(   1)  ---------------------------------------


    POTLOK:  VPU time    0.44: CPU time    0.44
    SETDIJ:  VPU time    0.09: CPU time    0.09
    EDDAV :  VPU time   92.20: CPU time   92.25
    DOS   :  VPU time    0.00: CPU time   -0.00
    CHARGE:  VPU time    0.65: CPU time    0.65
    MIXING:  VPU time    0.01: CPU time    0.01
    ------------------------------------------
      LOOP:  VPU time   93.43: CPU time   93.48

 eigenvalue-minimisations  :  1472
 total energy-change (2. order) :-0.3995380E+03  (-0.2190558E+00)
 number of electron 1187.9975551 magnetization 
 augmentation part   775.8450501 magnetization 

 Broyden mixing:
  rms(total) = 0.78824E-01    rms(broyden)= 0.78717E-01
  rms(prec ) = 0.17863E+00
  weight for this iteration     100.00

 Free energy of the ion-electron system (eV)
  ---------------------------------------------------
  alpha Z        PSCENC =     11806.13715231
  Ewald energy   TEWEN  =   -119747.92938605
  -1/2 Hartree   DENC   =    -32602.58190200
  -V(xc)+E(xc)   XCENC  =      4625.28464521
  PAW double counting   =    118783.41099315  -134409.25906773
  entropy T*S    EENTRO =        -0.49418990
  eigenvalues    EBANDS =       924.31869078
  atomic energy  EATOM  =    150221.57506482
  ---------------------------------------------------
  free energy    TOTEN  =      -399.53799941 eV

  energy without entropy =     -399.04380951  energy(sigma->0) =     -399.37326945


--------------------------------------------------------------------------------------------------------




----------------------------------------- Iteration    1(   2)  ---------------------------------------


    POTLOK:  VPU time    0.41: CPU time    0.41
    SETDIJ:  VPU time    0.09: CPU time    0.09
    EDDAV :  VPU time   95.39: CPU time   95.41
    DOS   :  VPU time    0.00: CPU time   -0.00
    CHARGE:  VPU time    0.58: CPU time    0.58
    MIXING:  VPU time    0.01: CPU time    0.01
    ------------------------------------------
      LOOP:  VPU time   96.52: CPU time   96.56

 eigenvalue-minimisations  :  1576
 total energy-change (2. order) :-0.2432892E-01  (-0.2164219E-01)
 number of electron 1187.9975551 magnetization 
 augmentation part   775.8231536 magnetization 

 Broyden mixing:
  rms(total) = 0.15479E+00    rms(broyden)= 0.15472E+00
  rms(prec ) = 0.28210E+00
  weight for this iteration     100.00

 eigenvalues of (default mixing * dielectric matrix)
  average eigenvalue GAMMA=   0.2908
  0.2908

 Free energy of the ion-electron system (eV)
  ---------------------------------------------------
  alpha Z        PSCENC =     11806.13715231
  Ewald energy   TEWEN  =   -119747.92938605
  -1/2 Hartree   DENC   =    -32603.23337964
  -V(xc)+E(xc)   XCENC  =      4625.31585764
  PAW double counting   =    118784.64890355  -134410.84236211
  entropy T*S    EENTRO =        -0.48706990
  eigenvalues    EBANDS =       925.25289105
  atomic energy  EATOM  =    150221.57506482
  ---------------------------------------------------
  free energy    TOTEN  =      -399.56232834 eV

  energy without entropy =     -399.07525843  energy(sigma->0) =     -399.39997170


--------------------------------------------------------------------------------------------------------




----------------------------------------- Iteration    1(   3)  ---------------------------------------


    POTLOK:  VPU time    0.42: CPU time    0.42
    SETDIJ:  VPU time    0.09: CPU time    0.10
    EDDAV :  VPU time   93.70: CPU time   93.73
    DOS   :  VPU time    0.00: CPU time   -0.00
    CHARGE:  VPU time    0.62: CPU time    0.62
    MIXING:  VPU time    0.01: CPU time    0.01
    ------------------------------------------
      LOOP:  VPU time   94.89: CPU time   94.91

 eigenvalue-minimisations  :  1576
 total energy-change (2. order) : 0.5240226E-01  (-0.1081683E-01)
 number of electron 1187.9975551 magnetization 
 augmentation part   775.8383734 magnetization 

 Broyden mixing:
  rms(total) = 0.35780E-01    rms(broyden)= 0.35660E-01
  rms(prec ) = 0.62300E-01
  weight for this iteration     100.00

 eigenvalues of (default mixing * dielectric matrix)
  average eigenvalue GAMMA=   0.5380
  0.7232  0.3529

 Free energy of the ion-electron system (eV)
  ---------------------------------------------------
  alpha Z        PSCENC =     11806.13715231
  Ewald energy   TEWEN  =   -119747.92938605
  -1/2 Hartree   DENC   =    -32603.10171650
  -V(xc)+E(xc)   XCENC  =      4625.30928994
  PAW double counting   =    118784.36777240  -134410.52160932
  entropy T*S    EENTRO =        -0.49844547
  eigenvalues    EBANDS =       925.15195179
  atomic energy  EATOM  =    150221.57506482
  ---------------------------------------------------
  free energy    TOTEN  =      -399.50992608 eV

  energy without entropy =     -399.01148060  energy(sigma->0) =     -399.34377759


--------------------------------------------------------------------------------------------------------




----------------------------------------- Iteration    1(   4)  ---------------------------------------


    POTLOK:  VPU time    0.44: CPU time    0.44
    SETDIJ:  VPU time    0.09: CPU time    0.09
    EDDAV :  VPU time  105.45: CPU time  105.47
    DOS   :  VPU time    0.00: CPU time   -0.00
    CHARGE:  VPU time    0.57: CPU time    0.57
    MIXING:  VPU time    0.01: CPU time    0.01
    ------------------------------------------
      LOOP:  VPU time  106.60: CPU time  106.64

 eigenvalue-minimisations  :  1832
 total energy-change (2. order) : 0.4452720E-03  (-0.2592324E-02)
 number of electron 1187.9975551 magnetization 
 augmentation part   775.8317933 magnetization 

 Broyden mixing:
  rms(total) = 0.27792E-01    rms(broyden)= 0.27778E-01
  rms(prec ) = 0.40939E-01
  weight for this iteration     100.00

 eigenvalues of (default mixing * dielectric matrix)
  average eigenvalue GAMMA=   0.8341
  1.7870  0.3576  0.3576

 Free energy of the ion-electron system (eV)
  ---------------------------------------------------
  alpha Z        PSCENC =     11806.13715231
  Ewald energy   TEWEN  =   -119747.92938605
  -1/2 Hartree   DENC   =    -32603.24421839
  -V(xc)+E(xc)   XCENC  =      4625.31628434
  PAW double counting   =    118784.56787923  -134410.79777954
  entropy T*S    EENTRO =        -0.49890481
  eigenvalues    EBANDS =       925.36442729
  atomic energy  EATOM  =    150221.57506482
  ---------------------------------------------------
  free energy    TOTEN  =      -399.50948081 eV

  energy without entropy =     -399.01057600  energy(sigma->0) =     -399.34317920


--------------------------------------------------------------------------------------------------------




----------------------------------------- Iteration    1(   5)  ---------------------------------------


    POTLOK:  VPU time    0.41: CPU time    0.41
    SETDIJ:  VPU time    0.09: CPU time    0.10
    EDDAV :  VPU time  103.76: CPU time  103.78
    DOS   :  VPU time   -0.00: CPU time   -0.00
    CHARGE:  VPU time    0.57: CPU time    0.57
    MIXING:  VPU time    0.01: CPU time    0.02
    ------------------------------------------
      LOOP:  VPU time  104.88: CPU time  104.91

 eigenvalue-minimisations  :  1792
 total energy-change (2. order) : 0.7996322E-03  (-0.1057089E-02)
 number of electron 1187.9975551 magnetization 
 augmentation part   775.8300602 magnetization 

 Broyden mixing:
  rms(total) = 0.75353E-02    rms(broyden)= 0.75222E-02
  rms(prec ) = 0.10708E-01
  weight for this iteration     100.00

 eigenvalues of (default mixing * dielectric matrix)
  average eigenvalue GAMMA=   0.8225
  1.8848  0.6458  0.3038  0.4556

 Free energy of the ion-electron system (eV)
  ---------------------------------------------------
  alpha Z        PSCENC =     11806.13715231
  Ewald energy   TEWEN  =   -119747.92938605
  -1/2 Hartree   DENC   =    -32603.26146340
  -V(xc)+E(xc)   XCENC  =      4625.31687267
  PAW double counting   =    118784.55373927  -134410.79009412
  entropy T*S    EENTRO =        -0.49899265
  eigenvalues    EBANDS =       925.38842597
  atomic energy  EATOM  =    150221.57506482
  ---------------------------------------------------
  free energy    TOTEN  =      -399.50868117 eV

  energy without entropy =     -399.00968853  energy(sigma->0) =     -399.34235029


--------------------------------------------------------------------------------------------------------




----------------------------------------- Iteration    1(   6)  ---------------------------------------


    POTLOK:  VPU time    0.40: CPU time    0.40
    SETDIJ:  VPU time    0.09: CPU time    0.09
    EDDAV :  VPU time   90.85: CPU time   90.87
    DOS   :  VPU time    0.00: CPU time   -0.00
    CHARGE:  VPU time    0.56: CPU time    0.56
    MIXING:  VPU time    0.02: CPU time    0.02
    ------------------------------------------
      LOOP:  VPU time   91.96: CPU time   91.99

 eigenvalue-minimisations  :  1520
 total energy-change (2. order) :-0.1641457E-03  (-0.2154359E-03)
 number of electron 1187.9975551 magnetization 
 augmentation part   775.8322252 magnetization 

 Broyden mixing:
  rms(total) = 0.76371E-02    rms(broyden)= 0.76339E-02
  rms(prec ) = 0.11290E-01
  weight for this iteration     100.00

 eigenvalues of (default mixing * dielectric matrix)
  average eigenvalue GAMMA=   0.8846
  1.6580  1.6580  0.4401  0.3039  0.3631

 Free energy of the ion-electron system (eV)
  ---------------------------------------------------
  alpha Z        PSCENC =     11806.13715231
  Ewald energy   TEWEN  =   -119747.92938605
  -1/2 Hartree   DENC   =    -32603.15968930
  -V(xc)+E(xc)   XCENC  =      4625.31164027
  PAW double counting   =    118784.37289970  -134410.54744906
  entropy T*S    EENTRO =        -0.49900573
  eigenvalues    EBANDS =       925.22992772
  atomic energy  EATOM  =    150221.57506482
  ---------------------------------------------------
  free energy    TOTEN  =      -399.50884532 eV

  energy without entropy =     -399.00983959  energy(sigma->0) =     -399.34251008


--------------------------------------------------------------------------------------------------------




----------------------------------------- Iteration    1(   7)  ---------------------------------------


    POTLOK:  VPU time    0.41: CPU time    0.41
    SETDIJ:  VPU time    0.09: CPU time    0.09
    EDDAV :  VPU time   90.99: CPU time   91.01
    DOS   :  VPU time    0.00: CPU time   -0.00
    CHARGE:  VPU time    0.56: CPU time    0.56
    MIXING:  VPU time    0.02: CPU time    0.02
    ------------------------------------------
      LOOP:  VPU time   92.10: CPU time   92.13

 eigenvalue-minimisations  :  1520
 total energy-change (2. order) : 0.1706518E-04  (-0.9614732E-04)
 number of electron 1187.9975551 magnetization 
 augmentation part   775.8333329 magnetization 

 Broyden mixing:
  rms(total) = 0.42010E-02    rms(broyden)= 0.41976E-02
  rms(prec ) = 0.58370E-02
  weight for this iteration     100.00

 eigenvalues of (default mixing * dielectric matrix)
  average eigenvalue GAMMA=   0.9038
  2.1439  1.5632  0.6962  0.4136  0.3029  0.3029

 Free energy of the ion-electron system (eV)
  ---------------------------------------------------
  alpha Z        PSCENC =     11806.13715231
  Ewald energy   TEWEN  =   -119747.92938605
  -1/2 Hartree   DENC   =    -32603.11777330
  -V(xc)+E(xc)   XCENC  =      4625.30952415
  PAW double counting   =    118784.31093474  -134410.45718059
  entropy T*S    EENTRO =        -0.49902483
  eigenvalues    EBANDS =       925.16186050
  atomic energy  EATOM  =    150221.57506482
  ---------------------------------------------------
  free energy    TOTEN  =      -399.50882825 eV

  energy without entropy =     -399.00980342  energy(sigma->0) =     -399.34248664


--------------------------------------------------------------------------------------------------------




----------------------------------------- Iteration    1(   8)  ---------------------------------------


    POTLOK:  VPU time    0.42: CPU time    0.42
    SETDIJ:  VPU time    0.09: CPU time    0.09
    EDDAV :  VPU time   91.06: CPU time   91.08
    DOS   :  VPU time    0.00: CPU time   -0.00
    CHARGE:  VPU time    0.56: CPU time    0.56
    MIXING:  VPU time    0.02: CPU time    0.02
    ------------------------------------------
      LOOP:  VPU time   92.18: CPU time   92.21

 eigenvalue-minimisations  :  1528
 total energy-change (2. order) :-0.7586234E-05  (-0.2457198E-04)
 number of electron 1187.9975551 magnetization 
 augmentation part   775.8328008 magnetization 

 Broyden mixing:
  rms(total) = 0.31380E-02    rms(broyden)= 0.31366E-02
  rms(prec ) = 0.44398E-02
  weight for this iteration     100.00

 eigenvalues of (default mixing * dielectric matrix)
  average eigenvalue GAMMA=   0.9091
  2.4969  1.2323  1.2323  0.4246  0.3671  0.3052  0.3052

 Free energy of the ion-electron system (eV)
  ---------------------------------------------------
  alpha Z        PSCENC =     11806.13715231
  Ewald energy   TEWEN  =   -119747.92938605
  -1/2 Hartree   DENC   =    -32603.14109083
  -V(xc)+E(xc)   XCENC  =      4625.31074002
  PAW double counting   =    118784.37589405  -134410.52922733
  entropy T*S    EENTRO =        -0.49902155
  eigenvalues    EBANDS =       925.19103872
  atomic energy  EATOM  =    150221.57506482
  ---------------------------------------------------
  free energy    TOTEN  =      -399.50883584 eV

  energy without entropy =     -399.00981429  energy(sigma->0) =     -399.34249532


--------------------------------------------------------------------------------------------------------




----------------------------------------- Iteration    1(   9)  ---------------------------------------


    POTLOK:  VPU time    0.41: CPU time    0.41
    SETDIJ:  VPU time    0.09: CPU time    0.09
    EDDAV :  VPU time   90.83: CPU time   90.85
    DOS   :  VPU time    0.00: CPU time   -0.00
    ------------------------------------------
      LOOP:  VPU time   91.37: CPU time   91.39

 eigenvalue-minimisations  :  1512
 total energy-change (2. order) : 0.9656884E-05  (-0.9918817E-05)
 number of electron 1187.9975551 magnetization 
 augmentation part   775.8328008 magnetization 

 Free energy of the ion-electron system (eV)
  ---------------------------------------------------
  alpha Z        PSCENC =     11806.13715231
  Ewald energy   TEWEN  =   -119747.92938605
  -1/2 Hartree   DENC   =    -32603.16209686
  -V(xc)+E(xc)   XCENC  =      4625.31181247
  PAW double counting   =    118784.42659982  -134410.58906001
  entropy T*S    EENTRO =        -0.49901947
  eigenvalues    EBANDS =       925.22010678
  atomic energy  EATOM  =    150221.57506482
  ---------------------------------------------------
  free energy    TOTEN  =      -399.50882618 eV

  energy without entropy =     -399.00980671  energy(sigma->0) =     -399.34248636


--------------------------------------------------------------------------------------------------------




 average (electrostatic) potential at core
  the test charge radii are     1.0053
  (the norm of the test charge is              1.0000)
       1 -39.8890       2 -39.8889       3 -39.8890       4 -39.8889       5 -39.8889
       6 -39.8889       7 -39.8889       8 -39.8886       9 -39.8886      10 -39.8886
      11 -39.8887      12 -39.8886      13 -39.8885      14 -39.8890      15 -39.8889
      16 -39.8889      17 -39.8889      18 -39.8890      19 -39.8892      20 -39.8886
      21 -39.8863      22 -39.8863      23 -39.8886      24 -39.8890      25 -39.8888
      26 -39.8886      27 -39.8888      28 -39.8886      29 -39.8885      30 -39.8885
      31 -39.8886      32 -39.8885      33 -39.8885      34 -39.8888      35 -39.8889
      36 -39.8889      37 -39.8889      38 -39.8889      39 -39.8886      40 -39.8863
      41 -39.8863      42 -39.8886      43 -39.8890      44 -39.8887      45 -39.8886
      46 -39.8882      47 -39.8886      48 -39.8887      49 -39.8888      50 -39.8885
      51 -39.8909      52 -39.8909      53 -39.8885      54 -39.8885      55 -39.8886
      56 -39.8883      57 -39.8886      58 -39.8885      59 -39.8887      60 -39.8887
      61 -39.8887      62 -39.8890      63 -39.8889      64 -39.8886      65 -39.8886
      66 -39.8886      67 -39.8888      68 -39.8886      69 -39.8888      70 -39.8886
      71 -39.8885      72 -39.8909      73 -39.8909      74 -39.8885      75 -39.8885
      76 -39.8885      77 -39.8883      78 -39.8886      79 -39.8883      80 -39.8885
      81 -39.8885      82 -39.8887      83 -39.8886      84 -39.8886      85 -39.8887
      86 -39.8888      87 -39.8890      88 -39.8887      89 -39.8886      90 -39.8885
      91 -39.8885      92 -39.8886      93 -39.8886      94 -39.8883      95 -39.8886
      96 -39.8885      97 -39.8887      98 -39.8886      99 -39.8886     100 -39.8887
     101 -39.8888     102 -39.8885     103 -39.8885     104 -39.8885     105 -39.8887
     106 -39.8887     107 -39.8887     108 -39.8888
 
 
 
 E-fermi :   3.6703     XC(G=0): -12.8631     alpha+bet : -9.7320
   add alpha+bet to get absolut eigen values

 k-point   1 :       0.2500    0.2500    0.2500
  band No.  band energies     occupation 
      1      -5.2940      2.00000
      2      -4.6320      2.00000
      3      -4.6310      2.00000
      4      -4.6301      2.00000
      5      -3.9980      2.00000
      6      -3.9971      2.00000
      7      -3.9961      2.00000
      8      -3.4134      2.00000
      9      -3.3904      2.00000
     10      -3.3895      2.00000
     11      -3.3885      2.00000
     12      -2.8285      2.00000
     13      -2.8271      2.00000
     14      -2.8266      2.00000
     15      -2.8266      2.00000
     16      -2.8262      2.00000
     17      -2.8248      2.00000
     18      -2.3768      2.00000
     19      -2.3761      2.00000
     20      -2.3754      2.00000
     21      -1.9081      2.00000
     22      -1.9074      2.00000
     23      -1.9068      2.00000
     24      -1.8496      2.00000
     25      -1.8487      2.00000
     26      -1.8479      2.00000
     27      -1.6774      2.00000
     28      -1.6769      2.00000
     29      -1.6764      2.00000
     30      -1.4739      2.00000
     31      -1.4727      2.00000
     32      -1.4723      2.00000
     33      -1.4723      2.00000
     34      -1.4719      2.00000
     35      -1.4708      2.00000
     36      -1.4450      2.00000
     37      -1.2650      2.00000
     38      -1.2642      2.00000
     39      -1.2634      2.00000
     40      -1.1628      2.00000
     41      -1.1627      2.00000
     42      -1.1627      2.00000
     43      -1.1040      2.00000
     44      -1.1036      2.00000
     45      -1.1031      2.00000
     46      -1.0283      2.00000
     47      -1.0283      2.00000
     48      -1.0276      2.00000
     49      -1.0276      2.00000
     50      -1.0270      2.00000
     51      -1.0269      2.00000
     52      -1.0103      2.00000
     53      -1.0103      2.00000
     54      -1.0102      2.00000
     55      -0.8484      2.00000
     56      -0.8480      2.00000
     57      -0.8475      2.00000
     58      -0.8475      2.00000
     59      -0.8469      2.00000
     60      -0.8466      2.00000
     61      -0.7993      2.00000
     62      -0.7986      2.00000
     63      -0.7979      2.00000
     64      -0.7718      2.00000
     65      -0.7713      2.00000
     66      -0.7709      2.00000
     67      -0.7709      2.00000
     68      -0.7706      2.00000
     69      -0.7701      2.00000
     70      -0.7268      2.00000
     71      -0.7261      2.00000
     72      -0.7258      2.00000
     73      -0.7258      2.00000
     74      -0.7255      2.00000
     75      -0.7249      2.00000
     76      -0.6347      2.00000
     77      -0.6346      2.00000
     78      -0.6345      2.00000
     79      -0.5659      2.00000
     80      -0.5658      2.00000
     81      -0.5657      2.00000
     82      -0.5305      2.00000
     83      -0.5304      2.00000
     84      -0.5299      2.00000
     85      -0.5299      2.00000
     86      -0.5295      2.00000
     87      -0.5293      2.00000
     88      -0.5074      2.00000
     89      -0.5069      2.00000
     90      -0.5064      2.00000
     91      -0.4158      2.00000
     92      -0.4154      2.00000
     93      -0.4151      2.00000
     94      -0.3979      2.00000
     95      -0.3976      2.00000
     96      -0.3973      2.00000
     97      -0.3810      2.00000
     98      -0.3809      2.00000
     99      -0.3805      2.00000
    100      -0.3805      2.00000
    101      -0.3801      2.00000
    102      -0.3800      2.00000
    103      -0.3555      2.00000
    104      -0.3546      2.00000
    105      -0.3544      2.00000
    106      -0.3544      2.00000
    107      -0.3543      2.00000
    108      -0.3534      2.00000
    109      -0.3172      2.00000
    110      -0.3163      2.00000
    111      -0.3160      2.00000
    112      -0.3160      2.00000
    113      -0.3157      2.00000
    114      -0.3148      2.00000
    115      -0.2513      2.00000
    116      -0.2511      2.00000
    117      -0.2509      2.00000
    118      -0.2363      2.00000
    119      -0.2360      2.00000
    120      -0.2356      2.00000
    121      -0.2356      2.00000
    122      -0.2353      2.00000
    123      -0.2350      2.00000
    124      -0.2038      2.00000
    125      -0.2035      2.00000
    126      -0.2031      2.00000
    127      -0.2031      2.00000
    128      -0.2027      2.00000
    129      -0.2024      2.00000
    130      -0.1017      2.00000
    131      -0.1013      2.00000
    132      -0.1009      2.00000
    133      -0.0819      2.00000
    134      -0.0811      2.00000
    135      -0.0811      2.00000
    136      -0.0810      2.00000
    137      -0.0810      2.00000
    138      -0.0802      2.00000
    139      -0.0640      2.00000
    140      -0.0639      2.00000
    141      -0.0637      2.00000
    142      -0.0242      2.00000
    143      -0.0241      2.00000
    144      -0.0237      2.00000
    145      -0.0237      2.00000
    146      -0.0232      2.00000
    147      -0.0232      2.00000
    148       0.0179      2.00000
    149       0.0186      2.00000
    150       0.0189      2.00000
    151       0.0189      2.00000
    152       0.0191      2.00000
    153       0.0198      2.00000
    154       0.0315      2.00000
    155       0.0321      2.00000
    156       0.0324      2.00000
    157       0.0324      2.00000
    158       0.0326      2.00000
    159       0.0333      2.00000
    160       0.1582      2.00000
    161       0.1590      2.00000
    162       0.1592      2.00000
    163       0.1592      2.00000
    164       0.1593      2.00000
    165       0.1601      2.00000
    166       0.2233      2.00000
    167       0.2238      2.00000
    168       0.2242      2.00000
    169       0.2473      2.00000
    170       0.2478      2.00000
    171       0.2481      2.00000
    172       0.2519      2.00000
    173       0.2525      2.00000
    174       0.2528      2.00000
    175       0.2529      2.00000
    176       0.2531      2.00000
    177       0.2536      2.00000
    178       0.2580      2.00000
    179       0.2583      2.00000
    180       0.2587      2.00000
    181       0.2914      2.00000
    182       0.2922      2.00000
    183       0.2924      2.00000
    184       0.2924      2.00000
    185       0.2926      2.00000
    186       0.2934      2.00000
    187       0.3193      2.00000
    188       0.3197      2.00000
    189       0.3201      2.00000
    190       0.3904      2.00000
    191       0.3911      2.00000
    192       0.3915      2.00000
    193       0.3915      2.00000
    194       0.3919      2.00000
    195       0.3925      2.00000
    196       0.4239      2.00000
    197       0.4243      2.00000
    198       0.4246      2.00000
    199       0.4569      2.00000
    200       0.4571      2.00000
    201       0.4575      2.00000
    202       0.4576      2.00000
    203       0.4579      2.00000
    204       0.4582      2.00000
    205       0.4768      2.00000
    206       0.4774      2.00000
    207       0.4779      2.00000
    208       0.4903      2.00000
    209       0.4906      2.00000
    210       0.4909      2.00000
    211       0.4939      2.00000
    212       0.4943      2.00000
    213       0.4947      2.00000
    214       0.5244      2.00000
    215       0.5249      2.00000
    216       0.5251      2.00000
    217       0.5253      2.00000
    218       0.5253      2.00000
    219       0.5255      2.00000
    220       0.5261      2.00000
    221       0.5548      2.00000
    222       0.5550      2.00000
    223       0.5554      2.00000
    224       0.5592      2.00000
    225       0.5594      2.00000
    226       0.5596      2.00000
    227       0.5597      2.00000
    228       0.5599      2.00000
    229       0.5601      2.00000
    230       0.5655      2.00000
    231       0.5656      2.00000
    232       0.5659      2.00000
    233       0.5660      2.00000
    234       0.5663      2.00000
    235       0.5663      2.00000
    236       0.6600      2.00000
    237       0.6600      2.00000
    238       0.6601      2.00000
    239       0.7016      2.00000
    240       0.7020      2.00000
    241       0.7024      2.00000
    242       0.7053      2.00000
    243       0.7054      2.00000
    244       0.7058      2.00000
    245       0.7058      2.00000
    246       0.7061      2.00000
    247       0.7061      2.00000
    248       0.7078      2.00000
    249       0.7083      2.00000
    250       0.7085      2.00000
    251       0.7086      2.00000
    252       0.7089      2.00000
    253       0.7096      2.00000
    254       0.7238      2.00000
    255       0.7309      2.00000
    256       0.7312      2.00000
    257       0.7316      2.00000
    258       0.7754      2.00000
    259       0.7757      2.00000
    260       0.7760      2.00000
    261       0.7791      2.00000
    262       0.7792      2.00000
    263       0.8069      2.00000
    264       0.8070      2.00000
    265       0.8072      2.00000
    266       0.8096      2.00000
    267       0.8102      2.00000
    268       0.8107      2.00000
    269       0.8239      2.00000
    270       0.8239      2.00000
    271       0.8336      2.00000
    272       0.8340      2.00000
    273       0.8340      2.00000
    274       0.8341      2.00000
    275       0.8342      2.00000
    276       0.8345      2.00000
    277       0.8345      2.00000
    278       0.8348      2.00000
    279       0.8354      2.00000
    280       0.8436      2.00000
    281       0.8438      2.00000
    282       0.8440      2.00000
    283       0.8715      2.00000
    284       0.8715      2.00000
    285       0.8718      2.00000
    286       0.8718      2.00000
    287       0.8720      2.00000
    288       0.8722      2.00000
    289       0.8980      2.00000
    290       0.8981      2.00000
    291       0.8982      2.00000
    292       0.9310      2.00000
    293       0.9311      2.00000
    294       0.9315      2.00000
    295       0.9316      2.00000
    296       0.9319      2.00000
    297       0.9320      2.00000
    298       0.9375      2.00000
    299       0.9376      2.00000
    300       0.9503      2.00000
    301       0.9506      2.00000
    302       0.9510      2.00000
    303       0.9526      2.00000
    304       0.9530      2.00000
    305       0.9534      2.00000
    306       0.9540      2.00000
    307       0.9543      2.00000
    308       0.9546      2.00000
    309       0.9569      2.00000
    310       0.9573      2.00000
    311       0.9576      2.00000
    312       0.9757      2.00000
    313       0.9758      2.00000
    314       0.9759      2.00000
    315       1.0061      2.00000
    316       1.0064      2.00000
    317       1.0067      2.00000
    318       1.0116      2.00000
    319       1.0120      2.00000
    320       1.0124      2.00000
    321       1.0261      2.00000
    322       1.0262      2.00000
    323       1.0267      2.00000
    324       1.0267      2.00000
    325       1.0272      2.00000
    326       1.0273      2.00000
    327       1.0392      2.00000
    328       1.0392      2.00000
    329       1.0399      2.00000
    330       1.0402      2.00000
    331       1.0406      2.00000
    332       1.0412      2.00000
    333       1.0578      2.00000
    334       1.0580      2.00000
    335       1.0583      2.00000
    336       1.1512      2.00000
    337       1.1519      2.00000
    338       1.1524      2.00000
    339       1.1552      2.00000
    340       1.1557      2.00000
    341       1.1562      2.00000
    342       1.1734      2.00000
    343       1.1738      2.00000
    344       1.1742      2.00000
    345       1.1743      2.00000
    346       1.1747      2.00000
    347       1.1751      2.00000
    348       1.2132      2.00000
    349       1.2137      2.00000
    350       1.2142      2.00000
    351       1.2632      2.00000
    352       1.2632      2.00000
    353       1.2636      2.00000
    354       1.2636      2.00000
    355       1.2639      2.00000
    356       1.2639      2.00000
    357       1.3041      2.00000
    358       1.3041      2.00000
    359       1.3045      2.00000
    360       1.3045      2.00000
    361       1.3049      2.00000
    362       1.3050      2.00000
    363       1.3142      2.00000
    364       1.3143      2.00000
    365       1.3145      2.00000
    366       1.3185      2.00000
    367       1.3187      2.00000
    368       1.3190      2.00000
    369       1.3190      2.00000
    370       1.3192      2.00000
    371       1.3195      2.00000
    372       1.4268      2.00000
    373       1.4268      2.00000
    374       1.4269      2.00000
    375       1.4476      2.00000
    376       1.4479      2.00000
    377       1.4482      2.00000
    378       1.4482      2.00000
    379       1.4483      2.00000
    380       1.4485      2.00000
    381       1.4499      2.00000
    382       1.4503      2.00000
    383       1.4506      2.00000
    384       1.4543      2.00000
    385       1.4544      2.00000
    386       1.4546      2.00000
    387       1.4549      2.00000
    388       1.4554      2.00000
    389       1.4557      2.00000
    390       1.5009      2.00000
    391       1.5012      2.00000
    392       1.5014      2.00000
    393       1.5014      2.00000
    394       1.5016      2.00000
    395       1.5019      2.00000
    396       1.5129      2.00000
    397       1.5133      2.00000
    398       1.5136      2.00000
    399       1.5247      2.00000
    400       1.5249      2.00000
    401       1.5252      2.00000
    402       1.5252      2.00000
    403       1.5255      2.00000
    404       1.5257      2.00000
    405       1.5298      2.00000
    406       1.5300      2.00000
    407       1.5301      2.00000
    408       1.5484      2.00000
    409       1.5490      2.00000
    410       1.5492      2.00000
    411       1.5492      2.00000
    412       1.5494      2.00000
    413       1.5499      2.00000
    414       1.5524      2.00000
    415       1.5526      2.00000
    416       1.5528      2.00000
    417       1.5984      2.00000
    418       1.5984      2.00000
    419       1.6176      2.00000
    420       1.6181      2.00000
    421       1.6186      2.00000
    422       1.6240      2.00000
    423       1.6244      2.00000
    424       1.6245      2.00000
    425       1.6245      2.00000
    426       1.6248      2.00000
    427       1.6251      2.00000
    428       1.6875      2.00000
    429       1.6878      2.00000
    430       1.6881      2.00000
    431       1.6976      2.00000
    432       1.6981      2.00000
    433       1.6985      2.00000
    434       1.6997      2.00000
    435       1.6997      2.00000
    436       1.7536      2.00000
    437       1.7536      2.00000
    438       1.7540      2.00000
    439       1.7540      2.00000
    440       1.7543      2.00000
    441       1.7544      2.00000
    442       1.7727      2.00000
    443       1.7728      2.00000
    444       1.7730      2.00000
    445       1.7828      2.00000
    446       1.7830      2.00000
    447       1.7833      2.00000
    448       1.7834      2.00000
    449       1.7838      2.00000
    450       1.7839      2.00000
    451       1.8418      2.00000
    452       1.8419      2.00000
    453       1.8420      2.00000
    454       1.8657      2.00000
    455       1.8662      2.00000
    456       1.8666      2.00000
    457       1.8674      2.00000
    458       1.8679      2.00000
    459       1.8684      2.00000
    460       1.8687      2.00000
    461       1.8799      2.00000
    462       1.8805      2.00000
    463       1.8806      2.00000
    464       1.8807      2.00000
    465       1.8808      2.00000
    466       1.8814      2.00000
    467       1.8861      2.00000
    468       1.8865      2.00000
    469       1.8870      2.00000
    470       1.8885      2.00000
    471       1.8889      2.00000
    472       1.8893      2.00000
    473       1.8980      2.00000
    474       1.8982      2.00000
    475       1.8984      2.00000
    476       1.8984      2.00000
    477       1.8986      2.00000
    478       1.8989      2.00000
    479       1.9412      2.00000
    480       1.9417      2.00000
    481       1.9422      2.00000
    482       1.9722      2.00000
    483       1.9726      2.00000
    484       1.9729      2.00000
    485       2.0207      2.00000
    486       2.0207      2.00000
    487       2.0212      2.00000
    488       2.0214      2.00000
    489       2.0215      2.00000
    490       2.0217      2.00000
    491       2.0713      2.00000
    492       2.0717      2.00000
    493       2.0718      2.00000
    494       2.0718      2.00000
    495       2.0720      2.00000
    496       2.0721      2.00000
    497       2.0722      2.00000
    498       2.0722      2.00000
    499       2.0723      2.00000
    500       2.0725      2.00000
    501       2.0726      2.00000
    502       2.0728      2.00000
    503       2.0791      2.00000
    504       2.0793      2.00000
    505       2.0795      2.00000
    506       2.0795      2.00000
    507       2.0797      2.00000
    508       2.0798      2.00000
    509       2.0812      2.00000
    510       2.0815      2.00000
    511       2.0816      2.00000
    512       2.0816      2.00000
    513       2.0818      2.00000
    514       2.0821      2.00000
    515       2.0899      2.00000
    516       2.0900      2.00000
    517       2.0901      2.00000
    518       2.0906      2.00000
    519       2.0906      2.00000
    520       2.0907      2.00000
    521       2.1128      2.00000
    522       2.1128      2.00000
    523       2.1387      2.00000
    524       2.1390      2.00000
    525       2.1391      2.00000
    526       2.1391      2.00000
    527       2.1392      2.00000
    528       2.1395      2.00000
    529       2.1514      2.00000
    530       2.1516      2.00000
    531       2.1517      2.00000
    532       2.1517      2.00000
    533       2.1519      2.00000
    534       2.1520      2.00000
    535       2.1605      2.00000
    536       2.1606      2.00000
    537       2.1608      2.00000
    538       2.1700      2.00000
    539       2.1700      2.00000
    540       2.1701      2.00000
    541       2.1853      2.00000
    542       2.1853      2.00000
    543       2.1854      2.00000
    544       2.1938      2.00000
    545       2.1938      2.00000
    546       2.1939      2.00000
    547       2.2292      2.00000
    548       2.2293      2.00000
    549       2.2293      2.00000
    550       2.2650      2.00000
    551       2.2651      2.00000
    552       2.2653      2.00000
    553       2.2653      2.00000
    554       2.2654      2.00000
    555       2.2654      2.00000
    556       2.2721      2.00000
    557       2.2722      2.00000
    558       2.2723      2.00000
    559       2.2723      2.00000
    560       2.2724      2.00000
    561       2.2725      2.00000
    562       2.2916      2.00000
    563       2.2916      2.00000
    564       2.2916      2.00000
    565       2.4306      2.00000
    566       2.4310      2.00000
    567       2.4313      2.00000
    568       2.6095      2.00000
    569       2.6097      2.00000
    570       2.6099      2.00000
    571       2.6614      2.00000
    572       2.6619      2.00000
    573       2.6621      2.00000
    574       2.6621      2.00000
    575       2.6623      2.00000
    576       2.6628      2.00000
    577       2.8523      2.00000
    578       2.8526      2.00000
    579       2.8530      2.00000
    580       3.1507      2.00148
    581       3.1512      2.00150
    582       3.1518      2.00152
    583       3.5694      1.74468
    584       3.5696      1.74395
    585       3.5697      1.74316
    586       3.5947      1.59184
    587       3.5948      1.59108
[...]
   0.201E+01 0.206E-01 0.206E-01   -.202E+01 -.175E-01 -.175E-01   0.156E-01 -.547E-03 -.547E-03   -.106E-01 -.257E-02 -.257E-02
   0.229E+00 0.438E-02 0.437E-02   -.238E+00 -.852E-03 -.852E-03   -.138E-02 -.172E-03 -.172E-03   0.102E-01 -.321E-02 -.321E-02
   0.112E+00 -.553E-08 -.553E-08   -.124E+00 0.584E-08 0.584E-08   -.177E-02 -.144E-20 -.339E-20   0.137E-01 0.730E-10 0.730E-10
   0.124E+00 0.347E+00 0.189E+00   -.127E+00 -.349E+00 -.190E+00   -.441E-02 0.478E-02 0.110E-02   0.734E-02 -.419E-02 0.411E-03
   -.116E+01 0.314E+01 -.399E-08   0.117E+01 -.316E+01 0.618E-09   0.115E-01 0.590E-02 0.000E+00   -.322E-02 -.116E-01 -.527E-09
   -.116E+01 -.473E-07 -.314E+01   0.117E+01 0.589E-07 0.316E+01   0.115E-01 -.109E-09 -.590E-02   -.322E-02 0.393E-09 0.116E-01
   0.124E+00 -.189E+00 -.347E+00   -.127E+00 0.190E+00 0.349E+00   -.441E-02 -.110E-02 -.478E-02   0.734E-02 -.411E-03 0.419E-02
   0.654E-01 -.498E-01 0.856E-09   -.717E-01 0.531E-01 -.787E-09   -.101E-02 -.106E-02 0.000E+00   0.721E-02 -.205E-02 -.151E-09
   -.293E+00 0.293E+00 0.145E-09   0.292E+00 -.287E+00 -.334E-09   0.706E-02 -.428E-02 0.678E-20   -.602E-02 -.170E-02 0.249E-09
   -.587E+00 0.352E+00 -.352E+00   0.595E+00 -.352E+00 0.352E+00   -.809E-02 0.395E-02 -.395E-02   0.150E-02 -.539E-02 0.539E-02
   -.293E+00 -.444E-08 -.293E+00   0.292E+00 0.476E-08 0.287E+00   0.706E-02 0.792E-10 0.428E-02   -.602E-02 0.683E-09 0.170E-02
   -.110E+00 -.516E-01 0.119E-07   0.120E+00 0.533E-01 -.122E-07   -.258E-02 0.141E-03 0.000E+00   -.795E-02 -.173E-02 -.479E-09
   -.280E+00 -.238E-02 0.243E-02   0.297E+00 -.109E-02 0.560E-03   -.243E-02 0.392E-03 -.187E-03   -.147E-01 0.292E-02 -.269E-02
   -.280E+00 -.243E-02 0.238E-02   0.297E+00 -.560E-03 0.109E-02   -.243E-02 0.187E-03 -.392E-03   -.147E-01 0.269E-02 -.292E-02
   -.226E+00 0.629E-09 0.136E-07   0.235E+00 -.807E-09 -.139E-07   0.724E-02 0.492E-21 0.000E+00   -.157E-01 0.702E-09 -.521E-09
   -.115E+00 0.889E-01 -.889E-01   0.116E+00 -.833E-01 0.833E-01   0.593E-03 -.194E-03 0.194E-03   -.256E-02 -.508E-02 0.508E-02
   -.117E+00 0.111E-07 -.575E-01   0.122E+00 -.113E-07 0.530E-01   -.224E-02 0.878E-11 0.474E-03   -.295E-02 -.553E-09 0.393E-02
   0.116E+00 0.195E+00 -.355E+00   -.121E+00 -.191E+00 0.349E+00   -.424E-02 0.116E-02 -.493E-02   0.981E-02 -.524E-02 0.119E-01
   0.116E+00 0.355E+00 -.195E+00   -.121E+00 -.349E+00 0.191E+00   -.424E-02 0.493E-02 -.116E-02   0.981E-02 -.119E-01 0.524E-02
   0.101E+00 -.559E-08 -.335E-09   -.112E+00 0.611E-08 0.398E-09   0.269E-02 -.864E-20 0.000E+00   0.881E-02 0.667E-10 -.335E-09
   0.685E+00 -.147E-08 -.964E-02   -.694E+00 0.993E-09 0.574E-02   0.587E-02 -.789E-11 -.426E-03   0.308E-02 -.536E-09 0.437E-02
   0.201E+01 0.206E-01 -.206E-01   -.202E+01 -.175E-01 0.175E-01   0.156E-01 -.547E-03 0.547E-03   -.106E-01 -.257E-02 0.257E-02
   0.685E+00 0.964E-02 -.152E-08   -.694E+00 -.574E-02 0.884E-09   0.587E-02 0.426E-03 0.000E+00   0.308E-02 -.437E-02 -.419E-09
   0.237E+00 -.160E-07 0.311E-02   -.247E+00 0.167E-07 -.548E-03   -.609E-03 -.395E-11 -.213E-03   0.106E-01 0.445E-09 -.223E-02
   0.124E+00 0.189E+00 0.347E+00   -.127E+00 -.190E+00 -.349E+00   -.441E-02 0.110E-02 0.478E-02   0.734E-02 0.411E-03 -.419E-02
   -.116E+01 0.542E-07 0.314E+01   0.117E+01 -.579E-07 -.316E+01   0.115E-01 0.109E-09 0.590E-02   -.322E-02 -.742E-09 -.116E-01
   -.116E+01 -.314E+01 0.111E-07   0.117E+01 0.316E+01 0.406E-09   0.115E-01 -.590E-02 -.678E-20   -.322E-02 0.116E-01 0.179E-09
   0.124E+00 -.347E+00 -.189E+00   -.127E+00 0.349E+00 0.190E+00   -.441E-02 -.478E-02 -.110E-02   0.734E-02 0.419E-02 -.411E-03
   0.654E-01 -.697E-10 -.498E-01   -.717E-01 0.195E-09 0.531E-01   -.101E-02 -.196E-10 -.106E-02   0.721E-02 -.189E-09 -.205E-02
   -.107E+00 0.821E-01 0.821E-01   0.115E+00 -.842E-01 -.842E-01   0.281E-03 0.371E-03 0.371E-03   -.813E-02 0.177E-02 0.177E-02
   -.587E+00 0.352E+00 0.352E+00   0.595E+00 -.352E+00 -.352E+00   -.809E-02 0.395E-02 0.395E-02   0.150E-02 -.539E-02 -.539E-02
   -.173E+01 0.214E-08 0.205E-08   0.175E+01 -.547E-09 -.547E-09   -.276E-01 -.224E-19 -.542E-19   0.168E-01 0.618E-09 0.618E-09
   -.587E+00 -.352E+00 -.352E+00   0.595E+00 0.352E+00 0.352E+00   -.809E-02 -.395E-02 -.395E-02   0.150E-02 0.539E-02 0.539E-02
   -.107E+00 -.821E-01 -.821E-01   0.115E+00 0.842E-01 0.842E-01   0.281E-03 -.371E-03 -.371E-03   -.813E-02 -.177E-02 -.177E-02
   -.508E-01 0.272E-08 0.262E-08   0.612E-01 -.288E-08 -.288E-08   -.248E-03 -.783E-22 0.424E-21   -.997E-02 -.394E-10 -.394E-10
   -.280E+00 -.238E-02 -.243E-02   0.297E+00 -.109E-02 -.560E-03   -.243E-02 0.392E-03 0.187E-03   -.147E-01 0.292E-02 0.269E-02
   -.707E+00 0.166E-04 0.112E-08   0.708E+00 -.210E-02 -.101E-08   0.461E-02 0.193E-03 -.169E-20   -.608E-02 0.178E-02 0.928E-09
   -.707E+00 0.108E-08 -.166E-04   0.708E+00 -.972E-09 0.210E-02   0.461E-02 -.357E-11 -.193E-03   -.608E-02 0.103E-08 -.178E-02
   -.280E+00 0.243E-02 0.238E-02   0.297E+00 0.560E-03 0.109E-02   -.243E-02 -.187E-03 -.392E-03   -.147E-01 -.269E-02 -.292E-02
   -.126E+00 0.393E-02 0.653E-08   0.143E+00 0.332E-03 -.703E-08   0.104E-02 -.257E-03 0.000E+00   -.171E-01 -.386E-02 -.609E-10
   0.604E-01 0.943E-10 -.572E-01   -.699E-01 0.833E-10 0.532E-01   -.597E-03 -.747E-11 -.404E-03   0.993E-02 -.204E-09 0.417E-02
   0.229E+00 0.438E-02 -.437E-02   -.238E+00 -.852E-03 0.852E-03   -.138E-02 -.172E-03 0.172E-03   0.102E-01 -.321E-02 0.321E-02
   0.237E+00 -.159E-07 -.311E-02   -.247E+00 0.166E-07 0.548E-03   -.609E-03 0.395E-11 0.213E-03   0.106E-01 0.487E-09 0.223E-02
   0.124E+00 -.189E+00 0.347E+00   -.127E+00 0.190E+00 -.349E+00   -.441E-02 -.110E-02 0.478E-02   0.734E-02 -.411E-03 -.419E-02
   0.124E+00 -.347E+00 0.189E+00   -.127E+00 0.349E+00 -.190E+00   -.441E-02 -.478E-02 0.110E-02   0.734E-02 0.419E-02 0.411E-03
   0.106E+00 -.588E-08 -.236E-09   -.116E+00 0.637E-08 0.409E-09   0.211E-02 -.533E-20 0.678E-20   0.737E-02 0.485E-10 -.253E-09
   -.293E+00 0.556E-08 0.293E+00   0.292E+00 -.564E-08 -.287E+00   0.706E-02 -.792E-10 -.428E-02   -.602E-02 0.218E-09 -.170E-02
   -.587E+00 -.352E+00 0.352E+00   0.595E+00 0.352E+00 -.352E+00   -.809E-02 -.395E-02 0.395E-02   0.150E-02 0.539E-02 -.539E-02
   -.293E+00 -.293E+00 0.790E-09   0.292E+00 0.287E+00 -.545E-09   0.706E-02 0.428E-02 -.678E-20   -.602E-02 0.170E-02 0.652E-09
   -.110E+00 0.109E-07 -.516E-01   0.120E+00 -.112E-07 0.533E-01   -.258E-02 0.260E-11 0.141E-03   -.795E-02 -.511E-09 -.173E-02
   -.280E+00 -.243E-02 -.238E-02   0.297E+00 -.560E-03 -.109E-02   -.243E-02 0.187E-03 0.392E-03   -.147E-01 0.269E-02 0.292E-02
   -.707E+00 0.120E-08 0.166E-04   0.708E+00 -.105E-08 -.210E-02   0.461E-02 0.357E-11 0.193E-03   -.608E-02 0.961E-09 0.178E-02
   -.707E+00 -.166E-04 0.118E-08   0.708E+00 0.210E-02 -.101E-08   0.461E-02 -.193E-03 0.169E-20   -.608E-02 -.178E-02 0.107E-08
   -.280E+00 0.238E-02 0.243E-02   0.297E+00 0.109E-02 0.560E-03   -.243E-02 -.392E-03 -.187E-03   -.147E-01 -.292E-02 -.269E-02
   -.126E+00 0.670E-08 0.393E-02   0.143E+00 -.702E-08 0.332E-03   0.104E-02 -.476E-11 -.257E-03   -.171E-01 -.132E-09 -.386E-02
   0.654E-01 -.642E-08 0.498E-01   -.717E-01 0.675E-08 -.531E-01   -.101E-02 0.196E-10 0.106E-02   0.721E-02 0.174E-09 0.205E-02
   -.107E+00 -.821E-01 0.821E-01   0.115E+00 0.842E-01 -.842E-01   0.281E-03 -.371E-03 0.371E-03   -.813E-02 -.177E-02 0.177E-02
   -.110E+00 0.453E-08 0.516E-01   0.120E+00 -.460E-08 -.533E-01   -.258E-02 -.260E-11 -.141E-03   -.795E-02 -.138E-09 0.173E-02
   -.280E+00 0.243E-02 -.238E-02   0.297E+00 0.560E-03 -.109E-02   -.243E-02 -.187E-03 0.392E-03   -.147E-01 -.269E-02 0.292E-02
   -.280E+00 0.238E-02 -.243E-02   0.297E+00 0.109E-02 -.560E-03   -.243E-02 -.392E-03 0.187E-03   -.147E-01 -.292E-02 0.269E-02
   -.226E+00 0.136E-07 0.629E-09   0.235E+00 -.139E-07 -.807E-09   0.724E-02 -.227E-19 -.678E-20   -.157E-01 -.521E-09 0.702E-09
   -.126E+00 0.667E-08 -.393E-02   0.143E+00 -.699E-08 -.332E-03   0.104E-02 0.476E-11 0.257E-03   -.171E-01 -.132E-09 0.386E-02
 -----------------------------------------------------------------------------------------------
   0.318E-03 0.694E-10 0.458E-04   0.643E-11 0.384E-11 0.145E-11   0.780E-02 -.443E-17 -.249E-17   -.753E-02 -.289E-10 -.227E-10
 
 
 POSITION                                       TOTAL-FORCE (eV/Angst)
 -----------------------------------------------------------------------------------
      7.20482      7.20482      3.60241        -0.000443     -0.000275      0.000275
      7.20482      9.00602      5.40361        -0.000219     -0.000094      0.000000
      9.00602      7.20482      5.40361        -0.000200     -0.000159     -0.000000
      7.20482      7.20482      0.00000         0.000039     -0.000251      0.000000
      7.20482      9.00602      1.80120         0.001013      0.000520     -0.000520
      7.20482      0.00000      3.60241         0.000039      0.000000      0.000251
      7.20482      1.80121      5.40361        -0.000219      0.000094     -0.000000
      9.00602      7.20482      1.80120         0.000431      0.000564      0.000217
      9.00602      9.00602      3.60241         0.000431     -0.000217     -0.000564
      9.00602      0.00000      5.40361         0.000139      0.000000      0.000000
      0.00000      7.20482      3.60241        -0.000068     -0.000141      0.000141
      0.00000      9.00602      5.40361        -0.000154     -0.000124      0.000000
      1.80121      7.20482      5.40361        -0.000073     -0.000165     -0.000000
      7.20482      7.20482      7.20482        -0.000443     -0.000275     -0.000275
      7.20482      9.00602      9.00602         0.001013      0.000520      0.000520
      7.20482      0.00000      0.00000         0.003694     -0.000000     -0.000000
      7.20482      1.80120      1.80120         0.001013     -0.000520     -0.000520
      7.20482      3.60241      3.60241        -0.000443      0.000275      0.000275
      7.20482      5.40361      5.40361        -0.000046     -0.000000      0.000000
      9.00602      7.20482      9.00602         0.000431      0.000564     -0.000217
      9.00602      9.00602      0.00000         0.016817      0.019403      0.000000
      9.00602      0.00000      1.80120         0.016817     -0.000000     -0.019403
      9.00602      1.80120      3.60241         0.000431      0.000217     -0.000564
      9.00602      3.60241      5.40361        -0.000200      0.000159     -0.000000
      0.00000      7.20482      0.00000         0.000152      0.000049     -0.000000
      0.00000      9.00602      1.80120        -0.003638     -0.000022      0.000022
      0.00000      0.00000      3.60241         0.000152     -0.000000     -0.000049
      0.00000      1.80121      5.40361        -0.000154      0.000124     -0.000000
      1.80121      7.20482      1.80120         0.000501     -0.000737     -0.000075
      1.80121      9.00602      3.60241         0.000501      0.000075      0.000737
      1.80121      0.00000      5.40361         0.000265     -0.000000     -0.000000
      3.60241      7.20482      3.60241        -0.000266     -0.000018      0.000018
      3.60241      9.00602      5.40361        -0.000011     -0.000142      0.000000
      5.40361      7.20482      5.40361         0.000065     -0.000147      0.000000
      7.20482      0.00000      7.20482         0.000039     -0.000000     -0.000251
      7.20482      1.80121      9.00602         0.001013     -0.000520      0.000520
      7.20482      3.60241      0.00000         0.000039      0.000251      0.000000
      7.20482      5.40361      1.80120        -0.000219      0.000000      0.000094
      9.00602      9.00602      7.20482         0.000431     -0.000217      0.000564
      9.00602      0.00000      9.00602         0.016817      0.000000      0.019403
      9.00602      1.80120      0.00000         0.016817     -0.019403     -0.000000
      9.00602      3.60241      1.80120         0.000431     -0.000564      0.000217
      9.00602      5.40361      3.60241        -0.000200      0.000000      0.000159
      0.00000      7.20482      7.20482        -0.000068     -0.000141     -0.000141
      0.00000      9.00602      9.00602        -0.003638     -0.000022     -0.000022
      0.02000      0.00000      0.00000        -0.139715     -0.000000     -0.000000
      0.00000      1.80120      1.80120        -0.003638      0.000022      0.000022
      0.00000      3.60241      3.60241        -0.000068      0.000141      0.000141
      0.00000      5.40361      5.40361         0.000112     -0.000000      0.000000
      1.80121      7.20482      9.00602         0.000501     -0.000737      0.000075
      1.80121      9.00602      0.00000         0.018102     -0.021293     -0.000000
      1.80120      0.00000      1.80120         0.018102      0.000000      0.021293
      1.80121      1.80120      3.60241         0.000501     -0.000075      0.000737
      1.80121      3.60241      5.40361        -0.000073      0.000165      0.000000
      3.60241      7.20482      0.00000         0.000149     -0.000025     -0.000000
      3.60241      9.00602      1.80120         0.001027     -0.000701      0.000701
      3.60241      0.00000      3.60241         0.000149      0.000000      0.000025
      3.60241      1.80121      5.40361        -0.000011      0.000142      0.000000
      5.40361      7.20482      1.80120        -0.000296     -0.000160      0.000115
      5.40361      9.00602      3.60241        -0.000296     -0.000115      0.000160
      5.40361      0.00000      5.40361         0.000482     -0.000000     -0.000000
      7.20482      3.60241      7.20482        -0.000443      0.000275     -0.000275
      7.20482      5.40361      9.00602        -0.000219     -0.000000     -0.000094
      9.00602      1.80121      7.20482         0.000431      0.000217      0.000564
      9.00602      3.60241      9.00602         0.000431     -0.000564     -0.000217
      9.00602      5.40361      0.00000         0.000139     -0.000000      0.000000
      0.00000      0.00000      7.20482         0.000152      0.000000      0.000049
      0.00000      1.80121      9.00602        -0.003638      0.000022     -0.000022
      0.00000      3.60241      0.00000         0.000152     -0.000049      0.000000
      0.00000      5.40361      1.80120        -0.000154      0.000000      0.000124
      1.80121      9.00602      7.20482         0.000501      0.000075     -0.000737
      1.80121      0.00000      9.00602         0.018102     -0.000000     -0.021293
      1.80120      1.80120      0.00000         0.018102      0.021293     -0.000000
      1.80121      3.60241      1.80120         0.000501      0.000737     -0.000075
      1.80121      5.40361      3.60241        -0.000073      0.000000      0.000165
      3.60241      7.20482      7.20482        -0.000266     -0.000018     -0.000018
      3.60241      9.00602      9.00602         0.001027     -0.000701     -0.000701
      3.60241      0.00000      0.00000         0.003536     -0.000000      0.000000
      3.60241      1.80120      1.80120         0.001027      0.000701      0.000701
      3.60241      3.60241      3.60241        -0.000266      0.000018      0.000018
      3.60241      5.40361      5.40361         0.000152     -0.000000      0.000000
      5.40361      7.20482      9.00602        -0.000296     -0.000160     -0.000115
      5.40361      9.00602      0.00000        -0.000941     -0.000105     -0.000000
      5.40361      0.00000      1.80120        -0.000941      0.000000      0.000105
      5.40361      1.80120      3.60241        -0.000296      0.000115      0.000160
      5.40361      3.60241      5.40361         0.000065      0.000147     -0.000000
      9.00602      5.40361      7.20482        -0.000200     -0.000000     -0.000159
      0.00000      3.60241      7.20482        -0.000068      0.000141     -0.000141
      0.00000      5.40361      9.00602        -0.000154     -0.000000     -0.000124
      1.80121      1.80121      7.20482         0.000501     -0.000075     -0.000737
      1.80121      3.60241      9.00602         0.000501      0.000737      0.000075
      1.80121      5.40361      0.00000         0.000265      0.000000     -0.000000
      3.60241      0.00000      7.20482         0.000149     -0.000000     -0.000025
      3.60241      1.80121      9.00602         0.001027      0.000701     -0.000701
      3.60241      3.60241      0.00000         0.000149      0.000025     -0.000000
      3.60241      5.40361      1.80120        -0.000011      0.000000      0.000142
      5.40361      9.00602      7.20482        -0.000296     -0.000115     -0.000160
      5.40361      0.00000      9.00602        -0.000941     -0.000000     -0.000105
      5.40361      1.80120      0.00000        -0.000941      0.000105     -0.000000
      5.40361      3.60241      1.80120        -0.000296      0.000160      0.000115
      5.40361      5.40361      3.60241         0.000065      0.000000      0.000147
      1.80121      5.40361      7.20482        -0.000073     -0.000000     -0.000165
      3.60241      3.60241      7.20482        -0.000266      0.000018     -0.000018
      3.60241      5.40361      9.00602        -0.000011     -0.000000     -0.000142
      5.40361      1.80121      7.20482        -0.000296      0.000115     -0.000160
      5.40361      3.60241      9.00602        -0.000296      0.000160     -0.000115
      5.40361      5.40361      0.00000         0.000482     -0.000000      0.000000
      5.40361      5.40361      7.20482         0.000065     -0.000000     -0.000147
 -----------------------------------------------------------------------------------
    total drift:                                0.000584      0.000000      0.000046


--------------------------------------------------------------------------------------------------------



 mean value of Nose-termostat <S>:     1.000 mean value of <T> :     0.000
 mean temperature <T/S>/<1/S>  :     0.000

     LOOP+:  VPU time 1047.92: CPU time 1048.29

 ----------------------------------------------------------------------------- 
|                                                                             |
|           W    W    AA    RRRRR   N    N  II  N    N   GGGG   !!!           |
|           W    W   A  A   R    R  NN   N  II  NN   N  G    G  !!!           |
|           W    W  A    A  R    R  N N  N  II  N N  N  G       !!!           |
|           W WW W  AAAAAA  RRRRR   N  N N  II  N  N N  G  GGG   !            |
|           WW  WW  A    A  R   R   N   NN  II  N   NN  G    G                |
|           W    W  A    A  R    R  N    N  II  N    N   GGGG   !!!           |
|                                                                             |
|      The partial DOS and the PROCAR file are not evaluated for NPAR/=1      |
|      please rerun with NPAR=1                                               |
|                                                                             |
 ----------------------------------------------------------------------------- 

  
  
 General timing and accounting informations for this job:
 ========================================================
  
                  Total CPU time used (sec):     1064.158
                            User time (sec):     1036.058
                          System time (sec):       28.100
                         Elapsed time (sec):     1064.546
  
                   Maximum memory used (kb):      310156.
                   Average memory used (kb):           0.
  
                          Minor page faults:        60710
                          Major page faults:            0
                 Voluntary context switches:          859
