 vasp.4.6.28 25Jul05 complex 
 executed on             LinuxIFC date 2016.09.01  15:51:47
 running on    4 nodes
 distr:  one band on    1 nodes,    4 groups


--------------------------------------------------------------------------------------------------------


 INCAR:
 POTCAR:   PAW_PBE Au 06Sep2000                   
 POTCAR:   PAW_PBE Au 06Sep2000                   
   VRHFIN =Au: s1d10                                                            
   LEXCH  = PE                                                                  
   EATOM  =   926.0567 eV,   68.0632 Ry                                         
                                                                                
   TITEL  = PAW_PBE Au 06Sep2000                                                
   LULTRA =        F    use ultrasoft PP ?                                      
   IUNSCR =        1    unscreen: 0-lin 1-nonlin 2-no                           
   RPACOR =    2.330    partial core radius                                     
   POMASS =  196.966; ZVAL   =   11.000    mass and valenz                      
   RCORE  =    2.500    outmost cutoff radius                                   
   RWIGS  =    2.840; RWIGS  =    1.503    wigner-seitz radius (au A)           
   ENMAX  =  229.948; ENMIN  =  172.461 eV                                      
   RCLOC  =    1.964    cutoff for local pot                                    
   LCOR   =        T    correct aug charges                                     
   LPAW   =        T    paw PP                                                  
   EAUG   =  356.670                                                            
   DEXC   =    -.025                                                            
   RMAX   =    3.041    core radius for proj-oper                               
   RAUG   =    1.300    factor for augmentation sphere                          
   RDEP   =    2.598    radius for radial grids                                 
   QCUT   =   -4.111; QGAM   =    8.222    optimization parameters              
                                                                                
   Description                                                                  
     l     E      TYP  RCUT    TYP  RCUT                                        
     2   .000     23  2.500                                                     
     2   .000     23  2.500                                                     
     0   .000     23  2.500                                                     
     0   .000     23  2.500                                                     
     1  -.200     23  2.500                                                     
     1   .000     23  2.500                                                     
     3   .000      7   .000                                                     
  local pseudopotential read in
  partial core-charges read in
  atomic valenz-charges read in
  non local Contribution for L=           2  read in
    real space projection operators read in
  non local Contribution for L=           2  read in
    real space projection operators read in
  non local Contribution for L=           0  read in
    real space projection operators read in
  non local Contribution for L=           0  read in
    real space projection operators read in
  non local Contribution for L=           1  read in
    real space projection operators read in
  non local Contribution for L=           1  read in
    real space projection operators read in
    PAW grid and wavefunctions read in
 
   number of l-projection  operators is LMAX  =           6
   number of lm-projection operators is LMMAX =          18
 

 ----------------------------------------------------------------------------- 
|                                                                             |
|  ADVICE TO THIS USER RUNNING 'VASP/VAMP'   (HEAR YOUR MASTER'S VOICE ...):  |
|                                                                             |
|      You have a (more or less) 'large supercell' and for larger cells       |
|      it might be more efficient to use real space projection operators      |
|      So try LREAL= Auto  in the INCAR   file.                               |
|      Mind: If you want to do an extremely accurate calculations keep the    |
|      reciprocal projection scheme          (i.e. LREAL=.FALSE.)             |
|                                                                             |
 ----------------------------------------------------------------------------- 

 PAW_PBE Au 06Sep2000                   :
 energy of atom  1       EATOM= -926.0567
 kinetic energy error for atom=    0.0708 (will be added to EATOM!!)
 
 EXHCAR: internal setup
 exchange correlation table for  LEXCH =        8
   RHO(1)=    0.500       N(1)  =     2000
   RHO(2)=  100.500       N(2)  =     4000
 
 POSCAR: No title                                
  positions in direct lattice
  No initial velocities read in
 


--------------------------------------------------------------------------------------------------------


 ion  position               nearest neighbor table
   1  0.750  0.750  0.500-   3 3.06   5 3.06  14 3.06  19 3.06  20 3.06  26 3.06  11 3.06   6 3.06
                            18 3.06  29 3.06  10 3.06   8 3.06
   2  0.750  0.750  0.000-   8 3.06  10 3.06  11 3.06  18 3.06  22 3.06  27 3.06  12 3.06  26 3.06
                             5 3.06  32 3.06   3 3.06  20 3.06
   3  0.750  0.000  0.250-   1 3.06   5 3.06   9 3.06  12 3.06  19 3.06  28 3.06  18 3.06   6 3.06
                            27 3.06  13 3.06   4 3.06   2 3.06
   4  0.750  0.250  0.500-   6 3.06   8 3.06  10 3.06  13 3.06  29 3.06  31 3.06  21 3.06  28 3.06
                            14 3.06  19 3.06   3 3.06  20 3.06
   5  0.000  0.750  0.250-   1 3.06   3 3.06  12 3.06  14 3.06  15 3.06  25 3.06   7 3.06  10 3.06
                            16 3.06   2 3.06  22 3.06   6 3.06
   6  0.000  0.000  0.500-   4 3.06   7 3.06   8 3.06  11 3.06  13 3.06  16 3.06   1 3.06   3 3.06
                            17 3.06  23 3.06  21 3.06   5 3.06
   7  0.250  0.750  0.500-   6 3.06  11 3.06  16 3.06  18 3.06  29 3.06  30 3.06  19 3.06  26 3.06
                             5 3.06  14 3.06  25 3.06  23 3.06
   8  0.750  0.000  0.750-   2 3.06   4 3.06   6 3.06  11 3.06  27 3.06  31 3.06  21 3.06  26 3.06
                            12 3.06  19 3.06   9 3.06   1 3.06
   9  0.750  0.250  0.000-   3 3.06  12 3.06  20 3.06  21 3.06  28 3.06  32 3.06  27 3.06  13 3.06
                            31 3.06  22 3.06  10 3.06   8 3.06
  10  0.750  0.500  0.250-   2 3.06   4 3.06  13 3.06  18 3.06  22 3.06  29 3.06  14 3.06  28 3.06
                             5 3.06  32 3.06   9 3.06   1 3.06
  11  0.000  0.750  0.750-   2 3.06   6 3.06   7 3.06   8 3.06  22 3.06  30 3.06  20 3.06   1 3.06
                            23 3.06  15 3.06  14 3.06  12 3.06
  12  0.000  0.000  0.000-   3 3.06   5 3.06   9 3.06  15 3.06  21 3.06  23 3.06  16 3.06   2 3.06
                             8 3.06  24 3.06  13 3.06  11 3.06
  13  0.000  0.250  0.250-   4 3.06   6 3.06  10 3.06  16 3.06  22 3.06  24 3.06  17 3.06   3 3.06
                             9 3.06  25 3.06  14 3.06  12 3.06
  14  0.000  0.500  0.500-   1 3.06   5 3.06  17 3.06  20 3.06  21 3.06  25 3.06   7 3.06  10 3.06
                             4 3.06  30 3.06  13 3.06  11 3.06
  15  0.250  0.750  0.000-   5 3.06  12 3.06  23 3.06  25 3.06  26 3.06  32 3.06  18 3.06  22 3.06
                            27 3.06  11 3.06  30 3.06  16 3.06
  16  0.250  0.000  0.250-   6 3.06   7 3.06  13 3.06  18 3.06  24 3.06  27 3.06  19 3.06   5 3.06
                            12 3.06  28 3.06  17 3.06  15 3.06
  17  0.250  0.250  0.500-  14 3.06  19 3.06  21 3.06  23 3.06  25 3.06  28 3.06   6 3.06  13 3.06
                            29 3.06  31 3.06  30 3.06  16 3.06
  18  0.500  0.750  0.250-   2 3.06   7 3.06  10 3.06  16 3.06  27 3.06  29 3.06   1 3.06  25 3.06
                             3 3.06  15 3.06  19 3.06  32 3.06
  19  0.500  0.000  0.500-   1 3.06   3 3.06  17 3.06  23 3.06  26 3.06  28 3.06   4 3.06   7 3.06
                             8 3.06  16 3.06  18 3.06  31 3.06
  20  0.750  0.500  0.750-   1 3.06   9 3.06  14 3.06  21 3.06  26 3.06  32 3.06  11 3.06  29 3.06
                            31 3.06  22 3.06   4 3.06   2 3.06
  21  0.000  0.250  0.750-   9 3.06  12 3.06  14 3.06  17 3.06  20 3.06  23 3.06   4 3.06   8 3.06
                            24 3.06  30 3.06  22 3.06   6 3.06
  22  0.000  0.500  0.000-   2 3.06  10 3.06  11 3.06  13 3.06  24 3.06  30 3.06  20 3.06   9 3.06
                            25 3.06  15 3.06  21 3.06   5 3.06
  23  0.250  0.000  0.750-  12 3.06  15 3.06  17 3.06  19 3.06  21 3.06  26 3.06   6 3.06  11 3.06
                            27 3.06  31 3.06  24 3.06   7 3.06
  24  0.250  0.250  0.000-  13 3.06  16 3.06  22 3.06  27 3.06  30 3.06  31 3.06  28 3.06  12 3.06
                            21 3.06  32 3.06  25 3.06  23 3.06
  25  0.250  0.500  0.250-   5 3.06  14 3.06  15 3.06  17 3.06  28 3.06  32 3.06  22 3.06  13 3.06
                            29 3.06  18 3.06  24 3.06   7 3.06
  26  0.500  0.750  0.750-   1 3.06  15 3.06  19 3.06  20 3.06  23 3.06  32 3.06   8 3.06   2 3.06
                            30 3.06   7 3.06  27 3.06  29 3.06
  27  0.500  0.000  0.000-   2 3.06   8 3.06  16 3.06  18 3.06  24 3.06  31 3.06   9 3.06  23 3.06
                            15 3.06   3 3.06  28 3.06  26 3.06
  28  0.500  0.250  0.250-   3 3.06   9 3.06  17 3.06  19 3.06  25 3.06  32 3.06  10 3.06  24 3.06
                            16 3.06   4 3.06  29 3.06  27 3.06
  29  0.500  0.500  0.500-   4 3.06   7 3.06  10 3.06  18 3.06  30 3.06  31 3.06  20 3.06  25 3.06
                            17 3.06   1 3.06  26 3.06  28 3.06
  30  0.250  0.500  0.750-   7 3.06  11 3.06  22 3.06  24 3.06  29 3.06  31 3.06  26 3.06  14 3.06
                            21 3.06  32 3.06  17 3.06  15 3.06
  31  0.500  0.250  0.750-   4 3.06   8 3.06  24 3.06  27 3.06  29 3.06  30 3.06   9 3.06  17 3.06
                            20 3.06  23 3.06  19 3.06  32 3.06
  32  0.500  0.500  0.000-   9 3.06  15 3.06  20 3.06  25 3.06  26 3.06  28 3.06   2 3.06  10 3.06
                            24 3.06  30 3.06  18 3.06  31 3.06
 
  LATTYP: Found a simple cubic cell.
 ALAT       =     8.6679608100
  
  Lattice vectors:
  
 A1 = (   8.6679608100,   0.0000000000,   0.0000000000)
 A2 = (   0.0000001600,   8.6679608100,   0.0000000000)
 A3 = (   0.0000001600,   0.0000001600,   8.6679608100)
 Subroutine PRICEL returns following result:
 
  LATTYP: Found a face centered cubic cell.
 ALAT       =     4.3339804450
  
  Lattice vectors:
  
 A1 = (   2.1669902425,   2.1669902025,   0.0000000000)
 A2 = (   2.1669901625,  -0.0000000400,  -2.1669902025)
 A3 = (  -0.0000000000,   2.1669901625,  -2.1669902025)
 
  32 primitive cells build up your supercell.
 

Analysis of symmetry for initial positions (statically):

 Routine SETGRP: Setting up the symmetry group for a 
 simple cubic supercell.


 Subroutine GETGRP returns: Found 48 space group operations
 (whereof 48 operations were pure point group operations)
 out of a pool of 48 trial point group operations.


The static configuration has the point symmetry O_h .

Analysis of symmetry for dynamics (positions and initial velocities):

 Subroutine DYNSYM returns: Found 48 space group operations
 (whereof 48 operations were pure point group operations)
 out of a pool of 48 trial space group operations
 (whereof 48 operations were pure point group operations)
 and found also    32 'primitive' translations


The dynamic configuration has the point symmetry O_h .
 
 
 KPOINTS: Automatic mesh                          

Automatic generation of k-mesh.
 
 Subroutine IBZKPT returns following result:
 ===========================================
 
 Found      1 irreducible k-points:
 
 Following reciprocal coordinates:
            Coordinates               Weight
  0.250000  0.250000  0.250000      8.000000
 
 Following cartesian coordinates:
            Coordinates               Weight
  0.028842  0.028842  0.028842      8.000000
 


--------------------------------------------------------------------------------------------------------




 Dimension of arrays:
   k-Points           NKPTS =      1   number of bands    NBANDS=    212
   number of dos      NEDOS =    301   number of ions     NIONS =     32
   non local maximal  LDIM  =      6   non local SUM 2l+1 LMDIM =     18
   total plane-waves  NPLWV =  32768
   max r-space proj   IRMAX =      1   max aug-charges    IRDMAX=   3276
   dimension x,y,z NGX =    32 NGY =   32 NGZ =   32
   dimension x,y,z NGXF=    64 NGYF=   64 NGZF=   64
   support grid    NGXF=    64 NGYF=   64 NGZF=   64
   ions per type =              32
 NGX,Y,Z   is equivalent  to a cutoff of   6.14,  6.14,  6.14 a.u.
 NGXF,Y,Z  is equivalent  to a cutoff of  12.27, 12.27, 12.27 a.u.


 I would recommend the setting:
   dimension x,y,z NGX =    32 NGY =   32 NGZ =   32
 SYSTEM =  No title                                
 POSCAR =  No title                                

 Startparameter for this run:
   NWRITE =      2    write-flag & timer
   PREC   = normal    medium, high low
   ISTART =      0    job   : 0-new  1-cont  2-samecut
   ICHARG =      2    charge: 1-file 2-atom 10-const
   ISPIN  =      1    spin polarized calculation?
   LNONCOLLINEAR =      F non collinear calculations
   LSORBIT =      F    spin-orbit coupling
   INIWAV =      1    electr: 0-lowe 1-rand  2-diag
   LASPH  =      F    aspherical Exc in radial PAW
   METAGGA=      F    non-selfconsistent MetaGGA calc.

 Electronic Relaxation 1
   ENCUT  =  229.9 eV  16.90 Ry    4.11 a.u.  10.72 10.72 10.72*2*pi/ulx,y,z
   ENINI  =  229.9     initial cutoff
   ENAUG  =  356.7 eV  augmentation charge cutoff
   NELM   =     60;   NELMIN=  2; NELMDL= -5     # of ELM steps 
   EDIFF  = 0.1E-04   stopping-criterion for ELM
   LREAL  =      F    real-space projection
   LCOMPAT=      F    compatible to vasp.4.4
   LREAL_COMPAT= F    compatible to vasp.4.5.1-3
   GGA_COMPAT  = T    GGA compatible to vasp.4.4-vasp.4.6
   LMAXPAW     = -100 max onsite density
   LMAXMIX     =    2 max onsite mixed and CHGCAR
   VOSKOWN=      1    Vosko Wilk Nusair interpolation
   ROPT   =    0.00000
 Ionic relaxation
   EDIFFG = -.2E-01   stopping-criterion for IOM
   NSW    =    100    number of steps for IOM
   NBLOCK =      1;   KBLOCK =    100    inner block; outer block 
   IBRION =      2    ionic relax: 0-MD 1-quasi-New 2-CG
   NFREE  =      1    steps in history (QN), initial steepest desc. (CG)
   ISIF   =      2    stress and relaxation
   IWAVPR =     11    prediction:  0-non 1-charg 2-wave 3-comb
   ISYM   =      2    0-nonsym 1-usesym 2-fastsym
   LCORR  =      T    Harris-Foulkes like correction to forces

   POTIM  =   0.50    time-step for ionic-motion
   TEIN   =    0.0    initial temperature
   TEBEG  =    0.0;   TEEND  =   0.0 temperature during run
   SMASS  =  -3.00    Nose mass-parameter (am)
   estimated Nose-frequenzy (Omega)   =  0.10E-29 period in steps =****** mass=  -0.172E-26a.u.
   NPACO  =    256;   APACO  = 16.0  distance and # of slots for P.C.
   PSTRESS=    0.0 pullay stress

  Mass of Ions in am
   POMASS = 196.97
  Ionic Valenz
   ZVAL   =  11.00
  Atomic Wigner-Seitz radii
   RWIGS  =   1.34
   NELECT =     352.0000    total number of electrons
   NUPDOWN=      -1.0000    fix difference up-down

 DOS related values:
   EMIN   =  10.00;   EMAX   =-10.00  energy-range for DOS
   ISMEAR =     1;   SIGMA  =   0.20  broadening in eV -4-tet -1-fermi 0-gaus

 Electronic relaxation 2 (details)
   IALGO  =     38    algorithm
   LDIAG  =      T    sub-space diagonalisation
   IMIX   =      4    mixing-type and parameters
     AMIX     =   0.40;   BMIX     =  1.00
     AMIX_MAG =   1.60;   BMIX_MAG =  1.00
     AMIN     =   0.10
     WC   =   100.;   INIMIX=   1;  MIXPRE=   1

 Intra band minimization:
   WEIMIN = 0.0010     energy-eigenvalue tresh-hold
   EBREAK =  0.12E-07  absolut break condition
   DEPER  =   0.30     relativ break condition  

   TIME   =   0.10     timestep for ELM

  volume/ion in A,a.u.               =      20.35       137.34
  Fermi-wavevector in a.u.,eV,Ry     =   1.333538 24.195567  1.778324

 Second variation
   LSECVAR=     F    do a second variation
 
 Write flags
   LWAVE  =      T    write WAVECAR
   LCHARG =      F    write CHGCAR
   LVTOT  =      F    write LOCPOT, local potential
   LELF   =      F    write electronic localiz. function (ELF)
   LORBIT =      0    0 simple, 1 ext, 2 COOP (PROOUT)


 Dipole corrections
   IDIPOL =      0    1-x, 2-y, 3-z
   LDIPOL =      F    correct potential



--------------------------------------------------------------------------------------------------------


 conjugate gradient relaxation of ions
 charge density will be updated during run
 non-spin polarized calculation
 Variant of blocked Davidson
 Davidson routine will perform the subspace rotation
 performe sub-space diagonalisation
    after iterative eigenvector-optimisation
 modified Broyden-mixing scheme, WC =      100.0
 initial mixing is a Kerker type mixing with AMIX =  0.4000 and BMIX =      1.0000
 Hartree-type preconditioning will be used
 using additional bands           36
 reciprocal scheme for non local part
 use partial core corrections
 calculate Harris-corrections to forces 
   (improved forces if not selfconsistent)
 use gradient corrections 
 use of overlap-Matrix (Vanderbilt PP)
 Methfessel and Paxton  Order N= 1 SIGMA  =   0.20


--------------------------------------------------------------------------------------------------------


  energy-cutoff  :      229.95
  volume of cell :      651.25
      direct lattice vectors                 reciprocal lattice vectors
     8.667960810  0.000000000  0.000000000     0.115367388 -0.000000002 -0.000000002
     0.000000160  8.667960810  0.000000000     0.000000000  0.115367388 -0.000000002
     0.000000160  0.000000160  8.667960810     0.000000000  0.000000000  0.115367388

  length of vectors
     8.667960810  8.667960810  8.667960810     0.115367388  0.115367388  0.115367388


 
 k-points in units of 2pi/SCALE and weight: Automatic mesh                          
   0.02884185  0.02884185  0.02884185       1.000
 
 k-points in reciprocal lattice and weights: Automatic mesh                          
   0.25000000  0.25000000  0.25000000       1.000
 
 position of ions in fractional coordinates (direct lattice) 
   0.75000000  0.75000000  0.50000000
   0.75000000  0.75000000  0.00000000
   0.75000000  0.00000000  0.25000000
   0.75000000  0.25000000  0.50000000
   0.00000000  0.75000000  0.25000000
   0.00000000  0.00000000  0.50000000
   0.25000000  0.75000000  0.50000000
   0.75000000  0.00000000  0.75000000
   0.75000000  0.25000000  0.00000000
   0.75000000  0.50000000  0.25000000
   0.00000000  0.75000000  0.75000000
   0.00000000  0.00000000  0.00000000
   0.00000000  0.25000000  0.25000000
   0.00000000  0.50000000  0.50000000
   0.25000000  0.75000000  0.00000000
   0.25000000  0.00000000  0.25000000
   0.25000000  0.25000000  0.50000000
   0.50000000  0.75000000  0.25000000
   0.50000000  0.00000000  0.50000000
   0.75000000  0.50000000  0.75000000
   0.00000000  0.25000000  0.75000000
   0.00000000  0.50000000  0.00000000
   0.25000000  0.00000000  0.75000000
   0.25000000  0.25000000  0.00000000
   0.25000000  0.50000000  0.25000000
   0.50000000  0.75000000  0.75000000
   0.50000000  0.00000000  0.00000000
   0.50000000  0.25000000  0.25000000
   0.50000000  0.50000000  0.50000000
   0.25000000  0.50000000  0.75000000
   0.50000000  0.25000000  0.75000000
   0.50000000  0.50000000  0.00000000
 
 position of ions in cartesian coordinates  (Angst):
   6.50097081  6.50097069  4.33398041
   6.50097073  6.50097061  0.00000000
   6.50097065  0.00000004  2.16699020
   6.50097073  2.16699028  4.33398041
   0.00000016  6.50097065  2.16699020
   0.00000008  0.00000008  4.33398041
   2.16699040  6.50097069  4.33398041
   6.50097073  0.00000012  6.50097061
   6.50097065  2.16699020  0.00000000
   6.50097073  4.33398044  2.16699020
   0.00000024  6.50097073  6.50097061
   0.00000000  0.00000000  0.00000000
   0.00000008  2.16699024  2.16699020
   0.00000016  4.33398049  4.33398041
   2.16699032  6.50097061  0.00000000
   2.16699024  0.00000004  2.16699020
   2.16699032  2.16699028  4.33398041
   4.33398057  6.50097065  2.16699020
   4.33398049  0.00000008  4.33398041
   6.50097081  4.33398053  6.50097061
   0.00000016  2.16699032  6.50097061
   0.00000008  4.33398041  0.00000000
   2.16699032  0.00000012  6.50097061
   2.16699024  2.16699020  0.00000000
   2.16699032  4.33398044  2.16699020
   4.33398065  6.50097073  6.50097061
   4.33398041  0.00000000  0.00000000
   4.33398048  2.16699024  2.16699020
   4.33398057  4.33398049  4.33398041
   2.16699040  4.33398053  6.50097061
   4.33398057  2.16699032  6.50097061
   4.33398049  4.33398041  0.00000000
 


--------------------------------------------------------------------------------------------------------


 k-point  1 :  0.25000.25000.2500  plane waves:   5166

 maximum and minimum number of plane-waves per node :   5166  5166

 maximum number of plane-waves:   5166
 maximal index in each direction: 
   IXMAX= 10   IYMAX= 10   IZMAX= 10
   IXMIN=-10   IYMIN=-10   IZMIN=-10

 WARNING: wrap around error must be expected set NGX to  42
 WARNING: wrap around error must be expected set NGY to  42
 WARNING: wrap around error must be expected set NGZ to  42

 parallel 3dFFT wavefunction:
    minimum data exchange during FFTs selected (reduces bandwidth)
 parallel 3dFFT charge:
    minimum data exchange during FFTs selected (reduces bandwidth)

 For storing wavefunctions   17.52 MBYTES are necessary
 For predicting wavefunctions   39.87 MBYTES are necessary
Broyden mixing: mesh for mixing (old mesh)
   NGX = 21   NGY = 21   NGZ = 21
  (NGX  = 64   NGY  = 64   NGZ  = 64)
 gives a total of   9261 points
 initial charge density was supplied:
 charge density of overlapping atoms calculated
 number of electron  352.0000000 magnetization 
 keeping initial charge density in first step


--------------------------------------------------------------------------------------------------------


 Maximum index for augmentation-charges          717 (set IRDMAX)


--------------------------------------------------------------------------------------------------------


 First call to EWALD:  gamma=   0.204
 Maximum number of real-space cells 3x 3x 3
 Maximum number of reciprocal cells 3x 3x 3

    FEWALD:  VPU time    0.01: CPU time    0.01


----------------------------------------- Iteration    1(   1)  ---------------------------------------


    POTLOK:  VPU time    0.09: CPU time    0.09
    SETDIJ:  VPU time    0.03: CPU time    0.03
    EDDAV :  VPU time    2.93: CPU time    2.94
    DOS   :  VPU time   -0.00: CPU time   -0.00
    ------------------------------------------
      LOOP:  VPU time    3.05: CPU time    3.06

 eigenvalue-minimisations  :   432
 total energy-change (2. order) : 0.1888526E+04  (-0.1071441E+05)
 number of electron  352.0000000 magnetization 
 augmentation part   352.0000000 magnetization 

 Free energy of the ion-electron system (eV)
  ---------------------------------------------------
  alpha Z        PSCENC =      2944.72857511
  Ewald energy   TEWEN  =    -29491.76803322
  -1/2 Hartree   DENC   =     -4719.10190695
  -V(xc)+E(xc)   XCENC  =       473.49410277
  PAW double counting   =     23920.39735419   -23172.13309131
  entropy T*S    EENTRO =        -0.04302613
  eigenvalues    EBANDS =      2301.40177440
  atomic energy  EATOM  =     29631.55017626
  ---------------------------------------------------
  free energy    TOTEN  =      1888.52592513 eV

  energy without entropy =     1888.56895126  energy(sigma->0) =     1888.54026717


--------------------------------------------------------------------------------------------------------




----------------------------------------- Iteration    1(   2)  ---------------------------------------


    EDDAV :  VPU time    3.04: CPU time    3.05
    DOS   :  VPU time    0.00: CPU time   -0.00
    ------------------------------------------
      LOOP:  VPU time    3.05: CPU time    3.06

 eigenvalue-minimisations  :   444
 total energy-change (2. order) :-0.1897045E+04  (-0.1790152E+04)
 number of electron  352.0000000 magnetization 
 augmentation part   352.0000000 magnetization 

 Free energy of the ion-electron system (eV)
  ---------------------------------------------------
  alpha Z        PSCENC =      2944.72857511
  Ewald energy   TEWEN  =    -29491.76803322
  -1/2 Hartree   DENC   =     -4719.10190695
  -V(xc)+E(xc)   XCENC  =       473.49410277
  PAW double counting   =     23920.39735419   -23172.13309131
  entropy T*S    EENTRO =         0.02047828
  eigenvalues    EBANDS =       404.29287260
  atomic energy  EATOM  =     29631.55017626
  ---------------------------------------------------
  free energy    TOTEN  =        -8.51947225 eV

  energy without entropy =       -8.53995054  energy(sigma->0) =       -8.52629835


--------------------------------------------------------------------------------------------------------




----------------------------------------- Iteration    1(   3)  ---------------------------------------


    EDDAV :  VPU time    3.18: CPU time    3.19
    DOS   :  VPU time    0.00: CPU time   -0.00
    ------------------------------------------
      LOOP:  VPU time    3.19: CPU time    3.20

 eigenvalue-minimisations  :   480
 total energy-change (2. order) :-0.9755286E+02  (-0.9269819E+02)
 number of electron  352.0000000 magnetization 
 augmentation part   352.0000000 magnetization 

 Free energy of the ion-electron system (eV)
  ---------------------------------------------------
  alpha Z        PSCENC =      2944.72857511
  Ewald energy   TEWEN  =    -29491.76803322
  -1/2 Hartree   DENC   =     -4719.10190695
  -V(xc)+E(xc)   XCENC  =       473.49410277
  PAW double counting   =     23920.39735419   -23172.13309131
  entropy T*S    EENTRO =        -0.13894603
  eigenvalues    EBANDS =       306.89944141
  atomic energy  EATOM  =     29631.55017626
  ---------------------------------------------------
  free energy    TOTEN  =      -106.07232777 eV

  energy without entropy =     -105.93338173  energy(sigma->0) =     -106.02601242


--------------------------------------------------------------------------------------------------------




----------------------------------------- Iteration    1(   4)  ---------------------------------------


    EDDAV :  VPU time    3.01: CPU time    3.02
    DOS   :  VPU time    0.00: CPU time   -0.00
    ------------------------------------------
      LOOP:  VPU time    3.02: CPU time    3.03

 eigenvalue-minimisations  :   448
 total energy-change (2. order) :-0.1887311E+01  (-0.1876606E+01)
 number of electron  352.0000000 magnetization 
 augmentation part   352.0000000 magnetization 

 Free energy of the ion-electron system (eV)
  ---------------------------------------------------
  alpha Z        PSCENC =      2944.72857511
  Ewald energy   TEWEN  =    -29491.76803322
  -1/2 Hartree   DENC   =     -4719.10190695
  -V(xc)+E(xc)   XCENC  =       473.49410277
  PAW double counting   =     23920.39735419   -23172.13309131
  entropy T*S    EENTRO =        -0.13886309
  eigenvalues    EBANDS =       305.01204739
  atomic energy  EATOM  =     29631.55017626
  ---------------------------------------------------
  free energy    TOTEN  =      -107.95963884 eV

  energy without entropy =     -107.82077575  energy(sigma->0) =     -107.91335115


--------------------------------------------------------------------------------------------------------




----------------------------------------- Iteration    1(   5)  ---------------------------------------


    EDDAV :  VPU time    3.06: CPU time    3.07
    DOS   :  VPU time   -0.00: CPU time   -0.00
    CHARGE:  VPU time    0.11: CPU time    0.11
    MIXING:  VPU time    0.00: CPU time    0.00
    ------------------------------------------
      LOOP:  VPU time    3.18: CPU time    3.19

 eigenvalue-minimisations  :   460
 total energy-change (2. order) :-0.4010910E-01  (-0.4009458E-01)
 number of electron  351.9996075 magnetization 
 augmentation part   125.0182918 magnetization 

 Broyden mixing:
  rms(total) = 0.14773E+01    rms(broyden)= 0.14761E+01
  rms(prec ) = 0.22579E+01
  weight for this iteration     100.00

 Free energy of the ion-electron system (eV)
  ---------------------------------------------------
  alpha Z        PSCENC =      2944.72857511
  Ewald energy   TEWEN  =    -29491.76803322
  -1/2 Hartree   DENC   =     -4719.10190695
  -V(xc)+E(xc)   XCENC  =       473.49410277
  PAW double counting   =     23920.39735419   -23172.13309131
  entropy T*S    EENTRO =        -0.13888730
  eigenvalues    EBANDS =       304.97196250
  atomic energy  EATOM  =     29631.55017626
  ---------------------------------------------------
  free energy    TOTEN  =      -107.99974794 eV

  energy without entropy =     -107.86086064  energy(sigma->0) =     -107.95345217


--------------------------------------------------------------------------------------------------------




----------------------------------------- Iteration    1(   6)  ---------------------------------------


    POTLOK:  VPU time    0.09: CPU time    0.09
    SETDIJ:  VPU time    0.03: CPU time    0.03
    EDDAV :  VPU time    2.98: CPU time    2.98
    DOS   :  VPU time    0.00: CPU time   -0.00
    CHARGE:  VPU time    0.11: CPU time    0.11
    MIXING:  VPU time    0.00: CPU time    0.00
    ------------------------------------------
      LOOP:  VPU time    3.21: CPU time    3.22

 eigenvalue-minimisations  :   444
 total energy-change (2. order) : 0.6598706E+01  (-0.1980915E+01)
 number of electron  351.9995950 magnetization 
 augmentation part   129.2403328 magnetization 

 Broyden mixing:
  rms(total) = 0.36984E+00    rms(broyden)= 0.36963E+00
  rms(prec ) = 0.52849E+00
  weight for this iteration     100.00

 eigenvalues of (default mixing * dielectric matrix)
  average eigenvalue GAMMA=   1.1682
  1.1682

 Free energy of the ion-electron system (eV)
  ---------------------------------------------------
  alpha Z        PSCENC =      2944.72857511
  Ewald energy   TEWEN  =    -29491.76803322
  -1/2 Hartree   DENC   =     -4476.01674129
  -V(xc)+E(xc)   XCENC  =       462.67295626
  PAW double counting   =     23504.37355929   -22785.81162897
  entropy T*S    EENTRO =        -0.17182394
  eigenvalues    EBANDS =       109.04191860
  atomic energy  EATOM  =     29631.55017626
  ---------------------------------------------------
  free energy    TOTEN  =      -101.40104191 eV

  energy without entropy =     -101.22921797  energy(sigma->0) =     -101.34376726


--------------------------------------------------------------------------------------------------------




----------------------------------------- Iteration    1(   7)  ---------------------------------------


    POTLOK:  VPU time    0.08: CPU time    0.09
    SETDIJ:  VPU time    0.03: CPU time    0.03
    EDDAV :  VPU time    3.06: CPU time    3.07
    DOS   :  VPU time    0.00: CPU time   -0.00
    CHARGE:  VPU time    0.11: CPU time    0.11
    MIXING:  VPU time    0.00: CPU time    0.00
    ------------------------------------------
      LOOP:  VPU time    3.29: CPU time    3.30

 eigenvalue-minimisations  :   460
 total energy-change (2. order) : 0.2974745E+00  (-0.9285854E-01)
 number of electron  351.9995924 magnetization 
 augmentation part   130.0869572 magnetization 

 Broyden mixing:
  rms(total) = 0.17614E+00    rms(broyden)= 0.17608E+00
  rms(prec ) = 0.20597E+00
  weight for this iteration     100.00

 eigenvalues of (default mixing * dielectric matrix)
  average eigenvalue GAMMA=   1.8448
  1.1741  2.5155

 Free energy of the ion-electron system (eV)
  ---------------------------------------------------
  alpha Z        PSCENC =      2944.72857511
  Ewald energy   TEWEN  =    -29491.76803322
  -1/2 Hartree   DENC   =     -4415.46811049
  -V(xc)+E(xc)   XCENC  =       459.83528181
  PAW double counting   =     23471.68605148   -22769.67015789
  entropy T*S    EENTRO =        -0.17253804
  eigenvalues    EBANDS =        68.17518754
  atomic energy  EATOM  =     29631.55017626
  ---------------------------------------------------
  free energy    TOTEN  =      -101.10356745 eV

  energy without entropy =     -100.93102941  energy(sigma->0) =     -101.04605477


--------------------------------------------------------------------------------------------------------




----------------------------------------- Iteration    1(   8)  ---------------------------------------


    POTLOK:  VPU time    0.08: CPU time    0.09
    SETDIJ:  VPU time    0.03: CPU time    0.03
    EDDAV :  VPU time    2.94: CPU time    2.95
    DOS   :  VPU time    0.00: CPU time   -0.00
    CHARGE:  VPU time    0.11: CPU time    0.11
    MIXING:  VPU time    0.00: CPU time    0.00
    ------------------------------------------
      LOOP:  VPU time    3.18: CPU time    3.19

 eigenvalue-minimisations  :   440
 total energy-change (2. order) : 0.6641958E-01  (-0.3792236E-02)
 number of electron  351.9995924 magnetization 
 augmentation part   130.0769584 magnetization 

 Broyden mixing:
  rms(total) = 0.12650E-01    rms(broyden)= 0.12633E-01
  rms(prec ) = 0.17224E-01
  weight for this iteration     100.00

 eigenvalues of (default mixing * dielectric matrix)
  average eigenvalue GAMMA=   1.8152
  2.6245  1.2020  1.6190

 Free energy of the ion-electron system (eV)
  ---------------------------------------------------
  alpha Z        PSCENC =      2944.72857511
  Ewald energy   TEWEN  =    -29491.76803322
  -1/2 Hartree   DENC   =     -4392.06770926
  -V(xc)+E(xc)   XCENC  =       458.56822975
  PAW double counting   =     23553.17287243   -22866.58367548
  entropy T*S    EENTRO =        -0.17256024
  eigenvalues    EBANDS =        61.53497677
  atomic energy  EATOM  =     29631.55017626
  ---------------------------------------------------
  free energy    TOTEN  =      -101.03714788 eV

  energy without entropy =     -100.86458763  energy(sigma->0) =     -100.97962780


--------------------------------------------------------------------------------------------------------




----------------------------------------- Iteration    1(   9)  ---------------------------------------


    POTLOK:  VPU time    0.09: CPU time    0.09
    SETDIJ:  VPU time    0.03: CPU time    0.03
    EDDAV :  VPU time    2.99: CPU time    3.00
    DOS   :  VPU time    0.00: CPU time   -0.00
    CHARGE:  VPU time    0.11: CPU time    0.11
    MIXING:  VPU time    0.00: CPU time    0.00
    ------------------------------------------
      LOOP:  VPU time    3.23: CPU time    3.24

 eigenvalue-minimisations  :   448
 total energy-change (2. order) : 0.3247853E-05  (-0.4766725E-03)
 number of electron  351.9995922 magnetization 
 augmentation part   130.1409895 magnetization 

 Broyden mixing:
  rms(total) = 0.78965E-02    rms(broyden)= 0.78902E-02
  rms(prec ) = 0.11150E-01
  weight for this iteration     100.00

 eigenvalues of (default mixing * dielectric matrix)
  average eigenvalue GAMMA=   1.7993
  2.6038  2.4753  0.9970  1.1211

 Free energy of the ion-electron system (eV)
  ---------------------------------------------------
  alpha Z        PSCENC =      2944.72857511
  Ewald energy   TEWEN  =    -29491.76803322
  -1/2 Hartree   DENC   =     -4389.15368245
  -V(xc)+E(xc)   XCENC  =       458.43066762
  PAW double counting   =     23556.28257090   -22869.33752284
  entropy T*S    EENTRO =        -0.17259355
  eigenvalues    EBANDS =        58.40269753
  atomic energy  EATOM  =     29631.55017626
  ---------------------------------------------------
  free energy    TOTEN  =      -101.03714463 eV

  energy without entropy =     -100.86455108  energy(sigma->0) =     -100.97961345


--------------------------------------------------------------------------------------------------------




----------------------------------------- Iteration    1(  10)  ---------------------------------------


    POTLOK:  VPU time    0.09: CPU time    0.09
    SETDIJ:  VPU time    0.03: CPU time    0.03
    EDDAV :  VPU time    2.94: CPU time    2.95
    DOS   :  VPU time    0.00: CPU time   -0.00
    CHARGE:  VPU time    0.11: CPU time    0.11
    MIXING:  VPU time    0.00: CPU time    0.00
    ------------------------------------------
      LOOP:  VPU time    3.18: CPU time    3.19

 eigenvalue-minimisations  :   440
 total energy-change (2. order) : 0.1864906E-04  (-0.5029194E-04)
 number of electron  351.9995923 magnetization 
 augmentation part   130.1266307 magnetization 

 Broyden mixing:
  rms(total) = 0.87591E-03    rms(broyden)= 0.87542E-03
  rms(prec ) = 0.11653E-02
  weight for this iteration     100.00

 eigenvalues of (default mixing * dielectric matrix)
  average eigenvalue GAMMA=   1.7819
  2.8670  2.4507  1.0815  1.0815  1.4289

 Free energy of the ion-electron system (eV)
  ---------------------------------------------------
  alpha Z        PSCENC =      2944.72857511
  Ewald energy   TEWEN  =    -29491.76803322
  -1/2 Hartree   DENC   =     -4390.61831404
  -V(xc)+E(xc)   XCENC  =       458.48766863
  PAW double counting   =     23564.57496788   -22876.96971055
  entropy T*S    EENTRO =        -0.17258211
  eigenvalues    EBANDS =        59.15012605
  atomic energy  EATOM  =     29631.55017626
  ---------------------------------------------------
  free energy    TOTEN  =      -101.03712598 eV

  energy without entropy =     -100.86454387  energy(sigma->0) =     -100.97959861


--------------------------------------------------------------------------------------------------------




----------------------------------------- Iteration    1(  11)  ---------------------------------------


    POTLOK:  VPU time    0.09: CPU time    0.09
    SETDIJ:  VPU time    0.03: CPU time    0.03
    EDDAV :  VPU time    1.95: CPU time    1.95
    DOS   :  VPU time    0.00: CPU time   -0.00
    ------------------------------------------
      LOOP:  VPU time    2.07: CPU time    2.08

 eigenvalue-minimisations  :   244
 total energy-change (2. order) :-0.6049995E-05  (-0.1411880E-05)
 number of electron  351.9995923 magnetization 
 augmentation part   130.1266307 magnetization 

 Free energy of the ion-electron system (eV)
  ---------------------------------------------------
  alpha Z        PSCENC =      2944.72857511
  Ewald energy   TEWEN  =    -29491.76803322
  -1/2 Hartree   DENC   =     -4390.72838561
  -V(xc)+E(xc)   XCENC  =       458.49105383
  PAW double counting   =     23565.27880965   -22877.64873768
  entropy T*S    EENTRO =        -0.17258062
  eigenvalues    EBANDS =        59.23199026
  atomic energy  EATOM  =     29631.55017626
  ---------------------------------------------------
  free energy    TOTEN  =      -101.03713203 eV

  energy without entropy =     -100.86455141  energy(sigma->0) =     -100.97960516


--------------------------------------------------------------------------------------------------------




 average (electrostatic) potential at core
  the test charge radii are     1.2098
  (the norm of the test charge is              1.0000)
       1 -47.0223       2 -47.0223       3 -47.0223       4 -47.0223       5 -47.0223
       6 -47.0223       7 -47.0223       8 -47.0223       9 -47.0223      10 -47.0223
      11 -47.0223      12 -47.0223      13 -47.0223      14 -47.0223      15 -47.0223
      16 -47.0223      17 -47.0223      18 -47.0223      19 -47.0223      20 -47.0223
      21 -47.0223      22 -47.0223      23 -47.0223      24 -47.0223      25 -47.0223
      26 -47.0223      27 -47.0223      28 -47.0223      29 -47.0223      30 -47.0223
      31 -47.0223      32 -47.0223
 
 
 
 E-fermi :   3.5230     XC(G=0): -11.6701     alpha+bet : -8.5271
   add alpha+bet to get absolut eigen values

 k-point   1 :       0.2500    0.2500    0.2500
  band No.  band energies     occupation 
      1      -3.9867      2.00000
      2      -2.8952      2.00000
      3      -2.8952      2.00000
      4      -2.8952      2.00000
      5      -2.2431      2.00000
      6      -2.1744      2.00000
      7      -2.1744      2.00000
      8      -2.1744      2.00000
      9      -1.8921      2.00000
     10      -1.8921      2.00000
     11      -1.8921      2.00000
     12      -1.7380      2.00000
     13      -1.7380      2.00000
     14      -1.7380      2.00000
     15      -1.6812      2.00000
     16      -1.6812      2.00000
     17      -1.6812      2.00000
     18      -1.4911      2.00000
     19      -1.4911      2.00000
     20      -1.4911      2.00000
     21      -1.3758      2.00000
     22      -1.3758      2.00000
     23      -1.3758      2.00000
     24      -1.3758      2.00000
     25      -1.3758      2.00000
     26      -1.3758      2.00000
     27      -1.2890      2.00000
     28      -1.2890      2.00000
     29      -1.2890      2.00000
     30      -1.2345      2.00000
     31      -1.2345      2.00000
     32      -1.2345      2.00000
     33      -1.2345      2.00000
     34      -1.2345      2.00000
     35      -1.2345      2.00000
     36      -1.1314      2.00000
     37      -1.1314      2.00000
     38      -1.1314      2.00000
     39      -0.8897      2.00000
     40      -0.8897      2.00000
     41      -0.8897      2.00000
     42      -0.8897      2.00000
     43      -0.8897      2.00000
     44      -0.8897      2.00000
     45      -0.6331      2.00000
     46      -0.6331      2.00000
     47      -0.6331      2.00000
     48      -0.5586      2.00000
     49      -0.5586      2.00000
     50      -0.5586      2.00000
     51      -0.5009      2.00000
     52      -0.5009      2.00000
     53      -0.5009      2.00000
     54      -0.5009      2.00000
     55      -0.5009      2.00000
     56      -0.5009      2.00000
     57      -0.3858      2.00000
     58      -0.3858      2.00000
     59      -0.3858      2.00000
     60      -0.3669      2.00000
     61      -0.3669      2.00000
     62      -0.3669      2.00000
     63      -0.3508      2.00000
     64      -0.3508      2.00000
     65      -0.3508      2.00000
     66      -0.3508      2.00000
     67      -0.3508      2.00000
     68      -0.3508      2.00000
     69      -0.2929      2.00000
     70      -0.1279      2.00000
     71      -0.1279      2.00000
     72      -0.0683      2.00000
     73      -0.0683      2.00000
     74      -0.0141      2.00000
     75      -0.0141      2.00000
     76      -0.0141      2.00000
     77       0.0162      2.00000
     78       0.0162      2.00000
     79       0.0162      2.00000
     80       0.0162      2.00000
     81       0.0162      2.00000
     82       0.0162      2.00000
     83       0.0359      2.00000
     84       0.0359      2.00000
     85       0.0359      2.00000
     86       0.0775      2.00000
     87       0.0775      2.00000
     88       0.0775      2.00000
     89       0.1111      2.00000
     90       0.1111      2.00000
     91       0.1111      2.00000
     92       0.1876      2.00000
     93       0.1876      2.00000
     94       0.1876      2.00000
     95       0.2359      2.00000
     96       0.2359      2.00000
     97       0.2359      2.00000
     98       0.2547      2.00000
     99       0.2547      2.00000
    100       0.2547      2.00000
    101       0.5664      2.00000
    102       0.5664      2.00000
    103       0.5664      2.00000
    104       0.6025      2.00000
    105       0.6025      2.00000
    106       0.6025      2.00000
    107       0.6025      2.00000
    108       0.6025      2.00000
    109       0.6025      2.00000
    110       0.7796      2.00000
    111       0.7796      2.00000
    112       0.7796      2.00000
    113       0.8102      2.00000
    114       0.8102      2.00000
    115       0.8102      2.00000
    116       0.8537      2.00000
    117       0.8537      2.00000
    118       0.8537      2.00000
    119       0.8569      2.00000
    120       0.8569      2.00000
    121       0.8569      2.00000
    122       0.8764      2.00000
    123       0.8764      2.00000
    124       1.0050      2.00000
    125       1.0050      2.00000
    126       1.0050      2.00000
    127       1.0050      2.00000
    128       1.0050      2.00000
    129       1.0050      2.00000
    130       1.2179      2.00000
    131       1.2179      2.00000
    132       1.2179      2.00000
    133       1.2629      2.00000
    134       1.2668      2.00000
    135       1.2668      2.00000
    136       1.2668      2.00000
    137       1.4579      2.00000
    138       1.4579      2.00000
    139       1.4579      2.00000
    140       1.4618      2.00000
    141       1.4618      2.00000
    142       1.4618      2.00000
    143       1.4618      2.00000
    144       1.4618      2.00000
    145       1.4618      2.00000
    146       1.5057      2.00000
    147       1.5057      2.00000
    148       1.5057      2.00000
    149       1.5407      2.00000
    150       1.5407      2.00000
    151       1.6690      2.00000
    152       1.6690      2.00000
    153       1.6690      2.00000
    154       1.8133      2.00000
    155       1.8133      2.00000
    156       1.8133      2.00000
    157       1.8350      2.00000
    158       1.8350      2.00000
    159       1.8350      2.00000
    160       1.8350      2.00000
    161       1.8350      2.00000
    162       1.8350      2.00000
    163       1.8845      2.00000
    164       1.8845      2.00000
    165       1.8845      2.00000
    166       1.9324      2.00000
    167       1.9324      2.00000
    168       1.9324      2.00000
    169       2.0146      2.00000
    170       2.0146      2.00000
    171       2.0146      2.00000
    172       3.4356      1.66679
    173       3.4356      1.66679
    174       3.4356      1.66679
    175       3.4356      1.66679
    176       3.4356      1.66679
    177       3.4356      1.66679
    178       4.1142     -0.00024
    179       4.1142     -0.00024
    180       4.1142     -0.00024
    181       4.8084     -0.00000
    182       4.8084     -0.00000
    183       4.8084     -0.00000
    184       5.2796     -0.00000
    185       5.2796     -0.00000
    186       5.2796     -0.00000
    187       6.3108     -0.00000
    188       6.3108     -0.00000
    189       6.3108     -0.00000
    190       6.3108     -0.00000
    191       6.3108     -0.00000
    192       6.3108     -0.00000
    193       6.6744     -0.00000
    194       6.6744     -0.00000
    195       6.6744     -0.00000
    196       7.9374     -0.00000
    197       7.9374     -0.00000
    198       7.9374     -0.00000
    199       8.4024     -0.00000
    200       8.4024     -0.00000
    201       8.4024     -0.00000
    202       8.4024     -0.00000
    203       8.4024     -0.00000
    204       8.4024     -0.00000
    205       9.1109      0.00000
    206       9.4031      0.00000
    207       9.4031      0.00000
    208       9.4031      0.00000
    209       9.9175      0.00000
    210       9.9175      0.00000
    211       9.9175      0.00000
    212       9.9175      0.00000


--------------------------------------------------------------------------------------------------------


 soft charge-density along one line, spin component           1
         0         1         2         3         4         5         6         7         8         9
 total charge-density along one line
 
 pseudopotential strength for first ion, spin component:           1
-10.442   0.000  -0.000   0.000  -0.000  -0.012  -0.000   0.000
  0.000 -10.442   0.000   0.000  -0.000  -0.000  -0.012  -0.000
 -0.000   0.000 -10.432   0.000  -0.000   0.000  -0.000  -0.013
  0.000   0.000   0.000 -10.442   0.000  -0.000  -0.000  -0.000
 -0.000  -0.000  -0.000   0.000 -10.432   0.000   0.000   0.000
 -0.012  -0.000   0.000  -0.000   0.000   0.272   0.000  -0.000
 -0.000  -0.012  -0.000  -0.000   0.000   0.000   0.272   0.000
  0.000  -0.000  -0.013  -0.000   0.000  -0.000   0.000   0.272
 -0.000  -0.000  -0.000  -0.012  -0.000   0.000   0.000   0.000
  0.000   0.000   0.000  -0.000  -0.013  -0.000  -0.000  -0.000
 -0.000  -0.000  -0.000  -0.000  -0.000   0.000   0.000  -0.000
  0.000   0.000   0.000   0.000   0.000  -0.000  -0.000  -0.000
  0.000  -0.000  -0.000  -0.000  -0.000  -0.000   0.000   0.000
 -0.000   0.000  -0.000   0.000   0.000   0.000  -0.000   0.000
  0.000  -0.000  -0.000  -0.000   0.000  -0.000   0.000   0.000
 -0.000   0.000   0.000   0.000   0.000   0.000  -0.000  -0.000
  0.000  -0.000   0.000  -0.000  -0.000  -0.000   0.000  -0.000
 -0.000   0.000   0.000   0.000  -0.000   0.000  -0.000  -0.000
 total augmentation occupancy for first ion, spin component:           1
  1.912  -0.009  -0.003  -0.009  -0.000  -0.084   0.008  -0.001   0.008  -0.000   0.011  -0.000  -0.000   0.000  -0.000  -0.000
 -0.009   1.912   0.001  -0.009  -0.002   0.008  -0.084   0.001   0.008  -0.001   0.011  -0.000  -0.000  -0.000   0.000   0.000
 -0.003   0.001   1.951   0.001  -0.000  -0.001   0.001  -0.115   0.001  -0.000  -0.000  -0.000  -0.000   0.000  -0.000  -0.000
 -0.009  -0.009   0.001   1.912   0.002   0.008   0.008   0.001  -0.084   0.001   0.011  -0.000   0.000   0.000  -0.000   0.000
 -0.000  -0.002  -0.000   0.002   1.951  -0.000  -0.001  -0.000   0.001  -0.115   0.000   0.000   0.000  -0.000   0.000   0.000
 -0.084   0.008  -0.001   0.008  -0.000   0.122  -0.006   0.006  -0.006   0.000  -0.002   0.003   0.000  -0.000   0.000   0.000
  0.008  -0.084   0.001   0.008  -0.001  -0.006   0.122  -0.003  -0.006   0.006  -0.002   0.003   0.000  -0.000  -0.000   0.000
 -0.001   0.001  -0.115   0.001  -0.000   0.006  -0.003   0.097  -0.003   0.000   0.000   0.000  -0.000  -0.000   0.000   0.000
  0.008   0.008   0.001  -0.084   0.001  -0.006  -0.006  -0.003   0.122  -0.006  -0.002   0.003  -0.000   0.000   0.000  -0.000
 -0.000  -0.001  -0.000   0.001  -0.115   0.000   0.006   0.000  -0.006   0.097  -0.000  -0.000  -0.000  -0.000  -0.000  -0.000
  0.011   0.011  -0.000   0.011   0.000  -0.002  -0.002   0.000  -0.002  -0.000   1.021  -0.282   0.000   0.000  -0.000   0.000
 -0.000  -0.000  -0.000  -0.000   0.000   0.003   0.003   0.000   0.003  -0.000  -0.282   0.165  -0.000   0.000  -0.000  -0.000
 -0.000  -0.000  -0.000   0.000   0.000   0.000   0.000  -0.000  -0.000  -0.000   0.000  -0.000   0.105   0.002   0.002  -0.008
  0.000  -0.000   0.000   0.000  -0.000  -0.000  -0.000  -0.000   0.000  -0.000   0.000   0.000   0.002   0.105   0.002  -0.000
 -0.000   0.000  -0.000  -0.000   0.000   0.000  -0.000   0.000   0.000  -0.000  -0.000  -0.000   0.002   0.002   0.105  -0.000
 -0.000   0.000  -0.000   0.000   0.000   0.000   0.000   0.000  -0.000  -0.000   0.000  -0.000  -0.008  -0.000  -0.000   0.001
  0.000  -0.000   0.000   0.000  -0.000  -0.000   0.000  -0.000  -0.000   0.000  -0.000   0.000  -0.000  -0.008  -0.000   0.000
  0.000   0.000   0.000  -0.000   0.000  -0.000  -0.000  -0.000   0.000  -0.000  -0.000  -0.000  -0.000  -0.000  -0.008   0.000


------------------------ aborting loop because EDIFF is reached ----------------------------------------




--------------------------------------------------------------------------------------------------------


    CHARGE:  VPU time    0.11: CPU time    0.11
    FORLOC:  VPU time    0.01: CPU time    0.01
    FORNL :  VPU time    1.46: CPU time    1.46
    STRESS:  VPU time    2.04: CPU time    2.04
    FORCOR:  VPU time    0.10: CPU time    0.10
    FORHAR:  VPU time    0.03: CPU time    0.03
    MIXING:  VPU time    0.00: CPU time    0.00


--------------------------------------------------------------------------------------------------------



  FREE ENERGIE OF THE ION-ELECTRON SYSTEM (eV)
  ---------------------------------------------------
  free  energy   TOTEN  =      -101.037132 eV

  energy  without entropy=     -100.864551  energy(sigma->0) =     -100.979605
 

  FORCE on cell =-STRESS in cart. coord.  units (eV/reduce length):
  Direction    X        Y        Z        XY       YZ       ZX
  --------------------------------------------------------------------------------------
  Alpha Z   2944.73   2944.73   2944.73
  Ewald    -9830.63  -9830.63  -9830.63     -0.00     -0.00     -0.00
  Hartree   1463.56   1463.56   1463.56     -0.00     -0.00     -0.00
  E(xc)    -1577.03  -1577.03  -1577.03     -0.00     -0.00     -0.00
  Local     2369.67   2369.67   2369.67      0.00      0.00      0.00
  n-local  -1676.67  -1676.67  -1676.67      8.74      8.74      8.74
  augment   1375.18   1375.18   1375.18     -0.00     -0.00     -0.00
  Kinetic   4881.06   4881.06   4881.06     -5.61     -5.61     -5.61
  -------------------------------------------------------------------------------------
  Total      -50.11    -50.11    -50.11     -0.00     -0.00     -0.00
  in kB     -123.29   -123.29   -123.29     -0.00     -0.00     -0.00
  external pressure =     -123.29 kB  Pullay stress =        0.00 kB


 VOLUME and BASIS-vectors are now :
 -----------------------------------------------------------------------------
  energy-cutoff  :      229.95
  volume of cell :      651.25
      direct lattice vectors                 reciprocal lattice vectors
     8.667960810  0.000000000  0.000000000     0.115367388 -0.000000002 -0.000000002
     0.000000160  8.667960810  0.000000000     0.000000000  0.115367388 -0.000000002
     0.000000160  0.000000160  8.667960810     0.000000000  0.000000000  0.115367388

  length of vectors
     8.667960810  8.667960810  8.667960810     0.115367388  0.115367388  0.115367388


 FORCES acting on ions
    electron-ion (+dipol)            ewald-force                    non-local-force                 convergence-correction
 -----------------------------------------------------------------------------------------------
   0.272E-12 0.104E-11 0.423E-11   -.870E-13 0.107E-13 -.178E-12   0.232E-22 -.469E-22 0.265E-22   0.440E-13 -.158E-12 -.446E-12
   0.266E-12 -.547E-11 -.623E-12   -.222E-13 -.266E-13 -.214E-12   0.886E-22 0.712E-22 -.733E-22   -.870E-13 -.941E-12 0.387E-12
   0.265E-12 0.884E-14 0.464E-12   0.533E-14 -.864E-14 -.121E-12   -.729E-22 -.504E-23 0.106E-21   0.107E-12 -.281E-12 0.841E-12
   0.275E-12 -.766E-12 -.191E-11   0.311E-14 0.711E-13 -.202E-12   -.143E-23 -.109E-21 0.000E+00   0.293E-13 0.154E-12 -.431E-12
   -.203E-15 0.259E-12 0.100E-12   0.313E-13 -.742E-13 -.657E-13   0.269E-23 -.585E-22 -.786E-23   -.823E-13 -.473E-12 0.323E-12
   0.971E-15 -.134E-14 0.173E-12   0.263E-14 0.595E-13 -.544E-13   0.620E-22 -.153E-23 0.265E-22   -.100E-12 -.143E-12 -.348E-12
   0.797E-13 0.252E-12 0.737E-12   -.280E-13 -.462E-13 -.104E-12   -.223E-22 -.733E-22 0.397E-22   -.214E-13 -.224E-12 -.321E-12
   0.272E-12 -.328E-14 -.444E-11   -.751E-13 0.257E-13 -.158E-12   -.704E-22 -.347E-22 -.298E-22   -.337E-13 -.267E-12 -.835E-12
   0.269E-12 -.534E-12 -.641E-12   -.178E-13 -.400E-13 -.899E-13   -.431E-22 -.860E-22 -.199E-22   0.279E-13 0.101E-11 0.367E-12
   0.271E-12 -.296E-11 0.267E-12   0.346E-13 0.192E-13 -.639E-13   -.737E-23 -.950E-22 -.397E-22   -.244E-13 0.208E-12 0.136E-14
   -.339E-15 0.246E-12 0.242E-12   0.263E-13 -.919E-13 -.751E-13   0.131E-21 -.130E-22 0.414E-23   0.282E-13 -.393E-12 -.346E-12
   -.114E-13 0.116E-13 -.534E-14   0.727E-13 -.268E-13 0.644E-13   -.124E-21 0.225E-21 -.910E-23   0.291E-12 -.238E-12 0.317E-12
   -.970E-14 0.891E-13 0.866E-13   -.124E-13 -.431E-13 -.102E-13   -.345E-22 -.434E-22 0.242E-22   -.368E-13 0.480E-12 0.401E-12
   -.638E-15 0.174E-12 0.185E-12   -.273E-13 0.114E-12 -.115E-13   0.859E-23 0.526E-22 0.298E-22   -.302E-13 0.131E-12 -.420E-12
   0.866E-13 0.281E-12 0.559E-12   0.746E-13 -.453E-13 -.435E-13   -.408E-22 -.153E-21 -.331E-23   0.109E-12 -.540E-12 0.290E-12
   0.845E-13 -.483E-14 0.650E-12   0.537E-13 -.134E-13 0.195E-13   0.196E-23 0.508E-22 -.579E-22   -.850E-13 -.222E-12 0.422E-12
   0.753E-13 0.942E-13 0.751E-12   -.657E-13 -.355E-13 -.441E-13   0.186E-21 -.603E-22 -.182E-22   -.208E-13 0.209E-12 -.271E-12
   0.167E-12 -.130E-11 0.453E-12   -.309E-13 0.382E-13 0.104E-12   -.776E-22 -.172E-22 -.298E-22   0.576E-13 -.588E-12 0.193E-12
   0.166E-12 -.516E-14 0.130E-11   0.357E-13 -.122E-13 0.166E-12   0.624E-23 0.676E-22 0.285E-22   0.705E-13 -.150E-12 -.224E-12
   0.278E-12 0.318E-11 0.207E-11   0.391E-13 -.328E-13 -.124E-13   -.346E-22 0.111E-21 0.364E-22   -.292E-13 0.192E-12 -.328E-13
   -.106E-13 0.102E-12 0.255E-12   -.114E-12 0.244E-13 -.178E-14   0.255E-23 0.226E-22 -.368E-22   0.105E-12 0.398E-12 -.419E-12
   -.128E-13 0.161E-12 -.184E-13   -.384E-13 0.412E-15 0.126E-12   -.277E-21 0.160E-22 0.827E-23   -.133E-12 0.194E-12 0.398E-12
   0.789E-13 0.582E-14 0.811E-12   -.195E-13 -.136E-13 -.107E-13   -.471E-22 -.993E-22 -.381E-22   0.535E-13 -.172E-12 -.474E-12
   0.820E-13 0.887E-13 0.555E-12   -.622E-14 -.115E-12 0.843E-13   0.216E-22 0.806E-22 -.331E-23   -.227E-13 0.527E-12 0.243E-12
   0.800E-13 0.197E-12 0.659E-12   0.178E-13 0.275E-14 0.693E-13   -.402E-23 0.134E-22 0.596E-22   0.350E-13 0.188E-12 0.106E-12
   0.167E-12 0.183E-11 0.623E-12   0.625E-14 -.702E-13 0.142E-13   0.328E-22 -.836E-22 -.943E-22   -.538E-13 -.369E-12 -.206E-12
   0.178E-12 -.116E-13 -.208E-11   0.160E-13 -.463E-13 0.114E-12   0.396E-22 -.856E-22 -.298E-22   -.315E-12 -.374E-12 0.165E-12
   0.175E-12 0.166E-11 0.462E-12   -.678E-13 -.719E-13 0.142E-12   -.178E-22 -.912E-22 0.699E-22   0.191E-13 0.609E-12 0.402E-12
   0.166E-12 0.163E-12 -.190E-11   0.109E-13 -.418E-13 0.215E-12   -.398E-22 -.911E-23 0.232E-22   0.117E-13 0.101E-12 -.429E-12
   0.742E-13 0.169E-12 0.805E-12   -.346E-13 0.297E-14 0.782E-13   -.578E-22 -.101E-21 -.190E-22   0.412E-13 0.137E-12 -.147E-12
   0.175E-12 -.147E-11 0.624E-12   -.242E-13 -.666E-13 0.109E-12   0.105E-21 0.382E-22 0.558E-22   -.120E-12 0.395E-12 -.418E-12
   0.179E-12 0.175E-12 0.112E-11   0.413E-13 -.754E-13 0.175E-12   0.790E-22 0.109E-21 -.314E-22   0.121E-12 0.298E-12 0.385E-12
 -----------------------------------------------------------------------------------------------
   0.414E-11 -.235E-11 0.657E-11   -.199E-12 -.629E-12 0.204E-13   -.182E-21 -.410E-21 -.321E-23   -.454E-13 -.306E-12 -.527E-12
 
 
 POSITION                                       TOTAL-FORCE (eV/Angst)
 -----------------------------------------------------------------------------------
      6.50097      6.50097      4.33398         0.000000      0.000000      0.000000
      6.50097      6.50097      0.00000        -0.000000     -0.000000      0.000000
      6.50097      0.00000      2.16699        -0.000000      0.000000      0.000000
      6.50097      2.16699      4.33398        -0.000000      0.000000     -0.000000
      0.00000      6.50097      2.16699         0.000000     -0.000000      0.000000
      0.00000      0.00000      4.33398         0.000000     -0.000000     -0.000000
      2.16699      6.50097      4.33398        -0.000000     -0.000000     -0.000000
      6.50097      0.00000      6.50097         0.000000      0.000000     -0.000000
      6.50097      2.16699      0.00000        -0.000000      0.000000      0.000000
      6.50097      4.33398      2.16699         0.000000      0.000000      0.000000
      0.00000      6.50097      6.50097        -0.000000      0.000000     -0.000000
      0.00000      0.00000      0.00000         0.000000     -0.000000     -0.000000
      0.00000      2.16699      2.16699        -0.000000      0.000000      0.000000
      0.00000      4.33398      4.33398        -0.000000      0.000000     -0.000000
      2.16699      6.50097      0.00000        -0.000000     -0.000000     -0.000000
      2.16699      0.00000      2.16699         0.000000      0.000000      0.000000
      2.16699      2.16699      4.33398         0.000000      0.000000     -0.000000
      4.33398      6.50097      2.16699        -0.000000      0.000000     -0.000000
      4.33398      0.00000      4.33398        -0.000000     -0.000000      0.000000
      6.50097      4.33398      6.50097        -0.000000     -0.000000      0.000000
      0.00000      2.16699      6.50097        -0.000000      0.000000     -0.000000
      0.00000      4.33398      0.00000        -0.000000     -0.000000     -0.000000
      2.16699      0.00000      6.50097         0.000000      0.000000     -0.000000
      2.16699      2.16699      0.00000        -0.000000     -0.000000      0.000000
      2.16699      4.33398      2.16699        -0.000000      0.000000      0.000000
      4.33398      6.50097      6.50097         0.000000     -0.000000      0.000000
      4.33398      0.00000      0.00000        -0.000000      0.000000      0.000000
      4.33398      2.16699      2.16699         0.000000      0.000000      0.000000
      4.33398      4.33398      4.33398         0.000000      0.000000      0.000000
      2.16699      4.33398      6.50097         0.000000     -0.000000     -0.000000
      4.33398      2.16699      6.50097        -0.000000      0.000000     -0.000000
      4.33398      4.33398      0.00000        -0.000000     -0.000000      0.000000
 -----------------------------------------------------------------------------------
    total drift:                                0.000000     -0.000000      0.000000


--------------------------------------------------------------------------------------------------------




--------------------------------------------------------------------------------------------------------


  
 reached required accuracy - stopping structural energy minimisation
 writing wavefunctions
     LOOP+:  VPU time   37.55: CPU time   38.43

 ----------------------------------------------------------------------------- 
|                                                                             |
|           W    W    AA    RRRRR   N    N  II  N    N   GGGG   !!!           |
|           W    W   A  A   R    R  NN   N  II  NN   N  G    G  !!!           |
|           W    W  A    A  R    R  N N  N  II  N N  N  G       !!!           |
|           W WW W  AAAAAA  RRRRR   N  N N  II  N  N N  G  GGG   !            |
|           WW  WW  A    A  R   R   N   NN  II  N   NN  G    G                |
|           W    W  A    A  R    R  N    N  II  N    N   GGGG   !!!           |
|                                                                             |
|      The partial DOS and the PROCAR file are not evaluated for NPAR/=1      |
|      please rerun with NPAR=1                                               |
|                                                                             |
 ----------------------------------------------------------------------------- 

  
  
 General timing and accounting informations for this job:
 ========================================================
  
                  Total CPU time used (sec):       38.460
                            User time (sec):       35.455
                          System time (sec):        3.006
                         Elapsed time (sec):       39.377
  
                   Maximum memory used (kb):       73476.
                   Average memory used (kb):           0.
  
                          Minor page faults:        17150
                          Major page faults:            0
                 Voluntary context switches:         1086
