   4   4   0   0
  0.1166843E+02  0.3600456E-09  0.3600456E-09  0.3600456E-09  0.5000000E-15
  1.000000000000000E-004
  CAR 
 unknown system                          
     27.04163235     -7.09626669  301      3.91097838      1.00000000
     -7.096  0.0000E+00  0.0000E+00
     -6.982  0.0000E+00  0.0000E+00
     -6.869  0.0000E+00  0.0000E+00
     -6.755  0.0000E+00  0.0000E+00
     -6.641  0.0000E+00  0.0000E+00
     -6.527  0.0000E+00  0.0000E+00
     -6.414  0.0000E+00  0.0000E+00
     -6.300  0.0000E+00  0.0000E+00
     -6.186  0.0000E+00  0.0000E+00
     -6.072  0.0000E+00  0.0000E+00
     -5.958  0.0000E+00  0.0000E+00
     -5.845  0.0000E+00  0.0000E+00
     -5.731  0.0000E+00  0.0000E+00
     -5.617  0.0000E+00  0.0000E+00
     -5.503  0.1355E-01  0.1542E-02
     -5.389  0.6979E-01  0.1141E-01
     -5.276  0.9403E-01  0.2738E-01
     -5.162  0.1225E+00  0.4613E-01
     -5.048  0.1421E+00  0.6919E-01
     -4.934  0.1491E+00  0.9374E-01
     -4.820  0.1971E+00  0.1241E+00
     -4.707  0.2151E+00  0.1561E+00
     -4.593  0.2208E+00  0.1876E+00
     -4.479  0.2122E+00  0.2224E+00
     -4.365  0.2301E+00  0.2598E+00
     -4.251  0.2454E+00  0.3014E+00
     -4.138  0.3458E+00  0.3460E+00
     -4.024  0.2843E+00  0.3877E+00
     -3.910  0.2922E+00  0.4346E+00
     -3.796  0.2909E+00  0.4808E+00
     -3.682  0.3161E+00  0.5367E+00
     -3.569  0.2762E+00  0.5872E+00
     -3.455  0.4033E+00  0.6480E+00
     -3.341  0.3534E+00  0.7053E+00
     -3.227  0.3857E+00  0.7654E+00
     -3.114  0.3973E+00  0.8308E+00
     -3.000  0.3602E+00  0.8934E+00
     -2.886  0.4508E+00  0.9676E+00
     -2.772  0.4041E+00  0.1038E+01
     -2.658  0.4856E+00  0.1116E+01
     -2.545  0.4823E+00  0.1198E+01
     -2.431  0.5440E+00  0.1282E+01
     -2.317  0.5728E+00  0.1375E+01
     -2.203  0.6502E+00  0.1469E+01
     -2.089  0.6308E+00  0.1569E+01
     -1.976  0.7306E+00  0.1680E+01
     -1.862  0.6967E+00  0.1794E+01
     -1.748  0.8787E+00  0.1927E+01
     -1.634  0.9158E+00  0.2070E+01
     -1.520  0.9794E+00  0.2225E+01
     -1.407  0.1230E+01  0.2415E+01
     -1.293  0.1519E+01  0.2650E+01
     -1.179  0.1944E+01  0.2962E+01
     -1.065  0.2409E+01  0.3341E+01
     -0.951  0.3268E+01  0.3866E+01
     -0.838  0.3437E+01  0.4406E+01
     -0.724  0.3486E+01  0.4966E+01
     -0.610  0.3675E+01  0.5557E+01
     -0.496  0.4943E+01  0.6314E+01
     -0.382  0.5860E+01  0.7236E+01
     -0.269  0.6848E+01  0.8318E+01
     -0.155  0.6394E+01  0.9359E+01
     -0.041  0.5758E+01  0.1029E+02
      0.073  0.5893E+01  0.1125E+02
      0.186  0.5650E+01  0.1218E+02
      0.300  0.6204E+01  0.1313E+02
      0.414  0.7637E+01  0.1435E+02
      0.528  0.8584E+01  0.1569E+02
      0.642  0.8721E+01  0.1711E+02
      0.755  0.1062E+02  0.1874E+02
      0.869  0.1072E+02  0.2047E+02
      0.983  0.1304E+02  0.2250E+02
      1.097  0.9447E+01  0.2422E+02
      1.211  0.7580E+01  0.2550E+02
      1.324  0.7143E+01  0.2664E+02
      1.438  0.8207E+01  0.2791E+02
      1.552  0.9920E+01  0.2951E+02
      1.666  0.1067E+02  0.3122E+02
      1.780  0.8979E+01  0.3273E+02
      1.893  0.8713E+01  0.3414E+02
      2.007  0.9040E+01  0.3562E+02
      2.121  0.1119E+02  0.3735E+02
      2.235  0.1834E+02  0.4010E+02
      2.349  0.8225E+01  0.4168E+02
      2.462  0.1362E+01  0.4203E+02
      2.576  0.1248E+01  0.4221E+02
      2.690  0.1156E+01  0.4238E+02
      2.804  0.1101E+01  0.4255E+02
      2.918  0.9226E+00  0.4271E+02
      3.031  0.8600E+00  0.4287E+02
      3.145  0.8831E+00  0.4303E+02
      3.259  0.1036E+01  0.4319E+02
      3.373  0.8974E+00  0.4333E+02
      3.486  0.8201E+00  0.4348E+02
      3.600  0.9871E+00  0.4363E+02
      3.714  0.6972E+00  0.4376E+02
      3.828  0.9234E+00  0.4391E+02
      3.942  0.8271E+00  0.4405E+02
      4.055  0.9670E+00  0.4418E+02
      4.169  0.7527E+00  0.4430E+02
      4.283  0.1017E+01  0.4445E+02
      4.397  0.7159E+00  0.4456E+02
      4.511  0.7833E+00  0.4468E+02
      4.624  0.8007E+00  0.4482E+02
      4.738  0.5657E+00  0.4493E+02
      4.852  0.9149E+00  0.4506E+02
      4.966  0.6911E+00  0.4518E+02
      5.080  0.6333E+00  0.4528E+02
      5.193  0.8667E+00  0.4542E+02
      5.307  0.6465E+00  0.4553E+02
      5.421  0.8193E+00  0.4565E+02
      5.535  0.7049E+00  0.4576E+02
      5.649  0.6466E+00  0.4587E+02
      5.762  0.8172E+00  0.4600E+02
      5.876  0.5888E+00  0.4610E+02
      5.990  0.6688E+00  0.4621E+02
      6.104  0.6754E+00  0.4632E+02
      6.218  0.6377E+00  0.4641E+02
      6.331  0.6068E+00  0.4651E+02
      6.445  0.6743E+00  0.4661E+02
      6.559  0.5121E+00  0.4671E+02
      6.673  0.4565E+00  0.4678E+02
      6.786  0.5470E+00  0.4688E+02
      6.900  0.4929E+00  0.4697E+02
      7.014  0.5047E+00  0.4705E+02
      7.128  0.4637E+00  0.4713E+02
      7.242  0.4667E+00  0.4720E+02
      7.355  0.4124E+00  0.4728E+02
      7.469  0.3990E+00  0.4734E+02
      7.583  0.3991E+00  0.4741E+02
      7.697  0.3633E+00  0.4748E+02
      7.811  0.6287E+00  0.4757E+02
      7.924  0.7680E+00  0.4768E+02
      8.038  0.7223E+00  0.4781E+02
      8.152  0.7709E+00  0.4794E+02
      8.266  0.8363E+00  0.4807E+02
      8.380  0.7755E+00  0.4820E+02
      8.493  0.6600E+00  0.4832E+02
      8.607  0.9702E+00  0.4847E+02
      8.721  0.8771E+00  0.4860E+02
      8.835  0.8274E+00  0.4872E+02
      8.949  0.8851E+00  0.4885E+02
      9.062  0.8709E+00  0.4899E+02
      9.176  0.7747E+00  0.4912E+02
      9.290  0.7975E+00  0.4924E+02
      9.404  0.6971E+00  0.4937E+02
      9.518  0.7014E+00  0.4949E+02
      9.631  0.7463E+00  0.4960E+02
      9.745  0.7697E+00  0.4973E+02
      9.859  0.7177E+00  0.4984E+02
      9.973  0.6629E+00  0.4995E+02
     10.086  0.7148E+00  0.5006E+02
     10.200  0.6627E+00  0.5017E+02
     10.314  0.7054E+00  0.5028E+02
     10.428  0.7581E+00  0.5040E+02
     10.542  0.6812E+00  0.5050E+02
     10.655  0.6212E+00  0.5060E+02
     10.769  0.7565E+00  0.5071E+02
     10.883  0.6887E+00  0.5081E+02
     10.997  0.6592E+00  0.5091E+02
     11.111  0.5793E+00  0.5100E+02
     11.224  0.7984E+00  0.5113E+02
     11.338  0.7690E+00  0.5127E+02
     11.452  0.8496E+00  0.5141E+02
     11.566  0.8579E+00  0.5156E+02
     11.680  0.7128E+00  0.5168E+02
     11.793  0.8196E+00  0.5181E+02
     11.907  0.9708E+00  0.5196E+02
     12.021  0.8723E+00  0.5210E+02
     12.135  0.9458E+00  0.5227E+02
     12.249  0.8746E+00  0.5242E+02
     12.362  0.1043E+01  0.5258E+02
     12.476  0.9549E+00  0.5274E+02
     12.590  0.1003E+01  0.5290E+02
     12.704  0.9584E+00  0.5305E+02
     12.818  0.8525E+00  0.5321E+02
     12.931  0.9558E+00  0.5336E+02
     13.045  0.1017E+01  0.5353E+02
     13.159  0.1055E+01  0.5369E+02
     13.273  0.9083E+00  0.5385E+02
     13.386  0.9664E+00  0.5400E+02
     13.500  0.1054E+01  0.5416E+02
     13.614  0.1025E+01  0.5433E+02
     13.728  0.1035E+01  0.5451E+02
     13.842  0.9662E+00  0.5466E+02
     13.955  0.9886E+00  0.5482E+02
     14.069  0.9641E+00  0.5498E+02
     14.183  0.1099E+01  0.5516E+02
     14.297  0.1046E+01  0.5533E+02
     14.411  0.8655E+00  0.5549E+02
     14.524  0.9930E+00  0.5565E+02
     14.638  0.1082E+01  0.5582E+02
     14.752  0.1096E+01  0.5599E+02
     14.866  0.1038E+01  0.5616E+02
     14.980  0.1164E+01  0.5634E+02
     15.093  0.9843E+00  0.5650E+02
     15.207  0.1127E+01  0.5667E+02
     15.321  0.9229E+00  0.5684E+02
     15.435  0.9625E+00  0.5701E+02
     15.549  0.1146E+01  0.5719E+02
     15.662  0.1131E+01  0.5737E+02
     15.776  0.1007E+01  0.5754E+02
     15.890  0.1170E+01  0.5772E+02
     16.004  0.1017E+01  0.5789E+02
     16.118  0.1158E+01  0.5807E+02
     16.231  0.1072E+01  0.5825E+02
     16.345  0.1120E+01  0.5843E+02
     16.459  0.1189E+01  0.5862E+02
     16.573  0.1149E+01  0.5880E+02
     16.686  0.1240E+01  0.5898E+02
     16.800  0.9608E+00  0.5916E+02
     16.914  0.1199E+01  0.5936E+02
     17.028  0.1306E+01  0.5955E+02
     17.142  0.1168E+01  0.5974E+02
     17.255  0.1266E+01  0.5995E+02
     17.369  0.1106E+01  0.6014E+02
     17.483  0.1107E+01  0.6032E+02
     17.597  0.9599E+00  0.6050E+02
     17.711  0.1098E+01  0.6068E+02
     17.824  0.1046E+01  0.6085E+02
     17.938  0.1209E+01  0.6103E+02
     18.052  0.1022E+01  0.6120E+02
     18.166  0.8780E+00  0.6135E+02
     18.280  0.8291E+00  0.6150E+02
     18.393  0.8893E+00  0.6165E+02
     18.507  0.9044E+00  0.6180E+02
     18.621  0.7935E+00  0.6191E+02
     18.735  0.6743E+00  0.6204E+02
     18.849  0.6351E+00  0.6214E+02
     18.962  0.6896E+00  0.6225E+02
     19.076  0.5487E+00  0.6234E+02
     19.190  0.4886E+00  0.6243E+02
     19.304  0.5523E+00  0.6251E+02
     19.418  0.5351E+00  0.6260E+02
     19.531  0.4583E+00  0.6268E+02
     19.645  0.4750E+00  0.6275E+02
     19.759  0.4277E+00  0.6282E+02
     19.873  0.3524E+00  0.6287E+02
     19.986  0.3715E+00  0.6294E+02
     20.100  0.4142E+00  0.6300E+02
     20.214  0.2550E+00  0.6305E+02
     20.328  0.4209E+00  0.6311E+02
     20.442  0.2924E+00  0.6316E+02
     20.555  0.2822E+00  0.6321E+02
     20.669  0.3615E+00  0.6326E+02
     20.783  0.2634E+00  0.6330E+02
     20.897  0.2515E+00  0.6334E+02
     21.011  0.2822E+00  0.6338E+02
     21.124  0.2650E+00  0.6342E+02
     21.238  0.2625E+00  0.6346E+02
     21.352  0.1905E+00  0.6348E+02
     21.466  0.2044E+00  0.6352E+02
     21.580  0.1090E+00  0.6354E+02
     21.693  0.2462E+00  0.6358E+02
     21.807  0.1150E+00  0.6360E+02
     21.921  0.1898E+00  0.6363E+02
     22.035  0.9018E-01  0.6365E+02
     22.149  0.2442E+00  0.6368E+02
     22.262  0.9142E-01  0.6370E+02
     22.376  0.1524E+00  0.6372E+02
     22.490  0.7531E-01  0.6374E+02
     22.604  0.1104E+00  0.6376E+02
     22.717  0.8443E-01  0.6378E+02
     22.831  0.1340E+00  0.6380E+02
     22.945  0.1187E+00  0.6382E+02
     23.059  0.7345E-01  0.6382E+02
     23.173  0.1179E+00  0.6384E+02
     23.286  0.4350E-01  0.6385E+02
     23.400  0.7353E-01  0.6387E+02
     23.514  0.7360E-01  0.6388E+02
     23.628  0.9798E-01  0.6390E+02
     23.742  0.6173E-01  0.6390E+02
     23.855  0.1184E+00  0.6392E+02
     23.969  0.3618E-01  0.6392E+02
     24.083  0.6967E-01  0.6393E+02
     24.197  0.5447E-01  0.6394E+02
     24.311  0.7223E-01  0.6395E+02
     24.424  0.1033E-02  0.6395E+02
     24.538  0.3094E-01  0.6396E+02
     24.652  0.5798E-01  0.6397E+02
     24.766  0.1808E-01  0.6397E+02
     24.880  0.1279E-01  0.6398E+02
     24.993  0.5427E-01  0.6398E+02
     25.107  0.3039E-01  0.6399E+02
     25.221  0.1188E-01  0.6399E+02
     25.335  0.3616E-01  0.6400E+02
     25.449  0.3917E-01  0.6400E+02
     25.562  0.3014E-02  0.6400E+02
     25.676  0.0000E+00  0.6400E+02
     25.790  0.0000E+00  0.6400E+02
     25.904  0.0000E+00  0.6400E+02
     26.017  0.0000E+00  0.6400E+02
     26.131  0.0000E+00  0.6400E+02
     26.245  0.0000E+00  0.6400E+02
     26.359  0.0000E+00  0.6400E+02
     26.473  0.0000E+00  0.6400E+02
     26.586  0.0000E+00  0.6400E+02
     26.700  0.0000E+00  0.6400E+02
     26.814  0.0000E+00  0.6400E+02
     26.928  0.0000E+00  0.6400E+02
     27.042  0.0000E+00  0.6400E+02
