 vasp.4.6.28 25Jul05 complex 
 executed on             LinuxIFC date 2017.01.14  03:53:49
 running on    8 nodes
 distr:  one band on    1 nodes,    8 groups


--------------------------------------------------------------------------------------------------------


 INCAR:
 POTCAR:   PAW_PBE Cu 05Jan2001                   
 POTCAR:   PAW_PBE Cu 05Jan2001                   
   VRHFIN =Cu: d10 p1                                                           
   LEXCH  = PE                                                                  
   EATOM  =  1390.9800 eV,  102.2341 Ry                                         
                                                                                
   TITEL  = PAW_PBE Cu 05Jan2001                                                
   LULTRA =        F    use ultrasoft PP ?                                      
   IUNSCR =        1    unscreen: 0-lin 1-nonlin 2-no                           
   RPACOR =    2.000    partial core radius                                     
   POMASS =   63.546; ZVAL   =   11.000    mass and valenz                      
   RCORE  =    2.300    outmost cutoff radius                                   
   RWIGS  =    2.480; RWIGS  =    1.312    wigner-seitz radius (au A)           
   ENMAX  =  273.214; ENMIN  =  204.910 eV                                      
   RCLOC  =    1.712    cutoff for local pot                                    
   LCOR   =        T    correct aug charges                                     
   LPAW   =        T    paw PP                                                  
   EAUG   =  516.456                                                            
   DEXC   =    -.008                                                            
   RMAX   =    2.789    core radius for proj-oper                               
   RAUG   =    1.300    factor for augmentation sphere                          
   RDEP   =    2.302    radius for radial grids                                 
   QCUT   =   -4.481; QGAM   =    8.962    optimization parameters              
                                                                                
   Description                                                                  
     l     E      TYP  RCUT    TYP  RCUT                                        
     2   .000     23  2.300                                                     
     2   .000     23  2.300                                                     
     0   .000     23  2.300                                                     
     0   .000     23  2.300                                                     
     1  -.200     23  2.300                                                     
     1   .000     23  2.300                                                     
     3   .000      7   .000                                                     
  local pseudopotential read in
  partial core-charges read in
  atomic valenz-charges read in
  non local Contribution for L=           2  read in
    real space projection operators read in
  non local Contribution for L=           2  read in
    real space projection operators read in
  non local Contribution for L=           0  read in
    real space projection operators read in
  non local Contribution for L=           0  read in
    real space projection operators read in
  non local Contribution for L=           1  read in
    real space projection operators read in
  non local Contribution for L=           1  read in
    real space projection operators read in
    PAW grid and wavefunctions read in
 
   number of l-projection  operators is LMAX  =           6
   number of lm-projection operators is LMMAX =          18
 
 PAW_PBE Cu 05Jan2001                   :
 energy of atom  1       EATOM=-1390.9800
 kinetic energy error for atom=    0.0002 (will be added to EATOM!!)
 
 EXHCAR: internal setup
 exchange correlation table for  LEXCH =        8
   RHO(1)=    0.500       N(1)  =     2000
   RHO(2)=  100.500       N(2)  =     4000
 
 POSCAR: Cu                                      
  positions in direct lattice
  velocities in cartesian coordinates
 


--------------------------------------------------------------------------------------------------------


 ion  position               nearest neighbor table
   1  0.000  0.000  0.000-   2 2.55   3 2.55   4 2.55   3 2.55   4 2.55   2 2.55   4 2.55   4 2.55
                             2 2.55   3 2.55   3 2.55   2 2.55
   2  0.500  0.500  0.000-   1 2.55   3 2.55   4 2.55   3 2.55   4 2.55   1 2.55   3 2.55   3 2.55
                             1 2.55   4 2.55   4 2.55   1 2.55
   3  0.500  0.000  0.500-   1 2.55   2 2.55   4 2.55   1 2.55   2 2.55   2 2.55   4 2.55   2 2.55
                             1 2.55   4 2.55   1 2.55   4 2.55
   4  0.000  0.500  0.500-   1 2.55   2 2.55   3 2.55   1 2.55   2 2.55   1 2.55   3 2.55   1 2.55
                             2 2.55   3 2.55   2 2.55   3 2.55
 
  LATTYP: Found a simple cubic cell.
 ALAT       =     3.6004559829
  
  Lattice vectors:
  
 A1 = (   3.6004559829,   0.0000000000,   0.0000000000)
 A2 = (   0.0000000000,   3.6004559829,   0.0000000000)
 A3 = (   0.0000000000,   0.0000000000,   3.6004559829)
 Subroutine PRICEL returns following result:
 
  LATTYP: Found a face centered cubic cell.
 ALAT       =     3.6004559829
  
  Lattice vectors:
  
 A1 = (   1.8002279915,   1.8002279915,  -0.0000000000)
 A2 = (   1.8002279915,   0.0000000000,  -1.8002279915)
 A3 = (   0.0000000000,   1.8002279915,  -1.8002279915)
 
   4 primitive cells build up your supercell.
 

Analysis of symmetry for initial positions (statically):

 Routine SETGRP: Setting up the symmetry group for a 
 simple cubic supercell.


 Subroutine GETGRP returns: Found 48 space group operations
 (whereof 48 operations were pure point group operations)
 out of a pool of 48 trial point group operations.


The static configuration has the point symmetry O_h .

Analysis of symmetry for dynamics (positions and initial velocities):

 Subroutine DYNSYM returns: Found 48 space group operations
 (whereof 48 operations were pure point group operations)
 out of a pool of 48 trial space group operations
 (whereof 48 operations were pure point group operations)
 and found also     4 'primitive' translations


The dynamic configuration has the point symmetry O_h .
 
 
 KPOINTS: Automatic mesh                          

Automatic generation of k-mesh.
 
 Subroutine IBZKPT returns following result:
 ===========================================
 
 Found   1330 irreducible k-points:
 
 Following reciprocal coordinates:
            Coordinates               Weight
  0.000000  0.000000  0.000000      1.000000
  0.027778  0.000000  0.000000      6.000000
  0.055556  0.000000  0.000000      6.000000
  0.083333  0.000000  0.000000      6.000000
  0.111111  0.000000  0.000000      6.000000
  0.138889  0.000000  0.000000      6.000000
  0.166667  0.000000  0.000000      6.000000
  0.194444  0.000000  0.000000      6.000000
  0.222222  0.000000  0.000000      6.000000
  0.250000  0.000000  0.000000      6.000000
  0.277778  0.000000  0.000000      6.000000
  0.305556  0.000000  0.000000      6.000000
  0.333333  0.000000  0.000000      6.000000
  0.361111  0.000000  0.000000      6.000000
  0.388889  0.000000  0.000000      6.000000
  0.416667  0.000000  0.000000      6.000000
  0.444444  0.000000  0.000000      6.000000
  0.472222  0.000000  0.000000      6.000000
  0.500000  0.000000  0.000000      3.000000
  0.027778  0.027778  0.000000     12.000000
  0.055556  0.027778  0.000000     24.000000
  0.083333  0.027778  0.000000     24.000000
  0.111111  0.027778  0.000000     24.000000
  0.138889  0.027778  0.000000     24.000000
  0.166667  0.027778  0.000000     24.000000
  0.194444  0.027778  0.000000     24.000000
  0.222222  0.027778  0.000000     24.000000
  0.250000  0.027778  0.000000     24.000000
  0.277778  0.027778  0.000000     24.000000
  0.305556  0.027778  0.000000     24.000000
  0.333333  0.027778  0.000000     24.000000
  0.361111  0.027778  0.000000     24.000000
  0.388889  0.027778  0.000000     24.000000
  0.416667  0.027778  0.000000     24.000000
  0.444444  0.027778  0.000000     24.000000
  0.472222  0.027778  0.000000     24.000000
  0.500000  0.027778  0.000000     12.000000
  0.055556  0.055556  0.000000     12.000000
  0.083333  0.055556  0.000000     24.000000
  0.111111  0.055556  0.000000     24.000000
  0.138889  0.055556  0.000000     24.000000
  0.166667  0.055556  0.000000     24.000000
  0.194444  0.055556  0.000000     24.000000
  0.222222  0.055556  0.000000     24.000000
  0.250000  0.055556  0.000000     24.000000
  0.277778  0.055556  0.000000     24.000000
  0.305556  0.055556  0.000000     24.000000
  0.333333  0.055556  0.000000     24.000000
  0.361111  0.055556  0.000000     24.000000
  0.388889  0.055556  0.000000     24.000000
  0.416667  0.055556  0.000000     24.000000
  0.444444  0.055556  0.000000     24.000000
  0.472222  0.055556  0.000000     24.000000
  0.500000  0.055556  0.000000     12.000000
  0.083333  0.083333  0.000000     12.000000
  0.111111  0.083333  0.000000     24.000000
  0.138889  0.083333  0.000000     24.000000
  0.166667  0.083333  0.000000     24.000000
  0.194444  0.083333  0.000000     24.000000
  0.222222  0.083333  0.000000     24.000000
  0.250000  0.083333  0.000000     24.000000
  0.277778  0.083333  0.000000     24.000000
  0.305556  0.083333  0.000000     24.000000
  0.333333  0.083333  0.000000     24.000000
  0.361111  0.083333  0.000000     24.000000
  0.388889  0.083333  0.000000     24.000000
  0.416667  0.083333  0.000000     24.000000
  0.444444  0.083333  0.000000     24.000000
  0.472222  0.083333  0.000000     24.000000
  0.500000  0.083333  0.000000     12.000000
  0.111111  0.111111  0.000000     12.000000
  0.138889  0.111111  0.000000     24.000000
  0.166667  0.111111  0.000000     24.000000
  0.194444  0.111111  0.000000     24.000000
  0.222222  0.111111  0.000000     24.000000
  0.250000  0.111111  0.000000     24.000000
  0.277778  0.111111  0.000000     24.000000
  0.305556  0.111111  0.000000     24.000000
  0.333333  0.111111  0.000000     24.000000
  0.361111  0.111111  0.000000     24.000000
  0.388889  0.111111  0.000000     24.000000
  0.416667  0.111111  0.000000     24.000000
  0.444444  0.111111  0.000000     24.000000
  0.472222  0.111111  0.000000     24.000000
  0.500000  0.111111  0.000000     12.000000
  0.138889  0.138889  0.000000     12.000000
  0.166667  0.138889  0.000000     24.000000
  0.194444  0.138889  0.000000     24.000000
  0.222222  0.138889  0.000000     24.000000
  0.250000  0.138889  0.000000     24.000000
  0.277778  0.138889  0.000000     24.000000
  0.305556  0.138889  0.000000     24.000000
  0.333333  0.138889  0.000000     24.000000
  0.361111  0.138889  0.000000     24.000000
  0.388889  0.138889  0.000000     24.000000
  0.416667  0.138889  0.000000     24.000000
  0.444444  0.138889  0.000000     24.000000
  0.472222  0.138889  0.000000     24.000000
  0.500000  0.138889  0.000000     12.000000
  0.166667  0.166667  0.000000     12.000000
  0.194444  0.166667  0.000000     24.000000
  0.222222  0.166667  0.000000     24.000000
  0.250000  0.166667  0.000000     24.000000
  0.277778  0.166667  0.000000     24.000000
  0.305556  0.166667  0.000000     24.000000
  0.333333  0.166667  0.000000     24.000000
  0.361111  0.166667  0.000000     24.000000
  0.388889  0.166667  0.000000     24.000000
  0.416667  0.166667  0.000000     24.000000
  0.444444  0.166667  0.000000     24.000000
  0.472222  0.166667  0.000000     24.000000
  0.500000  0.166667  0.000000     12.000000
  0.194444  0.194444  0.000000     12.000000
  0.222222  0.194444  0.000000     24.000000
  0.250000  0.194444  0.000000     24.000000
  0.277778  0.194444  0.000000     24.000000
  0.305556  0.194444  0.000000     24.000000
  0.333333  0.194444  0.000000     24.000000
  0.361111  0.194444  0.000000     24.000000
  0.388889  0.194444  0.000000     24.000000
  0.416667  0.194444  0.000000     24.000000
  0.444444  0.194444  0.000000     24.000000
  0.472222  0.194444  0.000000     24.000000
  0.500000  0.194444  0.000000     12.000000
  0.222222  0.222222  0.000000     12.000000
  0.250000  0.222222  0.000000     24.000000
  0.277778  0.222222  0.000000     24.000000
  0.305556  0.222222  0.000000     24.000000
  0.333333  0.222222  0.000000     24.000000
  0.361111  0.222222  0.000000     24.000000
  0.388889  0.222222  0.000000     24.000000
  0.416667  0.222222  0.000000     24.000000
  0.444444  0.222222  0.000000     24.000000
  0.472222  0.222222  0.000000     24.000000
  0.500000  0.222222  0.000000     12.000000
  0.250000  0.250000  0.000000     12.000000
  0.277778  0.250000  0.000000     24.000000
  0.305556  0.250000  0.000000     24.000000
  0.333333  0.250000  0.000000     24.000000
  0.361111  0.250000  0.000000     24.000000
  0.388889  0.250000  0.000000     24.000000
  0.416667  0.250000  0.000000     24.000000
  0.444444  0.250000  0.000000     24.000000
  0.472222  0.250000  0.000000     24.000000
  0.500000  0.250000  0.000000     12.000000
  0.277778  0.277778  0.000000     12.000000
  0.305556  0.277778  0.000000     24.000000
  0.333333  0.277778  0.000000     24.000000
  0.361111  0.277778  0.000000     24.000000
  0.388889  0.277778  0.000000     24.000000
  0.416667  0.277778  0.000000     24.000000
  0.444444  0.277778  0.000000     24.000000
  0.472222  0.277778  0.000000     24.000000
  0.500000  0.277778  0.000000     12.000000
  0.305556  0.305556  0.000000     12.000000
  0.333333  0.305556  0.000000     24.000000
  0.361111  0.305556  0.000000     24.000000
  0.388889  0.305556  0.000000     24.000000
  0.416667  0.305556  0.000000     24.000000
  0.444444  0.305556  0.000000     24.000000
  0.472222  0.305556  0.000000     24.000000
  0.500000  0.305556  0.000000     12.000000
  0.333333  0.333333  0.000000     12.000000
  0.361111  0.333333  0.000000     24.000000
  0.388889  0.333333  0.000000     24.000000
  0.416667  0.333333  0.000000     24.000000
  0.444444  0.333333  0.000000     24.000000
  0.472222  0.333333  0.000000     24.000000
  0.500000  0.333333  0.000000     12.000000
  0.361111  0.361111  0.000000     12.000000
  0.388889  0.361111  0.000000     24.000000
  0.416667  0.361111  0.000000     24.000000
  0.444444  0.361111  0.000000     24.000000
  0.472222  0.361111  0.000000     24.000000
  0.500000  0.361111  0.000000     12.000000
  0.388889  0.388889  0.000000     12.000000
  0.416667  0.388889  0.000000     24.000000
  0.444444  0.388889  0.000000     24.000000
  0.472222  0.388889  0.000000     24.000000
  0.500000  0.388889  0.000000     12.000000
  0.416667  0.416667  0.000000     12.000000
  0.444444  0.416667  0.000000     24.000000
  0.472222  0.416667  0.000000     24.000000
  0.500000  0.416667  0.000000     12.000000
  0.444444  0.444444  0.000000     12.000000
  0.472222  0.444444  0.000000     24.000000
  0.500000  0.444444  0.000000     12.000000
  0.472222  0.472222  0.000000     12.000000
  0.500000  0.472222  0.000000     12.000000
  0.500000  0.500000  0.000000      3.000000
  0.027778  0.027778  0.027778      8.000000
  0.055556  0.027778  0.027778     24.000000
  0.083333  0.027778  0.027778     24.000000
  0.111111  0.027778  0.027778     24.000000
  0.138889  0.027778  0.027778     24.000000
  0.166667  0.027778  0.027778     24.000000
  0.194444  0.027778  0.027778     24.000000
  0.222222  0.027778  0.027778     24.000000
  0.250000  0.027778  0.027778     24.000000
  0.277778  0.027778  0.027778     24.000000
  0.305556  0.027778  0.027778     24.000000
  0.333333  0.027778  0.027778     24.000000
  0.361111  0.027778  0.027778     24.000000
  0.388889  0.027778  0.027778     24.000000
  0.416667  0.027778  0.027778     24.000000
  0.444444  0.027778  0.027778     24.000000
  0.472222  0.027778  0.027778     24.000000
  0.500000  0.027778  0.027778     12.000000
  0.055556  0.055556  0.027778     24.000000
  0.083333  0.055556  0.027778     48.000000
  0.111111  0.055556  0.027778     48.000000
  0.138889  0.055556  0.027778     48.000000
  0.166667  0.055556  0.027778     48.000000
  0.194444  0.055556  0.027778     48.000000
  0.222222  0.055556  0.027778     48.000000
  0.250000  0.055556  0.027778     48.000000
  0.277778  0.055556  0.027778     48.000000
  0.305556  0.055556  0.027778     48.000000
  0.333333  0.055556  0.027778     48.000000
  0.361111  0.055556  0.027778     48.000000
  0.388889  0.055556  0.027778     48.000000
  0.416667  0.055556  0.027778     48.000000
  0.444444  0.055556  0.027778     48.000000
  0.472222  0.055556  0.027778     48.000000
  0.500000  0.055556  0.027778     24.000000
  0.083333  0.083333  0.027778     24.000000
  0.111111  0.083333  0.027778     48.000000
  0.138889  0.083333  0.027778     48.000000
  0.166667  0.083333  0.027778     48.000000
  0.194444  0.083333  0.027778     48.000000
  0.222222  0.083333  0.027778     48.000000
  0.250000  0.083333  0.027778     48.000000
  0.277778  0.083333  0.027778     48.000000
  0.305556  0.083333  0.027778     48.000000
  0.333333  0.083333  0.027778     48.000000
  0.361111  0.083333  0.027778     48.000000
  0.388889  0.083333  0.027778     48.000000
  0.416667  0.083333  0.027778     48.000000
  0.444444  0.083333  0.027778     48.000000
  0.472222  0.083333  0.027778     48.000000
  0.500000  0.083333  0.027778     24.000000
  0.111111  0.111111  0.027778     24.000000
  0.138889  0.111111  0.027778     48.000000
  0.166667  0.111111  0.027778     48.000000
  0.194444  0.111111  0.027778     48.000000
  0.222222  0.111111  0.027778     48.000000
  0.250000  0.111111  0.027778     48.000000
  0.277778  0.111111  0.027778     48.000000
  0.305556  0.111111  0.027778     48.000000
  0.333333  0.111111  0.027778     48.000000
  0.361111  0.111111  0.027778     48.000000
  0.388889  0.111111  0.027778     48.000000
  0.416667  0.111111  0.027778     48.000000
  0.444444  0.111111  0.027778     48.000000
  0.472222  0.111111  0.027778     48.000000
  0.500000  0.111111  0.027778     24.000000
  0.138889  0.138889  0.027778     24.000000
  0.166667  0.138889  0.027778     48.000000
  0.194444  0.138889  0.027778     48.000000
  0.222222  0.138889  0.027778     48.000000
  0.250000  0.138889  0.027778     48.000000
  0.277778  0.138889  0.027778     48.000000
  0.305556  0.138889  0.027778     48.000000
  0.333333  0.138889  0.027778     48.000000
  0.361111  0.138889  0.027778     48.000000
  0.388889  0.138889  0.027778     48.000000
  0.416667  0.138889  0.027778     48.000000
  0.444444  0.138889  0.027778     48.000000
  0.472222  0.138889  0.027778     48.000000
  0.500000  0.138889  0.027778     24.000000
  0.166667  0.166667  0.027778     24.000000
  0.194444  0.166667  0.027778     48.000000
  0.222222  0.166667  0.027778     48.000000
  0.250000  0.166667  0.027778     48.000000
  0.277778  0.166667  0.027778     48.000000
  0.305556  0.166667  0.027778     48.000000
  0.333333  0.166667  0.027778     48.000000
  0.361111  0.166667  0.027778     48.000000
  0.388889  0.166667  0.027778     48.000000
  0.416667  0.166667  0.027778     48.000000
  0.444444  0.166667  0.027778     48.000000
  0.472222  0.166667  0.027778     48.000000
  0.500000  0.166667  0.027778     24.000000
  0.194444  0.194444  0.027778     24.000000
  0.222222  0.194444  0.027778     48.000000
  0.250000  0.194444  0.027778     48.000000
  0.277778  0.194444  0.027778     48.000000
  0.305556  0.194444  0.027778     48.000000
  0.333333  0.194444  0.027778     48.000000
  0.361111  0.194444  0.027778     48.000000
  0.388889  0.194444  0.027778     48.000000
  0.416667  0.194444  0.027778     48.000000
  0.444444  0.194444  0.027778     48.000000
  0.472222  0.194444  0.027778     48.000000
  0.500000  0.194444  0.027778     24.000000
  0.222222  0.222222  0.027778     24.000000
  0.250000  0.222222  0.027778     48.000000
  0.277778  0.222222  0.027778     48.000000
  0.305556  0.222222  0.027778     48.000000
  0.333333  0.222222  0.027778     48.000000
  0.361111  0.222222  0.027778     48.000000
  0.388889  0.222222  0.027778     48.000000
  0.416667  0.222222  0.027778     48.000000
  0.444444  0.222222  0.027778     48.000000
  0.472222  0.222222  0.027778     48.000000
  0.500000  0.222222  0.027778     24.000000
  0.250000  0.250000  0.027778     24.000000
  0.277778  0.250000  0.027778     48.000000
  0.305556  0.250000  0.027778     48.000000
  0.333333  0.250000  0.027778     48.000000
  0.361111  0.250000  0.027778     48.000000
  0.388889  0.250000  0.027778     48.000000
  0.416667  0.250000  0.027778     48.000000
  0.444444  0.250000  0.027778     48.000000
  0.472222  0.250000  0.027778     48.000000
  0.500000  0.250000  0.027778     24.000000
  0.277778  0.277778  0.027778     24.000000
  0.305556  0.277778  0.027778     48.000000
  0.333333  0.277778  0.027778     48.000000
  0.361111  0.277778  0.027778     48.000000
  0.388889  0.277778  0.027778     48.000000
  0.416667  0.277778  0.027778     48.000000
  0.444444  0.277778  0.027778     48.000000
  0.472222  0.277778  0.027778     48.000000
  0.500000  0.277778  0.027778     24.000000
  0.305556  0.305556  0.027778     24.000000
  0.333333  0.305556  0.027778     48.000000
  0.361111  0.305556  0.027778     48.000000
  0.388889  0.305556  0.027778     48.000000
  0.416667  0.305556  0.027778     48.000000
  0.444444  0.305556  0.027778     48.000000
  0.472222  0.305556  0.027778     48.000000
  0.500000  0.305556  0.027778     24.000000
  0.333333  0.333333  0.027778     24.000000
  0.361111  0.333333  0.027778     48.000000
  0.388889  0.333333  0.027778     48.000000
  0.416667  0.333333  0.027778     48.000000
  0.444444  0.333333  0.027778     48.000000
  0.472222  0.333333  0.027778     48.000000
  0.500000  0.333333  0.027778     24.000000
  0.361111  0.361111  0.027778     24.000000
  0.388889  0.361111  0.027778     48.000000
  0.416667  0.361111  0.027778     48.000000
  0.444444  0.361111  0.027778     48.000000
  0.472222  0.361111  0.027778     48.000000
  0.500000  0.361111  0.027778     24.000000
  0.388889  0.388889  0.027778     24.000000
  0.416667  0.388889  0.027778     48.000000
  0.444444  0.388889  0.027778     48.000000
  0.472222  0.388889  0.027778     48.000000
  0.500000  0.388889  0.027778     24.000000
  0.416667  0.416667  0.027778     24.000000
  0.444444  0.416667  0.027778     48.000000
  0.472222  0.416667  0.027778     48.000000
  0.500000  0.416667  0.027778     24.000000
  0.444444  0.444444  0.027778     24.000000
  0.472222  0.444444  0.027778     48.000000
  0.500000  0.444444  0.027778     24.000000
  0.472222  0.472222  0.027778     24.000000
  0.500000  0.472222  0.027778     24.000000
  0.500000  0.500000  0.027778      6.000000
  0.055556  0.055556  0.055556      8.000000
  0.083333  0.055556  0.055556     24.000000
  0.111111  0.055556  0.055556     24.000000
  0.138889  0.055556  0.055556     24.000000
  0.166667  0.055556  0.055556     24.000000
  0.194444  0.055556  0.055556     24.000000
  0.222222  0.055556  0.055556     24.000000
  0.250000  0.055556  0.055556     24.000000
  0.277778  0.055556  0.055556     24.000000
  0.305556  0.055556  0.055556     24.000000
  0.333333  0.055556  0.055556     24.000000
  0.361111  0.055556  0.055556     24.000000
  0.388889  0.055556  0.055556     24.000000
  0.416667  0.055556  0.055556     24.000000
  0.444444  0.055556  0.055556     24.000000
  0.472222  0.055556  0.055556     24.000000
  0.500000  0.055556  0.055556     12.000000
  0.083333  0.083333  0.055556     24.000000
  0.111111  0.083333  0.055556     48.000000
  0.138889  0.083333  0.055556     48.000000
  0.166667  0.083333  0.055556     48.000000
  0.194444  0.083333  0.055556     48.000000
  0.222222  0.083333  0.055556     48.000000
  0.250000  0.083333  0.055556     48.000000
  0.277778  0.083333  0.055556     48.000000
  0.305556  0.083333  0.055556     48.000000
  0.333333  0.083333  0.055556     48.000000
  0.361111  0.083333  0.055556     48.000000
  0.388889  0.083333  0.055556     48.000000
  0.416667  0.083333  0.055556     48.000000
  0.444444  0.083333  0.055556     48.000000
  0.472222  0.083333  0.055556     48.000000
  0.500000  0.083333  0.055556     24.000000
  0.111111  0.111111  0.055556     24.000000
  0.138889  0.111111  0.055556     48.000000
  0.166667  0.111111  0.055556     48.000000
  0.194444  0.111111  0.055556     48.000000
  0.222222  0.111111  0.055556     48.000000
  0.250000  0.111111  0.055556     48.000000
  0.277778  0.111111  0.055556     48.000000
  0.305556  0.111111  0.055556     48.000000
  0.333333  0.111111  0.055556     48.000000
  0.361111  0.111111  0.055556     48.000000
  0.388889  0.111111  0.055556     48.000000
  0.416667  0.111111  0.055556     48.000000
  0.444444  0.111111  0.055556     48.000000
  0.472222  0.111111  0.055556     48.000000
  0.500000  0.111111  0.055556     24.000000
  0.138889  0.138889  0.055556     24.000000
  0.166667  0.138889  0.055556     48.000000
  0.194444  0.138889  0.055556     48.000000
  0.222222  0.138889  0.055556     48.000000
  0.250000  0.138889  0.055556     48.000000
  0.277778  0.138889  0.055556     48.000000
  0.305556  0.138889  0.055556     48.000000
  0.333333  0.138889  0.055556     48.000000
  0.361111  0.138889  0.055556     48.000000
  0.388889  0.138889  0.055556     48.000000
  0.416667  0.138889  0.055556     48.000000
  0.444444  0.138889  0.055556     48.000000
  0.472222  0.138889  0.055556     48.000000
  0.500000  0.138889  0.055556     24.000000
  0.166667  0.166667  0.055556     24.000000
  0.194444  0.166667  0.055556     48.000000
  0.222222  0.166667  0.055556     48.000000
  0.250000  0.166667  0.055556     48.000000
  0.277778  0.166667  0.055556     48.000000
  0.305556  0.166667  0.055556     48.000000
  0.333333  0.166667  0.055556     48.000000
  0.361111  0.166667  0.055556     48.000000
  0.388889  0.166667  0.055556     48.000000
  0.416667  0.166667  0.055556     48.000000
  0.444444  0.166667  0.055556     48.000000
  0.472222  0.166667  0.055556     48.000000
  0.500000  0.166667  0.055556     24.000000
  0.194444  0.194444  0.055556     24.000000
  0.222222  0.194444  0.055556     48.000000
  0.250000  0.194444  0.055556     48.000000
  0.277778  0.194444  0.055556     48.000000
  0.305556  0.194444  0.055556     48.000000
  0.333333  0.194444  0.055556     48.000000
  0.361111  0.194444  0.055556     48.000000
  0.388889  0.194444  0.055556     48.000000
  0.416667  0.194444  0.055556     48.000000
  0.444444  0.194444  0.055556     48.000000
  0.472222  0.194444  0.055556     48.000000
  0.500000  0.194444  0.055556     24.000000
  0.222222  0.222222  0.055556     24.000000
  0.250000  0.222222  0.055556     48.000000
  0.277778  0.222222  0.055556     48.000000
  0.305556  0.222222  0.055556     48.000000
  0.333333  0.222222  0.055556     48.000000
  0.361111  0.222222  0.055556     48.000000
  0.388889  0.222222  0.055556     48.000000
  0.416667  0.222222  0.055556     48.000000
  0.444444  0.222222  0.055556     48.000000
  0.472222  0.222222  0.055556     48.000000
  0.500000  0.222222  0.055556     24.000000
  0.250000  0.250000  0.055556     24.000000
  0.277778  0.250000  0.055556     48.000000
  0.305556  0.250000  0.055556     48.000000
  0.333333  0.250000  0.055556     48.000000
  0.361111  0.250000  0.055556     48.000000
  0.388889  0.250000  0.055556     48.000000
  0.416667  0.250000  0.055556     48.000000
  0.444444  0.250000  0.055556     48.000000
  0.472222  0.250000  0.055556     48.000000
  0.500000  0.250000  0.055556     24.000000
  0.277778  0.277778  0.055556     24.000000
  0.305556  0.277778  0.055556     48.000000
  0.333333  0.277778  0.055556     48.000000
  0.361111  0.277778  0.055556     48.000000
  0.388889  0.277778  0.055556     48.000000
  0.416667  0.277778  0.055556     48.000000
  0.444444  0.277778  0.055556     48.000000
  0.472222  0.277778  0.055556     48.000000
  0.500000  0.277778  0.055556     24.000000
  0.305556  0.305556  0.055556     24.000000
  0.333333  0.305556  0.055556     48.000000
  0.361111  0.305556  0.055556     48.000000
  0.388889  0.305556  0.055556     48.000000
  0.416667  0.305556  0.055556     48.000000
  0.444444  0.305556  0.055556     48.000000
  0.472222  0.305556  0.055556     48.000000
  0.500000  0.305556  0.055556     24.000000
  0.333333  0.333333  0.055556     24.000000
  0.361111  0.333333  0.055556     48.000000
  0.388889  0.333333  0.055556     48.000000
  0.416667  0.333333  0.055556     48.000000
  0.444444  0.333333  0.055556     48.000000
  0.472222  0.333333  0.055556     48.000000
  0.500000  0.333333  0.055556     24.000000
  0.361111  0.361111  0.055556     24.000000
  0.388889  0.361111  0.055556     48.000000
  0.416667  0.361111  0.055556     48.000000
  0.444444  0.361111  0.055556     48.000000
  0.472222  0.361111  0.055556     48.000000
  0.500000  0.361111  0.055556     24.000000
  0.388889  0.388889  0.055556     24.000000
  0.416667  0.388889  0.055556     48.000000
  0.444444  0.388889  0.055556     48.000000
  0.472222  0.388889  0.055556     48.000000
  0.500000  0.388889  0.055556     24.000000
  0.416667  0.416667  0.055556     24.000000
  0.444444  0.416667  0.055556     48.000000
  0.472222  0.416667  0.055556     48.000000
  0.500000  0.416667  0.055556     24.000000
  0.444444  0.444444  0.055556     24.000000
  0.472222  0.444444  0.055556     48.000000
  0.500000  0.444444  0.055556     24.000000
  0.472222  0.472222  0.055556     24.000000
  0.500000  0.472222  0.055556     24.000000
  0.500000  0.500000  0.055556      6.000000
  0.083333  0.083333  0.083333      8.000000
  0.111111  0.083333  0.083333     24.000000
  0.138889  0.083333  0.083333     24.000000
  0.166667  0.083333  0.083333     24.000000
  0.194444  0.083333  0.083333     24.000000
  0.222222  0.083333  0.083333     24.000000
  0.250000  0.083333  0.083333     24.000000
  0.277778  0.083333  0.083333     24.000000
  0.305556  0.083333  0.083333     24.000000
  0.333333  0.083333  0.083333     24.000000
  0.361111  0.083333  0.083333     24.000000
  0.388889  0.083333  0.083333     24.000000
  0.416667  0.083333  0.083333     24.000000
  0.444444  0.083333  0.083333     24.000000
  0.472222  0.083333  0.083333     24.000000
  0.500000  0.083333  0.083333     12.000000
  0.111111  0.111111  0.083333     24.000000
  0.138889  0.111111  0.083333     48.000000
  0.166667  0.111111  0.083333     48.000000
  0.194444  0.111111  0.083333     48.000000
  0.222222  0.111111  0.083333     48.000000
  0.250000  0.111111  0.083333     48.000000
  0.277778  0.111111  0.083333     48.000000
  0.305556  0.111111  0.083333     48.000000
  0.333333  0.111111  0.083333     48.000000
  0.361111  0.111111  0.083333     48.000000
  0.388889  0.111111  0.083333     48.000000
  0.416667  0.111111  0.083333     48.000000
  0.444444  0.111111  0.083333     48.000000
  0.472222  0.111111  0.083333     48.000000
  0.500000  0.111111  0.083333     24.000000
  0.138889  0.138889  0.083333     24.000000
  0.166667  0.138889  0.083333     48.000000
  0.194444  0.138889  0.083333     48.000000
  0.222222  0.138889  0.083333     48.000000
  0.250000  0.138889  0.083333     48.000000
  0.277778  0.138889  0.083333     48.000000
  0.305556  0.138889  0.083333     48.000000
  0.333333  0.138889  0.083333     48.000000
  0.361111  0.138889  0.083333     48.000000
  0.388889  0.138889  0.083333     48.000000
  0.416667  0.138889  0.083333     48.000000
  0.444444  0.138889  0.083333     48.000000
  0.472222  0.138889  0.083333     48.000000
  0.500000  0.138889  0.083333     24.000000
  0.166667  0.166667  0.083333     24.000000
  0.194444  0.166667  0.083333     48.000000
  0.222222  0.166667  0.083333     48.000000
  0.250000  0.166667  0.083333     48.000000
  0.277778  0.166667  0.083333     48.000000
  0.305556  0.166667  0.083333     48.000000
  0.333333  0.166667  0.083333     48.000000
  0.361111  0.166667  0.083333     48.000000
  0.388889  0.166667  0.083333     48.000000
  0.416667  0.166667  0.083333     48.000000
  0.444444  0.166667  0.083333     48.000000
  0.472222  0.166667  0.083333     48.000000
  0.500000  0.166667  0.083333     24.000000
  0.194444  0.194444  0.083333     24.000000
  0.222222  0.194444  0.083333     48.000000
  0.250000  0.194444  0.083333     48.000000
  0.277778  0.194444  0.083333     48.000000
  0.305556  0.194444  0.083333     48.000000
  0.333333  0.194444  0.083333     48.000000
  0.361111  0.194444  0.083333     48.000000
  0.388889  0.194444  0.083333     48.000000
  0.416667  0.194444  0.083333     48.000000
  0.444444  0.194444  0.083333     48.000000
  0.472222  0.194444  0.083333     48.000000
  0.500000  0.194444  0.083333     24.000000
  0.222222  0.222222  0.083333     24.000000
  0.250000  0.222222  0.083333     48.000000
  0.277778  0.222222  0.083333     48.000000
  0.305556  0.222222  0.083333     48.000000
  0.333333  0.222222  0.083333     48.000000
  0.361111  0.222222  0.083333     48.000000
  0.388889  0.222222  0.083333     48.000000
  0.416667  0.222222  0.083333     48.000000
  0.444444  0.222222  0.083333     48.000000
  0.472222  0.222222  0.083333     48.000000
  0.500000  0.222222  0.083333     24.000000
  0.250000  0.250000  0.083333     24.000000
  0.277778  0.250000  0.083333     48.000000
  0.305556  0.250000  0.083333     48.000000
  0.333333  0.250000  0.083333     48.000000
  0.361111  0.250000  0.083333     48.000000
  0.388889  0.250000  0.083333     48.000000
  0.416667  0.250000  0.083333     48.000000
  0.444444  0.250000  0.083333     48.000000
  0.472222  0.250000  0.083333     48.000000
  0.500000  0.250000  0.083333     24.000000
  0.277778  0.277778  0.083333     24.000000
  0.305556  0.277778  0.083333     48.000000
  0.333333  0.277778  0.083333     48.000000
  0.361111  0.277778  0.083333     48.000000
  0.388889  0.277778  0.083333     48.000000
  0.416667  0.277778  0.083333     48.000000
  0.444444  0.277778  0.083333     48.000000
  0.472222  0.277778  0.083333     48.000000
  0.500000  0.277778  0.083333     24.000000
  0.305556  0.305556  0.083333     24.000000
  0.333333  0.305556  0.083333     48.000000
  0.361111  0.305556  0.083333     48.000000
  0.388889  0.305556  0.083333     48.000000
  0.416667  0.305556  0.083333     48.000000
  0.444444  0.305556  0.083333     48.000000
  0.472222  0.305556  0.083333     48.000000
  0.500000  0.305556  0.083333     24.000000
  0.333333  0.333333  0.083333     24.000000
  0.361111  0.333333  0.083333     48.000000
  0.388889  0.333333  0.083333     48.000000
  0.416667  0.333333  0.083333     48.000000
  0.444444  0.333333  0.083333     48.000000
  0.472222  0.333333  0.083333     48.000000
  0.500000  0.333333  0.083333     24.000000
  0.361111  0.361111  0.083333     24.000000
  0.388889  0.361111  0.083333     48.000000
  0.416667  0.361111  0.083333     48.000000
  0.444444  0.361111  0.083333     48.000000
  0.472222  0.361111  0.083333     48.000000
  0.500000  0.361111  0.083333     24.000000
  0.388889  0.388889  0.083333     24.000000
  0.416667  0.388889  0.083333     48.000000
  0.444444  0.388889  0.083333     48.000000
  0.472222  0.388889  0.083333     48.000000
  0.500000  0.388889  0.083333     24.000000
  0.416667  0.416667  0.083333     24.000000
  0.444444  0.416667  0.083333     48.000000
  0.472222  0.416667  0.083333     48.000000
  0.500000  0.416667  0.083333     24.000000
  0.444444  0.444444  0.083333     24.000000
  0.472222  0.444444  0.083333     48.000000
  0.500000  0.444444  0.083333     24.000000
  0.472222  0.472222  0.083333     24.000000
  0.500000  0.472222  0.083333     24.000000
  0.500000  0.500000  0.083333      6.000000
  0.111111  0.111111  0.111111      8.000000
  0.138889  0.111111  0.111111     24.000000
  0.166667  0.111111  0.111111     24.000000
  0.194444  0.111111  0.111111     24.000000
  0.222222  0.111111  0.111111     24.000000
  0.250000  0.111111  0.111111     24.000000
  0.277778  0.111111  0.111111     24.000000
  0.305556  0.111111  0.111111     24.000000
  0.333333  0.111111  0.111111     24.000000
  0.361111  0.111111  0.111111     24.000000
  0.388889  0.111111  0.111111     24.000000
  0.416667  0.111111  0.111111     24.000000
  0.444444  0.111111  0.111111     24.000000
  0.472222  0.111111  0.111111     24.000000
  0.500000  0.111111  0.111111     12.000000
  0.138889  0.138889  0.111111     24.000000
  0.166667  0.138889  0.111111     48.000000
  0.194444  0.138889  0.111111     48.000000
  0.222222  0.138889  0.111111     48.000000
  0.250000  0.138889  0.111111     48.000000
  0.277778  0.138889  0.111111     48.000000
  0.305556  0.138889  0.111111     48.000000
  0.333333  0.138889  0.111111     48.000000
  0.361111  0.138889  0.111111     48.000000
  0.388889  0.138889  0.111111     48.000000
  0.416667  0.138889  0.111111     48.000000
  0.444444  0.138889  0.111111     48.000000
  0.472222  0.138889  0.111111     48.000000
  0.500000  0.138889  0.111111     24.000000
  0.166667  0.166667  0.111111     24.000000
  0.194444  0.166667  0.111111     48.000000
  0.222222  0.166667  0.111111     48.000000
  0.250000  0.166667  0.111111     48.000000
  0.277778  0.166667  0.111111     48.000000
  0.305556  0.166667  0.111111     48.000000
  0.333333  0.166667  0.111111     48.000000
  0.361111  0.166667  0.111111     48.000000
  0.388889  0.166667  0.111111     48.000000
  0.416667  0.166667  0.111111     48.000000
  0.444444  0.166667  0.111111     48.000000
  0.472222  0.166667  0.111111     48.000000
  0.500000  0.166667  0.111111     24.000000
  0.194444  0.194444  0.111111     24.000000
  0.222222  0.194444  0.111111     48.000000
  0.250000  0.194444  0.111111     48.000000
  0.277778  0.194444  0.111111     48.000000
  0.305556  0.194444  0.111111     48.000000
  0.333333  0.194444  0.111111     48.000000
  0.361111  0.194444  0.111111     48.000000
  0.388889  0.194444  0.111111     48.000000
  0.416667  0.194444  0.111111     48.000000
  0.444444  0.194444  0.111111     48.000000
  0.472222  0.194444  0.111111     48.000000
  0.500000  0.194444  0.111111     24.000000
  0.222222  0.222222  0.111111     24.000000
  0.250000  0.222222  0.111111     48.000000
  0.277778  0.222222  0.111111     48.000000
  0.305556  0.222222  0.111111     48.000000
  0.333333  0.222222  0.111111     48.000000
  0.361111  0.222222  0.111111     48.000000
  0.388889  0.222222  0.111111     48.000000
  0.416667  0.222222  0.111111     48.000000
  0.444444  0.222222  0.111111     48.000000
  0.472222  0.222222  0.111111     48.000000
  0.500000  0.222222  0.111111     24.000000
  0.250000  0.250000  0.111111     24.000000
  0.277778  0.250000  0.111111     48.000000
  0.305556  0.250000  0.111111     48.000000
  0.333333  0.250000  0.111111     48.000000
  0.361111  0.250000  0.111111     48.000000
  0.388889  0.250000  0.111111     48.000000
  0.416667  0.250000  0.111111     48.000000
  0.444444  0.250000  0.111111     48.000000
  0.472222  0.250000  0.111111     48.000000
  0.500000  0.250000  0.111111     24.000000
  0.277778  0.277778  0.111111     24.000000
  0.305556  0.277778  0.111111     48.000000
  0.333333  0.277778  0.111111     48.000000
  0.361111  0.277778  0.111111     48.000000
  0.388889  0.277778  0.111111     48.000000
  0.416667  0.277778  0.111111     48.000000
  0.444444  0.277778  0.111111     48.000000
  0.472222  0.277778  0.111111     48.000000
  0.500000  0.277778  0.111111     24.000000
  0.305556  0.305556  0.111111     24.000000
  0.333333  0.305556  0.111111     48.000000
  0.361111  0.305556  0.111111     48.000000
  0.388889  0.305556  0.111111     48.000000
  0.416667  0.305556  0.111111     48.000000
  0.444444  0.305556  0.111111     48.000000
  0.472222  0.305556  0.111111     48.000000
  0.500000  0.305556  0.111111     24.000000
  0.333333  0.333333  0.111111     24.000000
  0.361111  0.333333  0.111111     48.000000
  0.388889  0.333333  0.111111     48.000000
  0.416667  0.333333  0.111111     48.000000
  0.444444  0.333333  0.111111     48.000000
  0.472222  0.333333  0.111111     48.000000
  0.500000  0.333333  0.111111     24.000000
  0.361111  0.361111  0.111111     24.000000
  0.388889  0.361111  0.111111     48.000000
  0.416667  0.361111  0.111111     48.000000
  0.444444  0.361111  0.111111     48.000000
  0.472222  0.361111  0.111111     48.000000
  0.500000  0.361111  0.111111     24.000000
  0.388889  0.388889  0.111111     24.000000
  0.416667  0.388889  0.111111     48.000000
  0.444444  0.388889  0.111111     48.000000
  0.472222  0.388889  0.111111     48.000000
  0.500000  0.388889  0.111111     24.000000
  0.416667  0.416667  0.111111     24.000000
  0.444444  0.416667  0.111111     48.000000
  0.472222  0.416667  0.111111     48.000000
  0.500000  0.416667  0.111111     24.000000
  0.444444  0.444444  0.111111     24.000000
  0.472222  0.444444  0.111111     48.000000
  0.500000  0.444444  0.111111     24.000000
  0.472222  0.472222  0.111111     24.000000
  0.500000  0.472222  0.111111     24.000000
  0.500000  0.500000  0.111111      6.000000
  0.138889  0.138889  0.138889      8.000000
  0.166667  0.138889  0.138889     24.000000
  0.194444  0.138889  0.138889     24.000000
  0.222222  0.138889  0.138889     24.000000
  0.250000  0.138889  0.138889     24.000000
  0.277778  0.138889  0.138889     24.000000
  0.305556  0.138889  0.138889     24.000000
  0.333333  0.138889  0.138889     24.000000
  0.361111  0.138889  0.138889     24.000000
  0.388889  0.138889  0.138889     24.000000
  0.416667  0.138889  0.138889     24.000000
  0.444444  0.138889  0.138889     24.000000
  0.472222  0.138889  0.138889     24.000000
  0.500000  0.138889  0.138889     12.000000
  0.166667  0.166667  0.138889     24.000000
  0.194444  0.166667  0.138889     48.000000
  0.222222  0.166667  0.138889     48.000000
  0.250000  0.166667  0.138889     48.000000
  0.277778  0.166667  0.138889     48.000000
  0.305556  0.166667  0.138889     48.000000
  0.333333  0.166667  0.138889     48.000000
  0.361111  0.166667  0.138889     48.000000
  0.388889  0.166667  0.138889     48.000000
  0.416667  0.166667  0.138889     48.000000
  0.444444  0.166667  0.138889     48.000000
  0.472222  0.166667  0.138889     48.000000
  0.500000  0.166667  0.138889     24.000000
  0.194444  0.194444  0.138889     24.000000
  0.222222  0.194444  0.138889     48.000000
  0.250000  0.194444  0.138889     48.000000
  0.277778  0.194444  0.138889     48.000000
  0.305556  0.194444  0.138889     48.000000
  0.333333  0.194444  0.138889     48.000000
  0.361111  0.194444  0.138889     48.000000
  0.388889  0.194444  0.138889     48.000000
  0.416667  0.194444  0.138889     48.000000
  0.444444  0.194444  0.138889     48.000000
  0.472222  0.194444  0.138889     48.000000
  0.500000  0.194444  0.138889     24.000000
  0.222222  0.222222  0.138889     24.000000
  0.250000  0.222222  0.138889     48.000000
  0.277778  0.222222  0.138889     48.000000
  0.305556  0.222222  0.138889     48.000000
  0.333333  0.222222  0.138889     48.000000
  0.361111  0.222222  0.138889     48.000000
  0.388889  0.222222  0.138889     48.000000
  0.416667  0.222222  0.138889     48.000000
  0.444444  0.222222  0.138889     48.000000
  0.472222  0.222222  0.138889     48.000000
  0.500000  0.222222  0.138889     24.000000
  0.250000  0.250000  0.138889     24.000000
  0.277778  0.250000  0.138889     48.000000
  0.305556  0.250000  0.138889     48.000000
  0.333333  0.250000  0.138889     48.000000
  0.361111  0.250000  0.138889     48.000000
  0.388889  0.250000  0.138889     48.000000
  0.416667  0.250000  0.138889     48.000000
  0.444444  0.250000  0.138889     48.000000
  0.472222  0.250000  0.138889     48.000000
  0.500000  0.250000  0.138889     24.000000
  0.277778  0.277778  0.138889     24.000000
  0.305556  0.277778  0.138889     48.000000
  0.333333  0.277778  0.138889     48.000000
  0.361111  0.277778  0.138889     48.000000
  0.388889  0.277778  0.138889     48.000000
  0.416667  0.277778  0.138889     48.000000
  0.444444  0.277778  0.138889     48.000000
  0.472222  0.277778  0.138889     48.000000
  0.500000  0.277778  0.138889     24.000000
  0.305556  0.305556  0.138889     24.000000
  0.333333  0.305556  0.138889     48.000000
  0.361111  0.305556  0.138889     48.000000
  0.388889  0.305556  0.138889     48.000000
  0.416667  0.305556  0.138889     48.000000
  0.444444  0.305556  0.138889     48.000000
  0.472222  0.305556  0.138889     48.000000
  0.500000  0.305556  0.138889     24.000000
  0.333333  0.333333  0.138889     24.000000
  0.361111  0.333333  0.138889     48.000000
  0.388889  0.333333  0.138889     48.000000
  0.416667  0.333333  0.138889     48.000000
  0.444444  0.333333  0.138889     48.000000
  0.472222  0.333333  0.138889     48.000000
  0.500000  0.333333  0.138889     24.000000
  0.361111  0.361111  0.138889     24.000000
  0.388889  0.361111  0.138889     48.000000
  0.416667  0.361111  0.138889     48.000000
  0.444444  0.361111  0.138889     48.000000
  0.472222  0.361111  0.138889     48.000000
  0.500000  0.361111  0.138889     24.000000
  0.388889  0.388889  0.138889     24.000000
  0.416667  0.388889  0.138889     48.000000
  0.444444  0.388889  0.138889     48.000000
  0.472222  0.388889  0.138889     48.000000
  0.500000  0.388889  0.138889     24.000000
  0.416667  0.416667  0.138889     24.000000
  0.444444  0.416667  0.138889     48.000000
  0.472222  0.416667  0.138889     48.000000
  0.500000  0.416667  0.138889     24.000000
  0.444444  0.444444  0.138889     24.000000
  0.472222  0.444444  0.138889     48.000000
  0.500000  0.444444  0.138889     24.000000
  0.472222  0.472222  0.138889     24.000000
  0.500000  0.472222  0.138889     24.000000
  0.500000  0.500000  0.138889      6.000000
  0.166667  0.166667  0.166667      8.000000
  0.194444  0.166667  0.166667     24.000000
  0.222222  0.166667  0.166667     24.000000
  0.250000  0.166667  0.166667     24.000000
  0.277778  0.166667  0.166667     24.000000
  0.305556  0.166667  0.166667     24.000000
  0.333333  0.166667  0.166667     24.000000
  0.361111  0.166667  0.166667     24.000000
  0.388889  0.166667  0.166667     24.000000
  0.416667  0.166667  0.166667     24.000000
  0.444444  0.166667  0.166667     24.000000
  0.472222  0.166667  0.166667     24.000000
  0.500000  0.166667  0.166667     12.000000
  0.194444  0.194444  0.166667     24.000000
  0.222222  0.194444  0.166667     48.000000
  0.250000  0.194444  0.166667     48.000000
  0.277778  0.194444  0.166667     48.000000
  0.305556  0.194444  0.166667     48.000000
  0.333333  0.194444  0.166667     48.000000
  0.361111  0.194444  0.166667     48.000000
  0.388889  0.194444  0.166667     48.000000
  0.416667  0.194444  0.166667     48.000000
  0.444444  0.194444  0.166667     48.000000
  0.472222  0.194444  0.166667     48.000000
  0.500000  0.194444  0.166667     24.000000
  0.222222  0.222222  0.166667     24.000000
  0.250000  0.222222  0.166667     48.000000
  0.277778  0.222222  0.166667     48.000000
  0.305556  0.222222  0.166667     48.000000
  0.333333  0.222222  0.166667     48.000000
  0.361111  0.222222  0.166667     48.000000
  0.388889  0.222222  0.166667     48.000000
  0.416667  0.222222  0.166667     48.000000
  0.444444  0.222222  0.166667     48.000000
  0.472222  0.222222  0.166667     48.000000
  0.500000  0.222222  0.166667     24.000000
  0.250000  0.250000  0.166667     24.000000
  0.277778  0.250000  0.166667     48.000000
  0.305556  0.250000  0.166667     48.000000
  0.333333  0.250000  0.166667     48.000000
  0.361111  0.250000  0.166667     48.000000
  0.388889  0.250000  0.166667     48.000000
  0.416667  0.250000  0.166667     48.000000
  0.444444  0.250000  0.166667     48.000000
  0.472222  0.250000  0.166667     48.000000
  0.500000  0.250000  0.166667     24.000000
  0.277778  0.277778  0.166667     24.000000
  0.305556  0.277778  0.166667     48.000000
  0.333333  0.277778  0.166667     48.000000
  0.361111  0.277778  0.166667     48.000000
  0.388889  0.277778  0.166667     48.000000
  0.416667  0.277778  0.166667     48.000000
  0.444444  0.277778  0.166667     48.000000
  0.472222  0.277778  0.166667     48.000000
  0.500000  0.277778  0.166667     24.000000
  0.305556  0.305556  0.166667     24.000000
  0.333333  0.305556  0.166667     48.000000
  0.361111  0.305556  0.166667     48.000000
  0.388889  0.305556  0.166667     48.000000
  0.416667  0.305556  0.166667     48.000000
  0.444444  0.305556  0.166667     48.000000
  0.472222  0.305556  0.166667     48.000000
  0.500000  0.305556  0.166667     24.000000
  0.333333  0.333333  0.166667     24.000000
  0.361111  0.333333  0.166667     48.000000
  0.388889  0.333333  0.166667     48.000000
  0.416667  0.333333  0.166667     48.000000
  0.444444  0.333333  0.166667     48.000000
  0.472222  0.333333  0.166667     48.000000
  0.500000  0.333333  0.166667     24.000000
  0.361111  0.361111  0.166667     24.000000
  0.388889  0.361111  0.166667     48.000000
  0.416667  0.361111  0.166667     48.000000
  0.444444  0.361111  0.166667     48.000000
  0.472222  0.361111  0.166667     48.000000
  0.500000  0.361111  0.166667     24.000000
  0.388889  0.388889  0.166667     24.000000
  0.416667  0.388889  0.166667     48.000000
  0.444444  0.388889  0.166667     48.000000
  0.472222  0.388889  0.166667     48.000000
  0.500000  0.388889  0.166667     24.000000
  0.416667  0.416667  0.166667     24.000000
  0.444444  0.416667  0.166667     48.000000
  0.472222  0.416667  0.166667     48.000000
  0.500000  0.416667  0.166667     24.000000
  0.444444  0.444444  0.166667     24.000000
  0.472222  0.444444  0.166667     48.000000
  0.500000  0.444444  0.166667     24.000000
  0.472222  0.472222  0.166667     24.000000
  0.500000  0.472222  0.166667     24.000000
  0.500000  0.500000  0.166667      6.000000
  0.194444  0.194444  0.194444      8.000000
  0.222222  0.194444  0.194444     24.000000
  0.250000  0.194444  0.194444     24.000000
  0.277778  0.194444  0.194444     24.000000
  0.305556  0.194444  0.194444     24.000000
  0.333333  0.194444  0.194444     24.000000
  0.361111  0.194444  0.194444     24.000000
  0.388889  0.194444  0.194444     24.000000
  0.416667  0.194444  0.194444     24.000000
  0.444444  0.194444  0.194444     24.000000
  0.472222  0.194444  0.194444     24.000000
  0.500000  0.194444  0.194444     12.000000
  0.222222  0.222222  0.194444     24.000000
  0.250000  0.222222  0.194444     48.000000
  0.277778  0.222222  0.194444     48.000000
  0.305556  0.222222  0.194444     48.000000
  0.333333  0.222222  0.194444     48.000000
  0.361111  0.222222  0.194444     48.000000
  0.388889  0.222222  0.194444     48.000000
  0.416667  0.222222  0.194444     48.000000
  0.444444  0.222222  0.194444     48.000000
  0.472222  0.222222  0.194444     48.000000
  0.500000  0.222222  0.194444     24.000000
  0.250000  0.250000  0.194444     24.000000
  0.277778  0.250000  0.194444     48.000000
  0.305556  0.250000  0.194444     48.000000
  0.333333  0.250000  0.194444     48.000000
  0.361111  0.250000  0.194444     48.000000
  0.388889  0.250000  0.194444     48.000000
  0.416667  0.250000  0.194444     48.000000
  0.444444  0.250000  0.194444     48.000000
  0.472222  0.250000  0.194444     48.000000
  0.500000  0.250000  0.194444     24.000000
  0.277778  0.277778  0.194444     24.000000
  0.305556  0.277778  0.194444     48.000000
  0.333333  0.277778  0.194444     48.000000
  0.361111  0.277778  0.194444     48.000000
  0.388889  0.277778  0.194444     48.000000
  0.416667  0.277778  0.194444     48.000000
  0.444444  0.277778  0.194444     48.000000
  0.472222  0.277778  0.194444     48.000000
  0.500000  0.277778  0.194444     24.000000
  0.305556  0.305556  0.194444     24.000000
  0.333333  0.305556  0.194444     48.000000
  0.361111  0.305556  0.194444     48.000000
  0.388889  0.305556  0.194444     48.000000
  0.416667  0.305556  0.194444     48.000000
  0.444444  0.305556  0.194444     48.000000
  0.472222  0.305556  0.194444     48.000000
  0.500000  0.305556  0.194444     24.000000
  0.333333  0.333333  0.194444     24.000000
  0.361111  0.333333  0.194444     48.000000
  0.388889  0.333333  0.194444     48.000000
  0.416667  0.333333  0.194444     48.000000
  0.444444  0.333333  0.194444     48.000000
  0.472222  0.333333  0.194444     48.000000
  0.500000  0.333333  0.194444     24.000000
  0.361111  0.361111  0.194444     24.000000
  0.388889  0.361111  0.194444     48.000000
  0.416667  0.361111  0.194444     48.000000
  0.444444  0.361111  0.194444     48.000000
  0.472222  0.361111  0.194444     48.000000
  0.500000  0.361111  0.194444     24.000000
  0.388889  0.388889  0.194444     24.000000
  0.416667  0.388889  0.194444     48.000000
  0.444444  0.388889  0.194444     48.000000
  0.472222  0.388889  0.194444     48.000000
  0.500000  0.388889  0.194444     24.000000
  0.416667  0.416667  0.194444     24.000000
  0.444444  0.416667  0.194444     48.000000
  0.472222  0.416667  0.194444     48.000000
  0.500000  0.416667  0.194444     24.000000
  0.444444  0.444444  0.194444     24.000000
  0.472222  0.444444  0.194444     48.000000
  0.500000  0.444444  0.194444     24.000000
  0.472222  0.472222  0.194444     24.000000
  0.500000  0.472222  0.194444     24.000000
  0.500000  0.500000  0.194444      6.000000
  0.222222  0.222222  0.222222      8.000000
  0.250000  0.222222  0.222222     24.000000
  0.277778  0.222222  0.222222     24.000000
  0.305556  0.222222  0.222222     24.000000
  0.333333  0.222222  0.222222     24.000000
  0.361111  0.222222  0.222222     24.000000
  0.388889  0.222222  0.222222     24.000000
  0.416667  0.222222  0.222222     24.000000
  0.444444  0.222222  0.222222     24.000000
  0.472222  0.222222  0.222222     24.000000
  0.500000  0.222222  0.222222     12.000000
  0.250000  0.250000  0.222222     24.000000
  0.277778  0.250000  0.222222     48.000000
  0.305556  0.250000  0.222222     48.000000
  0.333333  0.250000  0.222222     48.000000
  0.361111  0.250000  0.222222     48.000000
  0.388889  0.250000  0.222222     48.000000
  0.416667  0.250000  0.222222     48.000000
  0.444444  0.250000  0.222222     48.000000
  0.472222  0.250000  0.222222     48.000000
  0.500000  0.250000  0.222222     24.000000
  0.277778  0.277778  0.222222     24.000000
  0.305556  0.277778  0.222222     48.000000
  0.333333  0.277778  0.222222     48.000000
  0.361111  0.277778  0.222222     48.000000
  0.388889  0.277778  0.222222     48.000000
  0.416667  0.277778  0.222222     48.000000
  0.444444  0.277778  0.222222     48.000000
  0.472222  0.277778  0.222222     48.000000
  0.500000  0.277778  0.222222     24.000000
  0.305556  0.305556  0.222222     24.000000
  0.333333  0.305556  0.222222     48.000000
  0.361111  0.305556  0.222222     48.000000
  0.388889  0.305556  0.222222     48.000000
  0.416667  0.305556  0.222222     48.000000
  0.444444  0.305556  0.222222     48.000000
  0.472222  0.305556  0.222222     48.000000
  0.500000  0.305556  0.222222     24.000000
  0.333333  0.333333  0.222222     24.000000
  0.361111  0.333333  0.222222     48.000000
  0.388889  0.333333  0.222222     48.000000
  0.416667  0.333333  0.222222     48.000000
  0.444444  0.333333  0.222222     48.000000
  0.472222  0.333333  0.222222     48.000000
  0.500000  0.333333  0.222222     24.000000
  0.361111  0.361111  0.222222     24.000000
  0.388889  0.361111  0.222222     48.000000
  0.416667  0.361111  0.222222     48.000000
  0.444444  0.361111  0.222222     48.000000
  0.472222  0.361111  0.222222     48.000000
  0.500000  0.361111  0.222222     24.000000
  0.388889  0.388889  0.222222     24.000000
  0.416667  0.388889  0.222222     48.000000
  0.444444  0.388889  0.222222     48.000000
  0.472222  0.388889  0.222222     48.000000
  0.500000  0.388889  0.222222     24.000000
  0.416667  0.416667  0.222222     24.000000
  0.444444  0.416667  0.222222     48.000000
  0.472222  0.416667  0.222222     48.000000
  0.500000  0.416667  0.222222     24.000000
  0.444444  0.444444  0.222222     24.000000
  0.472222  0.444444  0.222222     48.000000
  0.500000  0.444444  0.222222     24.000000
  0.472222  0.472222  0.222222     24.000000
  0.500000  0.472222  0.222222     24.000000
  0.500000  0.500000  0.222222      6.000000
  0.250000  0.250000  0.250000      8.000000
  0.277778  0.250000  0.250000     24.000000
  0.305556  0.250000  0.250000     24.000000
  0.333333  0.250000  0.250000     24.000000
  0.361111  0.250000  0.250000     24.000000
  0.388889  0.250000  0.250000     24.000000
  0.416667  0.250000  0.250000     24.000000
  0.444444  0.250000  0.250000     24.000000
  0.472222  0.250000  0.250000     24.000000
  0.500000  0.250000  0.250000     12.000000
  0.277778  0.277778  0.250000     24.000000
  0.305556  0.277778  0.250000     48.000000
  0.333333  0.277778  0.250000     48.000000
  0.361111  0.277778  0.250000     48.000000
  0.388889  0.277778  0.250000     48.000000
  0.416667  0.277778  0.250000     48.000000
  0.444444  0.277778  0.250000     48.000000
  0.472222  0.277778  0.250000     48.000000
  0.500000  0.277778  0.250000     24.000000
  0.305556  0.305556  0.250000     24.000000
  0.333333  0.305556  0.250000     48.000000
  0.361111  0.305556  0.250000     48.000000
  0.388889  0.305556  0.250000     48.000000
  0.416667  0.305556  0.250000     48.000000
  0.444444  0.305556  0.250000     48.000000
  0.472222  0.305556  0.250000     48.000000
  0.500000  0.305556  0.250000     24.000000
  0.333333  0.333333  0.250000     24.000000
  0.361111  0.333333  0.250000     48.000000
  0.388889  0.333333  0.250000     48.000000
  0.416667  0.333333  0.250000     48.000000
  0.444444  0.333333  0.250000     48.000000
  0.472222  0.333333  0.250000     48.000000
  0.500000  0.333333  0.250000     24.000000
  0.361111  0.361111  0.250000     24.000000
  0.388889  0.361111  0.250000     48.000000
  0.416667  0.361111  0.250000     48.000000
  0.444444  0.361111  0.250000     48.000000
  0.472222  0.361111  0.250000     48.000000
  0.500000  0.361111  0.250000     24.000000
  0.388889  0.388889  0.250000     24.000000
  0.416667  0.388889  0.250000     48.000000
  0.444444  0.388889  0.250000     48.000000
  0.472222  0.388889  0.250000     48.000000
  0.500000  0.388889  0.250000     24.000000
  0.416667  0.416667  0.250000     24.000000
  0.444444  0.416667  0.250000     48.000000
  0.472222  0.416667  0.250000     48.000000
  0.500000  0.416667  0.250000     24.000000
  0.444444  0.444444  0.250000     24.000000
  0.472222  0.444444  0.250000     48.000000
  0.500000  0.444444  0.250000     24.000000
  0.472222  0.472222  0.250000     24.000000
  0.500000  0.472222  0.250000     24.000000
  0.500000  0.500000  0.250000      6.000000
  0.277778  0.277778  0.277778      8.000000
  0.305556  0.277778  0.277778     24.000000
  0.333333  0.277778  0.277778     24.000000
  0.361111  0.277778  0.277778     24.000000
  0.388889  0.277778  0.277778     24.000000
  0.416667  0.277778  0.277778     24.000000
  0.444444  0.277778  0.277778     24.000000
  0.472222  0.277778  0.277778     24.000000
  0.500000  0.277778  0.277778     12.000000
  0.305556  0.305556  0.277778     24.000000
  0.333333  0.305556  0.277778     48.000000
  0.361111  0.305556  0.277778     48.000000
  0.388889  0.305556  0.277778     48.000000
  0.416667  0.305556  0.277778     48.000000
  0.444444  0.305556  0.277778     48.000000
  0.472222  0.305556  0.277778     48.000000
  0.500000  0.305556  0.277778     24.000000
  0.333333  0.333333  0.277778     24.000000
  0.361111  0.333333  0.277778     48.000000
  0.388889  0.333333  0.277778     48.000000
  0.416667  0.333333  0.277778     48.000000
  0.444444  0.333333  0.277778     48.000000
  0.472222  0.333333  0.277778     48.000000
  0.500000  0.333333  0.277778     24.000000
  0.361111  0.361111  0.277778     24.000000
  0.388889  0.361111  0.277778     48.000000
  0.416667  0.361111  0.277778     48.000000
  0.444444  0.361111  0.277778     48.000000
  0.472222  0.361111  0.277778     48.000000
  0.500000  0.361111  0.277778     24.000000
  0.388889  0.388889  0.277778     24.000000
  0.416667  0.388889  0.277778     48.000000
  0.444444  0.388889  0.277778     48.000000
  0.472222  0.388889  0.277778     48.000000
  0.500000  0.388889  0.277778     24.000000
  0.416667  0.416667  0.277778     24.000000
  0.444444  0.416667  0.277778     48.000000
  0.472222  0.416667  0.277778     48.000000
  0.500000  0.416667  0.277778     24.000000
  0.444444  0.444444  0.277778     24.000000
  0.472222  0.444444  0.277778     48.000000
  0.500000  0.444444  0.277778     24.000000
  0.472222  0.472222  0.277778     24.000000
  0.500000  0.472222  0.277778     24.000000
  0.500000  0.500000  0.277778      6.000000
  0.305556  0.305556  0.305556      8.000000
  0.333333  0.305556  0.305556     24.000000
  0.361111  0.305556  0.305556     24.000000
  0.388889  0.305556  0.305556     24.000000
  0.416667  0.305556  0.305556     24.000000
  0.444444  0.305556  0.305556     24.000000
  0.472222  0.305556  0.305556     24.000000
  0.500000  0.305556  0.305556     12.000000
  0.333333  0.333333  0.305556     24.000000
  0.361111  0.333333  0.305556     48.000000
  0.388889  0.333333  0.305556     48.000000
  0.416667  0.333333  0.305556     48.000000
  0.444444  0.333333  0.305556     48.000000
  0.472222  0.333333  0.305556     48.000000
  0.500000  0.333333  0.305556     24.000000
  0.361111  0.361111  0.305556     24.000000
  0.388889  0.361111  0.305556     48.000000
  0.416667  0.361111  0.305556     48.000000
  0.444444  0.361111  0.305556     48.000000
  0.472222  0.361111  0.305556     48.000000
  0.500000  0.361111  0.305556     24.000000
  0.388889  0.388889  0.305556     24.000000
  0.416667  0.388889  0.305556     48.000000
  0.444444  0.388889  0.305556     48.000000
  0.472222  0.388889  0.305556     48.000000
  0.500000  0.388889  0.305556     24.000000
  0.416667  0.416667  0.305556     24.000000
  0.444444  0.416667  0.305556     48.000000
  0.472222  0.416667  0.305556     48.000000
  0.500000  0.416667  0.305556     24.000000
  0.444444  0.444444  0.305556     24.000000
  0.472222  0.444444  0.305556     48.000000
  0.500000  0.444444  0.305556     24.000000
  0.472222  0.472222  0.305556     24.000000
  0.500000  0.472222  0.305556     24.000000
  0.500000  0.500000  0.305556      6.000000
  0.333333  0.333333  0.333333      8.000000
  0.361111  0.333333  0.333333     24.000000
  0.388889  0.333333  0.333333     24.000000
  0.416667  0.333333  0.333333     24.000000
  0.444444  0.333333  0.333333     24.000000
  0.472222  0.333333  0.333333     24.000000
  0.500000  0.333333  0.333333     12.000000
  0.361111  0.361111  0.333333     24.000000
  0.388889  0.361111  0.333333     48.000000
  0.416667  0.361111  0.333333     48.000000
  0.444444  0.361111  0.333333     48.000000
  0.472222  0.361111  0.333333     48.000000
  0.500000  0.361111  0.333333     24.000000
  0.388889  0.388889  0.333333     24.000000
  0.416667  0.388889  0.333333     48.000000
  0.444444  0.388889  0.333333     48.000000
  0.472222  0.388889  0.333333     48.000000
  0.500000  0.388889  0.333333     24.000000
  0.416667  0.416667  0.333333     24.000000
  0.444444  0.416667  0.333333     48.000000
  0.472222  0.416667  0.333333     48.000000
  0.500000  0.416667  0.333333     24.000000
  0.444444  0.444444  0.333333     24.000000
  0.472222  0.444444  0.333333     48.000000
  0.500000  0.444444  0.333333     24.000000
  0.472222  0.472222  0.333333     24.000000
  0.500000  0.472222  0.333333     24.000000
  0.500000  0.500000  0.333333      6.000000
  0.361111  0.361111  0.361111      8.000000
  0.388889  0.361111  0.361111     24.000000
  0.416667  0.361111  0.361111     24.000000
  0.444444  0.361111  0.361111     24.000000
  0.472222  0.361111  0.361111     24.000000
  0.500000  0.361111  0.361111     12.000000
  0.388889  0.388889  0.361111     24.000000
  0.416667  0.388889  0.361111     48.000000
  0.444444  0.388889  0.361111     48.000000
  0.472222  0.388889  0.361111     48.000000
  0.500000  0.388889  0.361111     24.000000
  0.416667  0.416667  0.361111     24.000000
  0.444444  0.416667  0.361111     48.000000
  0.472222  0.416667  0.361111     48.000000
  0.500000  0.416667  0.361111     24.000000
  0.444444  0.444444  0.361111     24.000000
  0.472222  0.444444  0.361111     48.000000
  0.500000  0.444444  0.361111     24.000000
  0.472222  0.472222  0.361111     24.000000
  0.500000  0.472222  0.361111     24.000000
  0.500000  0.500000  0.361111      6.000000
  0.388889  0.388889  0.388889      8.000000
  0.416667  0.388889  0.388889     24.000000
  0.444444  0.388889  0.388889     24.000000
  0.472222  0.388889  0.388889     24.000000
  0.500000  0.388889  0.388889     12.000000
  0.416667  0.416667  0.388889     24.000000
  0.444444  0.416667  0.388889     48.000000
  0.472222  0.416667  0.388889     48.000000
  0.500000  0.416667  0.388889     24.000000
  0.444444  0.444444  0.388889     24.000000
  0.472222  0.444444  0.388889     48.000000
  0.500000  0.444444  0.388889     24.000000
  0.472222  0.472222  0.388889     24.000000
  0.500000  0.472222  0.388889     24.000000
  0.500000  0.500000  0.388889      6.000000
  0.416667  0.416667  0.416667      8.000000
  0.444444  0.416667  0.416667     24.000000
  0.472222  0.416667  0.416667     24.000000
  0.500000  0.416667  0.416667     12.000000
  0.444444  0.444444  0.416667     24.000000
  0.472222  0.444444  0.416667     48.000000
  0.500000  0.444444  0.416667     24.000000
  0.472222  0.472222  0.416667     24.000000
  0.500000  0.472222  0.416667     24.000000
  0.500000  0.500000  0.416667      6.000000
  0.444444  0.444444  0.444444      8.000000
  0.472222  0.444444  0.444444     24.000000
  0.500000  0.444444  0.444444     12.000000
  0.472222  0.472222  0.444444     24.000000
  0.500000  0.472222  0.444444     24.000000
  0.500000  0.500000  0.444444      6.000000
  0.472222  0.472222  0.472222      8.000000
  0.500000  0.472222  0.472222     12.000000
  0.500000  0.500000  0.472222      6.000000
  0.500000  0.500000  0.500000      1.000000
 
 Following cartesian coordinates:
            Coordinates               Weight
  0.000000  0.000000  0.000000      1.000000
  0.007638  0.000000  0.000000      6.000000
  0.015276  0.000000  0.000000      6.000000
  0.022914  0.000000  0.000000      6.000000
  0.030552  0.000000  0.000000      6.000000
  0.038190  0.000000  0.000000      6.000000
  0.045828  0.000000  0.000000      6.000000
  0.053465  0.000000  0.000000      6.000000
  0.061103  0.000000  0.000000      6.000000
  0.068741  0.000000  0.000000      6.000000
  0.076379  0.000000  0.000000      6.000000
  0.084017  0.000000  0.000000      6.000000
  0.091655  0.000000  0.000000      6.000000
  0.099293  0.000000  0.000000      6.000000
  0.106931  0.000000  0.000000      6.000000
  0.114569  0.000000  0.000000      6.000000
  0.122207  0.000000  0.000000      6.000000
  0.129845  0.000000  0.000000      6.000000
  0.137483  0.000000  0.000000      3.000000
  0.007638  0.007638  0.000000     12.000000
  0.015276  0.007638  0.000000     24.000000
  0.022914  0.007638  0.000000     24.000000
  0.030552  0.007638  0.000000     24.000000
  0.038190  0.007638  0.000000     24.000000
  0.045828  0.007638  0.000000     24.000000
  0.053465  0.007638  0.000000     24.000000
  0.061103  0.007638  0.000000     24.000000
  0.068741  0.007638  0.000000     24.000000
  0.076379  0.007638  0.000000     24.000000
  0.084017  0.007638  0.000000     24.000000
  0.091655  0.007638  0.000000     24.000000
  0.099293  0.007638  0.000000     24.000000
  0.106931  0.007638  0.000000     24.000000
  0.114569  0.007638  0.000000     24.000000
  0.122207  0.007638  0.000000     24.000000
  0.129845  0.007638  0.000000     24.000000
  0.137483  0.007638  0.000000     12.000000
  0.015276  0.015276  0.000000     12.000000
  0.022914  0.015276  0.000000     24.000000
  0.030552  0.015276  0.000000     24.000000
  0.038190  0.015276  0.000000     24.000000
  0.045828  0.015276  0.000000     24.000000
  0.053465  0.015276  0.000000     24.000000
  0.061103  0.015276  0.000000     24.000000
  0.068741  0.015276  0.000000     24.000000
  0.076379  0.015276  0.000000     24.000000
  0.084017  0.015276  0.000000     24.000000
  0.091655  0.015276  0.000000     24.000000
  0.099293  0.015276  0.000000     24.000000
  0.106931  0.015276  0.000000     24.000000
  0.114569  0.015276  0.000000     24.000000
  0.122207  0.015276  0.000000     24.000000
  0.129845  0.015276  0.000000     24.000000
  0.137483  0.015276  0.000000     12.000000
  0.022914  0.022914  0.000000     12.000000
  0.030552  0.022914  0.000000     24.000000
  0.038190  0.022914  0.000000     24.000000
  0.045828  0.022914  0.000000     24.000000
  0.053465  0.022914  0.000000     24.000000
  0.061103  0.022914  0.000000     24.000000
  0.068741  0.022914  0.000000     24.000000
  0.076379  0.022914  0.000000     24.000000
  0.084017  0.022914  0.000000     24.000000
  0.091655  0.022914  0.000000     24.000000
  0.099293  0.022914  0.000000     24.000000
  0.106931  0.022914  0.000000     24.000000
  0.114569  0.022914  0.000000     24.000000
  0.122207  0.022914  0.000000     24.000000
  0.129845  0.022914  0.000000     24.000000
  0.137483  0.022914  0.000000     12.000000
  0.030552  0.030552  0.000000     12.000000
  0.038190  0.030552  0.000000     24.000000
  0.045828  0.030552  0.000000     24.000000
  0.053465  0.030552  0.000000     24.000000
  0.061103  0.030552  0.000000     24.000000
  0.068741  0.030552  0.000000     24.000000
  0.076379  0.030552  0.000000     24.000000
  0.084017  0.030552  0.000000     24.000000
  0.091655  0.030552  0.000000     24.000000
  0.099293  0.030552  0.000000     24.000000
  0.106931  0.030552  0.000000     24.000000
  0.114569  0.030552  0.000000     24.000000
  0.122207  0.030552  0.000000     24.000000
  0.129845  0.030552  0.000000     24.000000
  0.137483  0.030552  0.000000     12.000000
  0.038190  0.038190  0.000000     12.000000
  0.045828  0.038190  0.000000     24.000000
  0.053465  0.038190  0.000000     24.000000
  0.061103  0.038190  0.000000     24.000000
  0.068741  0.038190  0.000000     24.000000
  0.076379  0.038190  0.000000     24.000000
  0.084017  0.038190  0.000000     24.000000
  0.091655  0.038190  0.000000     24.000000
  0.099293  0.038190  0.000000     24.000000
  0.106931  0.038190  0.000000     24.000000
  0.114569  0.038190  0.000000     24.000000
  0.122207  0.038190  0.000000     24.000000
  0.129845  0.038190  0.000000     24.000000
  0.137483  0.038190  0.000000     12.000000
  0.045828  0.045828  0.000000     12.000000
  0.053465  0.045828  0.000000     24.000000
  0.061103  0.045828  0.000000     24.000000
  0.068741  0.045828  0.000000     24.000000
  0.076379  0.045828  0.000000     24.000000
  0.084017  0.045828  0.000000     24.000000
  0.091655  0.045828  0.000000     24.000000
  0.099293  0.045828  0.000000     24.000000
  0.106931  0.045828  0.000000     24.000000
  0.114569  0.045828  0.000000     24.000000
  0.122207  0.045828  0.000000     24.000000
  0.129845  0.045828  0.000000     24.000000
  0.137483  0.045828  0.000000     12.000000
  0.053465  0.053465  0.000000     12.000000
  0.061103  0.053465  0.000000     24.000000
  0.068741  0.053465  0.000000     24.000000
  0.076379  0.053465  0.000000     24.000000
  0.084017  0.053465  0.000000     24.000000
  0.091655  0.053465  0.000000     24.000000
  0.099293  0.053465  0.000000     24.000000
  0.106931  0.053465  0.000000     24.000000
  0.114569  0.053465  0.000000     24.000000
  0.122207  0.053465  0.000000     24.000000
  0.129845  0.053465  0.000000     24.000000
  0.137483  0.053465  0.000000     12.000000
  0.061103  0.061103  0.000000     12.000000
  0.068741  0.061103  0.000000     24.000000
  0.076379  0.061103  0.000000     24.000000
  0.084017  0.061103  0.000000     24.000000
  0.091655  0.061103  0.000000     24.000000
  0.099293  0.061103  0.000000     24.000000
  0.106931  0.061103  0.000000     24.000000
  0.114569  0.061103  0.000000     24.000000
  0.122207  0.061103  0.000000     24.000000
  0.129845  0.061103  0.000000     24.000000
  0.137483  0.061103  0.000000     12.000000
  0.068741  0.068741  0.000000     12.000000
  0.076379  0.068741  0.000000     24.000000
  0.084017  0.068741  0.000000     24.000000
  0.091655  0.068741  0.000000     24.000000
  0.099293  0.068741  0.000000     24.000000
  0.106931  0.068741  0.000000     24.000000
  0.114569  0.068741  0.000000     24.000000
  0.122207  0.068741  0.000000     24.000000
  0.129845  0.068741  0.000000     24.000000
  0.137483  0.068741  0.000000     12.000000
  0.076379  0.076379  0.000000     12.000000
  0.084017  0.076379  0.000000     24.000000
  0.091655  0.076379  0.000000     24.000000
  0.099293  0.076379  0.000000     24.000000
  0.106931  0.076379  0.000000     24.000000
  0.114569  0.076379  0.000000     24.000000
  0.122207  0.076379  0.000000     24.000000
  0.129845  0.076379  0.000000     24.000000
  0.137483  0.076379  0.000000     12.000000
  0.084017  0.084017  0.000000     12.000000
  0.091655  0.084017  0.000000     24.000000
  0.099293  0.084017  0.000000     24.000000
  0.106931  0.084017  0.000000     24.000000
  0.114569  0.084017  0.000000     24.000000
  0.122207  0.084017  0.000000     24.000000
  0.129845  0.084017  0.000000     24.000000
  0.137483  0.084017  0.000000     12.000000
  0.091655  0.091655  0.000000     12.000000
  0.099293  0.091655  0.000000     24.000000
  0.106931  0.091655  0.000000     24.000000
  0.114569  0.091655  0.000000     24.000000
  0.122207  0.091655  0.000000     24.000000
  0.129845  0.091655  0.000000     24.000000
  0.137483  0.091655  0.000000     12.000000
  0.099293  0.099293  0.000000     12.000000
  0.106931  0.099293  0.000000     24.000000
  0.114569  0.099293  0.000000     24.000000
  0.122207  0.099293  0.000000     24.000000
  0.129845  0.099293  0.000000     24.000000
  0.137483  0.099293  0.000000     12.000000
  0.106931  0.106931  0.000000     12.000000
  0.114569  0.106931  0.000000     24.000000
  0.122207  0.106931  0.000000     24.000000
  0.129845  0.106931  0.000000     24.000000
  0.137483  0.106931  0.000000     12.000000
  0.114569  0.114569  0.000000     12.000000
  0.122207  0.114569  0.000000     24.000000
  0.129845  0.114569  0.000000     24.000000
  0.137483  0.114569  0.000000     12.000000
  0.122207  0.122207  0.000000     12.000000
  0.129845  0.122207  0.000000     24.000000
  0.137483  0.122207  0.000000     12.000000
  0.129845  0.129845  0.000000     12.000000
  0.137483  0.129845  0.000000     12.000000
  0.137483  0.137483  0.000000      3.000000
  0.007638  0.007638  0.007638      8.000000
  0.015276  0.007638  0.007638     24.000000
  0.022914  0.007638  0.007638     24.000000
  0.030552  0.007638  0.007638     24.000000
  0.038190  0.007638  0.007638     24.000000
  0.045828  0.007638  0.007638     24.000000
  0.053465  0.007638  0.007638     24.000000
  0.061103  0.007638  0.007638     24.000000
  0.068741  0.007638  0.007638     24.000000
  0.076379  0.007638  0.007638     24.000000
  0.084017  0.007638  0.007638     24.000000
  0.091655  0.007638  0.007638     24.000000
  0.099293  0.007638  0.007638     24.000000
  0.106931  0.007638  0.007638     24.000000
  0.114569  0.007638  0.007638     24.000000
  0.122207  0.007638  0.007638     24.000000
  0.129845  0.007638  0.007638     24.000000
  0.137483  0.007638  0.007638     12.000000
  0.015276  0.015276  0.007638     24.000000
  0.022914  0.015276  0.007638     48.000000
  0.030552  0.015276  0.007638     48.000000
  0.038190  0.015276  0.007638     48.000000
  0.045828  0.015276  0.007638     48.000000
  0.053465  0.015276  0.007638     48.000000
  0.061103  0.015276  0.007638     48.000000
  0.068741  0.015276  0.007638     48.000000
  0.076379  0.015276  0.007638     48.000000
  0.084017  0.015276  0.007638     48.000000
  0.091655  0.015276  0.007638     48.000000
  0.099293  0.015276  0.007638     48.000000
  0.106931  0.015276  0.007638     48.000000
  0.114569  0.015276  0.007638     48.000000
  0.122207  0.015276  0.007638     48.000000
  0.129845  0.015276  0.007638     48.000000
  0.137483  0.015276  0.007638     24.000000
  0.022914  0.022914  0.007638     24.000000
  0.030552  0.022914  0.007638     48.000000
  0.038190  0.022914  0.007638     48.000000
  0.045828  0.022914  0.007638     48.000000
  0.053465  0.022914  0.007638     48.000000
  0.061103  0.022914  0.007638     48.000000
  0.068741  0.022914  0.007638     48.000000
  0.076379  0.022914  0.007638     48.000000
  0.084017  0.022914  0.007638     48.000000
  0.091655  0.022914  0.007638     48.000000
  0.099293  0.022914  0.007638     48.000000
  0.106931  0.022914  0.007638     48.000000
  0.114569  0.022914  0.007638     48.000000
  0.122207  0.022914  0.007638     48.000000
  0.129845  0.022914  0.007638     48.000000
  0.137483  0.022914  0.007638     24.000000
  0.030552  0.030552  0.007638     24.000000
  0.038190  0.030552  0.007638     48.000000
  0.045828  0.030552  0.007638     48.000000
  0.053465  0.030552  0.007638     48.000000
  0.061103  0.030552  0.007638     48.000000
  0.068741  0.030552  0.007638     48.000000
  0.076379  0.030552  0.007638     48.000000
  0.084017  0.030552  0.007638     48.000000
  0.091655  0.030552  0.007638     48.000000
  0.099293  0.030552  0.007638     48.000000
  0.106931  0.030552  0.007638     48.000000
  0.114569  0.030552  0.007638     48.000000
  0.122207  0.030552  0.007638     48.000000
  0.129845  0.030552  0.007638     48.000000
  0.137483  0.030552  0.007638     24.000000
  0.038190  0.038190  0.007638     24.000000
  0.045828  0.038190  0.007638     48.000000
  0.053465  0.038190  0.007638     48.000000
  0.061103  0.038190  0.007638     48.000000
  0.068741  0.038190  0.007638     48.000000
  0.076379  0.038190  0.007638     48.000000
  0.084017  0.038190  0.007638     48.000000
  0.091655  0.038190  0.007638     48.000000
  0.099293  0.038190  0.007638     48.000000
  0.106931  0.038190  0.007638     48.000000
  0.114569  0.038190  0.007638     48.000000
  0.122207  0.038190  0.007638     48.000000
  0.129845  0.038190  0.007638     48.000000
  0.137483  0.038190  0.007638     24.000000
  0.045828  0.045828  0.007638     24.000000
  0.053465  0.045828  0.007638     48.000000
  0.061103  0.045828  0.007638     48.000000
  0.068741  0.045828  0.007638     48.000000
  0.076379  0.045828  0.007638     48.000000
  0.084017  0.045828  0.007638     48.000000
  0.091655  0.045828  0.007638     48.000000
  0.099293  0.045828  0.007638     48.000000
  0.106931  0.045828  0.007638     48.000000
  0.114569  0.045828  0.007638     48.000000
  0.122207  0.045828  0.007638     48.000000
  0.129845  0.045828  0.007638     48.000000
  0.137483  0.045828  0.007638     24.000000
  0.053465  0.053465  0.007638     24.000000
  0.061103  0.053465  0.007638     48.000000
  0.068741  0.053465  0.007638     48.000000
  0.076379  0.053465  0.007638     48.000000
  0.084017  0.053465  0.007638     48.000000
  0.091655  0.053465  0.007638     48.000000
  0.099293  0.053465  0.007638     48.000000
  0.106931  0.053465  0.007638     48.000000
  0.114569  0.053465  0.007638     48.000000
  0.122207  0.053465  0.007638     48.000000
  0.129845  0.053465  0.007638     48.000000
  0.137483  0.053465  0.007638     24.000000
  0.061103  0.061103  0.007638     24.000000
  0.068741  0.061103  0.007638     48.000000
[...]
     24       3.2911      2.00000
     25       7.8370      0.00000
     26       7.8370      0.00000
     27       7.8370      0.00000
     28       8.5135      0.00000
     29      24.4350      0.00000
     30      24.4350      0.00000
     31      24.4350      0.00000
     32      25.3906      0.00000

 k-point *** :       0.4722    0.4444    0.4444
  band No.  band energies     occupation 
      1      -1.3055      2.00000
      2      -1.2451      2.00000
      3      -1.2162      2.00000
      4      -1.2162      2.00000
      5       0.7447      2.00000
      6       0.7447      2.00000
      7       0.7569      2.00000
      8       0.7838      2.00000
      9       0.7901      2.00000
     10       0.8020      2.00000
     11       0.8065      2.00000
     12       0.8065      2.00000
     13       1.8858      2.00000
     14       1.8858      2.00000
     15       1.9278      2.00000
     16       2.1276      2.00000
     17       2.2079      2.00000
     18       2.2240      2.00000
     19       2.2240      2.00000
     20       2.2266      2.00000
     21       2.5565      2.00000
     22       3.0475      2.00000
     23       3.2679      2.00000
     24       3.2679      2.00000
     25       7.7554      0.00000
     26       7.7554      0.00000
     27       7.9457      0.00000
     28       8.2877      0.00000
     29      24.5955      0.00000
     30      24.5955      0.00000
     31      24.9610      0.00000
     32      25.4011      0.00000

 k-point *** :       0.5000    0.4444    0.4444
  band No.  band energies     occupation 
      1      -1.2770      2.00000
      2      -1.2770      2.00000
      3      -1.2184      2.00000
      4      -1.2184      2.00000
      5       0.7472      2.00000
      6       0.7472      2.00000
      7       0.7723      2.00000
      8       0.7723      2.00000
      9       0.7936      2.00000
     10       0.7936      2.00000
     11       0.8034      2.00000
     12       0.8034      2.00000
     13       1.9103      2.00000
     14       1.9103      2.00000
     15       2.0318      2.00000
     16       2.0318      2.00000
     17       2.2199      2.00000
     18       2.2199      2.00000
     19       2.2214      2.00000
     20       2.2214      2.00000
     21       2.8002      2.00000
     22       2.8002      2.00000
     23       3.2595      2.00000
     24       3.2595      2.00000
     25       7.7281      0.00000
     26       7.7281      0.00000
     27       8.0973      0.00000
     28       8.0973      0.00000
     29      24.6620      0.00000
     30      24.6620      0.00000
     31      25.2955      0.00000
     32      25.3110      0.00000

 k-point *** :       0.4722    0.4722    0.4444
  band No.  band energies     occupation 
      1      -1.2888      2.00000
      2      -1.2443      2.00000
      3      -1.2443      2.00000
      4      -1.2299      2.00000
      5       0.7546      2.00000
      6       0.7607      2.00000
      7       0.7607      2.00000
      8       0.7816      2.00000
      9       0.7848      2.00000
     10       0.7944      2.00000
     11       0.7944      2.00000
     12       0.7967      2.00000
     13       1.9691      2.00000
     14       1.9966      2.00000
     15       1.9966      2.00000
     16       2.1604      2.00000
     17       2.2037      2.00000
     18       2.2224      2.00000
     19       2.2234      2.00000
     20       2.2234      2.00000
     21       2.6714      2.00000
     22       3.0623      2.00000
     23       3.0623      2.00000
     24       3.1808      2.00000
     25       7.7231      0.00000
     26       7.8202      0.00000
     27       7.8202      0.00000
     28       8.0903      0.00000
     29      24.8146      0.00000
     30      25.0305      0.00000
     31      25.0305      0.00000
     32      25.4277      0.00000

 k-point *** :       0.5000    0.4722    0.4444
  band No.  band energies     occupation 
      1      -1.2685      2.00000
      2      -1.2685      2.00000
      3      -1.2392      2.00000
      4      -1.2392      2.00000
      5       0.7602      2.00000
      6       0.7602      2.00000
      7       0.7731      2.00000
      8       0.7731      2.00000
      9       0.7871      2.00000
     10       0.7871      2.00000
     11       0.7924      2.00000
     12       0.7924      2.00000
     13       2.0114      2.00000
     14       2.0114      2.00000
     15       2.0943      2.00000
     16       2.0943      2.00000
     17       2.2159      2.00000
     18       2.2159      2.00000
     19       2.2200      2.00000
     20       2.2200      2.00000
     21       2.8566      2.00000
     22       2.8566      2.00000
     23       3.1085      2.00000
     24       3.1085      2.00000
     25       7.7452      0.00000
     26       7.7452      0.00000
     27       7.9332      0.00000
     28       7.9332      0.00000
     29      24.9673      0.00000
     30      24.9673      0.00000
     31      25.2843      0.00000
     32      25.2843      0.00000

 k-point *** :       0.5000    0.5000    0.4444
  band No.  band energies     occupation 
      1      -1.2559      2.00000
      2      -1.2559      2.00000
      3      -1.2559      2.00000
      4      -1.2559      2.00000
      5       0.7693      2.00000
      6       0.7693      2.00000
      7       0.7693      2.00000
      8       0.7693      2.00000
      9       0.7865      2.00000
     10       0.7865      2.00000
     11       0.7865      2.00000
     12       0.7865      2.00000
     13       2.0828      2.00000
     14       2.0828      2.00000
     15       2.0828      2.00000
     16       2.0828      2.00000
     17       2.2143      2.00000
     18       2.2143      2.00000
     19       2.2143      2.00000
     20       2.2143      2.00000
     21       2.9669      2.00000
     22       2.9669      2.00000
     23       2.9669      2.00000
     24       2.9669      2.00000
     25       7.8147      0.00000
     26       7.8147      0.00000
     27       7.8147      0.00000
     28       7.8147      0.00000
     29      25.1630      0.00000
     30      25.1630      0.00000
     31      25.1630      0.00000
     32      25.1630      0.00000

 k-point *** :       0.4722    0.4722    0.4722
  band No.  band energies     occupation 
      1      -1.2802      2.00000
      2      -1.2508      2.00000
      3      -1.2508      2.00000
      4      -1.2508      2.00000
      5       0.7669      2.00000
      6       0.7669      2.00000
      7       0.7669      2.00000
      8       0.7804      2.00000
      9       0.7804      2.00000
     10       0.7863      2.00000
     11       0.7863      2.00000
     12       0.7863      2.00000
     13       2.0841      2.00000
     14       2.0841      2.00000
     15       2.0841      2.00000
     16       2.2165      2.00000
     17       2.2165      2.00000
     18       2.2260      2.00000
     19       2.2260      2.00000
     20       2.2260      2.00000
     21       2.7164      2.00000
     22       3.0112      2.00000
     23       3.0112      2.00000
     24       3.0112      2.00000
     25       7.7401      0.00000
     26       7.7401      0.00000
     27       7.7401      0.00000
     28       7.9270      0.00000
     29      25.2244      0.00000
     30      25.2244      0.00000
     31      25.2244      0.00000
     32      25.4899      0.00000

 k-point *** :       0.5000    0.4722    0.4722
  band No.  band energies     occupation 
      1      -1.2676      2.00000
      2      -1.2676      2.00000
      3      -1.2530      2.00000
      4      -1.2530      2.00000
      5       0.7693      2.00000
      6       0.7693      2.00000
      7       0.7755      2.00000
      8       0.7755      2.00000
      9       0.7809      2.00000
     10       0.7809      2.00000
     11       0.7833      2.00000
     12       0.7833      2.00000
     13       2.1184      2.00000
     14       2.1184      2.00000
     15       2.1759      2.00000
     16       2.1759      2.00000
     17       2.2240      2.00000
     18       2.2240      2.00000
     19       2.2244      2.00000
     20       2.2244      2.00000
     21       2.8460      2.00000
     22       2.8460      2.00000
     23       2.9916      2.00000
     24       2.9916      2.00000
     25       7.7133      0.00000
     26       7.7133      0.00000
     27       7.8092      0.00000
     28       7.8092      0.00000
     29      25.2801      0.00000
     30      25.2801      0.00000
     31      25.4230      0.00000
     32      25.4230      0.00000

 k-point *** :       0.5000    0.5000    0.4722
  band No.  band energies     occupation 
      1      -1.2625      2.00000
      2      -1.2625      2.00000
      3      -1.2625      2.00000
      4      -1.2625      2.00000
      5       0.7748      2.00000
      6       0.7748      2.00000
      7       0.7748      2.00000
      8       0.7748      2.00000
      9       0.7791      2.00000
     10       0.7791      2.00000
     11       0.7791      2.00000
     12       0.7791      2.00000
     13       2.1852      2.00000
     14       2.1852      2.00000
     15       2.1852      2.00000
     16       2.1852      2.00000
     17       2.2226      2.00000
     18       2.2226      2.00000
     19       2.2226      2.00000
     20       2.2226      2.00000
     21       2.8947      2.00000
     22       2.8947      2.00000
     23       2.8947      2.00000
     24       2.8947      2.00000
     25       7.7351      0.00000
     26       7.7351      0.00000
     27       7.7351      0.00000
     28       7.7351      0.00000
     29      25.4088      0.00000
     30      25.4088      0.00000
     31      25.4088      0.00000
     32      25.4088      0.00000

 k-point *** :       0.5000    0.5000    0.5000
  band No.  band energies     occupation 
      1      -1.2647      2.00000
      2      -1.2647      2.00000
      3      -1.2647      2.00000
      4      -1.2647      2.00000
      5       0.7766      2.00000
      6       0.7766      2.00000
      7       0.7766      2.00000
      8       0.7766      2.00000
      9       0.7766      2.00000
     10       0.7766      2.00000
     11       0.7766      2.00000
     12       0.7766      2.00000
     13       2.2254      2.00000
     14       2.2254      2.00000
     15       2.2254      2.00000
     16       2.2254      2.00000
     17       2.2254      2.00000
     18       2.2254      2.00000
     19       2.2254      2.00000
     20       2.2254      2.00000
     21       2.8647      2.00000
     22       2.8647      2.00000
     23       2.8647      2.00000
     24       2.8647      2.00000
     25       7.7084      0.00000
     26       7.7084      0.00000
     27       7.7084      0.00000
     28       7.7084      0.00000
     29      25.4680      0.00000
     30      25.4680      0.00000
     31      25.4680      0.00000
     32      25.4680      0.00000


--------------------------------------------------------------------------------------------------------


 soft charge-density along one line, spin component           1
         0         1         2         3         4         5         6         7         8         9
 total charge-density along one line
 
 pseudopotential strength for first ion, spin component:           1
 -6.370   0.000  -0.000   0.000  -0.000  -0.287  -0.000   0.000
  0.000  -6.370  -0.000   0.000  -0.000  -0.000  -0.287   0.000
 -0.000  -0.000  -6.352  -0.000  -0.000   0.000   0.000  -0.296
  0.000   0.000  -0.000  -6.370   0.000  -0.000  -0.000   0.000
 -0.000  -0.000  -0.000   0.000  -6.352   0.000   0.000   0.000
 -0.287  -0.000   0.000  -0.000   0.000   1.697   0.000  -0.000
 -0.000  -0.287   0.000  -0.000   0.000   0.000   1.697  -0.000
  0.000   0.000  -0.296   0.000   0.000  -0.000  -0.000   1.701
 -0.000  -0.000   0.000  -0.287  -0.000   0.000   0.000  -0.000
  0.000   0.000   0.000  -0.000  -0.296  -0.000  -0.000   0.000
 -0.000  -0.000  -0.000  -0.000   0.000  -0.000  -0.000  -0.000
  0.000   0.000   0.000   0.000   0.000  -0.000  -0.000  -0.000
  0.000  -0.000   0.000  -0.000   0.000  -0.000   0.000  -0.000
 -0.000  -0.000  -0.000   0.000  -0.000  -0.000   0.000   0.000
 -0.000  -0.000  -0.000  -0.000   0.000   0.000  -0.000   0.000
 -0.000   0.000  -0.000   0.000  -0.000   0.000  -0.000   0.000
  0.000   0.000   0.000  -0.000   0.000  -0.000  -0.000  -0.000
  0.000   0.000   0.000   0.000  -0.000  -0.000  -0.000  -0.000
 total augmentation occupancy for first ion, spin component:           1
  1.866  -0.009  -0.015  -0.006  -0.011   0.024   0.008  -0.001   0.002   0.012   0.037  -0.004  -0.000   0.000   0.000  -0.000
 -0.009   1.937  -0.001  -0.008  -0.005   0.008  -0.045   0.002   0.010  -0.002   0.049   0.008  -0.000  -0.000   0.000  -0.000
 -0.015  -0.001   1.903   0.004  -0.014  -0.001   0.002  -0.012  -0.004   0.032  -0.006  -0.058  -0.000   0.000   0.000  -0.000
 -0.006  -0.008   0.004   1.927   0.002   0.002   0.010  -0.004  -0.011   0.005   0.026   0.002  -0.000   0.000  -0.000  -0.000
 -0.011  -0.005  -0.014   0.002   1.933   0.012  -0.002   0.032   0.005  -0.093   0.059   0.040  -0.000   0.000   0.000   0.000
  0.024   0.008  -0.001   0.002   0.012   0.104  -0.004   0.021  -0.000  -0.009   0.020   0.018   0.000   0.000   0.000   0.000
  0.008  -0.045   0.002   0.010  -0.002  -0.004   0.083  -0.005  -0.007   0.011  -0.017   0.012  -0.000  -0.000   0.000  -0.000
 -0.001   0.002  -0.012  -0.004   0.032   0.021  -0.005   0.088   0.000  -0.004   0.122  -0.016  -0.000  -0.000   0.000   0.000
  0.002   0.010  -0.004  -0.011   0.005  -0.000  -0.007   0.000   0.065  -0.012   0.001   0.010  -0.000  -0.000  -0.000   0.000
  0.012  -0.002   0.032   0.005  -0.093  -0.009   0.011  -0.004  -0.012   0.069  -0.088   0.018  -0.000   0.000   0.000  -0.000
  0.037   0.049  -0.006   0.026   0.059   0.020  -0.017   0.122   0.001  -0.088   1.225  -0.367  -0.000  -0.000   0.000  -0.000
 -0.004   0.008  -0.058   0.002   0.040   0.018   0.012  -0.016   0.010   0.018  -0.367   0.160  -0.000  -0.000   0.000   0.000
 -0.000  -0.000  -0.000  -0.000  -0.000   0.000  -0.000  -0.000  -0.000  -0.000  -0.000  -0.000   0.184   0.018  -0.016  -0.013
  0.000  -0.000   0.000   0.000   0.000   0.000  -0.000  -0.000  -0.000   0.000  -0.000  -0.000   0.018   0.132  -0.003  -0.002
  0.000   0.000   0.000  -0.000   0.000   0.000   0.000   0.000  -0.000   0.000   0.000   0.000  -0.016  -0.003   0.279  -0.001
 -0.000  -0.000  -0.000  -0.000   0.000   0.000  -0.000   0.000   0.000  -0.000  -0.000   0.000  -0.013  -0.002  -0.001   0.001
 -0.000  -0.000   0.000   0.000   0.000  -0.000  -0.000  -0.000   0.000  -0.000  -0.000   0.000  -0.002  -0.008  -0.001   0.000
  0.000  -0.000   0.000   0.000  -0.000  -0.000  -0.000  -0.000   0.000   0.000  -0.000  -0.000  -0.001  -0.001  -0.020   0.000


------------------------ aborting loop because EDIFF is reached ----------------------------------------




--------------------------------------------------------------------------------------------------------


    CHARGE:  VPU time    2.62: CPU time    2.63
    FORLOC:  VPU time    0.00: CPU time    0.00
    FORNL :  VPU time    6.07: CPU time    6.08
    STRESS:  VPU time   18.46: CPU time   18.49
    FORCOR:  VPU time    0.03: CPU time    0.03
    FORHAR:  VPU time    0.01: CPU time    0.01
    MIXING:  VPU time    0.00: CPU time    0.00


--------------------------------------------------------------------------------------------------------



  FREE ENERGIE OF THE ION-ELECTRON SYSTEM (eV)
  ---------------------------------------------------
  free  energy   TOTEN  =       -14.853231 eV

  energy  without entropy=      -14.853160  energy(sigma->0) =      -14.853195
 

  FORCE on cell =-STRESS in cart. coord.  units (eV/reduce length):
  Direction    X        Y        Z        XY       YZ       ZX
  --------------------------------------------------------------------------------------
  Alpha Z    437.98    437.98    437.98
  Ewald    -1479.17  -1479.17  -1479.17      0.00     -0.00     -0.00
  Hartree    402.24    402.24    402.24     -0.00     -0.00     -0.00
  E(xc)     -250.80   -250.80   -250.80     -0.00      0.00      0.00
  Local      494.95    494.95    494.95      0.00     -0.00      0.00
  n-local   -140.81   -146.90   -148.12      0.34      1.86      0.66
  augment    226.19    226.19    226.19     -0.00     -0.00     -0.00
  Kinetic    323.08    314.21    308.30     -3.22     -0.10     -1.47
  -------------------------------------------------------------------------------------
  Total        1.31      1.31      1.31      0.00      0.00     -0.00
  in kB       44.88     44.88     44.88      0.00      0.00     -0.00
  external pressure =       44.88 kB  Pullay stress =        0.00 kB


 VOLUME and BASIS-vectors are now :
 -----------------------------------------------------------------------------
  energy-cutoff  :     1000.00
  volume of cell :       46.67
      direct lattice vectors                 reciprocal lattice vectors
     3.600455983  0.000000000  0.000000000     0.277742598  0.000000000  0.000000000
     0.000000000  3.600455983  0.000000000     0.000000000  0.277742598  0.000000000
     0.000000000  0.000000000  3.600455983     0.000000000  0.000000000  0.277742598

  length of vectors
     3.600455983  3.600455983  3.600455983     0.277742598  0.277742598  0.277742598


 FORCES acting on ions
    electron-ion (+dipol)            ewald-force                    non-local-force                 convergence-correction
 -----------------------------------------------------------------------------------------------
   0.143E-13 0.823E-15 0.355E-14   -.931E-14 -.119E-13 -.458E-14   -.315E-26 0.125E-25 -.277E-25   -.111E-12 -.133E-12 -.719E-13
   -.130E-12 -.940E-12 -.408E-11   -.865E-14 -.479E-14 -.470E-14   0.932E-26 -.471E-27 0.174E-25   0.842E-14 0.405E-13 -.678E-13
   -.129E-12 -.188E-14 -.488E-11   0.210E-13 0.639E-14 0.485E-14   -.117E-25 -.300E-25 0.487E-25   0.148E-13 -.127E-12 0.975E-13
   0.142E-13 -.136E-12 -.144E-12   -.104E-14 0.135E-13 0.473E-14   -.203E-25 -.264E-25 -.126E-25   -.111E-12 0.400E-13 0.785E-13
 -----------------------------------------------------------------------------------------------
   -.230E-12 -.108E-11 -.910E-11   0.202E-14 0.319E-14 0.300E-15   -.259E-25 -.444E-25 0.257E-25   -.199E-12 -.179E-12 0.363E-13
 
 
 POSITION                                       TOTAL-FORCE (eV/Angst)
 -----------------------------------------------------------------------------------
      0.00000      0.00000      0.00000        -0.000000      0.000000     -0.000000
      1.80023      1.80023      0.00000         0.000000      0.000000     -0.000000
      1.80023      0.00000      1.80023         0.000000     -0.000000      0.000000
      0.00000      1.80023      1.80023        -0.000000     -0.000000      0.000000
 -----------------------------------------------------------------------------------
    total drift:                               -0.000000     -0.000000     -0.000000


--------------------------------------------------------------------------------------------------------



 mean value of Nose-termostat <S>:     1.000 mean value of <T> :     0.000
 mean temperature <T/S>/<1/S>  :     0.000

     LOOP+:  VPU time  806.20: CPU time  807.85
  
  
 General timing and accounting informations for this job:
 ========================================================
  
                  Total CPU time used (sec):      824.520
                            User time (sec):      721.469
                          System time (sec):      103.050
                         Elapsed time (sec):      826.262
  
                   Maximum memory used (kb):     6135600.
                   Average memory used (kb):           0.
  
                          Minor page faults:      1357003
                          Major page faults:            0
                 Voluntary context switches:         1119
