       N       E                     dE             d eps       ncg     rms          rms(c)
DAV:   1    -0.119595041942E+03   -0.11960E+03   -0.52027E+01  1112   0.925E+00    0.298E-01
DAV:   2    -0.119729019994E+03   -0.13398E+00   -0.14703E+00   892   0.280E+00    0.108E-01
DAV:   3    -0.119730147959E+03   -0.11280E-02   -0.20969E-02   972   0.442E-01    0.524E-02
DAV:   4    -0.119730087031E+03    0.60928E-04   -0.52470E-04   960   0.801E-02    0.234E-02
DAV:   5    -0.119730086586E+03    0.44491E-06   -0.40525E-05   952   0.204E-02
   1 F= -.11973009E+03 E0= -.11972197E+03  d E =-.243589E-01
