       N       E                     dE             d eps       ncg     rms          rms(c)
DAV:   1    -0.119595562986E+03   -0.11960E+03   -0.51995E+01  1112   0.925E+00    0.302E-01
DAV:   2    -0.119728927566E+03   -0.13336E+00   -0.14672E+00   892   0.280E+00    0.105E-01
DAV:   3    -0.119730137924E+03   -0.12104E-02   -0.20862E-02   972   0.441E-01    0.510E-02
DAV:   4    -0.119730087039E+03    0.50885E-04   -0.46444E-04   956   0.776E-02    0.235E-02
DAV:   5    -0.119730086731E+03    0.30809E-06   -0.38039E-05   932   0.198E-02
   1 F= -.11973009E+03 E0= -.11972197E+03  d E =-.243590E-01
