 running on    4 nodes
 distr:  one band on    1 nodes,    4 groups
 vasp.4.6.28 25Jul05 complex 
 POSCAR found :  1 types and   32 ions

 ----------------------------------------------------------------------------- 
|                                                                             |
|  ADVICE TO THIS USER RUNNING 'VASP/VAMP'   (HEAR YOUR MASTER'S VOICE ...):  |
|                                                                             |
|      You have a (more or less) 'large supercell' and for larger cells       |
|      it might be more efficient to use real space projection operators      |
|      So try LREAL= Auto  in the INCAR   file.                               |
|      Mind: If you want to do an extremely accurate calculations keep the    |
|      reciprocal projection scheme          (i.e. LREAL=.FALSE.)             |
|                                                                             |
 ----------------------------------------------------------------------------- 

 LDA part: xc-table for Pade appr. of Perdew
 POSCAR, INCAR and KPOINTS ok, starting setup
 FFT: planning ...           2
 reading WAVECAR
 entering main loop
       N       E                     dE             d eps       ncg     rms          rms(c)
DAV:   1     0.139763415360E+03    0.13976E+03   -0.36323E+04   544   0.126E+03
DAV:   2    -0.105216487212E+03   -0.24498E+03   -0.22939E+03   632   0.148E+02
DAV:   3    -0.120027648759E+03   -0.14811E+02   -0.14006E+02   688   0.285E+01
DAV:   4    -0.120402851584E+03   -0.37520E+00   -0.37109E+00   648   0.451E+00
DAV:   5    -0.120407619088E+03   -0.47675E-02   -0.47654E-02   644   0.612E-01    0.503E+00
DAV:   6    -0.120015611913E+03    0.39201E+00   -0.61781E-02   616   0.814E-01    0.312E+00
DAV:   7    -0.119730756720E+03    0.28486E+00   -0.18100E-01   572   0.130E+00    0.132E-01
DAV:   8    -0.119730733528E+03    0.23192E-04   -0.12650E-03   652   0.140E-01    0.326E-02
DAV:   9    -0.119730748865E+03   -0.15338E-04   -0.32698E-05   480   0.165E-02    0.302E-03
DAV:  10    -0.119730742215E+03    0.66506E-05   -0.23541E-06   340   0.610E-03
   1 F= -.11973074E+03 E0= -.11972261E+03  d E =-.119731E+03
 curvature:   0.00 expect dE= 0.000E+00 dE for cont linesearch  0.000E+00
 trial: gam= 0.00000 g(F)=  0.957E-60 g(S)=  0.000E+00 ort = 0.000E+00 (trialstep = 0.100E+01)
 search vector abs. value=  0.100E-09
 reached required accuracy - stopping structural energy minimisation
 writing wavefunctions

 ----------------------------------------------------------------------------- 
|                                                                             |
|           W    W    AA    RRRRR   N    N  II  N    N   GGGG   !!!           |
|           W    W   A  A   R    R  NN   N  II  NN   N  G    G  !!!           |
|           W    W  A    A  R    R  N N  N  II  N N  N  G       !!!           |
|           W WW W  AAAAAA  RRRRR   N  N N  II  N  N N  G  GGG   !            |
|           WW  WW  A    A  R   R   N   NN  II  N   NN  G    G                |
|           W    W  A    A  R    R  N    N  II  N    N   GGGG   !!!           |
|                                                                             |
|      The partial DOS and the PROCAR file are not evaluated for NPAR/=1      |
|      please rerun with NPAR=1                                               |
|                                                                             |
 ----------------------------------------------------------------------------- 

