   4   4   0   0
  0.2189743E+02  0.4441037E-09  0.4441037E-09  0.4441037E-09  0.5000000E-15
  1.000000000000000E-004
  CAR 
 unknown system                          
     14.99613714     -4.88174784  301      5.28753432      1.00000000
     -4.882  0.0000E+00  0.0000E+00
     -4.815  0.0000E+00  0.0000E+00
     -4.749  0.0000E+00  0.0000E+00
     -4.683  0.0000E+00  0.0000E+00
     -4.617  0.0000E+00  0.0000E+00
     -4.550  0.0000E+00  0.0000E+00
     -4.484  0.0000E+00  0.0000E+00
     -4.418  0.0000E+00  0.0000E+00
     -4.352  0.0000E+00  0.0000E+00
     -4.285  0.0000E+00  0.0000E+00
     -4.219  0.0000E+00  0.0000E+00
     -4.153  0.0000E+00  0.0000E+00
     -4.087  0.0000E+00  0.0000E+00
     -4.020  0.2162E-10  0.1433E-11
     -3.954  0.1747E-01  0.1157E-02
     -3.888  0.1104E+00  0.8475E-02
     -3.822  0.2789E+00  0.2695E-01
     -3.755  0.1678E+00  0.3807E-01
     -3.689  0.4195E+00  0.6599E-01
     -3.623  0.4189E+00  0.9375E-01
     -3.557  0.1685E+00  0.1049E+00
     -3.490  0.5641E+00  0.1423E+00
     -3.424  0.4225E+00  0.1704E+00
     -3.358  0.4661E+00  0.2012E+00
     -3.292  0.4890E+00  0.2336E+00
     -3.225  0.8581E+00  0.2905E+00
     -3.159  0.5999E-02  0.2909E+00
     -3.093  0.6767E+00  0.3357E+00
     -3.026  0.8859E+00  0.3944E+00
     -2.960  0.4206E+00  0.4225E+00
     -2.894  0.6345E+00  0.4646E+00
     -2.828  0.1010E+01  0.5315E+00
     -2.761  0.3117E-01  0.5336E+00
     -2.695  0.4398E+00  0.5627E+00
     -2.629  0.1287E+01  0.6480E+00
     -2.563  0.1029E+01  0.7161E+00
     -2.496  0.3183E-02  0.7166E+00
     -2.430  0.1441E+01  0.8122E+00
     -2.364  0.6516E+00  0.8553E+00
     -2.298  0.2096E+00  0.8692E+00
     -2.231  0.8739E+00  0.9271E+00
     -2.165  0.1332E+01  0.1015E+01
     -2.099  0.8296E+00  0.1070E+01
     -2.033  0.4230E+00  0.1099E+01
     -1.966  0.1254E+01  0.1182E+01
     -1.900  0.3839E+00  0.1207E+01
     -1.834  0.1712E+01  0.1321E+01
     -1.768  0.8673E+00  0.1378E+01
     -1.701  0.6792E+00  0.1423E+01
     -1.635  0.1383E+01  0.1515E+01
     -1.569  0.8385E+00  0.1571E+01
     -1.503  0.6179E-01  0.1575E+01
     -1.436  0.9838E+00  0.1640E+01
     -1.370  0.1505E+01  0.1740E+01
     -1.304  0.8841E+00  0.1798E+01
     -1.237  0.1389E+01  0.1890E+01
     -1.171  0.1917E+01  0.2017E+01
     -1.105  0.2231E-01  0.2019E+01
     -1.039  0.1309E+01  0.2106E+01
     -0.972  0.7580E+00  0.2156E+01
     -0.906  0.1258E+01  0.2240E+01
     -0.840  0.3982E+00  0.2266E+01
     -0.774  0.2428E+01  0.2427E+01
     -0.707  0.1081E+00  0.2434E+01
     -0.641  0.2518E+00  0.2451E+01
     -0.575  0.2843E+01  0.2639E+01
     -0.509  0.7823E+00  0.2691E+01
     -0.442  0.8660E+00  0.2748E+01
     -0.376  0.2248E+01  0.2897E+01
     -0.310  0.2400E+00  0.2913E+01
     -0.244  0.6313E+00  0.2955E+01
     -0.177  0.1501E+01  0.3054E+01
     -0.111  0.2372E+01  0.3212E+01
     -0.045  0.4639E+00  0.3242E+01
      0.021  0.1832E+01  0.3364E+01
      0.088  0.6760E+00  0.3409E+01
      0.154  0.4197E+00  0.3436E+01
      0.220  0.1810E+01  0.3556E+01
      0.287  0.1774E+01  0.3674E+01
      0.353  0.1129E+01  0.3749E+01
      0.419  0.1040E+01  0.3818E+01
      0.485  0.1895E+01  0.3943E+01
      0.552  0.4192E+00  0.3971E+01
      0.618  0.2681E+01  0.4149E+01
      0.684  0.2107E+01  0.4288E+01
      0.750  0.6620E+00  0.4332E+01
      0.817  0.8956E+00  0.4392E+01
      0.883  0.1620E+01  0.4499E+01
      0.949  0.5656E+00  0.4536E+01
      1.015  0.7062E+00  0.4583E+01
      1.082  0.2428E+01  0.4744E+01
      1.148  0.1239E+01  0.4826E+01
      1.214  0.2920E+01  0.5020E+01
      1.280  0.8366E+00  0.5075E+01
      1.347  0.1145E+01  0.5151E+01
      1.413  0.2238E+01  0.5299E+01
      1.479  0.1739E+01  0.5415E+01
      1.545  0.1032E+01  0.5484E+01
      1.612  0.1702E+01  0.5596E+01
      1.678  0.1843E+01  0.5719E+01
      1.744  0.4198E+00  0.5747E+01
      1.810  0.1671E+01  0.5857E+01
      1.877  0.1684E+01  0.5969E+01
      1.943  0.6422E+00  0.6012E+01
      2.009  0.2369E+01  0.6169E+01
      2.076  0.2064E+01  0.6307E+01
      2.142  0.9833E+00  0.6372E+01
      2.208  0.1315E+01  0.6459E+01
      2.274  0.1479E+01  0.6557E+01
      2.341  0.5186E+00  0.6591E+01
      2.407  0.2087E+01  0.6730E+01
      2.473  0.2337E+01  0.6885E+01
      2.539  0.1499E+01  0.6985E+01
      2.606  0.1822E+01  0.7105E+01
      2.672  0.2868E+01  0.7295E+01
      2.738  0.1743E+01  0.7411E+01
      2.804  0.4193E+00  0.7439E+01
      2.871  0.1588E+01  0.7544E+01
      2.937  0.9068E+00  0.7604E+01
      3.003  0.2486E+01  0.7769E+01
      3.069  0.1628E+01  0.7877E+01
      3.136  0.1836E+01  0.7998E+01
      3.202  0.2042E+01  0.8134E+01
      3.268  0.1707E+01  0.8247E+01
      3.334  0.1100E+01  0.8321E+01
      3.401  0.1600E+01  0.8427E+01
      3.467  0.2781E+01  0.8611E+01
      3.533  0.1318E+01  0.8699E+01
      3.599  0.1070E+01  0.8770E+01
      3.666  0.2584E+01  0.8941E+01
      3.732  0.8044E+00  0.8994E+01
      3.798  0.1285E+01  0.9080E+01
      3.865  0.3551E+01  0.9315E+01
      3.931  0.2942E+01  0.9510E+01
      3.997  0.1256E+01  0.9594E+01
      4.063  0.2819E+00  0.9612E+01
      4.130  0.1680E+01  0.9724E+01
      4.196  0.8674E+00  0.9781E+01
      4.262  0.3945E+01  0.1004E+02
      4.328  0.1534E+01  0.1014E+02
      4.395  0.1206E+01  0.1022E+02
      4.461  0.3015E+01  0.1042E+02
      4.527  0.1906E+01  0.1055E+02
      4.593  0.8564E+00  0.1061E+02
      4.660  0.2664E+00  0.1063E+02
      4.726  0.2974E+01  0.1082E+02
      4.792  0.1859E+01  0.1095E+02
      4.858  0.3360E+01  0.1117E+02
      4.925  0.2115E+01  0.1131E+02
      4.991  0.5998E-01  0.1131E+02
      5.057  0.2050E+01  0.1145E+02
      5.123  0.4090E+01  0.1172E+02
      5.190  0.1365E+01  0.1181E+02
      5.256  0.2132E+01  0.1195E+02
      5.322  0.1354E+01  0.1204E+02
      5.388  0.1046E+01  0.1211E+02
      5.455  0.2666E+01  0.1229E+02
      5.521  0.2029E+01  0.1242E+02
      5.587  0.1620E+01  0.1253E+02
      5.654  0.2423E+01  0.1269E+02
      5.720  0.2932E+01  0.1289E+02
      5.786  0.9558E+00  0.1295E+02
      5.852  0.1418E+01  0.1304E+02
      5.919  0.1247E+01  0.1313E+02
      5.985  0.3127E+01  0.1333E+02
      6.051  0.1525E+01  0.1343E+02
      6.117  0.1614E+01  0.1354E+02
      6.184  0.2950E+01  0.1374E+02
      6.250  0.2726E+01  0.1392E+02
      6.316  0.3623E+01  0.1416E+02
      6.382  0.1217E+01  0.1424E+02
      6.449  0.2290E+01  0.1439E+02
      6.515  0.2651E+00  0.1441E+02
      6.581  0.1832E+01  0.1453E+02
      6.647  0.4461E+01  0.1483E+02
      6.714  0.2533E+01  0.1499E+02
      6.780  0.1323E+01  0.1508E+02
      6.846  0.1367E+01  0.1517E+02
      6.912  0.1687E+01  0.1528E+02
      6.979  0.2423E+01  0.1545E+02
      7.045  0.2583E+01  0.1562E+02
      7.111  0.8087E+00  0.1567E+02
      7.178  0.2120E+01  0.1581E+02
      7.244  0.4032E+01  0.1608E+02
      7.310  0.1202E+01  0.1616E+02
      7.376  0.2361E+01  0.1632E+02
      7.443  0.3458E+01  0.1654E+02
      7.509  0.2186E+01  0.1669E+02
      7.575  0.1732E+01  0.1680E+02
      7.641  0.1589E+01  0.1691E+02
      7.708  0.1861E+01  0.1703E+02
      7.774  0.1211E+01  0.1711E+02
      7.840  0.2852E+01  0.1730E+02
      7.906  0.5296E+01  0.1765E+02
      7.973  0.1704E+01  0.1777E+02
      8.039  0.3105E+01  0.1797E+02
      8.105  0.1440E+01  0.1807E+02
      8.171  0.1440E+01  0.1816E+02
      8.238  0.1412E+01  0.1826E+02
      8.304  0.2089E+01  0.1840E+02
      8.370  0.3561E+01  0.1863E+02
      8.436  0.1470E+01  0.1873E+02
      8.503  0.2228E+01  0.1888E+02
      8.569  0.2429E+01  0.1904E+02
      8.635  0.5362E+01  0.1939E+02
      8.701  0.1271E+01  0.1948E+02
      8.768  0.1767E+01  0.1960E+02
      8.834  0.2398E+01  0.1976E+02
      8.900  0.2112E+01  0.1990E+02
      8.967  0.1407E+01  0.1999E+02
      9.033  0.2450E+01  0.2015E+02
      9.099  0.3069E+01  0.2036E+02
      9.165  0.3837E+01  0.2061E+02
      9.232  0.2374E+01  0.2077E+02
      9.298  0.1295E+01  0.2085E+02
      9.364  0.2226E+01  0.2100E+02
      9.430  0.3032E+01  0.2120E+02
      9.497  0.3430E+01  0.2143E+02
      9.563  0.2737E+01  0.2161E+02
      9.629  0.1672E+01  0.2172E+02
      9.695  0.4242E+00  0.2175E+02
      9.762  0.2296E+01  0.2190E+02
      9.828  0.1558E+01  0.2201E+02
      9.894  0.1985E+01  0.2214E+02
      9.960  0.1118E+01  0.2221E+02
     10.027  0.9313E+00  0.2228E+02
     10.093  0.2088E+01  0.2241E+02
     10.159  0.8868E+00  0.2247E+02
     10.225  0.2513E+01  0.2264E+02
     10.292  0.1815E+01  0.2276E+02
     10.358  0.1457E+01  0.2286E+02
     10.424  0.5240E+00  0.2289E+02
     10.490  0.4192E+00  0.2292E+02
     10.557  0.1048E+00  0.2293E+02
     10.623  0.9809E-10  0.2293E+02
     10.689  0.5862E+00  0.2296E+02
     10.756  0.1928E+01  0.2309E+02
     10.822  0.1676E+01  0.2320E+02
     10.888  0.8384E+00  0.2326E+02
     10.954  0.1044E+00  0.2327E+02
     11.021  0.6191E-01  0.2327E+02
     11.087  0.1202E+01  0.2335E+02
     11.153  0.5527E+00  0.2339E+02
     11.219  0.4120E+00  0.2341E+02
     11.286  0.6051E-15  0.2341E+02
     11.352  0.7728E+00  0.2347E+02
     11.418  0.9042E+00  0.2353E+02
     11.484  0.1047E+00  0.2353E+02
     11.551  0.3646E+00  0.2356E+02
     11.617  0.5466E-01  0.2356E+02
     11.683  0.8280E+00  0.2362E+02
     11.749  0.0000E+00  0.2362E+02
     11.816  0.1830E-06  0.2362E+02
     11.882  0.8384E+00  0.2367E+02
     11.948  0.2309E+00  0.2369E+02
     12.014  0.3280E+00  0.2371E+02
     12.081  0.8385E+00  0.2376E+02
     12.147  0.2647E-01  0.2377E+02
     12.213  0.3928E+00  0.2379E+02
     12.279  0.0000E+00  0.2379E+02
     12.346  0.0000E+00  0.2379E+02
     12.412  0.1065E-06  0.2379E+02
     12.478  0.4192E+00  0.2382E+02
     12.545  0.0000E+00  0.2382E+02
     12.611  0.1067E+00  0.2383E+02
     12.677  0.1151E+01  0.2390E+02
     12.743  0.0000E+00  0.2390E+02
     12.810  0.0000E+00  0.2390E+02
     12.876  0.9664E-01  0.2391E+02
     12.942  0.3226E+00  0.2393E+02
     13.008  0.0000E+00  0.2393E+02
     13.075  0.0000E+00  0.2393E+02
     13.141  0.1406E-01  0.2393E+02
     13.207  0.1279E+00  0.2394E+02
     13.273  0.4170E+00  0.2397E+02
     13.340  0.0000E+00  0.2397E+02
     13.406  0.8772E-02  0.2397E+02
     13.472  0.4105E+00  0.2400E+02
     13.538  0.0000E+00  0.2400E+02
     13.605  0.0000E+00  0.2400E+02
     13.671  0.0000E+00  0.2400E+02
     13.737  0.0000E+00  0.2400E+02
     13.803  0.0000E+00  0.2400E+02
     13.870  0.0000E+00  0.2400E+02
     13.936  0.0000E+00  0.2400E+02
     14.002  0.0000E+00  0.2400E+02
     14.069  0.2291E-04  0.2400E+02
     14.135  0.6985E-01  0.2400E+02
     14.201  0.0000E+00  0.2400E+02
     14.267  0.0000E+00  0.2400E+02
     14.334  0.0000E+00  0.2400E+02
     14.400  0.0000E+00  0.2400E+02
     14.466  0.0000E+00  0.2400E+02
     14.532  0.0000E+00  0.2400E+02
     14.599  0.0000E+00  0.2400E+02
     14.665  0.0000E+00  0.2400E+02
     14.731  0.0000E+00  0.2400E+02
     14.797  0.0000E+00  0.2400E+02
     14.864  0.0000E+00  0.2400E+02
     14.930  0.0000E+00  0.2400E+02
     14.996  0.0000E+00  0.2400E+02
