    4    4    1    1
  0.2189743E+02  0.4441037E-09  0.4441037E-09  0.4441037E-09  0.5000000E-15
  1.000000000000000E-004
  CAR 
 unknown system                          
   12   84   12
 
  0.0000000E+00  0.0000000E+00  0.0000000E+00  0.5787037E-03
   1       -3.9782
   2        3.0983
   3        3.0983
   4        3.0983
   5        3.6532
   6        3.6532
   7        3.6532
   8        9.7864
   9        9.7864
  10        9.7864
  11        9.7864
  12        9.7864
 
  0.8333333E-01  0.0000000E+00  0.0000000E+00  0.3472222E-02
   1       -3.9262
   2        2.1900
   3        3.1472
   4        3.1472
   5        3.7027
   6        3.7027
   7        4.6523
   8        8.9722
   9        8.9722
  10        9.3722
  11        9.3722
  12        9.8324
 
  0.1666667E+00  0.0000000E+00  0.0000000E+00  0.3472222E-02
   1       -3.7703
   2        1.1450
   3        3.2937
   4        3.2937
   5        3.8505
   6        3.8505
   7        5.9688
   8        7.9720
   9        7.9720
  10        8.5725
  11        8.5725
  12        9.9704
 
  0.2500000E+00  0.0000000E+00  0.0000000E+00  0.3472222E-02
   1       -3.5107
   2        0.1853
   3        3.5380
   4        3.5380
   5        4.0938
   6        4.0938
   7        7.0513
   8        7.0513
   9        7.3771
  10        7.7358
  11        7.7358
  12       10.2004
 
  0.3333333E+00  0.0000000E+00  0.0000000E+00  0.3472222E-02
   1       -3.1478
   2       -0.6798
   3        3.8800
   4        3.8800
   5        4.4243
   6        4.4243
   7        6.2235
   8        6.2235
   9        6.9586
  10        6.9586
  11        8.8595
  12       10.5222
 
  0.4166667E+00  0.0000000E+00  0.0000000E+00  0.3472222E-02
   1       -2.6824
   2       -1.4472
   3        4.3196
   4        4.3196
   5        4.8117
   6        4.8117
   7        5.4917
   8        5.4917
   9        6.2973
  10        6.2973
  11       10.3928
  12       10.9356
 
  0.5000000E+00  0.0000000E+00  0.0000000E+00  0.1736111E-02
   1       -2.1152
   2       -2.1152
   3        4.8570
   4        4.8570
   5        4.8570
   6        4.8570
   7        5.0650
   8        5.0650
   9        5.9519
  10        5.9519
  11       11.4403
  12       11.4403
 
  0.8333333E-01  0.8333333E-01  0.0000000E+00  0.6944444E-02
   1       -3.8742
   2        2.2397
   3        2.2397
   4        3.1960
   5        3.7518
   6        4.7008
   7        4.7008
   8        8.1298
   9        9.0201
  10        9.0201
  11        9.4195
  12        9.4195
 
  0.1666667E+00  0.8333333E-01  0.0000000E+00  0.1388889E-01
   1       -3.7183
   2        1.1952
   3        2.3885
   4        3.3426
   5        3.8981
   6        4.8452
   7        6.0157
   8        7.1480
   9        8.0205
  10        8.6220
  11        9.1639
  12        9.4177
 
  0.2500000E+00  0.8333333E-01  0.0000000E+00  0.1388889E-01
   1       -3.4588
   2        0.2358
   3        2.6361
   4        3.5868
   5        4.1360
   6        5.0821
   7        6.2428
   8        7.0999
   9        7.4205
  10        7.7890
  11        8.6213
  12        9.4034
 
  0.3333333E+00  0.8333333E-01  0.0000000E+00  0.1388889E-01
   1       -3.0961
   2       -0.6289
   3        2.9812
   4        3.9288
   5        4.4394
   6        5.3980
   7        5.4548
   8        6.2722
   9        7.0236
  10        7.8444
  11        8.8901
  12        9.7382
 
  0.4166667E+00  0.8333333E-01  0.0000000E+00  0.1388889E-01
   1       -2.6308
   2       -1.3961
   3        3.4212
   4        4.3685
   5        4.4823
   6        5.1073
   7        5.5405
   8        5.6961
   9        6.4510
  10        7.1479
  11       10.1677
  12       10.2799
 
  0.5000000E+00  0.8333333E-01  0.0000000E+00  0.6944444E-02
   1       -2.0638
   2       -2.0638
   3        3.9470
   4        3.9470
   5        4.9058
   6        4.9058
   7        5.4852
   8        5.4852
   9        6.5806
  10        6.5806
  11       10.6911
  12       10.6911
 
  0.1666667E+00  0.1666667E+00  0.0000000E+00  0.6944444E-02
   1       -3.5626
   2        1.3456
   3        1.3456
   4        3.4891
   5        4.0370
   6        6.1543
   7        6.1543
   8        6.1634
   9        8.1657
  10        8.1657
  11        8.7722
  12        8.7722
 
  0.2500000E+00  0.1666667E+00  0.0000000E+00  0.1388889E-01
   1       -3.3033
   2        0.3874
   3        1.5958
   4        3.7334
   5        4.2399
   6        5.2873
   7        6.3731
   8        7.2457
   9        7.5422
  10        7.9566
  11        8.4076
  12        9.0330
 
  0.3333333E+00  0.1666667E+00  0.0000000E+00  0.1388889E-01
   1       -2.9410
   2       -0.4764
   3        1.9450
   4        4.0753
   5        4.1812
   6        4.8587
   7        6.4183
   8        6.5823
   9        7.2943
  10        8.7459
  11        8.8936
  12        9.0849
 
  0.4166667E+00  0.1666667E+00  0.0000000E+00  0.1388889E-01
   1       -2.4762
   2       -1.2428
   3        2.3917
   4        3.5569
   5        4.5150
   6        5.1837
   7        5.6868
   8        6.2637
   9        7.3308
  10        8.4036
  11        9.1802
  12        9.6458
 
  0.5000000E+00  0.1666667E+00  0.0000000E+00  0.6944444E-02
   1       -1.9098
   2       -1.9098
   3        2.9326
   4        2.9326
   5        5.0522
   6        5.0522
   7        5.6906
   8        5.6906
   9        7.8040
  10        7.8040
  11        9.7098
  12        9.7098
 
  0.2500000E+00  0.2500000E+00  0.0000000E+00  0.6944444E-02
   1       -3.0445
   2        0.6396
   3        0.6396
   4        3.9776
   5        4.0802
   6        4.7680
   7        7.4886
   8        7.4886
   9        7.6523
  10        7.6523
  11        8.3271
  12        8.3271
 
  0.3333333E+00  0.2500000E+00  0.0000000E+00  0.1388889E-01
   1       -2.6828
   2       -0.2226
   3        0.9919
   4        3.3583
   5        4.3195
   6        4.9985
   7        6.6618
   8        7.2334
   9        7.8284
  10        8.2903
  11        8.3704
  12        9.4339
 
  0.4166667E+00  0.2500000E+00  0.0000000E+00  0.1388889E-01
   1       -2.2188
   2       -0.9875
   3        1.4432
   4        2.6339
   5        4.7591
   6        5.4214
   7        5.9306
   8        6.5666
   9        8.2648
  10        8.6675
  11        8.8482
  12        9.4252
 
  0.5000000E+00  0.2500000E+00  0.0000000E+00  0.6944444E-02
   1       -1.6534
   2       -1.6534
   3        1.9917
   4        1.9917
   5        5.2962
   6        5.2962
   7        5.9504
   8        5.9504
   9        8.7974
  10        8.7974
  11        9.1676
  12        9.1676
 
  0.3333333E+00  0.3333333E+00  0.0000000E+00  0.6944444E-02
   1       -2.3220
   2        0.1321
   3        0.1321
   4        2.5338
   5        4.6614
   6        5.3270
   7        7.0025
   8        7.0025
   9        7.6265
  10        7.6265
  11        9.3296
  12        9.7186
 
  0.4166667E+00  0.3333333E+00  0.0000000E+00  0.1388889E-01
   1       -1.8591
   2       -0.6308
   3        0.5868
   4        1.7906
   5        5.1008
   6        5.7649
   7        6.2718
   8        6.9244
   9        7.4401
  10        8.0752
  11        8.6046
  12        9.2231
 
  0.5000000E+00  0.3333333E+00  0.0000000E+00  0.6944444E-02
   1       -1.2950
   2       -1.2950
   3        1.1403
   4        1.1403
   5        5.6377
   6        5.6377
   7        6.2999
   8        6.2999
   9        7.9744
  10        7.9744
  11        8.6068
  12        8.6068
 
  0.4166667E+00  0.4166667E+00  0.0000000E+00  0.6944444E-02
   1       -1.3977
   2       -0.1734
   3       -0.1734
   4        1.0391
   5        5.5400
   6        6.2067
   7        6.7102
   8        6.7102
   9        7.3682
  10        7.3682
  11        7.8774
  12        8.5214
 
  0.5000000E+00  0.4166667E+00  0.0000000E+00  0.6944444E-02
   1       -0.8354
   2       -0.8354
   3        0.3837
   4        0.3837
   5        6.0766
   6        6.0766
   7        6.7428
   8        6.7428
   9        7.2456
  10        7.2456
  11        7.9013
  12        7.9013
 
  0.5000000E+00  0.5000000E+00  0.0000000E+00  0.1736111E-02
   1       -0.2754
   2       -0.2754
   3       -0.2754
   4       -0.2754
   5        6.6127
   6        6.6127
   7        6.6127
   8        6.6127
   9        7.2778
  10        7.2778
  11        7.2778
  12        7.2778
 
  0.8333333E-01  0.8333333E-01  0.8333333E-01  0.4629630E-02
   1       -3.8222
   2        2.2893
   3        2.2893
   4        2.2893
   5        4.7487
   6        4.7487
   7        4.7487
   8        8.1789
   9        8.1789
  10        8.1789
  11        9.9240
  12        9.9240
 
  0.1666667E+00  0.8333333E-01  0.8333333E-01  0.1388889E-01
   1       -3.6664
   2        1.2453
   3        2.4379
   4        2.4379
   5        4.8910
   6        4.8910
   7        6.0613
   8        7.1991
   9        7.1991
  10        8.3269
  11        9.4653
  12        9.4653
 
  0.2500000E+00  0.8333333E-01  0.8333333E-01  0.1388889E-01
   1       -3.4070
   2        0.2864
   3        2.6849
   4        2.6849
   5        5.1172
   6        5.1172
   7        6.3023
   8        6.3023
   9        7.4573
  10        8.5803
  11        8.6707
  12        8.6707
 
  0.3333333E+00  0.8333333E-01  0.8333333E-01  0.1388889E-01
   1       -3.0444
   2       -0.5781
   3        3.0283
   4        3.0283
   5        5.2569
   6        5.2569
   7        5.6737
   8        5.6737
   9        7.8970
  10        7.8970
  11        8.7558
  12        9.1021
 
  0.4166667E+00  0.8333333E-01  0.8333333E-01  0.1388889E-01
   1       -2.5793
   2       -1.3450
   3        3.4611
   4        3.4611
   5        4.6784
   6        4.6784
   7        5.9417
   8        5.9417
   9        7.2132
  10        7.2132
  11        9.2973
  12       10.4529
 
  0.5000000E+00  0.8333333E-01  0.8333333E-01  0.6944444E-02
   1       -2.0125
   2       -2.0125
   3        3.8527
   4        3.8527
   5        4.2005
   6        4.2005
   7        6.2531
   8        6.2531
   9        6.7998
  10        6.7998
  11        9.8326
  12        9.8326
 
  0.1666667E+00  0.1666667E+00  0.8333333E-01  0.1388889E-01
   1       -3.5107
   2        1.3955
   3        1.3955
   4        2.5856
   5        5.0196
   6        6.1911
   7        6.1911
   8        6.2240
   9        7.3581
  10        7.3581
  11        9.6085
  12        9.6085
 
  0.2500000E+00  0.1666667E+00  0.8333333E-01  0.2777778E-01
   1       -3.2516
   2        0.4378
   3        1.6454
   4        2.8299
   5        5.0590
   6        5.5111
   7        6.2441
   8        6.6282
   9        7.4144
  10        7.7818
  11        8.8206
  12        9.8371
 
  0.3333333E+00  0.1666667E+00  0.8333333E-01  0.2777778E-01
   1       -2.8894
   2       -0.4257
   3        1.9938
   4        3.1634
   5        4.3972
   6        5.5544
   7        5.6934
   8        6.8081
   9        7.8821
  10        8.0639
  11        9.1225
  12        9.1341
 
  0.4166667E+00  0.1666667E+00  0.8333333E-01  0.2777778E-01
   1       -2.4248
   2       -1.1917
   3        2.4384
   4        3.4493
   5        3.8326
   6        4.8360
   7        6.1093
   8        7.0349
   9        7.5487
  10        8.3292
  11        8.4557
  12        9.4872
 
  0.5000000E+00  0.1666667E+00  0.8333333E-01  0.1388889E-01
   1       -1.8585
   2       -1.8585
   3        2.9704
   4        2.9704
   5        4.2134
   6        4.2134
   7        6.6147
   8        6.6147
   9        7.8679
  10        7.8679
  11        8.8627
  12        8.8627
 
  0.2500000E+00  0.2500000E+00  0.8333333E-01  0.1388889E-01
   1       -2.9929
   2        0.6898
   3        0.6898
   4        3.0638
   5        4.3008
   6        5.6010
   7        6.6277
   8        6.6277
   9        7.8739
  10        7.8739
  11        9.0818
  12        9.0818
 
  0.3333333E+00  0.2500000E+00  0.8333333E-01  0.2777778E-01
   1       -2.6313
   2       -0.1720
   3        1.0416
   4        3.2468
   5        3.6422
   6        5.8136
   7        5.9266
   8        6.9821
   9        8.0018
  10        8.4995
  11        9.1429
  12        9.3067
 
  0.4166667E+00  0.2500000E+00  0.8333333E-01  0.2777778E-01
   1       -2.1675
   2       -0.9366
   3        1.4919
   4        2.6709
   5        3.9227
   6        5.0843
   7        6.3587
   8        7.4240
   9        7.4854
  10        8.5872
  11        8.7302
  12        9.7428
 
  0.5000000E+00  0.2500000E+00  0.8333333E-01  0.1388889E-01
   1       -1.6022
   2       -1.6022
   3        2.0382
   4        2.0382
   5        4.4505
   6        4.4505
   7        6.8841
   8        6.8841
   9        7.9591
  10        7.9591
  11        9.2192
  12        9.2192
 
  0.3333333E+00  0.3333333E+00  0.8333333E-01  0.1388889E-01
   1       -2.2706
   2        0.1824
   3        0.1824
   4        2.5705
   5        3.8251
   6        6.1606
   7        6.1606
   8        6.2656
   9        8.4941
  10        8.5345
  11        8.5345
  12        9.7793
 
  0.4166667E+00  0.3333333E+00  0.8333333E-01  0.2777778E-01
   1       -1.8079
   2       -0.5802
   3        0.6366
   4        1.8370
   5        4.2553
   6        5.4294
   7        6.6023
   8        6.7023
   9        7.7705
  10        7.8487
  11        8.9881
  12       10.1303
 
  0.5000000E+00  0.3333333E+00  0.8333333E-01  0.1388889E-01
   1       -1.2441
   2       -1.2441
   3        1.1891
   4        1.1891
   5        4.7931
   6        4.7931
   7        7.1393
   8        7.1393
   9        7.2321
  10        7.2321
  11        9.5173
  12        9.5173
 
  0.4166667E+00  0.4166667E+00  0.8333333E-01  0.1388889E-01
   1       -1.3467
   2       -0.1231
   3       -0.1231
   4        1.0879
   5        4.6954
   6        5.8715
   7        5.8715
   8        7.0436
   9        7.1403
  10        8.2896
  11        8.2896
  12        9.4339
 
  0.5000000E+00  0.4166667E+00  0.8333333E-01  0.1388889E-01
   1       -0.7847
   2       -0.7847
   3        0.4335
   4        0.4335
   5        5.2351
   6        5.2351
   7        6.4100
   8        6.4100
   9        7.6708
  10        7.6708
  11        8.8184
  12        8.8184
 
  0.5000000E+00  0.5000000E+00  0.8333333E-01  0.3472222E-02
   1       -0.2251
   2       -0.2251
   3       -0.2251
   4       -0.2251
   5        5.7746
   6        5.7746
   7        5.7746
   8        5.7746
   9        8.2005
  10        8.2005
  11        8.2005
  12        8.2005
 
  0.1666667E+00  0.1666667E+00  0.1666667E+00  0.4629630E-02
   1       -3.3552
   2        1.5451
   3        1.5451
   4        1.5451
   5        6.1469
   6        6.1469
   7        6.1469
   8        6.5554
   9        6.5554
  10        6.5554
  11       10.3365
  12       10.3365
 
  0.2500000E+00  0.1666667E+00  0.1666667E+00  0.1388889E-01
   1       -3.0963
   2        0.5888
   3        1.7936
   4        1.7936
   5        5.3719
   6        5.3719
   7        6.5418
   8        6.6520
   9        6.6520
  10        7.8096
  11        9.9784
  12        9.9785
 
  0.3333333E+00  0.1666667E+00  0.1666667E+00  0.1388889E-01
   1       -2.7345
   2       -0.2736
   3        2.1386
   4        2.1386
   5        4.5575
   6        4.5575
   7        6.8981
   8        6.9711
   9        6.9711
  10        9.2249
  11        9.2741
  12        9.2831
 
  0.4166667E+00  0.1666667E+00  0.1666667E+00  0.1388889E-01
   1       -2.2704
   2       -1.0387
   3        2.5707
   4        2.5707
   5        3.8380
   6        3.8380
   7        7.3409
   8        7.3794
   9        7.3794
  10        8.5051
  11        8.6207
  12        8.6207
 
  0.5000000E+00  0.1666667E+00  0.1666667E+00  0.6944444E-02
   1       -1.7048
   2       -1.7048
   3        2.9422
   4        2.9422
   5        3.3702
   6        3.3702
   7        7.7123
   8        7.7123
   9        7.8765
  10        7.8765
  11        8.2005
  12        8.2005
 
  0.2500000E+00  0.2500000E+00  0.1666667E+00  0.1388889E-01
   1       -2.8379
   2        0.8399
   3        0.8399
   4        2.0384
   5        4.4617
   6        5.6340
   7        5.6340
   8        6.8833
   9        8.0334
  10        8.0334
  11        9.1346
  12       10.2178
 
  0.3333333E+00  0.2500000E+00  0.1666667E+00  0.2777778E-01
   1       -2.4767
   2       -0.0205
   3        1.1901
   4        2.3699
   5        3.6446
   6        4.8070
   7        5.9824
   8        7.2171
   9        8.3203
  10        8.3432
  11        9.4901
  12        9.5424
 
  0.4166667E+00  0.2500000E+00  0.1666667E+00  0.2777778E-01
   1       -2.0134
   2       -0.7841
   3        1.6366
   4        2.6365
   5        3.0830
   6        4.0742
   7        6.4252
   8        7.5955
   9        7.6436
  10        8.5750
  11        9.0537
  12        9.9450
 
  0.5000000E+00  0.2500000E+00  0.1666667E+00  0.1388889E-01
   1       -1.4489
   2       -1.4489
   3        2.1692
   4        2.1692
   5        3.4488
   6        3.4488
   7        6.9632
   8        6.9632
   9        8.1473
  10        8.1473
  11        9.3823
  12        9.3823
 
  0.3333333E+00  0.3333333E+00  0.1666667E+00  0.1388889E-01
   1       -2.1165
   2        0.3329
   3        0.3329
   4        2.5343
   5        2.9866
   6        5.1533
   7        5.1533
   8        7.5009
   9        7.5561
  10        9.6122
  11        9.6122
  12       10.0781
 
  0.4166667E+00  0.3333333E+00  0.1666667E+00  0.2777778E-01
   1       -1.6544
   2       -0.4283
   3        0.7852
   4        1.9673
   5        3.2528
   6        4.4176
   7        5.5968
   8        6.7721
   9        7.9871
  10        9.0945
  11       10.2024
  12       10.3297
 
  0.5000000E+00  0.3333333E+00  0.1666667E+00  0.1388889E-01
   1       -1.0913
   2       -1.0913
   3        1.3336
   4        1.3336
   5        3.7803
   6        3.7803
   7        6.1367
   8        6.1367
   9        8.5053
  10        8.5053
  11       10.7345
  12       10.7347
 
  0.4166667E+00  0.4166667E+00  0.1666667E+00  0.1388889E-01
   1       -1.1938
   2        0.0276
   3        0.0276
   4        1.2324
   5        3.6819
   6        4.8610
   7        4.8610
   8        6.0401
   9        8.4201
  10        9.5425
  11        9.5425
  12       10.6671
 
  0.5000000E+00  0.4166667E+00  0.1666667E+00  0.1388889E-01
   1       -0.6327
   2       -0.6327
   3        0.5822
   4        0.5822
   5        4.2215
   6        4.2215
   7        5.4024
   8        5.4024
   9        8.9410
  10        8.9410
  11       10.0651
  12       10.0651
 
  0.5000000E+00  0.5000000E+00  0.1666667E+00  0.3472222E-02
   1       -0.0744
   2       -0.0744
   3       -0.0744
   4       -0.0744
   5        4.7632
   6        4.7632
   7        4.7632
   8        4.7632
   9        9.4624
  10        9.4624
  11        9.4624
  12        9.4624
 
  0.2500000E+00  0.2500000E+00  0.2500000E+00  0.4629630E-02
   1       -2.5800
   2        1.0892
   3        1.0892
   4        1.0892
   5        4.7116
   6        4.7116
   7        4.7116
   8        8.2283
   9        8.2741
  10        8.2741
  11        8.2741
  12       11.0216
 
  0.3333333E+00  0.2500000E+00  0.2500000E+00  0.1388889E-01
   1       -2.2195
   2        0.2315
   3        1.4350
   4        1.4350
   5        3.8806
   6        3.8806
   7        5.0583
   8        7.4079
   9        8.6028
  10        8.6028
  11        9.7399
  12       10.7759
 
  0.4166667E+00  0.2500000E+00  0.2500000E+00  0.1388889E-01
   1       -1.7571
   2       -0.5303
   3        1.8664
   4        1.8664
   5        3.1568
   6        3.1568
   7        5.5021
   8        6.6784
   9        9.0072
  10        9.0072
  11       10.2021
  12       10.2021
 
  0.5000000E+00  0.2500000E+00  0.2500000E+00  0.6944444E-02
   1       -1.1936
   2       -1.1936
   3        2.2271
   4        2.2271
   5        2.6984
   6        2.6984
   7        6.0425
   8        6.0425
   9        9.3322
  10        9.3322
  11        9.8064
  12        9.8064
 
  0.3333333E+00  0.3333333E+00  0.2500000E+00  0.1388889E-01
   1       -1.8599
   2        0.5827
   3        0.5827
   4        1.7652
   5        3.0589
   6        4.2243
   7        4.2243
   8        6.5827
   9        8.9394
  10       10.0489
  11       10.0489
  12       11.1185
 
  0.4166667E+00  0.3333333E+00  0.2500000E+00  0.2777778E-01
   1       -1.3988
   2       -0.1759
   3        1.0302
   4        2.0218
   5        2.5046
   6        3.4877
   7        4.6684
   8        5.8494
   9        9.3596
  10       10.2629
  11       10.7283
  12       11.3421
 
  0.5000000E+00  0.3333333E+00  0.2500000E+00  0.1388889E-01
   1       -0.8371
   2       -0.8371
   3        1.5625
   4        1.5625
   5        2.8618
   6        2.8618
   7        5.2106
   8        5.2106
   9        9.8491
  10        9.8491
  11       11.0443
  12       11.0443
 
  0.4166667E+00  0.4166667E+00  0.2500000E+00  0.1388889E-01
   1       -0.9395
   2        0.2776
   3        0.2776
   4        1.4609
   5        2.7632
   6        3.9296
   7        3.9296
   8        5.1131
   9        9.7859
  10       10.8498
  11       10.8498
  12       11.9473
 
  0.5000000E+00  0.4166667E+00  0.2500000E+00  0.1388889E-01
   1       -0.3801
   2       -0.3801
   3        0.8271
   4        0.8271
   5        3.2904
   6        3.2904
   7        4.4724
   8        4.4724
   9       10.2896
  10       10.2896
  11       11.3704
  12       11.3704
 
  0.5000000E+00  0.5000000E+00  0.2500000E+00  0.3472222E-02
   1        0.1757
   2        0.1757
   3        0.1757
   4        0.1757
   5        3.8311
   6        3.8311
   7        3.8311
   8        3.8311
   9       10.7982
  10       10.7982
  11       10.7982
  12       10.7982
 
  0.3333333E+00  0.3333333E+00  0.3333333E+00  0.4629630E-02
   1       -1.5015
   2        0.9289
   3        0.9289
   4        0.9289
   5        3.3896
   6        3.3896
   7        3.3896
   8        5.7528
   9       10.3887
  10       10.3887
  11       10.3887
  12       11.9718
 
  0.4166667E+00  0.3333333E+00  0.3333333E+00  0.1388889E-01
   1       -1.0419
   2        0.1759
   3        1.3594
   4        1.3594
   5        2.6650
   6        2.6650
   7        3.8317
   8        5.0160
   9       10.7817
  10       10.7817
  11       11.8507
  12       11.8527
 
  0.5000000E+00  0.3333333E+00  0.3333333E+00  0.6944444E-02
   1       -0.4822
   2       -0.4822
   3        1.7130
   4        1.7130
   5        2.2132
   6        2.2132
   7        4.3748
   8        4.3748
   9       11.0835
  10       11.0835
  11       11.5427
  12       11.5427
 
  0.4166667E+00  0.4166667E+00  0.3333333E+00  0.1388889E-01
   1       -0.5844
   2        0.6239
   3        0.6239
   4        1.6098
   5        2.1159
   6        3.0934
   7        3.0934
   8        4.2767
   9       11.2044
  10       12.0478
  11       12.0478
  12       12.4475
 
  0.5000000E+00  0.4166667E+00  0.3333333E+00  0.1388889E-01
   1       -0.0280
   2       -0.0280
   3        1.1558
   4        1.1558
   5        2.4674
   6        2.4674
   7        3.6345
   8        3.6345
   9       11.6673
  10       11.6673
  11       12.6504
  12       12.6512
 
  0.5000000E+00  0.5000000E+00  0.3333333E+00  0.3472222E-02
   1        0.5221
   2        0.5221
   3        0.5221
   4        0.5221
   5        2.9944
   6        2.9944
   7        2.9944
   8        2.9944
   9       12.1578
  10       12.1578
  11       12.1578
  12       12.1578
 
  0.4166667E+00  0.4166667E+00  0.4166667E+00  0.4629630E-02
   1       -0.1301
   2        1.0539
   3        1.0539
   4        1.0539
   5        2.3686
   6        2.3686
   7        2.3686
   8        3.5358
   9       12.6155
  10       12.6155
  11       12.6155
  12       13.1499
 
  0.5000000E+00  0.4166667E+00  0.4166667E+00  0.6944444E-02
   1        0.4203
   2        0.4203
   3        1.4032
   4        1.4032
   5        1.9209
   6        1.9209
   7        2.8954
   8        2.8954
   9       12.8810
  10       12.8810
  11       13.2252
  12       13.2252
 
  0.5000000E+00  0.5000000E+00  0.4166667E+00  0.3472222E-02
   1        0.9518
   2        0.9518
   3        0.9518
   4        0.9518
   5        2.2696
   6        2.2696
   7        2.2696
   8        2.2696
   9       13.4203
  10       13.4203
  11       13.4203
  12       13.4203
 
  0.5000000E+00  0.5000000E+00  0.5000000E+00  0.5787037E-03
   1        1.2997
   2        1.2997
   3        1.2997
   4        1.2997
   5        1.8233
   6        1.8233
   7        1.8233
   8        1.8233
   9       14.0926
  10       14.0926
  11       14.0926
  12       14.0926
