<?xml version="1.0" encoding="ISO-8859-1"?>
<modeling>
 <generator>
  <i name="program" type="string">vasp</i>
  <i name="version" type="string">4.6.28 </i>
  <i name="subversion" type="string">25Jul05 complex  parallel</i>
  <i name="platform" type="string">LinuxIFC</i>
  <i name="date" type="string">2017 01 08</i>
  <i name="time" type="string">10:03:51</i>
 </generator>
 <incar>
  <i type="string" name="PREC">accurate</i>
  <i type="int" name="IALGO">    38</i>
  <i type="logical" name="ADDGRID"> T  </i>
  <i name="EDIFF">      0.00000001</i>
  <i type="int" name="IBRION">    -1</i>
  <i name="ENCUT">    750.00000000</i>
  <i type="logical" name="LREAL"> F  </i>
  <i type="int" name="ISMEAR">     0</i>
  <i name="SIGMA">      0.01000000</i>
  <i type="logical" name="LWAVE"> F  </i>
  <i type="logical" name="LCHARG"> F  </i>
 </incar>
 <kpoints>
  <generation param="Gamma">
   <v type="int" name="divisions">      12      12      12</v>
   <v name="usershift">      0.00000000      0.00000000      0.00000000</v>
   <v name="genvec1">      0.08333333      0.00000000      0.00000000</v>
   <v name="genvec2">      0.00000000      0.08333333      0.00000000</v>
   <v name="genvec3">      0.00000000      0.00000000      0.08333333</v>
   <v name="shift">      0.00000000      0.00000000      0.00000000</v>
  </generation>
  <varray name="kpointlist" >
   <v>       0.00000000      0.00000000      0.00000000</v>
   <v>       0.08333333      0.00000000      0.00000000</v>
   <v>       0.16666667      0.00000000      0.00000000</v>
   <v>       0.25000000      0.00000000      0.00000000</v>
   <v>       0.33333333      0.00000000      0.00000000</v>
   <v>       0.41666667      0.00000000      0.00000000</v>
   <v>       0.50000000      0.00000000      0.00000000</v>
   <v>       0.08333333      0.08333333      0.00000000</v>
   <v>       0.16666667      0.08333333      0.00000000</v>
   <v>       0.25000000      0.08333333      0.00000000</v>
   <v>       0.33333333      0.08333333      0.00000000</v>
   <v>       0.41666667      0.08333333      0.00000000</v>
   <v>       0.50000000      0.08333333      0.00000000</v>
   <v>       0.16666667      0.16666667      0.00000000</v>
   <v>       0.25000000      0.16666667      0.00000000</v>
   <v>       0.33333333      0.16666667      0.00000000</v>
   <v>       0.41666667      0.16666667      0.00000000</v>
   <v>       0.50000000      0.16666667      0.00000000</v>
   <v>       0.25000000      0.25000000      0.00000000</v>
   <v>       0.33333333      0.25000000      0.00000000</v>
   <v>       0.41666667      0.25000000      0.00000000</v>
   <v>       0.50000000      0.25000000      0.00000000</v>
   <v>       0.33333333      0.33333333      0.00000000</v>
   <v>       0.41666667      0.33333333      0.00000000</v>
   <v>       0.50000000      0.33333333      0.00000000</v>
   <v>       0.41666667      0.41666667      0.00000000</v>
   <v>       0.50000000      0.41666667      0.00000000</v>
   <v>       0.50000000      0.50000000      0.00000000</v>
   <v>       0.08333333      0.08333333      0.08333333</v>
   <v>       0.16666667      0.08333333      0.08333333</v>
   <v>       0.25000000      0.08333333      0.08333333</v>
   <v>       0.33333333      0.08333333      0.08333333</v>
   <v>       0.41666667      0.08333333      0.08333333</v>
   <v>       0.50000000      0.08333333      0.08333333</v>
   <v>       0.16666667      0.16666667      0.08333333</v>
   <v>       0.25000000      0.16666667      0.08333333</v>
   <v>       0.33333333      0.16666667      0.08333333</v>
   <v>       0.41666667      0.16666667      0.08333333</v>
   <v>       0.50000000      0.16666667      0.08333333</v>
   <v>       0.25000000      0.25000000      0.08333333</v>
   <v>       0.33333333      0.25000000      0.08333333</v>
   <v>       0.41666667      0.25000000      0.08333333</v>
   <v>       0.50000000      0.25000000      0.08333333</v>
   <v>       0.33333333      0.33333333      0.08333333</v>
   <v>       0.41666667      0.33333333      0.08333333</v>
   <v>       0.50000000      0.33333333      0.08333333</v>
   <v>       0.41666667      0.41666667      0.08333333</v>
   <v>       0.50000000      0.41666667      0.08333333</v>
   <v>       0.50000000      0.50000000      0.08333333</v>
   <v>       0.16666667      0.16666667      0.16666667</v>
   <v>       0.25000000      0.16666667      0.16666667</v>
   <v>       0.33333333      0.16666667      0.16666667</v>
   <v>       0.41666667      0.16666667      0.16666667</v>
   <v>       0.50000000      0.16666667      0.16666667</v>
   <v>       0.25000000      0.25000000      0.16666667</v>
   <v>       0.33333333      0.25000000      0.16666667</v>
   <v>       0.41666667      0.25000000      0.16666667</v>
   <v>       0.50000000      0.25000000      0.16666667</v>
   <v>       0.33333333      0.33333333      0.16666667</v>
   <v>       0.41666667      0.33333333      0.16666667</v>
   <v>       0.50000000      0.33333333      0.16666667</v>
   <v>       0.41666667      0.41666667      0.16666667</v>
   <v>       0.50000000      0.41666667      0.16666667</v>
   <v>       0.50000000      0.50000000      0.16666667</v>
   <v>       0.25000000      0.25000000      0.25000000</v>
   <v>       0.33333333      0.25000000      0.25000000</v>
   <v>       0.41666667      0.25000000      0.25000000</v>
   <v>       0.50000000      0.25000000      0.25000000</v>
   <v>       0.33333333      0.33333333      0.25000000</v>
   <v>       0.41666667      0.33333333      0.25000000</v>
   <v>       0.50000000      0.33333333      0.25000000</v>
   <v>       0.41666667      0.41666667      0.25000000</v>
   <v>       0.50000000      0.41666667      0.25000000</v>
   <v>       0.50000000      0.50000000      0.25000000</v>
   <v>       0.33333333      0.33333333      0.33333333</v>
   <v>       0.41666667      0.33333333      0.33333333</v>
   <v>       0.50000000      0.33333333      0.33333333</v>
   <v>       0.41666667      0.41666667      0.33333333</v>
   <v>       0.50000000      0.41666667      0.33333333</v>
   <v>       0.50000000      0.50000000      0.33333333</v>
   <v>       0.41666667      0.41666667      0.41666667</v>
   <v>       0.50000000      0.41666667      0.41666667</v>
   <v>       0.50000000      0.50000000      0.41666667</v>
   <v>       0.50000000      0.50000000      0.50000000</v>
  </varray>
  <varray name="weights" >
   <v>       0.00057870</v>
   <v>       0.00347222</v>
   <v>       0.00347222</v>
   <v>       0.00347222</v>
   <v>       0.00347222</v>
   <v>       0.00347222</v>
   <v>       0.00173611</v>
   <v>       0.00694444</v>
   <v>       0.01388889</v>
   <v>       0.01388889</v>
   <v>       0.01388889</v>
   <v>       0.01388889</v>
   <v>       0.00694444</v>
   <v>       0.00694444</v>
   <v>       0.01388889</v>
   <v>       0.01388889</v>
   <v>       0.01388889</v>
   <v>       0.00694444</v>
   <v>       0.00694444</v>
   <v>       0.01388889</v>
   <v>       0.01388889</v>
   <v>       0.00694444</v>
   <v>       0.00694444</v>
   <v>       0.01388889</v>
   <v>       0.00694444</v>
   <v>       0.00694444</v>
   <v>       0.00694444</v>
   <v>       0.00173611</v>
   <v>       0.00462963</v>
   <v>       0.01388889</v>
   <v>       0.01388889</v>
   <v>       0.01388889</v>
   <v>       0.01388889</v>
   <v>       0.00694444</v>
   <v>       0.01388889</v>
   <v>       0.02777778</v>
   <v>       0.02777778</v>
   <v>       0.02777778</v>
   <v>       0.01388889</v>
   <v>       0.01388889</v>
   <v>       0.02777778</v>
   <v>       0.02777778</v>
   <v>       0.01388889</v>
   <v>       0.01388889</v>
   <v>       0.02777778</v>
   <v>       0.01388889</v>
   <v>       0.01388889</v>
   <v>       0.01388889</v>
   <v>       0.00347222</v>
   <v>       0.00462963</v>
   <v>       0.01388889</v>
   <v>       0.01388889</v>
   <v>       0.01388889</v>
   <v>       0.00694444</v>
   <v>       0.01388889</v>
   <v>       0.02777778</v>
   <v>       0.02777778</v>
   <v>       0.01388889</v>
   <v>       0.01388889</v>
   <v>       0.02777778</v>
   <v>       0.01388889</v>
   <v>       0.01388889</v>
   <v>       0.01388889</v>
   <v>       0.00347222</v>
   <v>       0.00462963</v>
   <v>       0.01388889</v>
   <v>       0.01388889</v>
   <v>       0.00694444</v>
   <v>       0.01388889</v>
   <v>       0.02777778</v>
   <v>       0.01388889</v>
   <v>       0.01388889</v>
   <v>       0.01388889</v>
   <v>       0.00347222</v>
   <v>       0.00462963</v>
   <v>       0.01388889</v>
   <v>       0.00694444</v>
   <v>       0.01388889</v>
   <v>       0.01388889</v>
   <v>       0.00347222</v>
   <v>       0.00462963</v>
   <v>       0.00694444</v>
   <v>       0.00347222</v>
   <v>       0.00057870</v>
  </varray>
 </kpoints>
 <parameters>
  <separator name="general" >
   <i type="string" name="SYSTEM">unknown system</i>
   <i type="logical" name="LCOMPAT"> F  </i>
  </separator>
  <separator name="electronic" >
   <i type="string" name="PREC">accura</i>
   <i name="ENMAX">    750.00000000</i>
   <i name="ENAUG">    291.05200000</i>
   <i name="EDIFF">      0.00000001</i>
   <i type="int" name="IALGO">    38</i>
   <i type="int" name="IWAVPR">    10</i>
   <i type="int" name="NBANDS">    10</i>
   <i name="NELECT">     12.00000000</i>
   <separator name="electronic smearing" >
    <i type="int" name="ISMEAR">     0</i>
    <i name="SIGMA">      0.01000000</i>
   </separator>
   <separator name="electronic projectors" >
    <i type="logical" name="LREAL"> F  </i>
    <v name="ROPT">      0.00000000</v>
    <i type="int" name="LMAXPAW">  -100</i>
    <i type="int" name="LMAXMIX">     2</i>
   </separator>
   <separator name="electronic startup" >
    <i type="int" name="ISTART">     0</i>
    <i type="int" name="ICHARG">     2</i>
    <i type="int" name="INIWAV">     1</i>
   </separator>
   <separator name="electronic spin" >
    <i type="int" name="ISPIN">     1</i>
    <i type="logical" name="LNONCOLLINEAR"> F  </i>
    <v name="MAGMOM">      1.00000000      1.00000000      1.00000000      1.00000000</v>
    <i name="NUPDOWN">     -1.00000000</i>
    <i type="logical" name="LSORBIT"> F  </i>
    <v name="SAXIS">      0.00000000      0.00000000      1.00000000</v>
    <i type="logical" name="LSPIRAL"> F  </i>
    <v name="QSPIRAL">      0.00000000      0.00000000      0.00000000</v>
    <i type="logical" name="LZEROZ"> F  </i>
   </separator>
   <separator name="electronic exchange-correlation" >
    <i type="string" name="GGA">--</i>
    <i type="int" name="VOSKOWN">     0</i>
    <i type="logical" name="LASPH"> F  </i>
    <i type="logical" name="LMETAGGA"> F  </i>
    <i type="string" name="GGA2">--</i>
   </separator>
   <separator name="electronic convergence" >
    <i type="int" name="NELM">    60</i>
    <i type="int" name="NELMDL">     0</i>
    <i type="int" name="NELMIN">     2</i>
    <i name="ENINI">    750.00000000</i>
    <separator name="electronic convergence detail" >
     <i type="logical" name="LDIAG"> T  </i>
     <i name="WEIMIN">      0.00000000</i>
     <i name="EBREAK">      0.00000000</i>
     <i name="DEPER">      0.30000000</i>
     <i type="int" name="NRMM">     4</i>
     <i name="TIME">      0.10000000</i>
    </separator>
   </separator>
   <separator name="electronic mixer" >
    <i name="AMIX">      0.40000000</i>
    <i name="BMIX">      1.00000000</i>
    <i name="AMIN">      0.10000000</i>
    <i name="AMIX_MAG">      1.60000000</i>
    <i name="BMIX_MAG">      1.00000000</i>
    <separator name="electronic mixer details" >
     <i type="int" name="IMIX">     4</i>
     <i type="int" name="MAXMIX">   -45</i>
     <i name="WC">    100.00000000</i>
     <i type="int" name="INIMIX">     1</i>
     <i type="int" name="MIXPRE">     1</i>
     <i type="int" name="MREMOVE">     5</i>
    </separator>
   </separator>
   <separator name="electronic dipolcorrection" >
    <i type="int" name="IDIPOL">     0</i>
    <i type="logical" name="LDIPOL"> F  </i>
    <v name="DIPOL">   -100.00000000</v>
    <i name="EFIELD">      0.00000000</i>
   </separator>
  </separator>
  <separator name="grids" >
   <i type="int" name="NGX">    40</i>
   <i type="int" name="NGY">    40</i>
   <i type="int" name="NGZ">    40</i>
   <i type="int" name="NGXF">    80</i>
   <i type="int" name="NGYF">    80</i>
   <i type="int" name="NGZF">    80</i>
   <i type="logical" name="ADDGRID"> T  </i>
  </separator>
  <separator name="ionic" >
   <i type="int" name="NSW">     0</i>
   <i type="int" name="IBRION">    -1</i>
   <i type="int" name="ISIF">     2</i>
   <i name="PSTRESS">      0.00000000</i>
   <i name="EDIFFG">      0.00000010</i>
   <i type="int" name="NFREE">     0</i>
   <i name="POTIM">      0.50000000</i>
   <i name="SMASS">     -3.00000000</i>
  </separator>
  <separator name="ionic md" >
   <i name="TEBEG">      0.00010000</i>
   <i name="TEEND">      0.00010000</i>
   <i type="int" name="NBLOCK">     1</i>
   <i type="int" name="KBLOCK">     1</i>
   <i type="int" name="NPACO">   256</i>
   <i name="APACO">     16.00000000</i>
  </separator>
  <separator name="symmetry" >
   <i type="int" name="ISYM">     2</i>
   <i name="SYMPREC">      0.00001000</i>
  </separator>
  <separator name="dos" >
   <i type="logical" name="LORBIT"> F  </i>
   <v name="RWIGS">     -1.00000000</v>
   <i type="int" name="NEDOS">   301</i>
   <i name="EMIN">     10.00000000</i>
   <i name="EMAX">    -10.00000000</i>
  </separator>
  <separator name="writing" >
   <i type="int" name="NWRITE">     2</i>
   <i type="logical" name="LWAVE"> F  </i>
   <i type="logical" name="LCHARG"> F  </i>
   <i type="logical" name="LPARD"> F  </i>
   <i type="logical" name="LVTOT"> F  </i>
   <i type="logical" name="LELF"> F  </i>
   <i type="logical" name="LOPTICS"> F  </i>
   <i name="STM">      0.00000000</i>
  </separator>
  <separator name="performance" >
   <i type="int" name="NPAR">     4</i>
   <i type="int" name="NSIM">     4</i>
   <i type="int" name="NBLK">   256</i>
   <i type="logical" name="LPLANE"> T  </i>
   <i type="logical" name="LCRITICAL_MEM"> F  </i>
   <i type="logical" name="LSCALAPACK"> F  </i>
   <i type="logical" name="LSCALU"> F  </i>
   <i type="logical" name="LASYNC"> F  </i>
  </separator>
  <separator name="miscellaneous" >
   <i type="int" name="IDIOT">     3</i>
   <i type="logical" name="LMUSIC"> F  </i>
   <v name="POMASS">     26.98200000</v>
   <i type="logical" name="LCORR"> T  </i>
  </separator>
  <i type="logical" name="LREAL_COMPAT"> F  </i>
  <i type="logical" name="GGA_COMPAT"> T  </i>
  <i type="logical" name="LBERRY"> F  </i>
  <i type="int" name="ICORELEVEL">     0</i>
  <i type="logical" name="LDAU"> F  </i>
  <i type="int" name="I_CONSTRAINED_M">     0</i>
 </parameters>
 <atominfo>
  <atoms>       4</atoms>
  <types>       1</types>
  <array name="atoms" >
   <dimension dim="1">ion</dimension>
   <field type="string">element</field>
   <field type="int">atomtype</field>
   <set>
    <rc><c>Al</c><c>   1</c></rc>
    <rc><c>Al</c><c>   1</c></rc>
    <rc><c>Al</c><c>   1</c></rc>
    <rc><c>Al</c><c>   1</c></rc>
   </set>
  </array>
  <array name="atomtypes" >
   <dimension dim="1">type</dimension>
   <field type="int">atomspertype</field>
   <field type="string">element</field>
   <field>mass</field>
   <field>valence</field>
   <field type="string">pseudopotential</field>
   <set>
    <rc><c>   4</c><c>Al</c><c>     26.98200000</c><c>      3.00000000</c><c> PAW_PBE Al 04Jan2001                   </c></rc>
   </set>
  </array>
 </atominfo>
 <structure name="initialpos" >
  <crystal>
   <varray name="basis" >
    <v>       4.44103701      0.00000000      0.00000000</v>
    <v>       0.00000000      4.44103701      0.00000000</v>
    <v>       0.00000000      0.00000000      4.44103701</v>
   </varray>
   <i name="volume">     87.58972773</i>
   <varray name="rec_basis" >
    <v>       0.22517263      0.00000000      0.00000000</v>
    <v>       0.00000000      0.22517263      0.00000000</v>
    <v>       0.00000000      0.00000000      0.22517263</v>
   </varray>
  </crystal>
  <varray name="positions" >
   <v>       0.50000000      0.50000000      0.00000000</v>
   <v>       0.50000000      0.00000000      0.50000000</v>
   <v>       0.00000000      0.50000000      0.50000000</v>
   <v>       0.00000000      0.00000000      0.00000000</v>
  </varray>
 </structure>
 <calculation>
  <scstep>
   <time name="dav">    5.06    5.10</time>
   <time name="total">    5.36    5.39</time>
   <energy>
    <i name="alphaZ">     -0.61355359</i>
    <i name="ewald">   -267.59036141</i>
    <i name="hartreedc">     -1.22185569</i>
    <i name="XCdc">   -106.87051222</i>
    <i name="pawpsdc">    142.21701965</i>
    <i name="pawaedc">    -14.39593217</i>
    <i name="eentropy">     -0.00015480</i>
    <i name="bandstr">     43.36745631</i>
    <i name="atom">    214.15438658</i>
    <i name="e_fr_energy">      9.04649268</i>
    <i name="e_wo_entrp">      9.04664748</i>
    <i name="e_0_energy">      9.04657008</i>
   </energy>
  </scstep>
  <scstep>
   <time name="dav">    5.83    5.83</time>
   <time name="total">    5.83    5.84</time>
   <energy>
    <i name="e_fr_energy">    -13.20129406</i>
    <i name="e_wo_entrp">    -13.20112332</i>
    <i name="e_0_energy">    -13.20120869</i>
   </energy>
  </scstep>
  <scstep>
   <time name="dav">    6.13    6.13</time>
   <time name="total">    6.13    6.14</time>
   <energy>
    <i name="e_fr_energy">    -14.06008547</i>
    <i name="e_wo_entrp">    -14.05989475</i>
    <i name="e_0_energy">    -14.05999011</i>
   </energy>
  </scstep>
  <scstep>
   <time name="dav">    4.95    4.95</time>
   <time name="total">    4.96    4.96</time>
   <energy>
    <i name="e_fr_energy">    -14.06850011</i>
    <i name="e_wo_entrp">    -14.06829894</i>
    <i name="e_0_energy">    -14.06839953</i>
   </energy>
  </scstep>
  <scstep>
   <time name="dav">    3.92    3.93</time>
   <time name="total">    4.22    4.23</time>
   <energy>
    <i name="e_fr_energy">    -14.06859001</i>
    <i name="e_wo_entrp">    -14.06838884</i>
    <i name="e_0_energy">    -14.06848943</i>
   </energy>
  </scstep>
  <scstep>
   <time name="dav">    3.69    3.69</time>
   <time name="total">    4.22    4.22</time>
   <energy>
    <i name="e_fr_energy">    -14.02437501</i>
    <i name="e_wo_entrp">    -14.02421924</i>
    <i name="e_0_energy">    -14.02429713</i>
   </energy>
  </scstep>
  <scstep>
   <time name="dav">    3.53    3.53</time>
   <time name="total">    4.06    4.06</time>
   <energy>
    <i name="e_fr_energy">    -13.99360963</i>
    <i name="e_wo_entrp">    -13.99349365</i>
    <i name="e_0_energy">    -13.99355164</i>
   </energy>
  </scstep>
  <scstep>
   <time name="dav">    3.84    3.84</time>
   <time name="total">    4.36    4.36</time>
   <energy>
    <i name="e_fr_energy">    -13.99355866</i>
    <i name="e_wo_entrp">    -13.99344333</i>
    <i name="e_0_energy">    -13.99350099</i>
   </energy>
  </scstep>
  <scstep>
   <time name="dav">    3.72    3.72</time>
   <time name="total">    4.24    4.24</time>
   <energy>
    <i name="e_fr_energy">    -13.99356478</i>
    <i name="e_wo_entrp">    -13.99344944</i>
    <i name="e_0_energy">    -13.99350711</i>
   </energy>
  </scstep>
  <scstep>
   <time name="dav">    3.93    3.93</time>
   <time name="total">    4.44    4.45</time>
   <energy>
    <i name="e_fr_energy">    -13.99356310</i>
    <i name="e_wo_entrp">    -13.99344774</i>
    <i name="e_0_energy">    -13.99350542</i>
   </energy>
  </scstep>
  <scstep>
   <time name="dav">    2.81    2.81</time>
   <time name="total">    3.33    3.33</time>
   <energy>
    <i name="e_fr_energy">    -13.99356306</i>
    <i name="e_wo_entrp">    -13.99344770</i>
    <i name="e_0_energy">    -13.99350538</i>
   </energy>
  </scstep>
  <scstep>
   <time name="dav">    2.66    2.66</time>
   <time name="total">    3.18    3.18</time>
   <energy>
    <i name="e_fr_energy">    -13.99356310</i>
    <i name="e_wo_entrp">    -13.99344774</i>
    <i name="e_0_energy">    -13.99350542</i>
   </energy>
  </scstep>
  <scstep>
   <time name="dav">    2.56    2.56</time>
   <time name="total">    2.78    2.79</time>
   <energy>
    <i name="alphaZ">     -0.61355359</i>
    <i name="ewald">   -267.59036141</i>
    <i name="hartreedc">     -0.61938536</i>
    <i name="XCdc">   -106.68077325</i>
    <i name="pawpsdc">    140.56896421</i>
    <i name="pawaedc">    -12.68535892</i>
    <i name="eentropy">     -0.00011536</i>
    <i name="bandstr">     19.47263399</i>
    <i name="atom">    214.15438658</i>
    <i name="e_fr_energy">    -13.99356309</i>
    <i name="e_wo_entrp">    -13.99344773</i>
    <i name="e_0_energy">    -13.99350541</i>
   </energy>
  </scstep>
  <structure>
   <crystal>
    <varray name="basis" >
     <v>       4.44103701      0.00000000      0.00000000</v>
     <v>       0.00000000      4.44103701      0.00000000</v>
     <v>       0.00000000      0.00000000      4.44103701</v>
    </varray>
    <i name="volume">     87.58972773</i>
    <varray name="rec_basis" >
     <v>       0.22517263      0.00000000      0.00000000</v>
     <v>       0.00000000      0.22517263      0.00000000</v>
     <v>       0.00000000      0.00000000      0.22517263</v>
    </varray>
   </crystal>
   <varray name="positions" >
    <v>       0.50000000      0.50000000      0.00000000</v>
    <v>       0.50000000      0.00000000      0.50000000</v>
    <v>       0.00000000      0.50000000      0.50000000</v>
    <v>       0.00000000      0.00000000      0.00000000</v>
   </varray>
  </structure>
  <varray name="forces" >
   <v>       0.00000000     -0.00000000     -0.00000000</v>
   <v>       0.00000000     -0.00000000      0.00000000</v>
   <v>      -0.00000000     -0.00000000      0.00000000</v>
   <v>       0.00000000      0.00000000      0.00000000</v>
  </varray>
  <varray name="stress" >
   <v>    -108.44583043      0.00000000      0.00000000</v>
   <v>       0.00000000   -108.44583043      0.00000000</v>
   <v>      -0.00000000     -0.00000000   -108.44583043</v>
  </varray>
  <energy>
   <i name="e_fr_energy">    -13.99356309</i>
   <i name="e_wo_entrp">    -13.99350541</i>
   <i name="e_0_energy">     -0.00011536</i>
  </energy>
  <eigenvalues>
   <array>
    <dimension dim="1">band</dimension>
    <dimension dim="2">kpoint</dimension>
    <dimension dim="3">spin</dimension>
    <field>eigene</field>
    <field>occ</field>
    <set>
     <set comment="spin 1">
      <set comment="kpoint 1">
       <r>  -3.9782  1.0000</r>
       <r>   3.0983  1.0000</r>
       <r>   3.0983  1.0000</r>
       <r>   3.0983  1.0000</r>
       <r>   3.6532  1.0000</r>
       <r>   3.6532  1.0000</r>
       <r>   3.6532  1.0000</r>
       <r>   9.7864  0.0000</r>
       <r>   9.7864  0.0000</r>
       <r>   9.7864  0.0000</r>
       <r>   9.7864  0.0000</r>
       <r>   9.7864  0.0000</r>
      </set>
      <set comment="kpoint 2">
       <r>  -3.9262  1.0000</r>
       <r>   2.1900  1.0000</r>
       <r>   3.1472  1.0000</r>
       <r>   3.1472  1.0000</r>
       <r>   3.7027  1.0000</r>
       <r>   3.7027  1.0000</r>
       <r>   4.6523  1.0000</r>
       <r>   8.9722  0.0000</r>
       <r>   8.9722  0.0000</r>
       <r>   9.3722  0.0000</r>
       <r>   9.3722  0.0000</r>
       <r>   9.8324  0.0000</r>
      </set>
      <set comment="kpoint 3">
       <r>  -3.7703  1.0000</r>
       <r>   1.1450  1.0000</r>
       <r>   3.2937  1.0000</r>
       <r>   3.2937  1.0000</r>
       <r>   3.8505  1.0000</r>
       <r>   3.8505  1.0000</r>
       <r>   5.9688  0.0000</r>
       <r>   7.9720  0.0000</r>
       <r>   7.9720  0.0000</r>
       <r>   8.5725  0.0000</r>
       <r>   8.5725  0.0000</r>
       <r>   9.9704  0.0000</r>
      </set>
      <set comment="kpoint 4">
       <r>  -3.5107  1.0000</r>
       <r>   0.1853  1.0000</r>
       <r>   3.5380  1.0000</r>
       <r>   3.5380  1.0000</r>
       <r>   4.0938  1.0000</r>
       <r>   4.0938  1.0000</r>
       <r>   7.0513  0.0000</r>
       <r>   7.0513  0.0000</r>
       <r>   7.3771  0.0000</r>
       <r>   7.7358  0.0000</r>
       <r>   7.7358  0.0000</r>
       <r>  10.2004  0.0000</r>
      </set>
      <set comment="kpoint 5">
       <r>  -3.1478  1.0000</r>
       <r>  -0.6798  1.0000</r>
       <r>   3.8800  1.0000</r>
       <r>   3.8800  1.0000</r>
       <r>   4.4243  1.0000</r>
       <r>   4.4243  1.0000</r>
       <r>   6.2235  0.0000</r>
       <r>   6.2235  0.0000</r>
       <r>   6.9586  0.0000</r>
       <r>   6.9586  0.0000</r>
       <r>   8.8595  0.0000</r>
       <r>  10.5222  0.0000</r>
      </set>
      <set comment="kpoint 6">
       <r>  -2.6824  1.0000</r>
       <r>  -1.4472  1.0000</r>
       <r>   4.3196  1.0000</r>
       <r>   4.3196  1.0000</r>
       <r>   4.8117  1.0000</r>
       <r>   4.8117  1.0000</r>
       <r>   5.4917  0.0000</r>
       <r>   5.4917  0.0000</r>
       <r>   6.2973  0.0000</r>
       <r>   6.2973  0.0000</r>
       <r>  10.3928  0.0000</r>
       <r>  10.9356  0.0000</r>
      </set>
      <set comment="kpoint 7">
       <r>  -2.1152  1.0000</r>
       <r>  -2.1152  1.0000</r>
       <r>   4.8570  1.0000</r>
       <r>   4.8570  1.0000</r>
       <r>   4.8570  1.0000</r>
       <r>   4.8570  1.0000</r>
       <r>   5.0650  1.0000</r>
       <r>   5.0650  1.0000</r>
       <r>   5.9519  0.0000</r>
       <r>   5.9519  0.0000</r>
       <r>  11.4403  0.0000</r>
       <r>  11.4403  0.0000</r>
      </set>
      <set comment="kpoint 8">
       <r>  -3.8742  1.0000</r>
       <r>   2.2397  1.0000</r>
       <r>   2.2397  1.0000</r>
       <r>   3.1960  1.0000</r>
       <r>   3.7518  1.0000</r>
       <r>   4.7008  1.0000</r>
       <r>   4.7008  1.0000</r>
       <r>   8.1298  0.0000</r>
       <r>   9.0201  0.0000</r>
       <r>   9.0201  0.0000</r>
       <r>   9.4195  0.0000</r>
       <r>   9.4195  0.0000</r>
      </set>
      <set comment="kpoint 9">
       <r>  -3.7183  1.0000</r>
       <r>   1.1952  1.0000</r>
       <r>   2.3885  1.0000</r>
       <r>   3.3426  1.0000</r>
       <r>   3.8981  1.0000</r>
       <r>   4.8452  1.0000</r>
       <r>   6.0157  0.0000</r>
       <r>   7.1480  0.0000</r>
       <r>   8.0205  0.0000</r>
       <r>   8.6220  0.0000</r>
       <r>   9.1639  0.0000</r>
       <r>   9.4177  0.0000</r>
      </set>
      <set comment="kpoint 10">
       <r>  -3.4588  1.0000</r>
       <r>   0.2358  1.0000</r>
       <r>   2.6361  1.0000</r>
       <r>   3.5868  1.0000</r>
       <r>   4.1360  1.0000</r>
       <r>   5.0821  1.0000</r>
       <r>   6.2428  0.0000</r>
       <r>   7.0999  0.0000</r>
       <r>   7.4205  0.0000</r>
       <r>   7.7890  0.0000</r>
       <r>   8.6213  0.0000</r>
       <r>   9.4034  0.0000</r>
      </set>
      <set comment="kpoint 11">
       <r>  -3.0961  1.0000</r>
       <r>  -0.6289  1.0000</r>
       <r>   2.9812  1.0000</r>
       <r>   3.9288  1.0000</r>
       <r>   4.4394  1.0000</r>
       <r>   5.3980  0.0000</r>
       <r>   5.4548  0.0000</r>
       <r>   6.2722  0.0000</r>
       <r>   7.0236  0.0000</r>
       <r>   7.8444  0.0000</r>
       <r>   8.8901  0.0000</r>
       <r>   9.7382  0.0000</r>
      </set>
      <set comment="kpoint 12">
       <r>  -2.6308  1.0000</r>
       <r>  -1.3961  1.0000</r>
       <r>   3.4212  1.0000</r>
       <r>   4.3685  1.0000</r>
       <r>   4.4823  1.0000</r>
       <r>   5.1073  1.0000</r>
       <r>   5.5405  0.0000</r>
       <r>   5.6961  0.0000</r>
       <r>   6.4510  0.0000</r>
       <r>   7.1479  0.0000</r>
       <r>  10.1677  0.0000</r>
       <r>  10.2799  0.0000</r>
      </set>
      <set comment="kpoint 13">
       <r>  -2.0638  1.0000</r>
       <r>  -2.0638  1.0000</r>
       <r>   3.9470  1.0000</r>
       <r>   3.9470  1.0000</r>
       <r>   4.9058  1.0000</r>
       <r>   4.9058  1.0000</r>
       <r>   5.4852  0.0000</r>
       <r>   5.4852  0.0000</r>
       <r>   6.5806  0.0000</r>
       <r>   6.5806  0.0000</r>
       <r>  10.6911  0.0000</r>
       <r>  10.6911  0.0000</r>
      </set>
      <set comment="kpoint 14">
       <r>  -3.5626  1.0000</r>
       <r>   1.3456  1.0000</r>
       <r>   1.3456  1.0000</r>
       <r>   3.4891  1.0000</r>
       <r>   4.0370  1.0000</r>
       <r>   6.1543  0.0000</r>
       <r>   6.1543  0.0000</r>
       <r>   6.1634  0.0000</r>
       <r>   8.1657  0.0000</r>
       <r>   8.1657  0.0000</r>
       <r>   8.7722  0.0000</r>
       <r>   8.7722  0.0000</r>
      </set>
      <set comment="kpoint 15">
       <r>  -3.3033  1.0000</r>
       <r>   0.3874  1.0000</r>
       <r>   1.5958  1.0000</r>
       <r>   3.7334  1.0000</r>
       <r>   4.2399  1.0000</r>
       <r>   5.2873  0.5146</r>
       <r>   6.3731  0.0000</r>
       <r>   7.2457  0.0000</r>
       <r>   7.5422  0.0000</r>
       <r>   7.9566  0.0000</r>
       <r>   8.4076  0.0000</r>
       <r>   9.0330  0.0000</r>
      </set>
      <set comment="kpoint 16">
       <r>  -2.9410  1.0000</r>
       <r>  -0.4764  1.0000</r>
       <r>   1.9450  1.0000</r>
       <r>   4.0753  1.0000</r>
       <r>   4.1812  1.0000</r>
       <r>   4.8587  1.0000</r>
       <r>   6.4183  0.0000</r>
       <r>   6.5823  0.0000</r>
       <r>   7.2943  0.0000</r>
       <r>   8.7459  0.0000</r>
       <r>   8.8936  0.0000</r>
       <r>   9.0849  0.0000</r>
      </set>
      <set comment="kpoint 17">
       <r>  -2.4762  1.0000</r>
       <r>  -1.2428  1.0000</r>
       <r>   2.3917  1.0000</r>
       <r>   3.5569  1.0000</r>
       <r>   4.5150  1.0000</r>
       <r>   5.1837  1.0000</r>
       <r>   5.6868  0.0000</r>
       <r>   6.2637  0.0000</r>
       <r>   7.3308  0.0000</r>
       <r>   8.4036  0.0000</r>
       <r>   9.1802  0.0000</r>
       <r>   9.6458  0.0000</r>
      </set>
      <set comment="kpoint 18">
       <r>  -1.9098  1.0000</r>
       <r>  -1.9098  1.0000</r>
       <r>   2.9326  1.0000</r>
       <r>   2.9326  1.0000</r>
       <r>   5.0522  1.0000</r>
       <r>   5.0522  1.0000</r>
       <r>   5.6906  0.0000</r>
       <r>   5.6906  0.0000</r>
       <r>   7.8040  0.0000</r>
       <r>   7.8040  0.0000</r>
       <r>   9.7098  0.0000</r>
       <r>   9.7098  0.0000</r>
      </set>
      <set comment="kpoint 19">
       <r>  -3.0445  1.0000</r>
       <r>   0.6396  1.0000</r>
       <r>   0.6396  1.0000</r>
       <r>   3.9776  1.0000</r>
       <r>   4.0802  1.0000</r>
       <r>   4.7680  1.0000</r>
       <r>   7.4886  0.0000</r>
       <r>   7.4886  0.0000</r>
       <r>   7.6523  0.0000</r>
       <r>   7.6523  0.0000</r>
       <r>   8.3271  0.0000</r>
       <r>   8.3271  0.0000</r>
      </set>
      <set comment="kpoint 20">
       <r>  -2.6828  1.0000</r>
       <r>  -0.2226  1.0000</r>
       <r>   0.9919  1.0000</r>
       <r>   3.3583  1.0000</r>
       <r>   4.3195  1.0000</r>
       <r>   4.9985  1.0000</r>
       <r>   6.6618  0.0000</r>
       <r>   7.2334  0.0000</r>
       <r>   7.8284  0.0000</r>
       <r>   8.2903  0.0000</r>
       <r>   8.3704  0.0000</r>
       <r>   9.4339  0.0000</r>
      </set>
      <set comment="kpoint 21">
       <r>  -2.2188  1.0000</r>
       <r>  -0.9875  1.0000</r>
       <r>   1.4432  1.0000</r>
       <r>   2.6339  1.0000</r>
       <r>   4.7591  1.0000</r>
       <r>   5.4214  0.0000</r>
       <r>   5.9306  0.0000</r>
       <r>   6.5666  0.0000</r>
       <r>   8.2648  0.0000</r>
       <r>   8.6675  0.0000</r>
       <r>   8.8482  0.0000</r>
       <r>   9.4252  0.0000</r>
      </set>
      <set comment="kpoint 22">
       <r>  -1.6534  1.0000</r>
       <r>  -1.6534  1.0000</r>
       <r>   1.9917  1.0000</r>
       <r>   1.9917  1.0000</r>
       <r>   5.2962  0.1104</r>
       <r>   5.2962  0.1104</r>
       <r>   5.9504  0.0000</r>
       <r>   5.9504  0.0000</r>
       <r>   8.7974  0.0000</r>
       <r>   8.7974  0.0000</r>
       <r>   9.1676  0.0000</r>
       <r>   9.1676  0.0000</r>
      </set>
      <set comment="kpoint 23">
       <r>  -2.3220  1.0000</r>
       <r>   0.1321  1.0000</r>
       <r>   0.1321  1.0000</r>
       <r>   2.5338  1.0000</r>
       <r>   4.6614  1.0000</r>
       <r>   5.3270  0.0000</r>
       <r>   7.0025  0.0000</r>
       <r>   7.0025  0.0000</r>
       <r>   7.6265  0.0000</r>
       <r>   7.6265  0.0000</r>
       <r>   9.3296  0.0000</r>
       <r>   9.7186  0.0000</r>
      </set>
      <set comment="kpoint 24">
       <r>  -1.8591  1.0000</r>
       <r>  -0.6308  1.0000</r>
       <r>   0.5868  1.0000</r>
       <r>   1.7906  1.0000</r>
       <r>   5.1008  1.0000</r>
       <r>   5.7649  0.0000</r>
       <r>   6.2718  0.0000</r>
       <r>   6.9244  0.0000</r>
       <r>   7.4401  0.0000</r>
       <r>   8.0752  0.0000</r>
       <r>   8.6046  0.0000</r>
       <r>   9.2231  0.0000</r>
      </set>
      <set comment="kpoint 25">
       <r>  -1.2950  1.0000</r>
       <r>  -1.2950  1.0000</r>
       <r>   1.1403  1.0000</r>
       <r>   1.1403  1.0000</r>
       <r>   5.6377  0.0000</r>
       <r>   5.6377  0.0000</r>
       <r>   6.2999  0.0000</r>
       <r>   6.2999  0.0000</r>
       <r>   7.9744  0.0000</r>
       <r>   7.9744  0.0000</r>
       <r>   8.6068  0.0000</r>
       <r>   8.6068  0.0000</r>
      </set>
      <set comment="kpoint 26">
       <r>  -1.3977  1.0000</r>
       <r>  -0.1734  1.0000</r>
       <r>  -0.1734  1.0000</r>
       <r>   1.0391  1.0000</r>
       <r>   5.5400  0.0000</r>
       <r>   6.2067  0.0000</r>
       <r>   6.7102  0.0000</r>
       <r>   6.7102  0.0000</r>
       <r>   7.3682  0.0000</r>
       <r>   7.3682  0.0000</r>
       <r>   7.8774  0.0000</r>
       <r>   8.5214  0.0000</r>
      </set>
      <set comment="kpoint 27">
       <r>  -0.8354  1.0000</r>
       <r>  -0.8354  1.0000</r>
       <r>   0.3837  1.0000</r>
       <r>   0.3837  1.0000</r>
       <r>   6.0766  0.0000</r>
       <r>   6.0766  0.0000</r>
       <r>   6.7428  0.0000</r>
       <r>   6.7428  0.0000</r>
       <r>   7.2456  0.0000</r>
       <r>   7.2456  0.0000</r>
       <r>   7.9013  0.0000</r>
       <r>   7.9013  0.0000</r>
      </set>
      <set comment="kpoint 28">
       <r>  -0.2754  1.0000</r>
       <r>  -0.2754  1.0000</r>
       <r>  -0.2754  1.0000</r>
       <r>  -0.2754  1.0000</r>
       <r>   6.6127  0.0000</r>
       <r>   6.6127  0.0000</r>
       <r>   6.6127  0.0000</r>
       <r>   6.6127  0.0000</r>
       <r>   7.2778  0.0000</r>
       <r>   7.2778  0.0000</r>
       <r>   7.2778  0.0000</r>
       <r>   7.2778  0.0000</r>
      </set>
      <set comment="kpoint 29">
       <r>  -3.8222  1.0000</r>
       <r>   2.2893  1.0000</r>
       <r>   2.2893  1.0000</r>
       <r>   2.2893  1.0000</r>
       <r>   4.7487  1.0000</r>
       <r>   4.7487  1.0000</r>
       <r>   4.7487  1.0000</r>
       <r>   8.1789  0.0000</r>
       <r>   8.1789  0.0000</r>
       <r>   8.1789  0.0000</r>
       <r>   9.9240  0.0000</r>
       <r>   9.9240  0.0000</r>
      </set>
      <set comment="kpoint 30">
       <r>  -3.6664  1.0000</r>
       <r>   1.2453  1.0000</r>
       <r>   2.4379  1.0000</r>
       <r>   2.4379  1.0000</r>
       <r>   4.8910  1.0000</r>
       <r>   4.8910  1.0000</r>
       <r>   6.0613  0.0000</r>
       <r>   7.1991  0.0000</r>
       <r>   7.1991  0.0000</r>
       <r>   8.3269  0.0000</r>
       <r>   9.4653  0.0000</r>
       <r>   9.4653  0.0000</r>
      </set>
      <set comment="kpoint 31">
       <r>  -3.4070  1.0000</r>
       <r>   0.2864  1.0000</r>
       <r>   2.6849  1.0000</r>
       <r>   2.6849  1.0000</r>
       <r>   5.1172  1.0000</r>
       <r>   5.1172  1.0000</r>
       <r>   6.3023  0.0000</r>
       <r>   6.3023  0.0000</r>
       <r>   7.4573  0.0000</r>
       <r>   8.5803  0.0000</r>
       <r>   8.6707  0.0000</r>
       <r>   8.6707  0.0000</r>
      </set>
      <set comment="kpoint 32">
       <r>  -3.0444  1.0000</r>
       <r>  -0.5781  1.0000</r>
       <r>   3.0283  1.0000</r>
       <r>   3.0283  1.0000</r>
       <r>   5.2569  1.0000</r>
       <r>   5.2569  1.0000</r>
       <r>   5.6737  0.0000</r>
       <r>   5.6737  0.0000</r>
       <r>   7.8970  0.0000</r>
       <r>   7.8970  0.0000</r>
       <r>   8.7558  0.0000</r>
       <r>   9.1021  0.0000</r>
      </set>
      <set comment="kpoint 33">
       <r>  -2.5793  1.0000</r>
       <r>  -1.3450  1.0000</r>
       <r>   3.4611  1.0000</r>
       <r>   3.4611  1.0000</r>
       <r>   4.6784  1.0000</r>
       <r>   4.6784  1.0000</r>
       <r>   5.9417  0.0000</r>
       <r>   5.9417  0.0000</r>
       <r>   7.2132  0.0000</r>
       <r>   7.2132  0.0000</r>
       <r>   9.2973  0.0000</r>
       <r>  10.4529  0.0000</r>
      </set>
      <set comment="kpoint 34">
       <r>  -2.0125  1.0000</r>
       <r>  -2.0125  1.0000</r>
       <r>   3.8527  1.0000</r>
       <r>   3.8527  1.0000</r>
       <r>   4.2005  1.0000</r>
       <r>   4.2005  1.0000</r>
       <r>   6.2531  0.0000</r>
       <r>   6.2531  0.0000</r>
       <r>   6.7998  0.0000</r>
       <r>   6.7998  0.0000</r>
       <r>   9.8326  0.0000</r>
       <r>   9.8326  0.0000</r>
      </set>
      <set comment="kpoint 35">
       <r>  -3.5107  1.0000</r>
       <r>   1.3955  1.0000</r>
       <r>   1.3955  1.0000</r>
       <r>   2.5856  1.0000</r>
       <r>   5.0196  1.0000</r>
       <r>   6.1911  0.0000</r>
       <r>   6.1911  0.0000</r>
       <r>   6.2240  0.0000</r>
       <r>   7.3581  0.0000</r>
       <r>   7.3581  0.0000</r>
       <r>   9.6085  0.0000</r>
       <r>   9.6085  0.0000</r>
      </set>
      <set comment="kpoint 36">
       <r>  -3.2516  1.0000</r>
       <r>   0.4378  1.0000</r>
       <r>   1.6454  1.0000</r>
       <r>   2.8299  1.0000</r>
       <r>   5.0590  1.0000</r>
       <r>   5.5111  0.0000</r>
       <r>   6.2441  0.0000</r>
       <r>   6.6282  0.0000</r>
       <r>   7.4144  0.0000</r>
       <r>   7.7818  0.0000</r>
       <r>   8.8206  0.0000</r>
       <r>   9.8371  0.0000</r>
      </set>
      <set comment="kpoint 37">
       <r>  -2.8894  1.0000</r>
       <r>  -0.4257  1.0000</r>
       <r>   1.9938  1.0000</r>
       <r>   3.1634  1.0000</r>
       <r>   4.3972  1.0000</r>
       <r>   5.5544  0.0000</r>
       <r>   5.6934  0.0000</r>
       <r>   6.8081  0.0000</r>
       <r>   7.8821  0.0000</r>
       <r>   8.0639  0.0000</r>
       <r>   9.1225  0.0000</r>
       <r>   9.1341  0.0000</r>
      </set>
      <set comment="kpoint 38">
       <r>  -2.4248  1.0000</r>
       <r>  -1.1917  1.0000</r>
       <r>   2.4384  1.0000</r>
       <r>   3.4493  1.0000</r>
       <r>   3.8326  1.0000</r>
       <r>   4.8360  1.0000</r>
       <r>   6.1093  0.0000</r>
       <r>   7.0349  0.0000</r>
       <r>   7.5487  0.0000</r>
       <r>   8.3292  0.0000</r>
       <r>   8.4557  0.0000</r>
       <r>   9.4872  0.0000</r>
      </set>
      <set comment="kpoint 39">
       <r>  -1.8585  1.0000</r>
       <r>  -1.8585  1.0000</r>
       <r>   2.9704  1.0000</r>
       <r>   2.9704  1.0000</r>
       <r>   4.2134  1.0000</r>
       <r>   4.2134  1.0000</r>
       <r>   6.6147  0.0000</r>
       <r>   6.6147  0.0000</r>
       <r>   7.8679  0.0000</r>
       <r>   7.8679  0.0000</r>
       <r>   8.8627  0.0000</r>
       <r>   8.8627  0.0000</r>
      </set>
      <set comment="kpoint 40">
       <r>  -2.9929  1.0000</r>
       <r>   0.6898  1.0000</r>
       <r>   0.6898  1.0000</r>
       <r>   3.0638  1.0000</r>
       <r>   4.3008  1.0000</r>
       <r>   5.6010  0.0000</r>
       <r>   6.6277  0.0000</r>
       <r>   6.6277  0.0000</r>
       <r>   7.8739  0.0000</r>
       <r>   7.8739  0.0000</r>
       <r>   9.0818  0.0000</r>
       <r>   9.0818  0.0000</r>
      </set>
      <set comment="kpoint 41">
       <r>  -2.6313  1.0000</r>
       <r>  -0.1720  1.0000</r>
       <r>   1.0416  1.0000</r>
       <r>   3.2468  1.0000</r>
       <r>   3.6422  1.0000</r>
       <r>   5.8136  0.0000</r>
       <r>   5.9266  0.0000</r>
       <r>   6.9821  0.0000</r>
       <r>   8.0018  0.0000</r>
       <r>   8.4995  0.0000</r>
       <r>   9.1429  0.0000</r>
       <r>   9.3067  0.0000</r>
      </set>
      <set comment="kpoint 42">
       <r>  -2.1675  1.0000</r>
       <r>  -0.9366  1.0000</r>
       <r>   1.4919  1.0000</r>
       <r>   2.6709  1.0000</r>
       <r>   3.9227  1.0000</r>
       <r>   5.0843  1.0000</r>
       <r>   6.3587  0.0000</r>
       <r>   7.4240  0.0000</r>
       <r>   7.4854  0.0000</r>
       <r>   8.5872  0.0000</r>
       <r>   8.7302  0.0000</r>
       <r>   9.7428  0.0000</r>
      </set>
      <set comment="kpoint 43">
       <r>  -1.6022  1.0000</r>
       <r>  -1.6022  1.0000</r>
       <r>   2.0382  1.0000</r>
       <r>   2.0382  1.0000</r>
       <r>   4.4505  1.0000</r>
       <r>   4.4505  1.0000</r>
       <r>   6.8841  0.0000</r>
       <r>   6.8841  0.0000</r>
       <r>   7.9591  0.0000</r>
       <r>   7.9591  0.0000</r>
       <r>   9.2192  0.0000</r>
       <r>   9.2192  0.0000</r>
      </set>
      <set comment="kpoint 44">
       <r>  -2.2706  1.0000</r>
       <r>   0.1824  1.0000</r>
       <r>   0.1824  1.0000</r>
       <r>   2.5705  1.0000</r>
       <r>   3.8251  1.0000</r>
       <r>   6.1606  0.0000</r>
       <r>   6.1606  0.0000</r>
       <r>   6.2656  0.0000</r>
       <r>   8.4941  0.0000</r>
       <r>   8.5345  0.0000</r>
       <r>   8.5345  0.0000</r>
       <r>   9.7793  0.0000</r>
      </set>
      <set comment="kpoint 45">
       <r>  -1.8079  1.0000</r>
       <r>  -0.5802  1.0000</r>
       <r>   0.6366  1.0000</r>
       <r>   1.8370  1.0000</r>
       <r>   4.2553  1.0000</r>
       <r>   5.4294  0.0000</r>
       <r>   6.6023  0.0000</r>
       <r>   6.7023  0.0000</r>
       <r>   7.7705  0.0000</r>
       <r>   7.8487  0.0000</r>
       <r>   8.9881  0.0000</r>
       <r>  10.1303  0.0000</r>
      </set>
      <set comment="kpoint 46">
       <r>  -1.2441  1.0000</r>
       <r>  -1.2441  1.0000</r>
       <r>   1.1891  1.0000</r>
       <r>   1.1891  1.0000</r>
       <r>   4.7931  1.0000</r>
       <r>   4.7931  1.0000</r>
       <r>   7.1393  0.0000</r>
       <r>   7.1393  0.0000</r>
       <r>   7.2321  0.0000</r>
       <r>   7.2321  0.0000</r>
       <r>   9.5173  0.0000</r>
       <r>   9.5173  0.0000</r>
      </set>
      <set comment="kpoint 47">
       <r>  -1.3467  1.0000</r>
       <r>  -0.1231  1.0000</r>
       <r>  -0.1231  1.0000</r>
       <r>   1.0879  1.0000</r>
       <r>   4.6954  1.0000</r>
       <r>   5.8715  0.0000</r>
       <r>   5.8715  0.0000</r>
       <r>   7.0436  0.0000</r>
       <r>   7.1403  0.0000</r>
       <r>   8.2896  0.0000</r>
       <r>   8.2896  0.0000</r>
       <r>   9.4339  0.0000</r>
      </set>
      <set comment="kpoint 48">
       <r>  -0.7847  1.0000</r>
       <r>  -0.7847  1.0000</r>
       <r>   0.4335  1.0000</r>
       <r>   0.4335  1.0000</r>
       <r>   5.2351  1.0000</r>
       <r>   5.2351  1.0000</r>
       <r>   6.4100  0.0000</r>
       <r>   6.4100  0.0000</r>
       <r>   7.6708  0.0000</r>
       <r>   7.6708  0.0000</r>
       <r>   8.8184  0.0000</r>
       <r>   8.8184  0.0000</r>
      </set>
      <set comment="kpoint 49">
       <r>  -0.2251  1.0000</r>
       <r>  -0.2251  1.0000</r>
       <r>  -0.2251  1.0000</r>
       <r>  -0.2251  1.0000</r>
       <r>   5.7746  0.0000</r>
       <r>   5.7746  0.0000</r>
       <r>   5.7746  0.0000</r>
       <r>   5.7746  0.0000</r>
       <r>   8.2005  0.0000</r>
       <r>   8.2005  0.0000</r>
       <r>   8.2005  0.0000</r>
       <r>   8.2005  0.0000</r>
      </set>
      <set comment="kpoint 50">
       <r>  -3.3552  1.0000</r>
       <r>   1.5451  1.0000</r>
       <r>   1.5451  1.0000</r>
       <r>   1.5451  1.0000</r>
       <r>   6.1469  0.0000</r>
       <r>   6.1469  0.0000</r>
       <r>   6.1469  0.0000</r>
       <r>   6.5554  0.0000</r>
       <r>   6.5554  0.0000</r>
       <r>   6.5554  0.0000</r>
       <r>  10.3365  0.0000</r>
       <r>  10.3365  0.0000</r>
      </set>
      <set comment="kpoint 51">
       <r>  -3.0963  1.0000</r>
       <r>   0.5888  1.0000</r>
       <r>   1.7936  1.0000</r>
       <r>   1.7936  1.0000</r>
       <r>   5.3719  0.0000</r>
       <r>   5.3719  0.0000</r>
       <r>   6.5418  0.0000</r>
       <r>   6.6520  0.0000</r>
       <r>   6.6520  0.0000</r>
       <r>   7.8096  0.0000</r>
       <r>   9.9784  0.0000</r>
       <r>   9.9785  0.0000</r>
      </set>
      <set comment="kpoint 52">
       <r>  -2.7345  1.0000</r>
       <r>  -0.2736  1.0000</r>
       <r>   2.1386  1.0000</r>
       <r>   2.1386  1.0000</r>
       <r>   4.5575  1.0000</r>
       <r>   4.5575  1.0000</r>
       <r>   6.8981  0.0000</r>
       <r>   6.9711  0.0000</r>
       <r>   6.9711  0.0000</r>
       <r>   9.2249  0.0000</r>
       <r>   9.2741  0.0000</r>
       <r>   9.2831  0.0000</r>
      </set>
      <set comment="kpoint 53">
       <r>  -2.2704  1.0000</r>
       <r>  -1.0387  1.0000</r>
       <r>   2.5707  1.0000</r>
       <r>   2.5707  1.0000</r>
       <r>   3.8380  1.0000</r>
       <r>   3.8380  1.0000</r>
       <r>   7.3409  0.0000</r>
       <r>   7.3794  0.0000</r>
       <r>   7.3794  0.0000</r>
       <r>   8.5051  0.0000</r>
       <r>   8.6207  0.0000</r>
       <r>   8.6207  0.0000</r>
      </set>
      <set comment="kpoint 54">
       <r>  -1.7048  1.0000</r>
       <r>  -1.7048  1.0000</r>
       <r>   2.9422  1.0000</r>
       <r>   2.9422  1.0000</r>
       <r>   3.3702  1.0000</r>
       <r>   3.3702  1.0000</r>
       <r>   7.7123  0.0000</r>
       <r>   7.7123  0.0000</r>
       <r>   7.8765  0.0000</r>
       <r>   7.8765  0.0000</r>
       <r>   8.2005  0.0000</r>
       <r>   8.2005  0.0000</r>
      </set>
      <set comment="kpoint 55">
       <r>  -2.8379  1.0000</r>
       <r>   0.8399  1.0000</r>
       <r>   0.8399  1.0000</r>
       <r>   2.0384  1.0000</r>
       <r>   4.4617  1.0000</r>
       <r>   5.6340  0.0000</r>
       <r>   5.6340  0.0000</r>
       <r>   6.8833  0.0000</r>
       <r>   8.0334  0.0000</r>
       <r>   8.0334  0.0000</r>
       <r>   9.1346  0.0000</r>
       <r>  10.2178  0.0000</r>
      </set>
      <set comment="kpoint 56">
       <r>  -2.4767  1.0000</r>
       <r>  -0.0205  1.0000</r>
       <r>   1.1901  1.0000</r>
       <r>   2.3699  1.0000</r>
       <r>   3.6446  1.0000</r>
       <r>   4.8070  1.0000</r>
       <r>   5.9824  0.0000</r>
       <r>   7.2171  0.0000</r>
       <r>   8.3203  0.0000</r>
       <r>   8.3432  0.0000</r>
       <r>   9.4901  0.0000</r>
       <r>   9.5424  0.0000</r>
      </set>
      <set comment="kpoint 57">
       <r>  -2.0134  1.0000</r>
       <r>  -0.7841  1.0000</r>
       <r>   1.6366  1.0000</r>
       <r>   2.6365  1.0000</r>
       <r>   3.0830  1.0000</r>
       <r>   4.0742  1.0000</r>
       <r>   6.4252  0.0000</r>
       <r>   7.5955  0.0000</r>
       <r>   7.6436  0.0000</r>
       <r>   8.5750  0.0000</r>
       <r>   9.0537  0.0000</r>
       <r>   9.9450  0.0000</r>
      </set>
      <set comment="kpoint 58">
       <r>  -1.4489  1.0000</r>
       <r>  -1.4489  1.0000</r>
       <r>   2.1692  1.0000</r>
       <r>   2.1692  1.0000</r>
       <r>   3.4488  1.0000</r>
       <r>   3.4488  1.0000</r>
       <r>   6.9632  0.0000</r>
       <r>   6.9632  0.0000</r>
       <r>   8.1473  0.0000</r>
       <r>   8.1473  0.0000</r>
       <r>   9.3823  0.0000</r>
       <r>   9.3823  0.0000</r>
      </set>
      <set comment="kpoint 59">
       <r>  -2.1165  1.0000</r>
       <r>   0.3329  1.0000</r>
       <r>   0.3329  1.0000</r>
       <r>   2.5343  1.0000</r>
       <r>   2.9866  1.0000</r>
       <r>   5.1533  1.0000</r>
       <r>   5.1533  1.0000</r>
       <r>   7.5009  0.0000</r>
       <r>   7.5561  0.0000</r>
       <r>   9.6122  0.0000</r>
       <r>   9.6122  0.0000</r>
       <r>  10.0781  0.0000</r>
      </set>
      <set comment="kpoint 60">
       <r>  -1.6544  1.0000</r>
       <r>  -0.4283  1.0000</r>
       <r>   0.7852  1.0000</r>
       <r>   1.9673  1.0000</r>
       <r>   3.2528  1.0000</r>
       <r>   4.4176  1.0000</r>
       <r>   5.5968  0.0000</r>
       <r>   6.7721  0.0000</r>
       <r>   7.9871  0.0000</r>
       <r>   9.0945  0.0000</r>
       <r>  10.2024  0.0000</r>
       <r>  10.3297  0.0000</r>
      </set>
      <set comment="kpoint 61">
       <r>  -1.0913  1.0000</r>
       <r>  -1.0913  1.0000</r>
       <r>   1.3336  1.0000</r>
       <r>   1.3336  1.0000</r>
       <r>   3.7803  1.0000</r>
       <r>   3.7803  1.0000</r>
       <r>   6.1367  0.0000</r>
       <r>   6.1367  0.0000</r>
       <r>   8.5053  0.0000</r>
       <r>   8.5053  0.0000</r>
       <r>  10.7345  0.0000</r>
       <r>  10.7347  0.0000</r>
      </set>
      <set comment="kpoint 62">
       <r>  -1.1938  1.0000</r>
       <r>   0.0276  1.0000</r>
       <r>   0.0276  1.0000</r>
       <r>   1.2324  1.0000</r>
       <r>   3.6819  1.0000</r>
       <r>   4.8610  1.0000</r>
       <r>   4.8610  1.0000</r>
       <r>   6.0401  0.0000</r>
       <r>   8.4201  0.0000</r>
       <r>   9.5425  0.0000</r>
       <r>   9.5425  0.0000</r>
       <r>  10.6671  0.0000</r>
      </set>
      <set comment="kpoint 63">
       <r>  -0.6327  1.0000</r>
       <r>  -0.6327  1.0000</r>
       <r>   0.5822  1.0000</r>
       <r>   0.5822  1.0000</r>
       <r>   4.2215  1.0000</r>
       <r>   4.2215  1.0000</r>
       <r>   5.4024  0.0000</r>
       <r>   5.4024  0.0000</r>
       <r>   8.9410  0.0000</r>
       <r>   8.9410  0.0000</r>
       <r>  10.0651  0.0000</r>
       <r>  10.0651  0.0000</r>
      </set>
      <set comment="kpoint 64">
       <r>  -0.0744  1.0000</r>
       <r>  -0.0744  1.0000</r>
       <r>  -0.0744  1.0000</r>
       <r>  -0.0744  1.0000</r>
       <r>   4.7632  1.0000</r>
       <r>   4.7632  1.0000</r>
       <r>   4.7632  1.0000</r>
       <r>   4.7632  1.0000</r>
       <r>   9.4624  0.0000</r>
       <r>   9.4624  0.0000</r>
       <r>   9.4624  0.0000</r>
       <r>   9.4624  0.0000</r>
      </set>
      <set comment="kpoint 65">
       <r>  -2.5800  1.0000</r>
       <r>   1.0892  1.0000</r>
       <r>   1.0892  1.0000</r>
       <r>   1.0892  1.0000</r>
       <r>   4.7116  1.0000</r>
       <r>   4.7116  1.0000</r>
       <r>   4.7116  1.0000</r>
       <r>   8.2283  0.0000</r>
       <r>   8.2741  0.0000</r>
       <r>   8.2741  0.0000</r>
       <r>   8.2741  0.0000</r>
       <r>  11.0216  0.0000</r>
      </set>
      <set comment="kpoint 66">
       <r>  -2.2195  1.0000</r>
       <r>   0.2315  1.0000</r>
       <r>   1.4350  1.0000</r>
       <r>   1.4350  1.0000</r>
       <r>   3.8806  1.0000</r>
       <r>   3.8806  1.0000</r>
       <r>   5.0583  1.0000</r>
       <r>   7.4079  0.0000</r>
       <r>   8.6028  0.0000</r>
       <r>   8.6028  0.0000</r>
       <r>   9.7399  0.0000</r>
       <r>  10.7759  0.0000</r>
      </set>
      <set comment="kpoint 67">
       <r>  -1.7571  1.0000</r>
       <r>  -0.5303  1.0000</r>
       <r>   1.8664  1.0000</r>
       <r>   1.8664  1.0000</r>
       <r>   3.1568  1.0000</r>
       <r>   3.1568  1.0000</r>
       <r>   5.5021  0.0000</r>
       <r>   6.6784  0.0000</r>
       <r>   9.0072  0.0000</r>
       <r>   9.0072  0.0000</r>
       <r>  10.2021  0.0000</r>
       <r>  10.2021  0.0000</r>
      </set>
      <set comment="kpoint 68">
       <r>  -1.1936  1.0000</r>
       <r>  -1.1936  1.0000</r>
       <r>   2.2271  1.0000</r>
       <r>   2.2271  1.0000</r>
       <r>   2.6984  1.0000</r>
       <r>   2.6984  1.0000</r>
       <r>   6.0425  0.0000</r>
       <r>   6.0425  0.0000</r>
       <r>   9.3322  0.0000</r>
       <r>   9.3322  0.0000</r>
       <r>   9.8064  0.0000</r>
       <r>   9.8064  0.0000</r>
      </set>
      <set comment="kpoint 69">
       <r>  -1.8599  1.0000</r>
       <r>   0.5827  1.0000</r>
       <r>   0.5827  1.0000</r>
       <r>   1.7652  1.0000</r>
       <r>   3.0589  1.0000</r>
       <r>   4.2243  1.0000</r>
       <r>   4.2243  1.0000</r>
       <r>   6.5827  0.0000</r>
       <r>   8.9394  0.0000</r>
       <r>  10.0489  0.0000</r>
       <r>  10.0489  0.0000</r>
       <r>  11.1185  0.0000</r>
      </set>
      <set comment="kpoint 70">
       <r>  -1.3988  1.0000</r>
       <r>  -0.1759  1.0000</r>
       <r>   1.0302  1.0000</r>
       <r>   2.0218  1.0000</r>
       <r>   2.5046  1.0000</r>
       <r>   3.4877  1.0000</r>
       <r>   4.6684  1.0000</r>
       <r>   5.8494  0.0000</r>
       <r>   9.3596  0.0000</r>
       <r>  10.2629  0.0000</r>
       <r>  10.7283  0.0000</r>
       <r>  11.3421  0.0000</r>
      </set>
      <set comment="kpoint 71">
       <r>  -0.8371  1.0000</r>
       <r>  -0.8371  1.0000</r>
       <r>   1.5625  1.0000</r>
       <r>   1.5625  1.0000</r>
       <r>   2.8618  1.0000</r>
       <r>   2.8618  1.0000</r>
       <r>   5.2106  1.0000</r>
       <r>   5.2106  1.0000</r>
       <r>   9.8491  0.0000</r>
       <r>   9.8491  0.0000</r>
       <r>  11.0443  0.0000</r>
       <r>  11.0443  0.0000</r>
      </set>
      <set comment="kpoint 72">
       <r>  -0.9395  1.0000</r>
       <r>   0.2776  1.0000</r>
       <r>   0.2776  1.0000</r>
       <r>   1.4609  1.0000</r>
       <r>   2.7632  1.0000</r>
       <r>   3.9296  1.0000</r>
       <r>   3.9296  1.0000</r>
       <r>   5.1131  1.0000</r>
       <r>   9.7859  0.0000</r>
       <r>  10.8498  0.0000</r>
       <r>  10.8498  0.0000</r>
       <r>  11.9473  0.0000</r>
      </set>
      <set comment="kpoint 73">
       <r>  -0.3801  1.0000</r>
       <r>  -0.3801  1.0000</r>
       <r>   0.8271  1.0000</r>
       <r>   0.8271  1.0000</r>
       <r>   3.2904  1.0000</r>
       <r>   3.2904  1.0000</r>
       <r>   4.4724  1.0000</r>
       <r>   4.4724  1.0000</r>
       <r>  10.2896  0.0000</r>
       <r>  10.2896  0.0000</r>
       <r>  11.3704  0.0000</r>
       <r>  11.3704  0.0000</r>
      </set>
      <set comment="kpoint 74">
       <r>   0.1757  1.0000</r>
       <r>   0.1757  1.0000</r>
       <r>   0.1757  1.0000</r>
       <r>   0.1757  1.0000</r>
       <r>   3.8311  1.0000</r>
       <r>   3.8311  1.0000</r>
       <r>   3.8311  1.0000</r>
       <r>   3.8311  1.0000</r>
       <r>  10.7982  0.0000</r>
       <r>  10.7982  0.0000</r>
       <r>  10.7982  0.0000</r>
       <r>  10.7982  0.0000</r>
      </set>
      <set comment="kpoint 75">
       <r>  -1.5015  1.0000</r>
       <r>   0.9289  1.0000</r>
       <r>   0.9289  1.0000</r>
       <r>   0.9289  1.0000</r>
       <r>   3.3896  1.0000</r>
       <r>   3.3896  1.0000</r>
       <r>   3.3896  1.0000</r>
       <r>   5.7528  0.0000</r>
       <r>  10.3887  0.0000</r>
       <r>  10.3887  0.0000</r>
       <r>  10.3887  0.0000</r>
       <r>  11.9718  0.0000</r>
      </set>
      <set comment="kpoint 76">
       <r>  -1.0419  1.0000</r>
       <r>   0.1759  1.0000</r>
       <r>   1.3594  1.0000</r>
       <r>   1.3594  1.0000</r>
       <r>   2.6650  1.0000</r>
       <r>   2.6650  1.0000</r>
       <r>   3.8317  1.0000</r>
       <r>   5.0160  1.0000</r>
       <r>  10.7817  0.0000</r>
       <r>  10.7817  0.0000</r>
       <r>  11.8507  0.0000</r>
       <r>  11.8527  0.0000</r>
      </set>
      <set comment="kpoint 77">
       <r>  -0.4822  1.0000</r>
       <r>  -0.4822  1.0000</r>
       <r>   1.7130  1.0000</r>
       <r>   1.7130  1.0000</r>
       <r>   2.2132  1.0000</r>
       <r>   2.2132  1.0000</r>
       <r>   4.3748  1.0000</r>
       <r>   4.3748  1.0000</r>
       <r>  11.0835  0.0000</r>
       <r>  11.0835  0.0000</r>
       <r>  11.5427  0.0000</r>
       <r>  11.5427  0.0000</r>
      </set>
      <set comment="kpoint 78">
       <r>  -0.5844  1.0000</r>
       <r>   0.6239  1.0000</r>
       <r>   0.6239  1.0000</r>
       <r>   1.6098  1.0000</r>
       <r>   2.1159  1.0000</r>
       <r>   3.0934  1.0000</r>
       <r>   3.0934  1.0000</r>
       <r>   4.2767  1.0000</r>
       <r>  11.2044  0.0000</r>
       <r>  12.0478  0.0000</r>
       <r>  12.0478  0.0000</r>
       <r>  12.4475  0.0000</r>
      </set>
      <set comment="kpoint 79">
       <r>  -0.0280  1.0000</r>
       <r>  -0.0280  1.0000</r>
       <r>   1.1558  1.0000</r>
       <r>   1.1558  1.0000</r>
       <r>   2.4674  1.0000</r>
       <r>   2.4674  1.0000</r>
       <r>   3.6345  1.0000</r>
       <r>   3.6345  1.0000</r>
       <r>  11.6673  0.0000</r>
       <r>  11.6673  0.0000</r>
       <r>  12.6504  0.0000</r>
       <r>  12.6512  0.0000</r>
      </set>
      <set comment="kpoint 80">
       <r>   0.5221  1.0000</r>
       <r>   0.5221  1.0000</r>
       <r>   0.5221  1.0000</r>
       <r>   0.5221  1.0000</r>
       <r>   2.9944  1.0000</r>
       <r>   2.9944  1.0000</r>
       <r>   2.9944  1.0000</r>
       <r>   2.9944  1.0000</r>
       <r>  12.1578  0.0000</r>
       <r>  12.1578  0.0000</r>
       <r>  12.1578  0.0000</r>
       <r>  12.1578  0.0000</r>
      </set>
      <set comment="kpoint 81">
       <r>  -0.1301  1.0000</r>
       <r>   1.0539  1.0000</r>
       <r>   1.0539  1.0000</r>
       <r>   1.0539  1.0000</r>
       <r>   2.3686  1.0000</r>
       <r>   2.3686  1.0000</r>
       <r>   2.3686  1.0000</r>
       <r>   3.5358  1.0000</r>
       <r>  12.6155  0.0000</r>
       <r>  12.6155  0.0000</r>
       <r>  12.6155  0.0000</r>
       <r>  13.1499  0.0000</r>
      </set>
      <set comment="kpoint 82">
       <r>   0.4203  1.0000</r>
       <r>   0.4203  1.0000</r>
       <r>   1.4032  1.0000</r>
       <r>   1.4032  1.0000</r>
       <r>   1.9209  1.0000</r>
       <r>   1.9209  1.0000</r>
       <r>   2.8954  1.0000</r>
       <r>   2.8954  1.0000</r>
       <r>  12.8810  0.0000</r>
       <r>  12.8810  0.0000</r>
       <r>  13.2252  0.0000</r>
       <r>  13.2252  0.0000</r>
      </set>
      <set comment="kpoint 83">
       <r>   0.9518  1.0000</r>
       <r>   0.9518  1.0000</r>
       <r>   0.9518  1.0000</r>
       <r>   0.9518  1.0000</r>
       <r>   2.2696  1.0000</r>
       <r>   2.2696  1.0000</r>
       <r>   2.2696  1.0000</r>
       <r>   2.2696  1.0000</r>
       <r>  13.4203  0.0000</r>
       <r>  13.4203  0.0000</r>
       <r>  13.4203  0.0000</r>
       <r>  13.4203  0.0000</r>
      </set>
      <set comment="kpoint 84">
       <r>   1.2997  1.0000</r>
       <r>   1.2997  1.0000</r>
       <r>   1.2997  1.0000</r>
       <r>   1.2997  1.0000</r>
       <r>   1.8233  1.0000</r>
       <r>   1.8233  1.0000</r>
       <r>   1.8233  1.0000</r>
       <r>   1.8233  1.0000</r>
       <r>  14.0926  0.0000</r>
       <r>  14.0926  0.0000</r>
       <r>  14.0926  0.0000</r>
       <r>  14.0926  0.0000</r>
      </set>
     </set>
    </set>
   </array>
  </eigenvalues>
 </calculation>
 <structure name="finalpos" >
  <crystal>
   <varray name="basis" >
    <v>       4.44103701      0.00000000      0.00000000</v>
    <v>       0.00000000      4.44103701      0.00000000</v>
    <v>       0.00000000      0.00000000      4.44103701</v>
   </varray>
   <i name="volume">     87.58972773</i>
   <varray name="rec_basis" >
    <v>       0.22517263      0.00000000      0.00000000</v>
    <v>       0.00000000      0.22517263      0.00000000</v>
    <v>       0.00000000      0.00000000      0.22517263</v>
   </varray>
  </crystal>
  <varray name="positions" >
   <v>       0.50000000      0.50000000      0.00000000</v>
   <v>       0.50000000      0.00000000      0.50000000</v>
   <v>       0.00000000      0.50000000      0.50000000</v>
   <v>       0.00000000      0.00000000      0.00000000</v>
  </varray>
 </structure>
</modeling>
