 running on    4 nodes
 distr:  one band on    1 nodes,    4 groups
 vasp.4.6.28 25Jul05 complex 
 POSCAR found :  1 types and    4 ions
 LDA part: xc-table for Pade appr. of Perdew
 POSCAR, INCAR and KPOINTS ok, starting setup
 FFT: planning ...           1
 reading WAVECAR
 entering main loop
       N       E                     dE             d eps       ncg     rms          rms(c)
DAV:   1     0.440981183611E+03    0.44098E+03   -0.26364E+04  4704   0.204E+03
DAV:   2     0.576146206157E+01   -0.43522E+03   -0.41181E+03  4740   0.452E+02
DAV:   3    -0.105228237334E+02   -0.16284E+02   -0.16040E+02  5120   0.997E+01
DAV:   4    -0.106732049726E+02   -0.15038E+00   -0.15020E+00  4972   0.927E+00
DAV:   5    -0.106738333620E+02   -0.62839E-03   -0.62836E-03  4972   0.551E-01    0.397E+00
DAV:   6    -0.101726998193E+02    0.50113E+00   -0.21743E+00  4868   0.147E+01    0.866E-01
DAV:   7    -0.101696521389E+02    0.30477E-02   -0.35815E-02  4848   0.141E+00    0.507E-01
DAV:   8    -0.101683536908E+02    0.12984E-02   -0.55372E-03  4848   0.775E-01    0.404E-02
DAV:   9    -0.101684403082E+02   -0.86617E-04   -0.23234E-04  5012   0.126E-01    0.235E-02
DAV:  10    -0.101684474372E+02   -0.71290E-05   -0.26900E-05  4860   0.436E-02    0.386E-03
DAV:  11    -0.101684474064E+02    0.30833E-07   -0.18178E-06  4932   0.113E-02    0.720E-04
DAV:  12    -0.101684469364E+02    0.46998E-06   -0.71246E-08  4708   0.248E-03    0.173E-04
DAV:  13    -0.101684469462E+02   -0.97398E-08   -0.69403E-10  2560   0.225E-04
   1 F= -.10168447E+02 E0= -.10168360E+02  d E =-.174371E-03
