   4   4   0   0
  0.2401086E+02  0.4579547E-09  0.4579547E-09  0.4579547E-09  0.5000000E-15
  1.000000000000000E-004
  CAR 
 unknown system                          
     10.81210849     -5.31442587  301      1.11446426      1.00000000
     -5.314  0.0000E+00  0.0000E+00
     -5.261  0.0000E+00  0.0000E+00
     -5.207  0.0000E+00  0.0000E+00
     -5.153  0.0000E+00  0.0000E+00
     -5.099  0.0000E+00  0.0000E+00
     -5.046  0.0000E+00  0.0000E+00
     -4.992  0.0000E+00  0.0000E+00
     -4.938  0.0000E+00  0.0000E+00
     -4.884  0.0000E+00  0.0000E+00
     -4.831  0.0000E+00  0.0000E+00
     -4.777  0.0000E+00  0.0000E+00
     -4.723  0.0000E+00  0.0000E+00
     -4.669  0.0000E+00  0.0000E+00
     -4.616  0.1414E-07  0.7601E-09
     -4.562  0.2147E-01  0.1154E-02
     -4.508  0.1285E+00  0.8059E-02
     -4.454  0.2567E+00  0.2186E-01
     -4.401  0.1730E+00  0.3116E-01
     -4.347  0.1286E+00  0.3807E-01
     -4.293  0.5134E+00  0.6567E-01
     -4.239  0.5207E+00  0.9366E-01
     -4.186  0.1668E-02  0.9375E-01
     -4.132  0.2590E+00  0.1077E+00
     -4.078  0.6453E+00  0.1424E+00
     -4.024  0.5218E+00  0.1704E+00
     -3.971  0.6737E+00  0.2066E+00
     -3.917  0.1894E+00  0.2168E+00
     -3.863  0.1365E+01  0.2902E+00
     -3.809  0.7964E-02  0.2906E+00
     -3.756  0.6429E+00  0.3252E+00
     -3.702  0.1212E+01  0.3904E+00
     -3.648  0.5636E+01  0.6933E+00
     -3.594  0.1111E+02  0.1290E+01
     -3.541  0.1451E+02  0.2070E+01
     -3.487  0.1714E+02  0.2991E+01
     -3.433  0.2096E+02  0.4118E+01
     -3.379  0.2889E+02  0.5671E+01
     -3.325  0.2103E+02  0.6802E+01
     -3.272  0.2483E+02  0.8136E+01
     -3.218  0.1542E+02  0.8965E+01
     -3.164  0.1799E+02  0.9932E+01
     -3.110  0.1300E+02  0.1063E+02
     -3.057  0.2060E+02  0.1174E+02
     -3.003  0.1840E+02  0.1273E+02
     -2.949  0.2634E+02  0.1414E+02
     -2.895  0.1854E+02  0.1514E+02
     -2.842  0.1740E+02  0.1608E+02
     -2.788  0.2175E+02  0.1724E+02
     -2.734  0.2634E+02  0.1866E+02
     -2.680  0.3505E+02  0.2054E+02
     -2.627  0.2338E+02  0.2180E+02
     -2.573  0.2436E+02  0.2311E+02
     -2.519  0.1247E+02  0.2378E+02
     -2.465  0.2448E+02  0.2510E+02
     -2.412  0.1995E+02  0.2617E+02
     -2.358  0.2501E+02  0.2751E+02
     -2.304  0.2356E+02  0.2878E+02
     -2.250  0.2693E+02  0.3023E+02
     -2.197  0.2432E+02  0.3154E+02
     -2.143  0.1844E+02  0.3253E+02
     -2.089  0.1975E+02  0.3359E+02
     -2.035  0.2036E+02  0.3468E+02
     -1.982  0.2033E+02  0.3578E+02
     -1.928  0.3247E+02  0.3752E+02
     -1.874  0.3268E+02  0.3928E+02
     -1.820  0.2004E+02  0.4036E+02
     -1.767  0.1073E+02  0.4093E+02
     -1.713  0.8370E+00  0.4098E+02
     -1.659  0.2599E+01  0.4112E+02
     -1.605  0.1710E+01  0.4121E+02
     -1.552  0.4043E+00  0.4123E+02
     -1.498  0.1132E+01  0.4129E+02
     -1.444  0.5305E+00  0.4132E+02
     -1.390  0.8991E-06  0.4132E+02
     -1.337  0.7268E+00  0.4136E+02
     -1.283  0.1555E+01  0.4144E+02
     -1.229  0.1168E+01  0.4151E+02
     -1.175  0.1213E+01  0.4157E+02
     -1.122  0.1713E+01  0.4166E+02
     -1.068  0.7898E+00  0.4171E+02
     -1.014  0.8875E+00  0.4175E+02
     -0.960  0.3282E-03  0.4175E+02
     -0.907  0.5164E+00  0.4178E+02
     -0.853  0.1028E+01  0.4184E+02
     -0.799  0.1797E+01  0.4193E+02
     -0.745  0.1461E+01  0.4201E+02
     -0.691  0.6234E+00  0.4205E+02
     -0.638  0.1518E+01  0.4213E+02
     -0.584  0.5466E+00  0.4216E+02
     -0.530  0.5386E+00  0.4219E+02
     -0.476  0.1146E+01  0.4225E+02
     -0.423  0.1225E+01  0.4231E+02
     -0.369  0.3225E+00  0.4233E+02
     -0.315  0.1587E+01  0.4242E+02
     -0.261  0.6602E+00  0.4245E+02
     -0.208  0.1368E+01  0.4252E+02
     -0.154  0.1091E+00  0.4253E+02
     -0.100  0.2110E+01  0.4264E+02
     -0.046  0.2766E+01  0.4279E+02
      0.007  0.1839E+00  0.4280E+02
      0.061  0.9559E+00  0.4285E+02
      0.115  0.1111E+01  0.4291E+02
      0.169  0.6764E+00  0.4295E+02
      0.222  0.1743E-01  0.4295E+02
      0.276  0.5119E+00  0.4298E+02
      0.330  0.2000E+01  0.4309E+02
      0.384  0.1569E+01  0.4317E+02
      0.437  0.5982E+00  0.4320E+02
      0.491  0.2032E+01  0.4331E+02
      0.545  0.1423E+01  0.4339E+02
      0.599  0.5094E+00  0.4342E+02
      0.652  0.1050E+01  0.4347E+02
      0.706  0.1161E+01  0.4353E+02
      0.760  0.7694E+00  0.4358E+02
      0.814  0.2303E+01  0.4370E+02
      0.867  0.1956E+01  0.4380E+02
      0.921  0.8992E-01  0.4381E+02
      0.975  0.1463E+01  0.4389E+02
      1.029  0.8729E-03  0.4389E+02
      1.082  0.8642E+00  0.4393E+02
      1.136  0.2217E+01  0.4405E+02
      1.190  0.6089E+00  0.4409E+02
      1.244  0.2957E+01  0.4425E+02
      1.297  0.1147E+01  0.4431E+02
      1.351  0.9902E+00  0.4436E+02
      1.405  0.5935E-01  0.4436E+02
      1.459  0.2731E+01  0.4451E+02
      1.512  0.1531E+01  0.4459E+02
      1.566  0.3685E+00  0.4461E+02
      1.620  0.7114E+00  0.4465E+02
      1.674  0.2047E+01  0.4476E+02
      1.727  0.2068E+01  0.4487E+02
      1.781  0.1176E+01  0.4493E+02
      1.835  0.5731E+00  0.4497E+02
      1.889  0.2278E+01  0.4509E+02
      1.943  0.1249E+01  0.4516E+02
      1.996  0.1656E+01  0.4524E+02
      2.050  0.5460E-01  0.4525E+02
      2.104  0.2028E+01  0.4536E+02
      2.158  0.6828E+00  0.4539E+02
      2.211  0.1928E+01  0.4550E+02
      2.265  0.2564E+01  0.4563E+02
      2.319  0.1053E+01  0.4569E+02
      2.373  0.1126E-01  0.4569E+02
      2.426  0.9821E+00  0.4574E+02
      2.480  0.1385E+01  0.4582E+02
      2.534  0.3359E+00  0.4584E+02
      2.588  0.1081E+01  0.4590E+02
      2.641  0.7630E+00  0.4594E+02
      2.695  0.2260E+01  0.4606E+02
      2.749  0.1067E+01  0.4611E+02
      2.803  0.2921E+01  0.4627E+02
      2.856  0.1282E+01  0.4634E+02
      2.910  0.1537E+01  0.4642E+02
      2.964  0.1038E+01  0.4648E+02
      3.018  0.8555E-01  0.4648E+02
      3.071  0.1207E+01  0.4655E+02
      3.125  0.1190E+01  0.4661E+02
      3.179  0.7527E+00  0.4665E+02
      3.233  0.1350E+01  0.4673E+02
      3.286  0.3587E+01  0.4692E+02
      3.340  0.3789E+00  0.4694E+02
      3.394  0.7661E+00  0.4698E+02
      3.448  0.1542E+01  0.4706E+02
      3.501  0.2607E+01  0.4720E+02
      3.555  0.2826E+01  0.4735E+02
      3.609  0.1363E+01  0.4743E+02
      3.663  0.7385E+00  0.4747E+02
      3.716  0.1802E+01  0.4756E+02
      3.770  0.1215E+01  0.4763E+02
      3.824  0.1894E+01  0.4773E+02
      3.878  0.2485E+01  0.4787E+02
      3.931  0.1683E+01  0.4796E+02
      3.985  0.8347E+00  0.4800E+02
      4.039  0.1233E+01  0.4807E+02
      4.093  0.2093E+01  0.4818E+02
      4.146  0.9951E+00  0.4823E+02
      4.200  0.1056E+01  0.4829E+02
      4.254  0.1313E+01  0.4836E+02
      4.308  0.1776E+01  0.4846E+02
      4.361  0.1926E+01  0.4856E+02
      4.415  0.1991E+01  0.4867E+02
      4.469  0.2026E+01  0.4878E+02
      4.523  0.2172E+01  0.4889E+02
      4.577  0.9291E+00  0.4894E+02
      4.630  0.2555E+00  0.4896E+02
      4.684  0.2527E+00  0.4897E+02
      4.738  0.1315E+01  0.4904E+02
      4.792  0.2745E+01  0.4919E+02
      4.845  0.2167E+01  0.4930E+02
      4.899  0.1443E+01  0.4938E+02
      4.953  0.1901E+01  0.4948E+02
      5.007  0.1756E+00  0.4949E+02
      5.060  0.1286E+01  0.4956E+02
      5.114  0.1168E+01  0.4963E+02
      5.168  0.9687E+00  0.4968E+02
      5.222  0.2407E+01  0.4981E+02
      5.275  0.3750E+00  0.4983E+02
      5.329  0.2086E+01  0.4994E+02
      5.383  0.2048E+01  0.5005E+02
      5.437  0.1115E+01  0.5011E+02
      5.490  0.9396E+00  0.5016E+02
      5.544  0.3926E+01  0.5037E+02
      5.598  0.1568E+01  0.5045E+02
      5.652  0.8979E+00  0.5050E+02
      5.705  0.2867E+01  0.5066E+02
      5.759  0.7644E+00  0.5070E+02
      5.813  0.1281E+00  0.5071E+02
      5.867  0.2963E+01  0.5086E+02
      5.920  0.1808E+01  0.5096E+02
      5.974  0.2986E+01  0.5112E+02
      6.028  0.1169E+00  0.5113E+02
      6.082  0.1033E+01  0.5118E+02
      6.135  0.4376E-01  0.5119E+02
      6.189  0.2556E+01  0.5132E+02
      6.243  0.2931E+01  0.5148E+02
      6.297  0.1863E+01  0.5158E+02
      6.350  0.3840E+01  0.5179E+02
      6.404  0.1450E+01  0.5187E+02
      6.458  0.3173E+00  0.5188E+02
      6.512  0.3921E+01  0.5209E+02
      6.565  0.8829E+00  0.5214E+02
      6.619  0.1947E+01  0.5225E+02
      6.673  0.1725E+01  0.5234E+02
      6.727  0.2237E+01  0.5246E+02
      6.780  0.1598E+01  0.5254E+02
      6.834  0.4769E+00  0.5257E+02
      6.888  0.9524E+00  0.5262E+02
      6.942  0.7672E+00  0.5266E+02
      6.995  0.1130E+01  0.5272E+02
      7.049  0.2527E+01  0.5286E+02
      7.103  0.2529E+01  0.5300E+02
      7.157  0.1816E+01  0.5309E+02
      7.211  0.4907E+01  0.5336E+02
      7.264  0.4303E+00  0.5338E+02
      7.318  0.1604E+01  0.5347E+02
      7.372  0.1288E+01  0.5354E+02
      7.426  0.3780E+01  0.5374E+02
      7.479  0.3379E+01  0.5392E+02
      7.533  0.2088E+01  0.5403E+02
      7.587  0.1086E+01  0.5409E+02
      7.641  0.1957E+01  0.5420E+02
      7.694  0.1502E+01  0.5428E+02
      7.748  0.2058E+01  0.5439E+02
      7.802  0.2391E+01  0.5452E+02
      7.856  0.1179E+01  0.5458E+02
      7.909  0.5728E+00  0.5461E+02
      7.963  0.1014E+01  0.5466E+02
      8.017  0.1243E+01  0.5473E+02
      8.071  0.8432E+00  0.5478E+02
      8.124  0.1101E+01  0.5484E+02
      8.178  0.2350E+01  0.5496E+02
      8.232  0.4362E+01  0.5520E+02
      8.286  0.1243E+01  0.5526E+02
      8.339  0.4590E+00  0.5529E+02
      8.393  0.2341E+01  0.5541E+02
      8.447  0.7201E+00  0.5545E+02
      8.501  0.1117E+01  0.5551E+02
      8.554  0.1840E+01  0.5561E+02
      8.608  0.1427E+00  0.5562E+02
      8.662  0.8966E+00  0.5567E+02
      8.716  0.2542E+01  0.5580E+02
      8.769  0.1789E+00  0.5581E+02
      8.823  0.0000E+00  0.5581E+02
      8.877  0.2880E-03  0.5581E+02
      8.931  0.7904E+00  0.5586E+02
      8.984  0.4778E+00  0.5588E+02
      9.038  0.6296E+00  0.5592E+02
      9.092  0.9301E+00  0.5597E+02
      9.146  0.1548E-01  0.5597E+02
      9.199  0.2736E+00  0.5598E+02
      9.253  0.2632E-01  0.5598E+02
      9.307  0.0000E+00  0.5598E+02
      9.361  0.0000E+00  0.5598E+02
      9.414  0.0000E+00  0.5598E+02
      9.468  0.0000E+00  0.5598E+02
      9.522  0.0000E+00  0.5598E+02
      9.576  0.0000E+00  0.5598E+02
      9.629  0.0000E+00  0.5598E+02
      9.683  0.0000E+00  0.5598E+02
      9.737  0.0000E+00  0.5598E+02
      9.791  0.2450E-06  0.5598E+02
      9.845  0.2839E+00  0.5600E+02
      9.898  0.1755E-01  0.5600E+02
      9.952  0.0000E+00  0.5600E+02
     10.006  0.0000E+00  0.5600E+02
     10.060  0.6139E-04  0.5600E+02
     10.113  0.2147E-01  0.5600E+02
     10.167  0.0000E+00  0.5600E+02
     10.221  0.0000E+00  0.5600E+02
     10.275  0.0000E+00  0.5600E+02
     10.328  0.0000E+00  0.5600E+02
     10.382  0.0000E+00  0.5600E+02
     10.436  0.0000E+00  0.5600E+02
     10.490  0.0000E+00  0.5600E+02
     10.543  0.0000E+00  0.5600E+02
     10.597  0.0000E+00  0.5600E+02
     10.651  0.0000E+00  0.5600E+02
     10.705  0.0000E+00  0.5600E+02
     10.758  0.0000E+00  0.5600E+02
     10.812  0.0000E+00  0.5600E+02
