    4    4    1    1
  0.2401086E+02  0.4579547E-09  0.4579547E-09  0.4579547E-09  0.5000000E-15
  1.000000000000000E-004
  CAR 
 unknown system                          
   44   84   28
 
  0.0000000E+00  0.0000000E+00  0.0000000E+00  0.5787037E-03
   1       -4.5814
   2       -3.7181
   3       -3.7181
   4       -3.7181
   5       -3.6789
   6       -3.6789
   7       -3.6789
   8       -2.8718
   9       -2.8718
  10       -2.8718
  11       -2.3177
  12       -2.3177
  13       -1.9053
  14       -1.9053
  15       -1.9053
  16       -1.7732
  17       -1.7732
  18       -1.7732
  19       -1.7732
  20       -1.7732
  21       -1.7732
  22        2.9109
  23        2.9109
  24        2.9109
  25        5.5118
  26        5.5118
  27        5.5118
  28       10.0791
 
  0.8333333E-01  0.0000000E+00  0.0000000E+00  0.3472222E-02
   1       -4.5258
   2       -3.7001
   3       -3.6952
   4       -3.6952
   5       -3.6660
   6       -3.6584
   7       -3.6584
   8       -2.8865
   9       -2.8567
  10       -2.8567
  11       -2.3321
  12       -2.3109
  13       -1.9242
  14       -1.9242
  15       -1.9125
  16       -1.8324
  17       -1.8324
  18       -1.7969
  19       -1.7969
  20       -1.7732
  21       -1.7732
  22        2.3822
  23        3.0212
  24        3.0212
  25        5.5279
  26        5.5279
  27        6.1384
  28        9.8234
 
  0.1666667E+00  0.0000000E+00  0.0000000E+00  0.3472222E-02
   1       -4.3617
   2       -3.6480
   3       -3.6299
   4       -3.6299
   5       -3.6280
   6       -3.5971
   7       -3.5971
   8       -2.9293
   9       -2.8120
  10       -2.8120
  11       -2.3717
  12       -2.2909
  13       -1.9932
  14       -1.9932
  15       -1.9790
  16       -1.9790
  17       -1.9338
  18       -1.8649
  19       -1.8649
  20       -1.7731
  21       -1.7731
  22        1.4057
  23        3.3351
  24        3.3351
  25        5.5763
  26        5.5763
  27        7.4087
  28        9.1936
 
  0.2500000E+00  0.0000000E+00  0.0000000E+00  0.3472222E-02
   1       -4.0998
   2       -3.5682
   3       -3.5671
   4       -3.5316
   5       -3.5316
   6       -3.4954
   7       -3.4954
   8       -2.9969
   9       -2.7390
  10       -2.7390
  11       -2.4230
  12       -2.2590
  13       -2.2187
  14       -2.2187
  15       -2.0628
  16       -2.0628
  17       -1.9691
  18       -1.9691
  19       -1.9674
  20       -1.7730
  21       -1.7730
  22        0.4041
  23        3.8138
  24        3.8138
  25        5.6557
  26        5.6557
  27        8.3983
  28        8.3983
 
  0.3333333E+00  0.0000000E+00  0.0000000E+00  0.3472222E-02
   1       -3.7724
   2       -3.4868
   3       -3.4723
   4       -3.4190
   5       -3.4190
   6       -3.3546
   7       -3.3546
   8       -3.0838
   9       -2.6405
  10       -2.6405
  11       -2.4722
  12       -2.4722
  13       -2.4495
  14       -2.2171
  15       -2.1613
  16       -2.1613
  17       -2.0985
  18       -2.0985
  19       -2.0109
  20       -1.7729
  21       -1.7729
  22       -0.5230
  23        4.4177
  24        4.4177
  25        5.7585
  26        5.7585
  27        7.5499
  28        7.5499
 
  0.4166667E+00  0.0000000E+00  0.0000000E+00  0.3472222E-02
   1       -3.4740
   2       -3.3920
   3       -3.3831
   4       -3.3225
   5       -3.3225
   6       -3.1834
   7       -3.1767
   8       -3.1767
   9       -2.7269
  10       -2.7269
  11       -2.5205
  12       -2.5205
  13       -2.3507
  14       -2.2474
  15       -2.2474
  16       -2.2408
  17       -2.2408
  18       -2.1680
  19       -2.0613
  20       -1.7728
  21       -1.7728
  22       -1.3333
  23        5.1156
  24        5.1156
  25        5.8590
  26        5.8590
  27        6.7020
  28        6.7020
 
  0.5000000E+00  0.0000000E+00  0.0000000E+00  0.1736111E-02
   1       -3.3505
   2       -3.3505
   3       -3.2886
   4       -3.2886
   5       -3.2828
   6       -3.2828
   7       -2.9653
   8       -2.9653
   9       -2.9653
  10       -2.9653
  11       -2.3847
  12       -2.3847
  13       -2.3847
  14       -2.3847
  15       -2.2834
  16       -2.2834
  17       -2.1149
  18       -2.1149
  19       -1.9745
  20       -1.9745
  21       -1.7728
  22       -1.7728
  23        5.8836
  24        5.8836
  25        5.8836
  26        5.8836
  27        5.9046
  28        5.9046
 
  0.8333333E-01  0.8333333E-01  0.0000000E+00  0.6944444E-02
   1       -4.4710
   2       -3.6807
   3       -3.6771
   4       -3.6771
   5       -3.6458
   6       -3.6458
   7       -3.6305
   8       -2.8909
   9       -2.8516
  10       -2.8424
  11       -2.3358
  12       -2.3136
  13       -1.9424
  14       -1.9397
  15       -1.9397
  16       -1.8721
  17       -1.8477
  18       -1.8477
  19       -1.7970
  20       -1.7970
  21       -1.7901
  22        2.4827
  23        2.4827
  24        3.1292
  25        5.5431
  26        6.1626
  27        6.1626
  28        9.0806
 
  0.1666667E+00  0.8333333E-01  0.0000000E+00  0.1388889E-01
   1       -4.3093
   2       -3.6318
   3       -3.6247
   4       -3.6114
   5       -3.6086
   6       -3.5853
   7       -3.5553
   8       -2.9278
   9       -2.8117
  10       -2.8004
  11       -2.3698
  12       -2.2946
  13       -2.0531
  14       -2.0185
  15       -1.9953
  16       -1.9908
  17       -1.9487
  18       -1.8857
  19       -1.8652
  20       -1.7983
  21       -1.7971
  22        1.5011
  23        2.7654
  24        3.4372
  25        5.5871
  26        6.2345
  27        7.4317
  28        8.2482
 
  0.2500000E+00  0.8333333E-01  0.0000000E+00  0.1388889E-01
   1       -4.0522
   2       -3.5490
   3       -3.5472
   4       -3.5441
   5       -3.5127
   6       -3.4851
   7       -3.4443
   8       -2.9926
   9       -2.7398
  10       -2.7351
  11       -2.4143
  12       -2.2629
  13       -2.2584
  14       -2.2349
  15       -2.0816
  16       -2.0763
  17       -2.0454
  18       -1.9697
  19       -1.9338
  20       -1.7997
  21       -1.7974
  22        0.5009
  23        3.1882
  24        3.9088
  25        5.6482
  26        6.3483
  27        7.4478
  28        8.4738
 
  0.3333333E+00  0.8333333E-01  0.0000000E+00  0.1388889E-01
   1       -3.7321
   2       -3.4705
   3       -3.4470
   4       -3.4352
   5       -3.3994
   6       -3.3463
   7       -3.3087
   8       -3.0770
   9       -2.6656
  10       -2.6416
  11       -2.5063
  12       -2.4811
  13       -2.4140
  14       -2.2087
  15       -2.2038
  16       -2.1714
  17       -2.1491
  18       -2.0993
  19       -1.9880
  20       -1.7998
  21       -1.7978
  22       -0.4205
  23        3.7072
  24        4.5062
  25        5.6671
  26        6.4778
  27        6.7785
  28        7.6248
 
  0.4166667E+00  0.8333333E-01  0.0000000E+00  0.1388889E-01
   1       -3.4410
   2       -3.3778
   3       -3.3556
   4       -3.3234
   5       -3.3033
   6       -3.1741
   7       -3.1712
   8       -3.1541
   9       -2.7485
  10       -2.7298
  11       -2.6057
  12       -2.5217
  13       -2.3454
  14       -2.2725
  15       -2.2535
  16       -2.2419
  17       -2.2410
  18       -2.1376
  19       -2.0484
  20       -1.7993
  21       -1.7982
  22       -1.2197
  23        4.2860
  24        5.1986
  25        5.4260
  26        6.4602
  27        6.5471
  28        6.7782
 
  0.5000000E+00  0.8333333E-01  0.0000000E+00  0.6944444E-02
   1       -3.3204
   2       -3.3204
   3       -3.2768
   4       -3.2768
   5       -3.2686
   6       -3.2686
   7       -2.9688
   8       -2.9688
   9       -2.9635
  10       -2.9635
  11       -2.4923
  12       -2.4923
  13       -2.3859
  14       -2.3859
  15       -2.2838
  16       -2.2838
  17       -2.1178
  18       -2.1178
  19       -1.8408
  20       -1.8408
  21       -1.7988
  22       -1.7988
  23        4.8876
  24        4.8876
  25        5.9625
  26        5.9625
  27        6.4928
  28        6.4928
 
  0.1666667E+00  0.1666667E+00  0.0000000E+00  0.6944444E-02
   1       -4.1557
   2       -3.6044
   3       -3.5579
   4       -3.5579
   5       -3.5505
   6       -3.5505
   7       -3.4663
   8       -2.9408
   9       -2.7926
  10       -2.7668
  11       -2.3836
  12       -2.2817
  13       -2.1467
  14       -2.1467
  15       -2.1157
  16       -2.0427
  17       -1.9418
  18       -1.9418
  19       -1.8659
  20       -1.8659
  21       -1.8399
  22        1.7671
  23        1.7671
  24        3.7303
  25        5.6058
  26        7.3257
  27        7.4897
  28        7.4897
 
  0.2500000E+00  0.1666667E+00  0.0000000E+00  0.1388889E-01
   1       -3.9140
   2       -3.5393
   3       -3.4949
   4       -3.4752
   5       -3.4574
   6       -3.4545
   7       -3.3483
   8       -2.9879
   9       -2.7336
  10       -2.7199
  11       -2.4142
  12       -2.3595
  13       -2.2922
  14       -2.2628
  15       -2.2292
  16       -2.1160
  17       -2.0272
  18       -1.9713
  19       -1.9621
  20       -1.8672
  21       -1.8618
  22        0.7666
  23        2.1619
  24        4.1838
  25        5.5397
  26        6.5981
  27        7.5293
  28        8.6963
 
  0.3333333E+00  0.1666667E+00  0.0000000E+00  0.1388889E-01
   1       -3.6185
   2       -3.4404
   3       -3.4218
   4       -3.3742
   5       -3.3423
   6       -3.3220
   7       -3.2165
   8       -3.0607
   9       -2.6962
  10       -2.6408
  11       -2.5888
  12       -2.5112
  13       -2.3952
  14       -2.3937
  15       -2.2021
  16       -2.1353
  17       -2.1314
  18       -2.1016
  19       -2.0064
  20       -1.8697
  21       -1.8687
  22       -0.1481
  23        2.6488
  24        4.7638
  25        5.1255
  26        6.3515
  27        7.4153
  28        7.8455
 
  0.4166667E+00  0.1666667E+00  0.0000000E+00  0.1388889E-01
   1       -3.3506
   2       -3.3358
   3       -3.3216
   4       -3.2768
   5       -3.2475
   6       -3.1553
   7       -3.1483
   8       -3.0913
   9       -2.8029
  10       -2.7402
  11       -2.7070
  12       -2.5354
  13       -2.5232
  14       -2.2805
  15       -2.2736
  16       -2.2445
  17       -2.2317
  18       -2.0722
  19       -1.9498
  20       -1.8718
  21       -1.8703
  22       -0.9375
  23        3.2049
  24        4.4755
  25        5.4415
  26        6.4830
  27        7.0022
  28        7.1066
 
  0.5000000E+00  0.1666667E+00  0.0000000E+00  0.6944444E-02
   1       -3.2424
   2       -3.2424
   3       -3.2353
   4       -3.2353
   5       -3.2321
   6       -3.2321
   7       -2.9707
   8       -2.9707
   9       -2.9589
  10       -2.9589
  11       -2.6594
  12       -2.6594
  13       -2.3884
  14       -2.3884
  15       -2.2895
  16       -2.2895
  17       -2.1607
  18       -2.1607
  19       -1.8716
  20       -1.8716
  21       -1.5571
  22       -1.5571
  23        3.8181
  24        3.8181
  25        6.1942
  26        6.1942
  27        6.7610
  28        6.7610
 
  0.2500000E+00  0.2500000E+00  0.0000000E+00  0.6944444E-02
   1       -3.7026
   2       -3.4957
   3       -3.4058
   4       -3.4058
   5       -3.3712
   6       -3.3712
   7       -3.2283
   8       -3.0023
   9       -2.6994
  10       -2.6940
  11       -2.4778
  12       -2.4778
  13       -2.4444
  14       -2.4064
  15       -2.1784
  16       -2.1328
  17       -2.0338
  18       -2.0338
  19       -1.9736
  20       -1.9736
  21       -1.9205
  22        1.1549
  23        1.1549
  24        4.6141
  25        5.0207
  26        6.2960
  27        8.5501
  28        8.5501
 
  0.3333333E+00  0.2500000E+00  0.0000000E+00  0.1388889E-01
   1       -3.4553
   2       -3.4174
   3       -3.3422
   4       -3.2835
   5       -3.2641
   6       -3.2522
   7       -3.1014
   8       -3.0464
   9       -2.6955
  10       -2.6921
  11       -2.6256
  12       -2.6049
  13       -2.5722
  14       -2.4410
  15       -2.2526
  16       -2.1328
  17       -2.1046
  18       -2.0707
  19       -1.9761
  20       -1.9584
  21       -1.9555
  22        0.2389
  23        1.6327
  24        4.2529
  25        5.1711
  26        6.3982
  27        8.0180
  28        8.2007
 
  0.4166667E+00  0.2500000E+00  0.0000000E+00  0.1388889E-01
   1       -3.3093
   2       -3.2681
   3       -3.2325
   4       -3.1616
   5       -3.1567
   6       -3.1313
   7       -3.1123
   8       -2.9977
   9       -2.8687
  10       -2.7630
  11       -2.7586
  12       -2.7275
  13       -2.5183
  14       -2.3515
  15       -2.3115
  16       -2.2470
  17       -2.2375
  18       -2.1385
  19       -1.9778
  20       -1.9715
  21       -1.6654
  22       -0.5556
  23        2.1844
  24        3.4978
  25        5.8287
  26        6.6546
  27        7.3624
  28        7.4805
 
  0.5000000E+00  0.2500000E+00  0.0000000E+00  0.6944444E-02
   1       -3.1927
   2       -3.1927
   3       -3.1892
   4       -3.1892
   5       -3.1139
   6       -3.1139
   7       -2.9546
   8       -2.9546
   9       -2.9461
  10       -2.9461
  11       -2.8001
  12       -2.8001
  13       -2.3887
  14       -2.3887
  15       -2.3105
  16       -2.3105
  17       -2.2356
  18       -2.2356
  19       -1.9772
  20       -1.9772
  21       -1.1998
  22       -1.1998
  23        2.8060
  24        2.8060
  25        6.5653
  26        6.5653
  27        7.0189
  28        7.0189
 
  0.3333333E+00  0.3333333E+00  0.0000000E+00  0.6944444E-02
   1       -3.3642
   2       -3.2834
   3       -3.2343
   4       -3.2343
   5       -3.1368
   6       -3.1368
   7       -3.0498
   8       -2.9802
   9       -2.7998
  10       -2.7998
  11       -2.6735
  12       -2.6722
  13       -2.5795
  14       -2.4965
  15       -2.3165
  16       -2.1656
  17       -2.1656
  18       -2.1067
  19       -2.1067
  20       -2.0280
  21       -1.6879
  22        0.7106
  23        0.7106
  24        3.3857
  25        5.7040
  26        6.6079
  27        8.5076
  28        8.5076
 
  0.4166667E+00  0.3333333E+00  0.0000000E+00  0.1388889E-01
   1       -3.2802
   2       -3.1790
   3       -3.1394
   4       -3.1029
   5       -3.0776
   6       -3.0659
   7       -3.0126
   8       -2.9170
   9       -2.8980
  10       -2.8864
  11       -2.8061
  12       -2.7313
  13       -2.4955
  14       -2.4474
  15       -2.3683
  16       -2.2723
  17       -2.2460
  18       -2.2338
  19       -2.1054
  20       -2.0737
  21       -1.3006
  22       -0.0963
  23        1.2581
  24        2.5923
  25        6.3398
  26        6.9258
  27        7.8426
  28        7.8758
 
  0.5000000E+00  0.3333333E+00  0.0000000E+00  0.6944444E-02
   1       -3.1684
   2       -3.1684
   3       -3.1240
   4       -3.1240
   5       -3.0273
   6       -3.0273
   7       -2.9558
   8       -2.9558
   9       -2.8743
  10       -2.8743
  11       -2.8515
  12       -2.8515
  13       -2.3802
  14       -2.3802
  15       -2.3564
  16       -2.3564
  17       -2.3346
  18       -2.3346
  19       -2.0966
  20       -2.0966
  21       -0.7710
  22       -0.7710
  23        1.8837
  24        1.8837
  25        7.0584
  26        7.0584
  27        7.3477
  28        7.3477
 
  0.4166667E+00  0.4166667E+00  0.0000000E+00  0.6944444E-02
   1       -3.2285
   2       -3.0951
   3       -3.0758
   4       -3.0758
   5       -3.0573
   6       -3.0397
   7       -3.0397
   8       -2.8758
   9       -2.8684
  10       -2.8684
  11       -2.7857
  12       -2.6701
  13       -2.5195
  14       -2.4420
  15       -2.4291
  16       -2.3426
  17       -2.3426
  18       -2.2361
  19       -2.2361
  20       -2.1563
  21       -0.8372
  22        0.4408
  23        0.4408
  24        1.7795
  25        6.9547
  26        7.2951
  27        8.3482
  28        8.3510
 
  0.5000000E+00  0.4166667E+00  0.0000000E+00  0.6944444E-02
   1       -3.1493
   2       -3.1493
   3       -3.0672
   4       -3.0672
   5       -3.0578
   6       -3.0578
   7       -2.9698
   8       -2.9698
   9       -2.7693
  10       -2.7693
  11       -2.7492
  12       -2.7492
  13       -2.4435
  14       -2.4435
  15       -2.4300
  16       -2.4300
  17       -2.3532
  18       -2.3532
  19       -2.2092
  20       -2.2092
  21       -0.2587
  22       -0.2587
  23        1.0635
  24        1.0635
  25        7.6553
  26        7.6553
  27        7.7677
  28        7.7677
 
  0.5000000E+00  0.5000000E+00  0.0000000E+00  0.1736111E-02
   1       -3.1178
   2       -3.1178
   3       -3.1178
   4       -3.1178
   5       -3.0036
   6       -3.0036
   7       -3.0036
   8       -3.0036
   9       -2.6859
  10       -2.6859
  11       -2.6859
  12       -2.6859
  13       -2.4988
  14       -2.4988
  15       -2.4988
  16       -2.4988
  17       -2.2975
  18       -2.2975
  19       -2.2975
  20       -2.2975
  21        0.3500
  22        0.3500
  23        0.3500
  24        0.3500
  25        8.2878
  26        8.2878
  27        8.2878
  28        8.2878
 
  0.8333333E-01  0.8333333E-01  0.8333333E-01  0.4629630E-02
   1       -4.4171
   2       -3.6640
   3       -3.6640
   4       -3.6640
   5       -3.6167
   6       -3.6167
   7       -3.6167
   8       -2.8923
   9       -2.8389
  10       -2.8389
  11       -2.3272
  12       -2.3272
  13       -1.9590
  14       -1.9590
  15       -1.9590
  16       -1.8970
  17       -1.8970
  18       -1.8970
  19       -1.8029
  20       -1.8029
  21       -1.8029
  22        2.5805
  23        2.5805
  24        2.5805
  25        6.1847
  26        6.1847
  27        6.1847
  28        9.1624
 
  0.1666667E+00  0.8333333E-01  0.8333333E-01  0.1388889E-01
   1       -4.2586
   2       -3.6174
   3       -3.6167
   4       -3.6167
   5       -3.5743
   6       -3.5405
   7       -3.5405
   8       -2.9223
   9       -2.8025
  10       -2.8010
  11       -2.3633
  12       -2.3019
  13       -2.0661
  14       -2.0661
  15       -2.0088
  16       -1.9884
  17       -1.9884
  18       -1.9690
  19       -1.8377
  20       -1.8103
  21       -1.8103
  22        1.5933
  23        2.8566
  24        2.8566
  25        6.2455
  26        6.2455
  27        7.4454
  28        8.3394
 
  0.2500000E+00  0.8333333E-01  0.8333333E-01  0.1388889E-01
   1       -4.0078
   2       -3.5507
   3       -3.5331
   4       -3.5331
   5       -3.5017
   6       -3.4298
   7       -3.4298
   8       -2.9823
   9       -2.7391
  10       -2.7358
  11       -2.4011
  12       -2.2746
  13       -2.2746
  14       -2.2617
  15       -2.0901
  16       -2.0803
  17       -2.0703
  18       -2.0703
  19       -1.8877
  20       -1.8154
  21       -1.8154
  22        0.5929
  23        3.2715
  24        3.2715
  25        6.3067
  26        6.3067
  27        7.5876
  28        7.5876
 
  0.3333333E+00  0.8333333E-01  0.8333333E-01  0.1388889E-01
   1       -3.6990
   2       -3.4722
   3       -3.4208
   4       -3.4208
   5       -3.4054
   6       -3.2969
   7       -3.2969
   8       -3.0610
   9       -2.6770
  10       -2.6553
  11       -2.5119
  12       -2.5119
  13       -2.3729
  14       -2.2210
  15       -2.2091
  16       -2.1958
  17       -2.1660
  18       -2.1660
  19       -1.9472
  20       -1.8183
  21       -1.8183
  22       -0.3266
  23        3.7832
  24        3.7832
  25        6.1702
  26        6.1702
  27        7.1436
  28        7.1436
 
  0.4166667E+00  0.8333333E-01  0.8333333E-01  0.1388889E-01
   1       -3.4250
   2       -3.3887
   3       -3.3066
   4       -3.3066
   5       -3.3052
   6       -3.1507
   7       -3.1507
   8       -3.1479
   9       -2.7458
  10       -2.7458
  11       -2.6408
  12       -2.5530
  13       -2.3799
  14       -2.3151
  15       -2.2520
  16       -2.2520
  17       -2.1739
  18       -2.1475
  19       -2.0127
  20       -1.8197
  21       -1.8197
  22       -1.1245
  23        4.3537
  24        4.3537
  25        5.6592
  26        5.6592
  27        7.1702
  28        7.1702
 
  0.5000000E+00  0.8333333E-01  0.8333333E-01  0.6944444E-02
   1       -3.3315
   2       -3.3315
   3       -3.2543
   4       -3.2543
   5       -3.2257
   6       -3.2257
   7       -3.0161
   8       -3.0161
   9       -2.9169
  10       -2.9169
  11       -2.5380
  12       -2.5380
  13       -2.4372
  14       -2.4372
  15       -2.2886
  16       -2.2886
  17       -2.0807
  18       -2.0807
  19       -1.8201
  20       -1.8201
  21       -1.7569
  22       -1.7569
  23        4.8258
  24        4.8258
  25        5.1771
  26        5.1771
  27        7.2653
  28        7.2653
 
  0.1666667E+00  0.1666667E+00  0.8333333E-01  0.1388889E-01
   1       -4.1106
   2       -3.5915
   3       -3.5748
   4       -3.5748
   5       -3.4954
   6       -3.4954
   7       -3.4506
   8       -2.9239
   9       -2.7881
  10       -2.7714
  11       -2.3684
  12       -2.2943
  13       -2.1549
  14       -2.1549
  15       -2.1406
  16       -2.0721
  17       -2.0221
  18       -2.0221
  19       -1.8404
  20       -1.8404
  21       -1.8355
  22        1.8517
  23        1.8517
  24        3.1161
  25        6.2355
  26        7.4443
  27        7.4443
  28        7.4768
 
  0.2500000E+00  0.1666667E+00  0.8333333E-01  0.2777778E-01
   1       -3.8810
   2       -3.5283
   3       -3.5147
   4       -3.4947
   5       -3.4190
   6       -3.3848
   7       -3.3331
   8       -2.9589
   9       -2.7378
  10       -2.7244
  11       -2.3906
  12       -2.3656
  13       -2.3194
  14       -2.2693
  15       -2.2414
  16       -2.1376
  17       -2.1031
  18       -2.0822
  19       -1.8820
  20       -1.8572
  21       -1.8556
  22        0.8480
  23        2.2384
  24        3.5107
  25        5.9521
  26        7.0208
  27        7.1926
  28        8.2098
 
  0.3333333E+00  0.1666667E+00  0.8333333E-01  0.2777778E-01
   1       -3.6094
   2       -3.4442
   3       -3.4309
   4       -3.3829
   5       -3.3178
   6       -3.2586
   7       -3.2052
   8       -3.0153
   9       -2.7013
  10       -2.6639
  11       -2.5872
  12       -2.5321
  13       -2.4023
  14       -2.3402
  15       -2.2154
  16       -2.2150
  17       -2.1674
  18       -2.1501
  19       -1.9362
  20       -1.8709
  21       -1.8683
  22       -0.0707
  23        2.7191
  24        4.0028
  25        5.2973
  26        6.5744
  27        7.0957
  28        8.2027
 
  0.4166667E+00  0.1666667E+00  0.8333333E-01  0.2777778E-01
   1       -3.3862
   2       -3.3724
   3       -3.3111
   4       -3.2604
   5       -3.2080
   6       -3.1409
   7       -3.0963
   8       -3.0699
   9       -2.7829
  10       -2.7387
  11       -2.7181
  12       -2.5716
  13       -2.5452
  14       -2.3399
  15       -2.2856
  16       -2.2562
  17       -2.1986
  18       -2.0046
  19       -1.9503
  20       -1.8775
  21       -1.8758
  22       -0.8695
  23        3.2719
  24        4.4595
  25        4.6941
  26        5.8826
  27        7.3894
  28        8.1376
 
  0.5000000E+00  0.1666667E+00  0.8333333E-01  0.1388889E-01
   1       -3.3246
   2       -3.3246
   3       -3.2178
   4       -3.2178
   5       -3.1193
   6       -3.1193
   7       -3.0598
   8       -3.0598
   9       -2.8684
  10       -2.8684
  11       -2.6721
  12       -2.6721
  13       -2.4619
  14       -2.4619
  15       -2.3065
  16       -2.3065
  17       -2.0880
  18       -2.0880
  19       -1.8788
  20       -1.8788
  21       -1.5134
  22       -1.5134
  23        3.8844
  24        3.8844
  25        5.2189
  26        5.2189
  27        7.7813
  28        7.7813
 
  0.2500000E+00  0.2500000E+00  0.8333333E-01  0.1388889E-01
   1       -3.6938
   2       -3.4880
   3       -3.4414
   4       -3.4414
   5       -3.3074
   6       -3.3074
   7       -3.2151
   8       -2.9463
   9       -2.7149
  10       -2.6958
  11       -2.4795
  12       -2.4795
  13       -2.4226
  14       -2.4120
  15       -2.2160
  16       -2.1479
  17       -2.1393
  18       -2.1393
  19       -1.9065
  20       -1.9065
  21       -1.9016
  22        1.2262
  23        1.2262
  24        3.8795
  25        5.1733
  26        7.0364
  27        7.7309
  28        7.7309
 
  0.3333333E+00  0.2500000E+00  0.8333333E-01  0.2777778E-01
   1       -3.4914
   2       -3.4132
   3       -3.3823
   4       -3.3355
   5       -3.2016
   6       -3.1876
   7       -3.0961
   8       -2.9568
   9       -2.6930
  10       -2.6805
  11       -2.6602
  12       -2.6021
  13       -2.5764
  14       -2.3839
  15       -2.2864
  16       -2.2376
  17       -2.2021
  18       -1.9719
  19       -1.9660
  20       -1.9361
  21       -1.9359
  22        0.3028
  23        1.6967
  24        4.2741
  25        4.4210
  26        6.9467
  27        7.2801
  28        8.2338
 
  0.4166667E+00  0.2500000E+00  0.8333333E-01  0.2777778E-01
   1       -3.3419
   2       -3.3270
   3       -3.3080
   4       -3.2057
   5       -3.1175
   6       -3.0811
   7       -3.0232
   8       -2.9638
   9       -2.8170
  10       -2.7605
  11       -2.7287
  12       -2.7205
  13       -2.5790
  14       -2.3559
  15       -2.3416
  16       -2.2831
  17       -2.2661
  18       -2.0423
  19       -1.9561
  20       -1.9553
  21       -1.6628
  22       -0.5043
  23        2.2446
  24        3.5617
  25        4.9132
  26        6.2085
  27        7.6526
  28        8.6915
 
  0.5000000E+00  0.2500000E+00  0.8333333E-01  0.1388889E-01
   1       -3.2971
   2       -3.2971
   3       -3.1880
   4       -3.1880
   5       -3.0724
   6       -3.0724
   7       -2.9800
   8       -2.9800
   9       -2.8159
  10       -2.8159
  11       -2.8004
  12       -2.8004
  13       -2.4745
  14       -2.4745
  15       -2.3446
  16       -2.3446
  17       -2.1419
  18       -2.1419
  19       -1.9621
  20       -1.9621
  21       -1.1698
  22       -1.1698
  23        2.8660
  24        2.8660
  25        5.5297
  26        5.5297
  27        8.1323
  28        8.1323
 
  0.3333333E+00  0.3333333E+00  0.8333333E-01  0.1388889E-01
   1       -3.3811
   2       -3.3662
   3       -3.2921
   4       -3.2921
   5       -3.0840
   6       -3.0840
   7       -2.9944
   8       -2.9228
   9       -2.7724
  10       -2.7724
  11       -2.6475
  12       -2.6445
  13       -2.6443
  14       -2.4183
  15       -2.3596
  16       -2.2782
  17       -2.2782
  18       -2.0118
  19       -2.0118
  20       -1.9964
  21       -1.6947
  22        0.7660
  23        0.7660
  24        3.4477
  25        4.8088
  26        7.4013
  27        7.4013
  28        7.5886
 
  0.4166667E+00  0.3333333E+00  0.8333333E-01  0.2777778E-01
   1       -3.3017
   2       -3.2909
   3       -3.2629
   4       -3.1890
   5       -3.0579
   6       -2.9618
   7       -2.9600
   8       -2.9149
   9       -2.8463
  10       -2.8200
  11       -2.7080
  12       -2.7014
  13       -2.5781
  14       -2.4122
  15       -2.3807
  16       -2.3418
  17       -2.3390
  18       -2.1012
  19       -2.0471
  20       -2.0393
  21       -1.2927
  22       -0.0530
  23        1.3097
  24        2.6470
  25        5.3434
  26        6.6410
  27        7.9483
  28        8.0085
 
  0.5000000E+00  0.3333333E+00  0.8333333E-01  0.1388889E-01
   1       -3.2621
   2       -3.2621
   3       -3.1961
   4       -3.1961
   5       -3.0346
   6       -3.0346
   7       -2.9017
   8       -2.9017
   9       -2.8182
  10       -2.8182
  11       -2.7518
  12       -2.7518
  13       -2.4869
  14       -2.4869
  15       -2.4055
  16       -2.4055
  17       -2.2124
  18       -2.2124
  19       -2.0570
  20       -2.0570
  21       -0.7442
  22       -0.7442
  23        1.9351
  24        1.9351
  25        5.9553
  26        5.9553
  27        8.5346
  28        8.5349
 
  0.4166667E+00  0.4166667E+00  0.8333333E-01  0.1388889E-01
   1       -3.2672
   2       -3.2564
   3       -3.2066
   4       -3.2066
   5       -2.9924
   6       -2.9924
   7       -2.9554
   8       -2.9238
   9       -2.7708
  10       -2.7708
  11       -2.6641
  12       -2.6025
  13       -2.5938
  14       -2.4780
  15       -2.4243
  16       -2.4243
  17       -2.3508
  18       -2.1490
  19       -2.1490
  20       -2.1117
  21       -0.8197
  22        0.4820
  23        0.4820
  24        1.8271
  25        5.8687
  26        7.1723
  27        7.1723
  28        8.4670
 
  0.5000000E+00  0.4166667E+00  0.8333333E-01  0.1388889E-01
   1       -3.2356
   2       -3.2356
   3       -3.2124
   4       -3.2124
   5       -2.9931
   6       -2.9931
   7       -2.9493
   8       -2.9493
   9       -2.6806
  10       -2.6806
  11       -2.6703
  12       -2.6703
  13       -2.5119
  14       -2.5119
  15       -2.4817
  16       -2.4817
  17       -2.2607
  18       -2.2607
  19       -2.1542
  20       -2.1542
  21       -0.2293
  22       -0.2293
  23        1.1065
  24        1.1065
  25        6.4792
  26        6.4792
  27        7.7957
  28        7.7957
 
  0.5000000E+00  0.5000000E+00  0.8333333E-01  0.3472222E-02
   1       -3.2229
   2       -3.2229
   3       -3.2229
   4       -3.2229
   5       -2.9702
   6       -2.9702
   7       -2.9702
   8       -2.9702
   9       -2.5912
  10       -2.5912
  11       -2.5912
  12       -2.5912
  13       -2.5577
  14       -2.5577
  15       -2.5577
  16       -2.5577
  17       -2.2362
  18       -2.2362
  19       -2.2362
  20       -2.2362
  21        0.3853
  22        0.3853
  23        0.3853
  24        0.3853
  25        7.0937
  26        7.0937
  27        7.0937
  28        7.0937
 
  0.1666667E+00  0.1666667E+00  0.1666667E+00  0.4629630E-02
   1       -3.9816
   2       -3.5559
   3       -3.5559
   4       -3.5559
   5       -3.4029
   6       -3.4029
   7       -3.4029
   8       -2.8849
   9       -2.7730
  10       -2.7730
  11       -2.3253
  12       -2.3253
  13       -2.2119
  14       -2.2119
  15       -2.2119
  16       -2.1454
  17       -2.1454
  18       -2.1454
  19       -1.8344
  20       -1.8344
  21       -1.8344
  22        2.0922
  23        2.0922
  24        2.0922
  25        7.0821
  26        7.0821
  27        7.0821
  28        8.1505
 
  0.2500000E+00  0.1666667E+00  0.1666667E+00  0.1388889E-01