   4   4   0   0
  0.1546680E+02  0.3955064E-09  0.3955064E-09  0.3955064E-09  0.5000000E-15
  1.000000000000000E-004
  CAR 
 unknown system                          
     17.49704592     -5.09217318  301      4.53001406      1.00000000
     -5.092  0.0000E+00  0.0000E+00
     -5.017  0.0000E+00  0.0000E+00
     -4.942  0.0000E+00  0.0000E+00
     -4.866  0.0000E+00  0.0000E+00
     -4.791  0.0000E+00  0.0000E+00
     -4.716  0.0000E+00  0.0000E+00
     -4.640  0.0000E+00  0.0000E+00
     -4.565  0.0000E+00  0.0000E+00
     -4.490  0.0000E+00  0.0000E+00
     -4.414  0.0000E+00  0.0000E+00
     -4.339  0.0000E+00  0.0000E+00
     -4.264  0.0000E+00  0.0000E+00
     -4.189  0.0000E+00  0.0000E+00
     -4.113  0.9468E-13  0.7129E-14
     -4.038  0.1537E-01  0.1157E-02
     -3.963  0.9219E-01  0.8099E-02
     -3.887  0.1842E+00  0.2197E-01
     -3.812  0.1227E+00  0.3123E-01
     -3.737  0.9149E-01  0.3814E-01
     -3.662  0.3669E+00  0.6582E-01
     -3.586  0.3684E+00  0.9371E-01
     -3.511  0.2103E-12  0.9375E-01
     -3.436  0.1844E+00  0.1076E+00
     -3.360  0.4611E+00  0.1424E+00
     -3.285  0.3689E+00  0.1701E+00
     -3.210  0.4209E+00  0.2018E+00
     -3.134  0.7264E-01  0.2073E+00
     -3.059  0.9428E+00  0.2783E+00
     -2.984  0.0000E+00  0.2905E+00
     -2.909  0.4227E+00  0.3223E+00
     -2.833  0.3688E+00  0.3530E+00
     -2.758  0.9206E+00  0.4223E+00
     -2.683  0.5979E+00  0.4675E+00
     -2.607  0.1831E+01  0.6054E+00
     -2.532  0.2194E+01  0.7707E+00
     -2.457  0.5870E+01  0.1216E+01
     -2.381  0.6317E+01  0.1698E+01
     -2.306  0.7170E+01  0.2245E+01
     -2.231  0.8499E+01  0.2887E+01
     -2.156  0.1029E+02  0.3672E+01
     -2.080  0.1104E+02  0.4509E+01
     -2.005  0.1520E+02  0.5676E+01
     -1.930  0.9926E+01  0.6428E+01
     -1.854  0.1133E+02  0.7287E+01
     -1.779  0.1118E+02  0.8133E+01
     -1.704  0.7053E+01  0.8678E+01
     -1.628  0.9446E+01  0.9399E+01
     -1.553  0.6888E+01  0.9926E+01
     -1.478  0.5322E+01  0.1033E+02
     -1.403  0.1071E+02  0.1115E+02
     -1.327  0.5203E+01  0.1154E+02
     -1.252  0.9610E+01  0.1228E+02
     -1.177  0.7452E+01  0.1284E+02
     -1.101  0.9485E+01  0.1357E+02
     -1.026  0.1035E+02  0.1436E+02
     -0.951  0.6395E+01  0.1484E+02
     -0.876  0.9009E+01  0.1552E+02
     -0.800  0.1015E+02  0.1630E+02
     -0.725  0.7719E+01  0.1689E+02
     -0.650  0.9143E+01  0.1760E+02
     -0.574  0.1639E+02  0.1885E+02
     -0.499  0.1122E+02  0.1971E+02
     -0.424  0.1818E+02  0.2109E+02
     -0.348  0.1065E+02  0.2190E+02
     -0.273  0.1374E+02  0.2296E+02
     -0.198  0.6703E+01  0.2347E+02
     -0.123  0.8604E+01  0.2412E+02
     -0.047  0.9208E+01  0.2482E+02
      0.028  0.9085E+01  0.2550E+02
      0.103  0.7131E+01  0.2604E+02
      0.179  0.8179E+01  0.2666E+02
      0.254  0.1175E+02  0.2756E+02
      0.329  0.1046E+02  0.2835E+02
      0.405  0.9416E+01  0.2906E+02
      0.480  0.1229E+02  0.3001E+02
      0.555  0.9979E+01  0.3078E+02
      0.630  0.1039E+02  0.3157E+02
      0.706  0.6650E+01  0.3210E+02
      0.781  0.9005E+01  0.3278E+02
      0.856  0.7508E+01  0.3336E+02
      0.932  0.1058E+02  0.3416E+02
      1.007  0.8341E+01  0.3480E+02
      1.082  0.9297E+01  0.3551E+02
      1.158  0.6952E+01  0.3604E+02
      1.233  0.1049E+02  0.3684E+02
      1.308  0.1437E+02  0.3792E+02
      1.383  0.1326E+02  0.3894E+02
      1.459  0.1783E+02  0.4031E+02
      1.534  0.5624E+01  0.4074E+02
      1.609  0.7767E+01  0.4132E+02
      1.685  0.1940E+01  0.4147E+02
      1.760  0.3668E+00  0.4150E+02
      1.835  0.7378E+00  0.4156E+02
      1.910  0.1516E+01  0.4167E+02
      1.986  0.1417E+01  0.4178E+02
      2.061  0.4569E+00  0.4182E+02
      2.136  0.1095E+01  0.4190E+02
      2.212  0.0000E+00  0.4190E+02
      2.287  0.3536E+00  0.4193E+02
      2.362  0.1105E+01  0.4201E+02
      2.438  0.3689E+00  0.4204E+02
      2.513  0.2032E+01  0.4219E+02
      2.588  0.1472E+01  0.4230E+02
      2.663  0.4888E+00  0.4234E+02
      2.739  0.1103E+01  0.4242E+02
      2.814  0.3964E+00  0.4245E+02
      2.889  0.3414E+00  0.4248E+02
      2.965  0.3689E+00  0.4251E+02
      3.040  0.3189E+00  0.4253E+02
      3.115  0.7652E+00  0.4259E+02
      3.191  0.2467E+01  0.4277E+02
      3.266  0.9305E+00  0.4285E+02
      3.341  0.4081E+00  0.4288E+02
      3.416  0.1762E+01  0.4301E+02
      3.492  0.7436E+00  0.4307E+02
      3.567  0.4164E+00  0.4310E+02
      3.642  0.6904E+00  0.4315E+02
      3.718  0.1107E+01  0.4323E+02
      3.793  0.6787E-01  0.4324E+02
      3.868  0.7580E+00  0.4330E+02
      3.944  0.1407E+01  0.4340E+02
      4.019  0.9243E+00  0.4348E+02
      4.094  0.1426E+01  0.4358E+02
      4.169  0.1264E+01  0.4368E+02
      4.245  0.1670E+01  0.4381E+02
      4.320  0.1001E+01  0.4388E+02
      4.395  0.1180E+01  0.4397E+02
      4.471  0.9199E-01  0.4398E+02
      4.546  0.7087E+00  0.4404E+02
      4.621  0.3689E+00  0.4407E+02
      4.696  0.5393E+00  0.4411E+02
      4.772  0.1216E+01  0.4420E+02
      4.847  0.9582E+00  0.4427E+02
      4.922  0.3114E+01  0.4450E+02
      4.998  0.0000E+00  0.4451E+02
      5.073  0.2315E+00  0.4453E+02
      5.148  0.1933E+01  0.4467E+02
      5.224  0.2819E+00  0.4471E+02
      5.299  0.1088E+01  0.4479E+02
      5.374  0.1476E+01  0.4490E+02
      5.449  0.7405E+00  0.4496E+02
      5.525  0.8215E+00  0.4502E+02
      5.600  0.1100E+01  0.4510E+02
      5.675  0.3682E+00  0.4513E+02
      5.751  0.3185E+00  0.4515E+02
      5.826  0.1253E+01  0.4525E+02
      5.901  0.7670E+00  0.4531E+02
      5.977  0.2207E+01  0.4548E+02
      6.052  0.1141E+01  0.4556E+02
      6.127  0.1475E+01  0.4567E+02
      6.202  0.7972E-03  0.4567E+02
      6.278  0.1837E+00  0.4569E+02
      6.353  0.1504E+01  0.4580E+02
      6.428  0.1072E+01  0.4588E+02
      6.504  0.1098E+01  0.4596E+02
      6.579  0.1296E+01  0.4606E+02
      6.654  0.7377E+00  0.4612E+02
      6.730  0.2867E-12  0.4612E+02
      6.805  0.3691E+00  0.4615E+02
      6.880  0.1947E+01  0.4629E+02
      6.955  0.1152E+01  0.4638E+02
      7.031  0.8589E+00  0.4645E+02
      7.106  0.2265E+00  0.4647E+02
      7.181  0.1477E+01  0.4658E+02
      7.257  0.1467E+01  0.4669E+02
      7.332  0.7367E+00  0.4674E+02
      7.407  0.0000E+00  0.4674E+02
      7.482  0.7889E-04  0.4674E+02
      7.558  0.1142E+01  0.4683E+02
      7.633  0.4851E+00  0.4687E+02
      7.708  0.1309E+01  0.4697E+02
      7.784  0.1009E+01  0.4705E+02
      7.859  0.2207E+00  0.4707E+02
      7.934  0.1439E+01  0.4717E+02
      8.010  0.4725E-01  0.4718E+02
      8.085  0.1327E+01  0.4728E+02
      8.160  0.7108E+00  0.4734E+02
      8.235  0.0000E+00  0.4734E+02
      8.311  0.3197E+00  0.4736E+02
      8.386  0.7371E+00  0.4742E+02
      8.461  0.1407E-05  0.4742E+02
      8.537  0.1142E+01  0.4751E+02
      8.612  0.7021E+00  0.4756E+02
      8.687  0.6128E+00  0.4761E+02
      8.763  0.7330E+00  0.4766E+02
      8.838  0.1110E+01  0.4775E+02
      8.913  0.1468E+01  0.4786E+02
      8.988  0.1476E+01  0.4797E+02
      9.064  0.1542E+01  0.4809E+02
      9.139  0.1602E+01  0.4821E+02
      9.214  0.2181E+01  0.4837E+02
      9.290  0.5775E+00  0.4842E+02
      9.365  0.5977E+00  0.4846E+02
      9.440  0.1742E+01  0.4859E+02
      9.516  0.1064E+01  0.4868E+02
      9.591  0.1460E+01  0.4879E+02
      9.666  0.7378E+00  0.4884E+02
      9.741  0.2014E+01  0.4900E+02
      9.817  0.5543E+00  0.4904E+02
      9.892  0.1628E+01  0.4918E+02
      9.967  0.8867E+00  0.4925E+02
     10.043  0.7413E+00  0.4930E+02
     10.118  0.1448E+01  0.4941E+02
     10.193  0.1009E+01  0.4949E+02
     10.268  0.9978E+00  0.4957E+02
     10.344  0.8659E+00  0.4963E+02
     10.419  0.1842E+01  0.4977E+02
     10.494  0.1408E+01  0.4988E+02
     10.570  0.4169E+00  0.4991E+02
     10.645  0.1013E+01  0.4999E+02
     10.720  0.8240E+00  0.5006E+02
     10.796  0.6805E+00  0.5011E+02
     10.871  0.2160E+01  0.5028E+02
     10.946  0.9762E+00  0.5035E+02
     11.021  0.1104E+01  0.5044E+02
     11.097  0.4095E-02  0.5044E+02
     11.172  0.7341E+00  0.5049E+02
     11.247  0.9951E+00  0.5057E+02
     11.323  0.1486E+01  0.5069E+02
     11.398  0.1094E+01  0.5077E+02
     11.473  0.1532E+01  0.5089E+02
     11.549  0.5707E+00  0.5094E+02
     11.624  0.6262E-01  0.5094E+02
     11.699  0.1069E+01  0.5102E+02
     11.774  0.1533E+01  0.5114E+02
     11.850  0.1729E+01  0.5127E+02
     11.925  0.6162E+00  0.5132E+02
     12.000  0.6905E+00  0.5137E+02
     12.076  0.1750E+01  0.5150E+02
     12.151  0.7019E+00  0.5156E+02
     12.226  0.1963E+01  0.5170E+02
     12.302  0.1171E+01  0.5179E+02
     12.377  0.2468E+01  0.5199E+02
     12.452  0.8318E+00  0.5205E+02
     12.527  0.7586E+00  0.5211E+02
     12.603  0.2567E+01  0.5230E+02
     12.678  0.3323E+01  0.5255E+02
     12.753  0.1219E+01  0.5265E+02
     12.829  0.3752E+00  0.5268E+02
     12.904  0.1442E+01  0.5279E+02
     12.979  0.5850E+00  0.5283E+02
     13.054  0.2670E+01  0.5303E+02
     13.130  0.3151E+01  0.5327E+02
     13.205  0.1795E+01  0.5342E+02
     13.280  0.7514E+00  0.5348E+02
     13.356  0.1831E+01  0.5362E+02
     13.431  0.1105E+01  0.5370E+02
     13.506  0.1253E+01  0.5379E+02
     13.582  0.2618E+01  0.5399E+02
     13.657  0.2727E+00  0.5401E+02
     13.732  0.1275E+01  0.5411E+02
     13.807  0.2110E+01  0.5427E+02
     13.883  0.3802E+00  0.5430E+02
     13.958  0.2203E+01  0.5446E+02
     14.033  0.1568E+01  0.5458E+02
     14.109  0.1919E+01  0.5473E+02
     14.184  0.6768E+00  0.5478E+02
     14.259  0.1511E+01  0.5489E+02
     14.335  0.5506E+00  0.5493E+02
     14.410  0.2429E+01  0.5512E+02
     14.485  0.1107E+01  0.5520E+02
     14.560  0.1506E+01  0.5532E+02
     14.636  0.1065E+01  0.5540E+02
     14.711  0.7055E+00  0.5545E+02
     14.786  0.9587E+00  0.5552E+02
     14.862  0.1435E+01  0.5563E+02
     14.937  0.1230E+00  0.5564E+02
     15.012  0.4615E+00  0.5568E+02
     15.088  0.1787E+01  0.5581E+02
     15.163  0.1489E-12  0.5582E+02
     15.238  0.3688E+00  0.5584E+02
     15.313  0.0000E+00  0.5584E+02
     15.389  0.3623E+00  0.5587E+02
     15.464  0.3689E+00  0.5590E+02
     15.539  0.7370E+00  0.5595E+02
     15.615  0.3696E+00  0.5598E+02
     15.690  0.9155E-01  0.5599E+02
     15.765  0.0000E+00  0.5599E+02
     15.841  0.1315E-08  0.5599E+02
     15.916  0.1537E-01  0.5599E+02
     15.991  0.0000E+00  0.5599E+02
     16.066  0.0000E+00  0.5599E+02
     16.142  0.0000E+00  0.5599E+02
     16.217  0.0000E+00  0.5599E+02
     16.292  0.0000E+00  0.5599E+02
     16.368  0.0000E+00  0.5599E+02
     16.443  0.6630E-05  0.5599E+02
     16.518  0.1230E+00  0.5600E+02
     16.593  0.0000E+00  0.5600E+02
     16.669  0.0000E+00  0.5600E+02
     16.744  0.0000E+00  0.5600E+02
     16.819  0.0000E+00  0.5600E+02
     16.895  0.0000E+00  0.5600E+02
     16.970  0.0000E+00  0.5600E+02
     17.045  0.0000E+00  0.5600E+02
     17.121  0.0000E+00  0.5600E+02
     17.196  0.0000E+00  0.5600E+02
     17.271  0.0000E+00  0.5600E+02
     17.346  0.0000E+00  0.5600E+02
     17.422  0.0000E+00  0.5600E+02
     17.497  0.0000E+00  0.5600E+02
