    4    4    1    1
  0.1546680E+02  0.3955064E-09  0.3955064E-09  0.3955064E-09  0.5000000E-15
  1.000000000000000E-004
  CAR 
 unknown system                          
   44   84   28
 
  0.0000000E+00  0.0000000E+00  0.0000000E+00  0.5787037E-03
   1       -4.0654
   2       -2.7130
   3       -2.7130
   4       -2.7130
   5       -2.5378
   6       -2.5378
   7       -2.5378
   8       -0.7665
   9       -0.7665
  10       -0.7665
  11        0.4645
  12        0.4645
  13        1.3709
  14        1.3709
  15        1.3709
  16        1.6532
  17        1.6532
  18        1.6532
  19        1.6532
  20        1.6532
  21        1.6532
  22        5.9850
  23        5.9850
  24        5.9850
  25       12.0021
  26       12.0021
  27       12.0021
  28       15.8775
 
  0.8333333E-01  0.0000000E+00  0.0000000E+00  0.3472222E-02
   1       -3.9864
   2       -2.6777
   3       -2.6680
   4       -2.6680
   5       -2.5111
   6       -2.4971
   7       -2.4971
   8       -0.8010
   9       -0.7354
  10       -0.7354
  11        0.4296
  12        0.4791
  13        1.3241
  14        1.3241
  15        1.3545
  16        1.4786
  17        1.4786
  18        1.5963
  19        1.5963
  20        1.6533
  21        1.6533
  22        5.5138
  23        6.2210
  24        6.2210
  25       12.0092
  26       12.0092
  27       12.5858
  28       15.6319
 
  0.1666667E+00  0.0000000E+00  0.0000000E+00  0.3472222E-02
   1       -3.7539
   2       -2.5766
   3       -2.5386
   4       -2.5386
   5       -2.4323
   6       -2.3752
   7       -2.3752
   8       -0.9011
   9       -0.6425
  10       -0.6425
  11        0.3315
  12        0.5221
  13        1.0441
  14        1.0441
  15        1.1891
  16        1.1891
  17        1.3068
  18        1.4346
  19        1.4346
  20        1.6535
  21        1.6535
  22        4.4508
  23        6.8384
  24        6.8384
  25       12.0329
  26       12.0329
  27       13.9842
  28       14.9792
 
  0.2500000E+00  0.0000000E+00  0.0000000E+00  0.3472222E-02
   1       -3.3842
   2       -2.4247
   3       -2.3431
   4       -2.3431
   5       -2.3052
   6       -2.1730
   7       -2.1730
   8       -1.0571
   9       -0.4905
  10       -0.4905
  11        0.1930
  12        0.4959
  13        0.4959
  14        0.5910
  15        0.9845
  16        0.9845
  17        1.1910
  18        1.1910
  19        1.2315
  20        1.6539
  21        1.6539
  22        3.2288
  23        7.6878
  24        7.6878
  25       12.0798
  26       12.0798
  27       14.0784
  28       14.0784
 
  0.3333333E+00  0.0000000E+00  0.0000000E+00  0.3472222E-02
   1       -2.9175
   2       -2.2533
   3       -2.1361
   4       -2.1174
   5       -2.1174
   6       -1.8922
   7       -1.8922
   8       -1.2550
   9       -0.2837
  10       -0.2837
  11       -0.0730
  12       -0.0730
  13        0.0643
  14        0.6816
  15        0.7481
  16        0.7481
  17        0.8955
  18        0.8955
  19        1.1344
  20        1.6542
  21        1.6542
  22        2.0545
  23        8.6707
  24        8.6707
  25       12.1559
  26       12.1559
  27       13.0455
  28       13.0455
 
  0.4166667E+00  0.0000000E+00  0.0000000E+00  0.3472222E-02
   1       -2.4500
   2       -2.1246
   3       -1.9338
   4       -1.9232
   5       -1.9232
   6       -1.5354
   7       -1.5354
   8       -1.4782
   9       -0.6155
  10       -0.6155
  11       -0.0291
  12       -0.0291
  13        0.0540
  14        0.5451
  15        0.5451
  16        0.5777
  17        0.5777
  18        0.7885
  19        1.0228
  20        1.0502
  21        1.6544
  22        1.6544
  23        9.7316
  24        9.7316
  25       11.9497
  26       11.9497
  27       12.2524
  28       12.2524
 
  0.5000000E+00  0.0000000E+00  0.0000000E+00  0.1736111E-02
   1       -2.1550
   2       -2.1550
   3       -1.8431
   4       -1.8431
   5       -1.7098
   6       -1.7098
   7       -1.1073
   8       -1.1073
   9       -1.1073
  10       -1.1073
  11        0.2629
  12        0.2629
  13        0.2629
  14        0.2629
  15        0.3487
  16        0.3487
  17        0.4616
  18        0.4616
  19        0.9048
  20        0.9048
  21        1.6545
  22        1.6545
  23       10.8344
  24       10.8344
  25       10.8344
  26       10.8344
  27       12.3077
  28       12.3077
 
  0.8333333E-01  0.8333333E-01  0.0000000E+00  0.6944444E-02
   1       -3.9085
   2       -2.6325
   3       -2.6325
   4       -2.6300
   5       -2.4709
   6       -2.4709
   7       -2.4510
   8       -0.8147
   9       -0.7240
  10       -0.7064
  11        0.4201
  12        0.4714
  13        1.2793
  14        1.2802
  15        1.2802
  16        1.3570
  17        1.4480
  18        1.4480
  19        1.5963
  20        1.5963
  21        1.6146
  22        5.7429
  23        5.7429
  24        6.4429
  25       12.0164
  26       12.6017
  27       12.6017
  28       14.7719
 
  0.1666667E+00  0.8333333E-01  0.0000000E+00  0.1388889E-01
   1       -3.6795
   2       -2.5304
   3       -2.5185
   4       -2.5022
   5       -2.3938
   6       -2.3507
   7       -2.3162
   8       -0.9021
   9       -0.6411
  10       -0.6213
  11        0.3354
  12        0.5112
  13        0.9323
  14        0.9710
  15        1.1384
  16        1.1499
  17        1.2284
  18        1.3749
  19        1.4340
  20        1.5948
  21        1.5960
  22        4.6779
  23        6.3323
  24        7.0327
  25       12.0383
  26       12.6518
  27       13.7932
  28       14.0094
 
  0.2500000E+00  0.8333333E-01  0.0000000E+00  0.1388889E-01
   1       -3.3158
   2       -2.3769
   3       -2.3416
   4       -2.3052
   5       -2.2693
   6       -2.1513
   7       -2.1037
   8       -1.0518
   9       -0.4914
  10       -0.4880
  11        0.2108
  12        0.4048
  13        0.4533
  14        0.5887
  15        0.9018
  16        0.9533
  17        1.0118
  18        1.1899
  19        1.2774
  20        1.5908
  21        1.5955
  22        3.4716
  23        7.1248
  24        7.8572
  25       12.0588
  26       12.7398
  27       12.8383
  28       14.2035
 
  0.3333333E+00  0.8333333E-01  0.0000000E+00  0.1388889E-01
   1       -2.8568
   2       -2.2029
   3       -2.1194
   4       -2.1037
   5       -2.0775
   6       -1.8747
   7       -1.8312
   8       -1.2438
   9       -0.3414
  10       -0.2855
  11       -0.1454
  12       -0.0947
  13        0.1325
  14        0.5944
  15        0.6935
  16        0.7259
  17        0.7695
  18        0.8939
  19        1.1558
  20        1.5905
  21        1.5947
  22        2.3383
  23        8.0176
  24        8.8216
  25       11.7005
  26       12.3358
  27       12.8475
  28       13.1681
 
  0.4166667E+00  0.8333333E-01  0.0000000E+00  0.1388889E-01
   1       -2.3953
   2       -2.0713
   3       -1.9070
   4       -1.9059
   5       -1.8822
   6       -1.5237
   7       -1.5090
   8       -1.4612
   9       -0.6639
  10       -0.6223
  11       -0.2478
  12       -0.0312
  13        0.2428
  14        0.2628
  15        0.5326
  16        0.5574
  17        0.5757
  18        0.8218
  19        0.9905
  20        1.4272
  21        1.5914
  22        1.5937
  23        8.9516
  24        9.8693
  25       10.8186
  26       12.0738
  27       12.4387
  28       12.8485
 
  0.5000000E+00  0.8333333E-01  0.0000000E+00  0.6944444E-02
   1       -2.1008
   2       -2.1008
   3       -1.8078
   4       -1.8078
   5       -1.6871
   6       -1.6871
   7       -1.1231
   8       -1.1231
   9       -1.1035
  10       -1.1035
  11       -0.0811
  12       -0.0811
  13        0.2607
  14        0.2607
  15        0.4612
  16        0.4612
  17        0.6266
  18        0.6266
  19        0.9881
  20        0.9881
  21        1.5926
  22        1.5926
  23        9.8913
  24        9.8913
  25       10.9635
  26       10.9635
  27       12.6491
  28       12.6491
 
  0.1666667E+00  0.1666667E+00  0.0000000E+00  0.6944444E-02
   1       -3.4613
   2       -2.4434
   3       -2.3974
   4       -2.3974
   5       -2.2784
   6       -2.2784
   7       -2.1597
   8       -0.9406
   9       -0.5995
  10       -0.5600
  11        0.3030
  12        0.5300
  13        0.7104
  14        0.7104
  15        0.7201
  16        1.0362
  17        1.2390
  18        1.2390
  19        1.4325
  20        1.4325
  21        1.5005
  22        5.2410
  23        5.2410
  24        7.5640
  25       12.0173
  26       12.6491
  27       14.0785
  28       14.0785
 
  0.2500000E+00  0.1666667E+00  0.0000000E+00  0.1388889E-01
   1       -3.1159
   2       -2.3019
   3       -2.2387
   4       -2.1956
   5       -2.1620
   6       -2.0875
   7       -1.9360
   8       -1.0523
   9       -0.4759
  10       -0.4744
  11        0.1914
  12        0.2159
  13        0.3111
  14        0.4300
  15        0.6295
  16        0.8614
  17        1.0378
  18        1.1859
  19        1.1868
  20        1.4300
  21        1.4489
  22        4.0365
  23        5.9720
  24        8.3312
  25       11.3593
  26       12.2571
  27       14.1161
  28       14.5664
 
  0.3333333E+00  0.1666667E+00  0.0000000E+00  0.1388889E-01
   1       -2.6814
   2       -2.0991
   3       -2.0569
   4       -2.0075
   5       -1.9613
   6       -1.8234
   7       -1.6780
   8       -1.2182
   9       -0.4227
  10       -0.3246
  11       -0.2815
  12       -0.1662
  13        0.1132
  14        0.1893
  15        0.6580
  16        0.7912
  17        0.7972
  18        0.8896
  19        1.0689
  20        1.4269
  21        1.4285
  22        2.9219
  23        6.7795
  24        9.2501
  25       10.3509
  26       12.3605
  27       13.5237
  28       13.7941
 
  0.4166667E+00  0.1666667E+00  0.0000000E+00  0.1388889E-01
   1       -2.2399
   2       -1.9166
   3       -1.8660
   4       -1.8236
   5       -1.7621
   6       -1.4899
   7       -1.4229
   8       -1.4142
   9       -0.7882
  10       -0.6462
  11       -0.4515
  12       -0.2018
  13       -0.0326
  14        0.3446
  15        0.4903
  16        0.5711
  17        0.5723
  18        0.8840
  19        1.0212
  20        1.4220
  21        1.4238
  22        2.0112
  23        7.6236
  24        9.3960
  25       10.2646
  26       12.4329
  27       12.5659
  28       13.2930
 
  0.5000000E+00  0.1666667E+00  0.0000000E+00  0.6944444E-02
   1       -1.9462
   2       -1.9462
   3       -1.7100
   4       -1.7100
   5       -1.6213
   6       -1.6213
   7       -1.1559
   8       -1.1559
   9       -1.0939
  10       -1.0939
  11       -0.4186
  12       -0.4186
  13        0.2569
  14        0.2569
  15        0.4486
  16        0.4486
  17        0.6231
  18        0.6231
  19        1.3866
  20        1.3866
  21        1.4215
  22        1.4215
  23        8.4930
  24        8.4930
  25       11.3359
  26       11.3359
  27       12.8736
  28       12.8736
 
  0.2500000E+00  0.2500000E+00  0.0000000E+00  0.6944444E-02
   1       -2.8029
   2       -2.1996
   3       -2.0279
   4       -2.0279
   5       -1.9851
   6       -1.9851
   7       -1.7118
   8       -1.0967
   9       -0.4496
  10       -0.4015
  11       -0.0767
  12       -0.0767
  13        0.0511
  14        0.1545
  15        0.7166
  16        0.7843
  17        1.0066
  18        1.0066
  19        1.1823
  20        1.1823
  21        1.3166
  22        4.7377
  23        4.7377
  24        9.0360
  25       10.1670
  26       12.3301
  27       15.0782
  28       15.0820
 
  0.3333333E+00  0.2500000E+00  0.0000000E+00  0.1388889E-01
   1       -2.4133
   2       -2.0324
   3       -1.8502
   4       -1.8316
   5       -1.7801
   6       -1.7420
   7       -1.4700
   8       -1.2018
   9       -0.5520
  10       -0.4642
  11       -0.3597
  12       -0.3029
  13       -0.2452
  14        0.1222
  15        0.5447
  16        0.7770
  17        0.8846
  18        0.8995
  19        1.0435
  20        1.1779
  21        1.2352
  22        3.6019
  23        5.5017
  24        9.0652
  25        9.9011
  26       12.4996
  27       14.0797
  28       14.3056
 
  0.4166667E+00  0.2500000E+00  0.0000000E+00  0.1388889E-01
   1       -2.0132
   2       -1.8094
   3       -1.6913
   4       -1.6780
   5       -1.5723
   6       -1.4385
   7       -1.3505
   8       -1.2717
   9       -0.9476
  10       -0.6965
  11       -0.6018
  12       -0.5771
  13       -0.0183
  14        0.2423
  15        0.4074
  16        0.5472
  17        0.5679
  18        0.7150
  19        1.1756
  20        1.1953
  21        1.4070
  22        2.6485
  23        6.3069
  24        8.0678
  25       10.8735
  26       12.7635
  27       12.9936
  28       13.6533
 
  0.5000000E+00  0.2500000E+00  0.0000000E+00  0.6944444E-02
   1       -1.7198
   2       -1.7198
   3       -1.5835
   4       -1.5835
   5       -1.5200
   6       -1.5200
   7       -1.1605
   8       -1.1605
   9       -1.0845
  10       -1.0845
  11       -0.6818
  12       -0.6818
  13        0.2594
  14        0.2594
  15        0.3985
  16        0.3985
  17        0.4740
  18        0.4740
  19        1.1792
  20        1.1792
  21        1.9216
  22        1.9216
  23        7.1563
  24        7.1563
  25       11.9147
  26       11.9147
  27       13.1419
  28       13.1419
 
  0.3333333E+00  0.3333333E+00  0.0000000E+00  0.6944444E-02
   1       -2.0916
   2       -1.9111
   3       -1.6370
   4       -1.6370
   5       -1.5599
   6       -1.5599
   7       -1.2462
   8       -1.2230
   9       -0.7833
  10       -0.7833
  11       -0.5146
  12       -0.4896
  13       -0.1442
  14        0.0261
  15        0.4010
  16        0.6795
  17        0.6795
  18        0.8821
  19        0.8821
  20        1.0732
  21        1.4159
  22        4.3328
  23        4.3328
  24        7.9060
  25       10.7159
  26       12.7260
  27       14.7936
  28       14.7970
 
  0.4166667E+00  0.3333333E+00  0.0000000E+00  0.1388889E-01
   1       -1.7683
   2       -1.7319
   3       -1.5177
   4       -1.3915
   5       -1.3771
   6       -1.3295
   7       -1.2923
   8       -1.1093
   9       -1.0769
  10       -0.9370
  11       -0.7870
  12       -0.6118
  13        0.0355
  14        0.0720
  15        0.2821
  16        0.4508
  17        0.5006
  18        0.5736
  19        0.8882
  20        0.9681
  21        1.8989
  22        3.3320
  23        5.1107
  24        6.8731
  25       11.6462
  26       13.0568
  27       13.7135
  28       14.1077
 
  0.5000000E+00  0.3333333E+00  0.0000000E+00  0.6944444E-02
   1       -1.4972
   2       -1.4972
   3       -1.4961
   4       -1.4961
   5       -1.3971
   6       -1.3971
   7       -1.0857
   8       -1.0857
   9       -1.0646
  10       -1.0646
  11       -0.8251
  12       -0.8251
  13        0.2708
  14        0.2708
  15        0.2825
  16        0.2825
  17        0.2894
  18        0.2894
  19        0.9122
  20        0.9122
  21        2.5246
  22        2.5246
  23        5.9496
  24        5.9496
  25       12.6553
  26       12.6553
  27       13.5117
  28       13.5117
 
  0.4166667E+00  0.4166667E+00  0.0000000E+00  0.6944444E-02
   1       -1.6198
   2       -1.5628
   3       -1.3172
   4       -1.3172
   5       -1.2666
   6       -1.2666
   7       -1.2631
   8       -1.0484
   9       -1.0484
  10       -0.9272
  11       -0.9030
  12       -0.6246
  13       -0.0354
  14        0.1510
  15        0.1539
  16        0.2779
  17        0.2779
  18        0.6003
  19        0.6003
  20        0.7851
  21        2.4891
  22        4.0728
  23        4.0728
  24        5.8184
  25       12.5388
  26       13.4633
  27       14.5518
  28       14.5523
 
  0.5000000E+00  0.4166667E+00  0.0000000E+00  0.6944444E-02
   1       -1.4616
   2       -1.4616
   3       -1.4063
   4       -1.4063
   5       -1.2739
   6       -1.2739
   7       -1.1113
   8       -1.1113
   9       -0.8789
  10       -0.8789
  11       -0.7860
  12       -0.7860
  13        0.0709
  14        0.0709
  15        0.1284
  16        0.1284
  17        0.3464
  18        0.3464
  19        0.6648
  20        0.6648
  21        3.2036
  22        3.2036
  23        4.8926
  24        4.8926
  25       13.5165
  26       13.5165
  27       13.9991
  28       13.9991
 
  0.5000000E+00  0.5000000E+00  0.0000000E+00  0.1736111E-02
   1       -1.4288
   2       -1.4288
   3       -1.4288
   4       -1.4288
   5       -1.1736
   6       -1.1736
   7       -1.1736
   8       -1.1736
   9       -0.7399
  10       -0.7399
  11       -0.7399
  12       -0.7399
  13        0.0020
  14        0.0020
  15        0.0020
  16        0.0020
  17        0.4713
  18        0.4713
  19        0.4713
  20        0.4713
  21        3.9836
  22        3.9836
  23        3.9836
  24        3.9836
  25       14.4646
  26       14.4646
  27       14.4646
  28       14.4646
 
  0.8333333E-01  0.8333333E-01  0.8333333E-01  0.4629630E-02
   1       -3.8321
   2       -2.5950
   3       -2.5950
   4       -2.5950
   5       -2.4246
   6       -2.4246
   7       -2.4246
   8       -0.8242
   9       -0.6977
  10       -0.6977
  11        0.4387
  12        0.4387
  13        1.2392
  14        1.2392
  15        1.2392
  16        1.2944
  17        1.2944
  18        1.2944
  19        1.5862
  20        1.5862
  21        1.5862
  22        5.9558
  23        5.9558
  24        5.9558
  25       12.6166
  26       12.6166
  27       12.6166
  28       14.9028
 
  0.1666667E+00  0.8333333E-01  0.8333333E-01  0.1388889E-01
   1       -3.6074
   2       -2.4954
   3       -2.4850
   4       -2.4850
   5       -2.3461
   6       -2.2895
   7       -2.2895
   8       -0.8987
   9       -0.6252
  10       -0.6191
  11        0.3492
  12        0.4933
  13        0.8825
  14        0.8825
  15        1.1146
  16        1.1193
  17        1.1381
  18        1.1381
  19        1.5094
  20        1.5683
  21        1.5683
  22        4.8822
  23        6.5138
  24        6.5138
  25       12.6561
  26       12.6561
  27       13.9285
  28       13.9285
 
  0.2500000E+00  0.8333333E-01  0.8333333E-01  0.1388889E-01
   1       -3.2514
   2       -2.3478
   3       -2.3093
   4       -2.3093
   5       -2.2171
   6       -2.0778
   7       -2.0778
   8       -1.0392
   9       -0.4929
  10       -0.4902
  11        0.2373
  12        0.3713
  13        0.3713
  14        0.5804
  15        0.8381
  16        0.9278
  17        0.9546
  18        0.9546
  19        1.3999
  20        1.5546
  21        1.5546
  22        3.6757
  23        7.2776
  24        7.2776
  25       12.5873
  26       12.5873
  27       13.1119
  28       13.1119
 
  0.3333333E+00  0.8333333E-01  0.8333333E-01  0.1388889E-01
   1       -2.8035
   2       -2.1827
   3       -2.0861
   4       -2.0861
   5       -2.0444
   6       -1.8102
   7       -1.8102
   8       -1.2224
   9       -0.3686
  10       -0.3143
  11       -0.1599
  12       -0.1599
  13        0.2054
  14        0.4914
  15        0.6855
  16        0.6947
  17        0.7320
  18        0.7320
  19        1.2691
  20        1.5470
  21        1.5470
  22        2.5419
  23        8.1475
  24        8.1475
  25       11.8377
  26       11.8377
  27       13.0817
  28       13.0817
 
  0.4166667E+00  0.8333333E-01  0.8333333E-01  0.1388889E-01
   1       -2.3545
   2       -2.0513
   3       -1.8694
   4       -1.8694
   5       -1.8480
   6       -1.5029
   7       -1.5029
   8       -1.4294
   9       -0.6588
  10       -0.6588
  11       -0.3226
  12       -0.0973
  13        0.1141
  14        0.4169
  15        0.4188
  16        0.5341
  17        0.5341
  18        0.8292
  19        1.1250
  20        1.5434
  21        1.5434
  22        1.5895
  23        9.0615
  24        9.0615
  25       10.9271
  26       10.9271
  27       13.3171
  28       13.3171
 
  0.5000000E+00  0.8333333E-01  0.8333333E-01  0.6944444E-02
   1       -2.0709
   2       -2.0709
   3       -1.7728
   4       -1.7728
   5       -1.6423
   6       -1.6423
   7       -1.2172
   8       -1.2172
   9       -1.0179
  10       -1.0179
  11       -0.1964
  12       -0.1964
  13        0.1515
  14        0.1515
  15        0.4510
  16        0.4510
  17        0.8807
  18        0.8807
  19        0.9755
  20        0.9755
  21        1.5423
  22        1.5423
  23        9.8825
  24        9.8825
  25       10.1110
  26       10.1110
  27       13.5045
  28       13.5045
 
  0.1666667E+00  0.1666667E+00  0.8333333E-01  0.1388889E-01
   1       -3.3965
   2       -2.4145
   3       -2.3909
   4       -2.3909
   5       -2.2085
   6       -2.2085
   7       -2.1306
   8       -0.9229
   9       -0.5904
  10       -0.5659
  11        0.3361
  12        0.5018
  13        0.6591
  14        0.6754
  15        0.6754
  16        0.9676
  17        1.0476
  18        1.0476
  19        1.5012
  20        1.5012
  21        1.5130
  22        5.4047
  23        5.4047
  24        7.0048
  25       12.4561
  26       12.9946
  27       13.9427
  28       13.9427
 
  0.2500000E+00  0.1666667E+00  0.8333333E-01  0.2777778E-01
   1       -3.0646
   2       -2.2770
   3       -2.2559
   4       -2.2204
   5       -2.0716
   6       -1.9975
   7       -1.9073
   8       -1.0175
   9       -0.4870
  10       -0.4824
  11        0.1713
  12        0.2517
  13        0.2642
  14        0.3985
  15        0.6065
  16        0.8067
  17        0.8602
  18        0.9107
  19        1.4054
  20        1.4615
  21        1.4622
  22        4.1831
  23        6.1016
  24        7.6997
  25       11.4786
  26       12.9835
  27       13.1241
  28       14.4064
 
  0.3333333E+00  0.1666667E+00  0.8333333E-01  0.2777778E-01
   1       -2.6521
   2       -2.1081
   3       -2.0768
   4       -1.9962
   5       -1.8867
   6       -1.7424
   7       -1.6561
   8       -1.1646
   9       -0.4356
  10       -0.3314
  11       -0.3230
  12       -0.2106
  13        0.0791
  14        0.2855
  15        0.6122
  16        0.6241
  17        0.7160
  18        0.7683
  19        1.2758
  20        1.4269
  21        1.4305
  22        3.0412
  23        6.8833
  24        8.5026
  25       10.4686
  26       12.1669
  27       13.1942
  28       14.6137
 
  0.4166667E+00  0.1666667E+00  0.8333333E-01  0.2777778E-01
   1       -2.2440
   2       -1.9872
   3       -1.8404
   4       -1.7637
   5       -1.6862
   6       -1.4852
   7       -1.4320
   8       -1.3345
   9       -0.7468
  10       -0.6474
  11       -0.4748
  12       -0.2385
  13       -0.1395
  14        0.3451
  15        0.4619
  16        0.5186
  17        0.5230
  18        0.9907
  19        1.1028
  20        1.4097
  21        1.4124
  22        2.0764
  23        7.7060
  24        9.1971
  25        9.6949
  26       11.2401
  27       13.5306
  28       14.5284
 
  0.5000000E+00  0.1666667E+00  0.8333333E-01  0.1388889E-01
   1       -1.9929
   2       -1.9929
   3       -1.6761
   4       -1.6761
   5       -1.5057
   6       -1.5057
   7       -1.3187
   8       -1.3187
   9       -0.9315
  10       -0.9315
  11       -0.4514
  12       -0.4514
  13        0.0886
  14        0.0886
  15        0.4115
  16        0.4115
  17        0.8572
  18        0.8572
  19        1.3763
  20        1.3763
  21        1.4057
  22        1.4057
  23        8.5484
  24        8.5484
  25       10.3453
  26       10.3453
  27       13.9958
  28       13.9958
 
  0.2500000E+00  0.2500000E+00  0.8333333E-01  0.1388889E-01
   1       -2.7765
   2       -2.1820
   3       -2.0989
   4       -2.0989
   5       -1.8560
   6       -1.8560
   7       -1.6853
   8       -1.0285
   9       -0.4594
  10       -0.4352
  11       -0.0859
  12       -0.0859
  13        0.0132
  14        0.2257
  15        0.6325
  16        0.7555
  17        0.7714
  18        0.7714
  19        1.3410
  20        1.3410
  21        1.3613
  22        4.8438
  23        4.8438
  24        8.3030
  25       10.2936
  26       13.1376
  27       13.6711
  28       13.6711
 
  0.3333333E+00  0.2500000E+00  0.8333333E-01  0.2777778E-01
   1       -2.4288
   2       -2.0224
   3       -1.9745
   4       -1.8835
   5       -1.6584
   6       -1.6108
   7       -1.4565
   8       -1.0940
   9       -0.5284
  10       -0.4711
  11       -0.3589
  12       -0.3250
  13       -0.3139
  14        0.2421
  15        0.4688
  16        0.5505
  17        0.6255
  18        1.0118
  19        1.1901
  20        1.2715
  21        1.2805
  22        3.6771
  23        5.5806
  24        8.7957
  25        9.4506
  26       12.6678
  27       13.4075
  28       14.3480
 
  0.4166667E+00  0.2500000E+00  0.8333333E-01  0.2777778E-01
   1       -2.0960
   2       -1.8808
   3       -1.8055
   4       -1.6298
   5       -1.4431
   6       -1.4409
   7       -1.3093
   8       -1.1866
   9       -0.8388
  10       -0.6377
  11       -0.5957
  12       -0.5849
  13       -0.1634
  14        0.2953
  15        0.3408
  16        0.4373
  17        0.4483
  18        0.9887
  19        1.2282
  20        1.2315
  21        1.3765
  22        2.6819
  23        6.3658
  24        8.0770
  25        9.9984
  26       11.7274
  27       13.8077
  28       15.0352
 
  0.5000000E+00  0.2500000E+00  0.8333333E-01  0.1388889E-01
   1       -1.8930
   2       -1.8930
   3       -1.5667
   4       -1.5667
   5       -1.3748
   6       -1.3748
   7       -1.2837
   8       -1.2837
   9       -0.8467
  10       -0.8467
  11       -0.6855
  12       -0.6855
  13        0.0479
  14        0.0479
  15        0.3246
  16        0.3246
  17        0.7255
  18        0.7255
  19        1.2149
  20        1.2149
  21        1.9123
  22        1.9123
  23        7.1970
  24        7.1970
  25       10.8374
  26       10.8374
  27       14.3528
  28       14.3528
 
  0.3333333E+00  0.3333333E+00  0.8333333E-01  0.1388889E-01
   1       -2.1769
   2       -1.9163
   3       -1.7912
   4       -1.7912
   5       -1.4046
   6       -1.4046
   7       -1.2616
   8       -1.0491
   9       -0.7312
  10       -0.7312
  11       -0.4822
  12       -0.4714
  13       -0.2891
  14        0.2015
  15        0.3076
  16        0.4490
  17        0.4490
  18        1.0851
  19        1.0851
  20        1.1446
  21        1.3827
  22        4.3832
  23        4.3832
  24        7.8970
  25        9.8827
  26       13.3110
  27       13.3110
  28       13.7381
 
  0.4166667E+00  0.3333333E+00  0.8333333E-01  0.2777778E-01
   1       -1.9493
   2       -1.7589
   3       -1.7494
   4       -1.5889
   5       -1.2912
   6       -1.1769
   7       -1.1563
   8       -1.0413
   9       -0.8846
  10       -0.8839
  11       -0.6259
  12       -0.5971
  13       -0.1884
  14        0.1879
  15        0.2226
  16        0.3059
  17        0.3311
  18        0.8587
  19        1.0140
  20        1.0454
  21        1.8701
  22        3.3501
  23        5.1457
  24        6.8876
  25       10.6369
  26       12.3540
  27       14.0651
  28       14.2060
 
  0.5000000E+00  0.3333333E+00  0.8333333E-01  0.1388889E-01
   1       -1.7962
   2       -1.7962
   3       -1.5740
   4       -1.5740
   5       -1.2773
   6       -1.2773
   7       -1.0362
   8       -1.0362
   9       -0.8195
  10       -0.8195
  11       -0.7508
  12       -0.7508
  13       -0.0044
  14       -0.0044
  15        0.1846
  16        0.1846
  17        0.5900
  18        0.5900
  19        1.0000
  20        1.0000
  21        2.5131
  22        2.5131
  23        5.9740
  24        5.9740
  25       11.4659
  26       11.4659
  27       14.8214
  28       14.8214
 
  0.4166667E+00  0.4166667E+00  0.8333333E-01  0.1388889E-01
   1       -1.8246
   2       -1.6925
   3       -1.6379
   4       -1.6379
   5       -1.1197
   6       -1.1050
   7       -1.1050
   8       -0.9865
   9       -0.8347
  10       -0.8347
  11       -0.5937
  12       -0.5495
  13       -0.2094
  14        0.0472
  15        0.1124
  16        0.1124
  17        0.3490
  18        0.7752
  19        0.7752
  20        0.8833
  21        2.4656
  22        4.0834
  23        4.0834
  24        5.8295
  25       11.3791
  26       13.0902
  27       13.0902
  28       14.7432
 
  0.5000000E+00  0.4166667E+00  0.8333333E-01  0.1388889E-01
   1       -1.7216
   2       -1.7216
   3       -1.6256
   4       -1.6256
   5       -1.1439
   6       -1.1439
   7       -1.0100
   8       -1.0100
   9       -0.6670
  10       -0.6670
  11       -0.6300
  12       -0.6300
  13       -0.0875
  14       -0.0875
  15        0.0129
  16        0.0129
  17        0.5293
  18        0.5293
  19        0.7831
  20        0.7831
  21        3.1933
  22        3.1933
  23        4.9014
  24        4.9014
  25       12.1977
  26       12.1977
  27       13.9174
  28       13.9174
 
  0.5000000E+00  0.5000000E+00  0.8333333E-01  0.3472222E-02
   1       -1.6709
   2       -1.6709
   3       -1.6709
   4       -1.6709
   5       -1.0621
   6       -1.0621
   7       -1.0621
   8       -1.0621
   9       -0.5410
  10       -0.5410
  11       -0.5410
  12       -0.5410
  13       -0.1217
  14       -0.1217
  15       -0.1217
  16       -0.1217
  17        0.6041
  18        0.6041
  19        0.6041
  20        0.6041
  21        3.9801
  22        3.9801
  23        3.9801
  24        3.9801
  25       13.0159
  26       13.0159
  27       13.0159
  28       13.0159
 
  0.1666667E+00  0.1666667E+00  0.1666667E+00  0.4629630E-02
   1       -3.2084
   2       -2.3351
   3       -2.3351
   4       -2.3351
   5       -2.0415
   6       -2.0415
   7       -2.0415
   8       -0.8964
   9       -0.5595
  10       -0.5595
  11        0.4300
  12        0.4300
  13        0.4859
  14        0.4859
  15        0.4859
  16        0.7990
  17        0.7990
  18        0.7990
  19        1.5192
  20        1.5192
  21        1.5192
  22        5.8439
  23        5.8439
  24        5.8439
  25       12.9313
  26       12.9313
  27       12.9313
  28       14.3415
 
  0.2500000E+00  0.1666667E+00  0.1666667E+00  0.1388889E-01