   4   4   0   0
  0.1558117E+02  0.3964788E-09  0.3964788E-09  0.3964788E-09  0.5000000E-15
  1.000000000000000E-004
  CAR 
 unknown system                          
     24.12110551     -5.19986804  301      7.02080798      1.00000000
     -5.200  0.0000E+00  0.0000E+00
     -5.102  0.0000E+00  0.0000E+00
     -5.004  0.0000E+00  0.0000E+00
     -4.907  0.0000E+00  0.0000E+00
     -4.809  0.0000E+00  0.0000E+00
     -4.711  0.0000E+00  0.0000E+00
     -4.613  0.0000E+00  0.0000E+00
     -4.516  0.0000E+00  0.0000E+00
     -4.418  0.0000E+00  0.0000E+00
     -4.320  0.0000E+00  0.0000E+00
     -4.223  0.0000E+00  0.0000E+00
     -4.125  0.0000E+00  0.0000E+00
     -4.027  0.0000E+00  0.0000E+00
     -3.929  0.0000E+00  0.0000E+00
     -3.832  0.1214E-01  0.1187E-02
     -3.734  0.6796E-01  0.9086E-02
     -3.636  0.9612E-01  0.2015E-01
     -3.538  0.1332E+00  0.3510E-01
     -3.441  0.1499E+00  0.5302E-01
     -3.343  0.1596E+00  0.7377E-01
     -3.245  0.1684E+00  0.9324E-01
     -3.147  0.2066E+00  0.1199E+00
     -3.050  0.2100E+00  0.1447E+00
     -2.952  0.2473E+00  0.1713E+00
     -2.854  0.2829E+00  0.2051E+00
     -2.756  0.2663E+00  0.2359E+00
     -2.659  0.2871E+00  0.2719E+00
     -2.561  0.2905E+00  0.3070E+00
     -2.463  0.3630E+00  0.3484E+00
     -2.366  0.3570E+00  0.3902E+00
     -2.268  0.3992E+00  0.4340E+00
     -2.170  0.4657E+00  0.4839E+00
     -2.072  0.4378E+00  0.5319E+00
     -1.975  0.4525E+00  0.5856E+00
     -1.877  0.4931E+00  0.6441E+00
     -1.779  0.4964E+00  0.7026E+00
     -1.681  0.5626E+00  0.7724E+00
     -1.584  0.6410E+00  0.8475E+00
     -1.486  0.6344E+00  0.9230E+00
     -1.388  0.9280E+00  0.1024E+01
     -1.290  0.9196E+00  0.1127E+01
     -1.193  0.1689E+01  0.1312E+01
     -1.095  0.2076E+01  0.1539E+01
     -0.997  0.2081E+01  0.1783E+01
     -0.899  0.2685E+01  0.2090E+01
     -0.802  0.2875E+01  0.2426E+01
     -0.704  0.3473E+01  0.2830E+01
     -0.606  0.4119E+01  0.3314E+01
     -0.509  0.4716E+01  0.3887E+01
     -0.411  0.5291E+01  0.4517E+01
     -0.313  0.5607E+01  0.5204E+01
     -0.215  0.5494E+01  0.5879E+01
     -0.118  0.5205E+01  0.6513E+01
     -0.020  0.5172E+01  0.7124E+01
      0.078  0.4969E+01  0.7713E+01
      0.176  0.4801E+01  0.8274E+01
      0.273  0.4648E+01  0.8843E+01
      0.371  0.4106E+01  0.9360E+01
      0.469  0.3621E+01  0.9795E+01
      0.567  0.3291E+01  0.1019E+02
      0.664  0.3812E+01  0.1063E+02
      0.762  0.4535E+01  0.1118E+02
      0.860  0.4937E+01  0.1179E+02
      0.958  0.4982E+01  0.1239E+02
      1.055  0.5423E+01  0.1304E+02
      1.153  0.5301E+01  0.1370E+02
      1.251  0.5413E+01  0.1436E+02
      1.348  0.5285E+01  0.1499E+02
      1.446  0.5643E+01  0.1567E+02
      1.544  0.5226E+01  0.1632E+02
      1.642  0.6128E+01  0.1706E+02
      1.739  0.6510E+01  0.1781E+02
      1.837  0.7092E+01  0.1866E+02
      1.935  0.7638E+01  0.1956E+02
      2.033  0.9194E+01  0.2065E+02
      2.130  0.1036E+02  0.2188E+02
      2.228  0.7110E+01  0.2277E+02
      2.326  0.5673E+01  0.2344E+02
      2.424  0.5122E+01  0.2405E+02
      2.521  0.5072E+01  0.2464E+02
      2.619  0.4673E+01  0.2520E+02
      2.717  0.4430E+01  0.2574E+02
      2.815  0.4347E+01  0.2625E+02
      2.912  0.4492E+01  0.2679E+02
      3.010  0.5209E+01  0.2741E+02
      3.108  0.5692E+01  0.2808E+02
      3.205  0.5655E+01  0.2875E+02
      3.303  0.6256E+01  0.2946E+02
      3.401  0.6393E+01  0.3022E+02
      3.499  0.5223E+01  0.3085E+02
      3.596  0.5579E+01  0.3151E+02
      3.694  0.4847E+01  0.3210E+02
      3.792  0.4599E+01  0.3265E+02
      3.890  0.4631E+01  0.3320E+02
      3.987  0.4523E+01  0.3373E+02
      4.085  0.4780E+01  0.3427E+02
      4.183  0.4378E+01  0.3479E+02
      4.281  0.4652E+01  0.3534E+02
      4.378  0.4579E+01  0.3589E+02
      4.476  0.4949E+01  0.3648E+02
      4.574  0.5674E+01  0.3713E+02
      4.672  0.6025E+01  0.3784E+02
      4.769  0.7412E+01  0.3871E+02
      4.867  0.8485E+01  0.3975E+02
      4.965  0.7246E+01  0.4064E+02
      5.062  0.5215E+01  0.4126E+02
      5.160  0.3612E+01  0.4170E+02
      5.258  0.2798E+01  0.4207E+02
      5.356  0.1187E+01  0.4226E+02
      5.453  0.4307E+00  0.4233E+02
      5.551  0.1401E+01  0.4248E+02
      5.649  0.5290E+00  0.4254E+02
      5.747  0.1163E+01  0.4267E+02
      5.844  0.6686E+00  0.4276E+02
      5.942  0.9209E+00  0.4286E+02
      6.040  0.8302E+00  0.4297E+02
      6.138  0.6849E+00  0.4305E+02
      6.235  0.8859E+00  0.4317E+02
      6.333  0.7416E+00  0.4326E+02
      6.431  0.9602E+00  0.4338E+02
      6.529  0.7713E+00  0.4347E+02
      6.626  0.1042E+01  0.4359E+02
      6.724  0.7503E+00  0.4367E+02
      6.822  0.1048E+01  0.4379E+02
      6.919  0.7473E+00  0.4388E+02
      7.017  0.1016E+01  0.4400E+02
      7.115  0.7010E+00  0.4408E+02
      7.213  0.7514E+00  0.4419E+02
      7.310  0.8027E+00  0.4430E+02
      7.408  0.7757E+00  0.4439E+02
      7.506  0.9396E+00  0.4450E+02
      7.604  0.9079E+00  0.4461E+02
      7.701  0.7479E+00  0.4469E+02
      7.799  0.9703E+00  0.4481E+02
      7.897  0.7138E+00  0.4490E+02
      7.995  0.9588E+00  0.4502E+02
      8.092  0.8648E+00  0.4512E+02
      8.190  0.7886E+00  0.4521E+02
      8.288  0.8035E+00  0.4531E+02
      8.386  0.8732E+00  0.4542E+02
      8.483  0.8515E+00  0.4551E+02
      8.581  0.8710E+00  0.4561E+02
      8.679  0.8361E+00  0.4571E+02
      8.776  0.8287E+00  0.4581E+02
      8.874  0.8062E+00  0.4590E+02
      8.972  0.8334E+00  0.4599E+02
      9.070  0.7322E+00  0.4608E+02
      9.167  0.7303E+00  0.4617E+02
      9.265  0.8455E+00  0.4627E+02
      9.363  0.7702E+00  0.4636E+02
      9.461  0.7030E+00  0.4644E+02
      9.558  0.7624E+00  0.4653E+02
      9.656  0.7130E+00  0.4662E+02
      9.754  0.6132E+00  0.4669E+02
      9.852  0.6821E+00  0.4678E+02
      9.949  0.5804E+00  0.4686E+02
     10.047  0.7335E+00  0.4694E+02
     10.145  0.6756E+00  0.4702E+02
     10.243  0.6243E+00  0.4710E+02
     10.340  0.6932E+00  0.4718E+02
     10.438  0.5052E+00  0.4724E+02
     10.536  0.1247E+01  0.4739E+02
     10.633  0.1644E+01  0.4758E+02
     10.731  0.1520E+01  0.4777E+02
     10.829  0.1204E+01  0.4790E+02
     10.927  0.1026E+01  0.4804E+02
     11.024  0.1196E+01  0.4817E+02
     11.122  0.1137E+01  0.4829E+02
     11.220  0.8872E+00  0.4840E+02
     11.318  0.9633E+00  0.4852E+02
     11.415  0.8689E+00  0.4862E+02
     11.513  0.1123E+01  0.4873E+02
     11.611  0.9637E+00  0.4884E+02
     11.709  0.5637E+00  0.4892E+02
     11.806  0.9950E+00  0.4903E+02
     11.904  0.9709E+00  0.4915E+02
     12.002  0.9318E+00  0.4925E+02
     12.100  0.9594E+00  0.4938E+02
     12.197  0.8329E+00  0.4948E+02
     12.295  0.1057E+01  0.4960E+02
     12.393  0.9605E+00  0.4972E+02
     12.490  0.1054E+01  0.4984E+02
     12.588  0.1006E+01  0.4995E+02
     12.686  0.9397E+00  0.5007E+02
     12.784  0.1150E+01  0.5021E+02
     12.881  0.1117E+01  0.5034E+02
     12.979  0.9870E+00  0.5045E+02
     13.077  0.1163E+01  0.5059E+02
     13.175  0.9261E+00  0.5071E+02
     13.272  0.1134E+01  0.5085E+02
     13.370  0.1050E+01  0.5098E+02
     13.468  0.1131E+01  0.5111E+02
     13.566  0.1152E+01  0.5125E+02
     13.663  0.5467E+00  0.5132E+02
     13.761  0.1293E+01  0.5148E+02
     13.859  0.8503E+00  0.5157E+02
     13.957  0.9554E+00  0.5168E+02
     14.054  0.8178E+00  0.5178E+02
     14.152  0.8334E+00  0.5189E+02
     14.250  0.9886E+00  0.5200E+02
     14.347  0.7407E+00  0.5209E+02
     14.445  0.8676E+00  0.5220E+02
     14.543  0.9930E+00  0.5231E+02
     14.641  0.7814E+00  0.5240E+02
     14.738  0.1112E+01  0.5253E+02
     14.836  0.1137E+01  0.5266E+02
     14.934  0.1040E+01  0.5278E+02
     15.032  0.1226E+01  0.5292E+02
     15.129  0.1107E+01  0.5305E+02
     15.227  0.9171E+00  0.5318E+02
     15.325  0.1081E+01  0.5330E+02
     15.423  0.1310E+01  0.5346E+02
     15.520  0.1053E+01  0.5358E+02
     15.618  0.1074E+01  0.5372E+02
     15.716  0.1047E+01  0.5384E+02
     15.813  0.1009E+01  0.5397E+02
     15.911  0.1286E+01  0.5412E+02
     16.009  0.1266E+01  0.5426E+02
     16.107  0.8705E+00  0.5438E+02
     16.204  0.9685E+00  0.5449E+02
     16.302  0.1264E+01  0.5464E+02
     16.400  0.1170E+01  0.5478E+02
     16.498  0.1147E+01  0.5491E+02
     16.595  0.1184E+01  0.5506E+02
     16.693  0.9668E+00  0.5517E+02
     16.791  0.1100E+01  0.5531E+02
     16.889  0.1328E+01  0.5545E+02
     16.986  0.1221E+01  0.5560E+02
     17.084  0.1128E+01  0.5573E+02
     17.182  0.1264E+01  0.5588E+02
     17.280  0.1267E+01  0.5603E+02
     17.377  0.1421E+01  0.5621E+02
     17.475  0.1574E+01  0.5638E+02
     17.573  0.1387E+01  0.5657E+02
     17.670  0.1401E+01  0.5674E+02
     17.768  0.1288E+01  0.5690E+02
     17.866  0.1476E+01  0.5708E+02
     17.964  0.1651E+01  0.5728E+02
     18.061  0.1370E+01  0.5745E+02
     18.159  0.1795E+01  0.5765E+02
     18.257  0.1256E+01  0.5780E+02
     18.355  0.1308E+01  0.5796E+02
     18.452  0.1633E+01  0.5815E+02
     18.550  0.1634E+01  0.5835E+02
     18.648  0.1184E+01  0.5850E+02
     18.746  0.1317E+01  0.5866E+02
     18.843  0.1420E+01  0.5884E+02
     18.941  0.1580E+01  0.5901E+02
     19.039  0.1452E+01  0.5919E+02
     19.137  0.1481E+01  0.5936E+02
     19.234  0.1235E+01  0.5951E+02
     19.332  0.1606E+01  0.5969E+02
     19.430  0.1287E+01  0.5984E+02
     19.527  0.1643E+01  0.6003E+02
     19.625  0.1190E+01  0.6018E+02
     19.723  0.1394E+01  0.6035E+02
     19.821  0.1467E+01  0.6053E+02
     19.918  0.1271E+01  0.6069E+02
     20.016  0.1375E+01  0.6085E+02
     20.114  0.1559E+01  0.6102E+02
     20.212  0.1314E+01  0.6118E+02
     20.309  0.1343E+01  0.6134E+02
     20.407  0.1176E+01  0.6148E+02
     20.505  0.1272E+01  0.6164E+02
     20.603  0.1104E+01  0.6179E+02
     20.700  0.9869E+00  0.6191E+02
     20.798  0.1123E+01  0.6204E+02
     20.896  0.1061E+01  0.6217E+02
     20.994  0.9772E+00  0.6228E+02
     21.091  0.8879E+00  0.6239E+02
     21.189  0.9200E+00  0.6251E+02
     21.287  0.9648E+00  0.6262E+02
     21.384  0.8839E+00  0.6272E+02
     21.482  0.7864E+00  0.6282E+02
     21.580  0.7634E+00  0.6292E+02
     21.678  0.1051E+01  0.6305E+02
     21.775  0.1518E+01  0.6322E+02
     21.873  0.1725E+01  0.6344E+02
     21.971  0.1237E+01  0.6358E+02
     22.069  0.1082E+01  0.6372E+02
     22.166  0.7035E+00  0.6381E+02
     22.264  0.7619E+00  0.6390E+02
     22.362  0.5026E+00  0.6396E+02
     22.460  0.1764E+00  0.6399E+02
     22.557  0.5612E-01  0.6399E+02
     22.655  0.4560E-01  0.6400E+02
     22.753  0.2530E-01  0.6400E+02
     22.851  0.1053E-01  0.6400E+02
     22.948  0.0000E+00  0.6400E+02
     23.046  0.0000E+00  0.6400E+02
     23.144  0.0000E+00  0.6400E+02
     23.241  0.0000E+00  0.6400E+02
     23.339  0.0000E+00  0.6400E+02
     23.437  0.0000E+00  0.6400E+02
     23.535  0.0000E+00  0.6400E+02
     23.632  0.0000E+00  0.6400E+02
     23.730  0.0000E+00  0.6400E+02
     23.828  0.0000E+00  0.6400E+02
     23.926  0.0000E+00  0.6400E+02
     24.023  0.0000E+00  0.6400E+02
     24.121  0.0000E+00  0.6400E+02
