    4    4    1    1
  0.1558117E+02  0.3964788E-09  0.3964788E-09  0.3964788E-09  0.5000000E-15
  1.000000000000000E-004
  CAR 
 unknown system                          
   44 1330   32
 
  0.0000000E+00  0.0000000E+00  0.0000000E+00  0.2143347E-04
   1       -3.8671
   2       -1.0338
   3       -1.0338
   4       -1.0338
   5       -0.6763
   6       -0.6763
   7       -0.6763
   8        1.7149
   9        1.7149
  10        1.7149
  11        3.4935
  12        3.4935
  13        4.8512
  14        4.8512
  15        4.8512
  16        5.2781
  17        5.2781
  18        5.2781
  19        5.2781
  20        5.2781
  21        5.2781
  22        7.7606
  23        7.7606
  24        7.7606
  25       13.5767
  26       13.5767
  27       13.5767
  28       17.5123
  29       17.5123
  30       17.5123
  31       17.5123
  32       17.5123
 
  0.2777778E-01  0.0000000E+00  0.0000000E+00  0.1286008E-03
   1       -3.8573
   2       -1.0299
   3       -1.0269
   4       -1.0269
   5       -0.6725
   6       -0.6705
   7       -0.6705
   8        1.7093
   9        1.7196
  10        1.7196
  11        3.4874
  12        3.4958
  13        4.8424
  14        4.8424
  15        4.8484
  16        5.2290
  17        5.2290
  18        5.2674
  19        5.2674
  20        5.2782
  21        5.2782
  22        7.6921
  23        7.8160
  24        7.8160
  25       13.5647
  26       13.5647
  27       13.6612
  28       17.4984
  29       17.4985
  30       17.5058
  31       17.5058
  32       17.5337
 
  0.5555556E-01  0.0000000E+00  0.0000000E+00  0.1286008E-03
   1       -3.8277
   2       -1.0185
   3       -1.0064
   4       -1.0064
   5       -0.6612
   6       -0.6532
   7       -0.6532
   8        1.6926
   9        1.7337
  10        1.7337
  11        3.4692
  12        3.5029
  13        4.8161
  14        4.8161
  15        4.8399
  16        5.0931
  17        5.0931
  18        5.2353
  19        5.2353
  20        5.2782
  21        5.2782
  22        7.4978
  23        7.9704
  24        7.9704
  25       13.5291
  26       13.5291
  27       13.9034
  28       17.4568
  29       17.4568
  30       17.4870
  31       17.4870
  32       17.5977
 
  0.8333333E-01  0.0000000E+00  0.0000000E+00  0.1286008E-03
   1       -3.7786
   2       -0.9999
   3       -0.9724
   4       -0.9724
   5       -0.6424
   6       -0.6243
   7       -0.6243
   8        1.6649
   9        1.7572
  10        1.7572
  11        3.4392
  12        3.5146
  13        4.7727
  14        4.7727
  15        4.8258
  16        4.8954
  17        4.8954
  18        5.1828
  19        5.1828
  20        5.2783
  21        5.2783
  22        7.2048
  23        8.1991
  24        8.1991
  25       13.4719
  26       13.4719
  27       14.2764
  28       17.3877
  29       17.3877
  30       17.4578
  31       17.4578
  32       17.7033
 
  0.1111111E+00  0.0000000E+00  0.0000000E+00  0.1286008E-03
   1       -3.7101
   2       -0.9746
   3       -0.9254
   4       -0.9254
   5       -0.6161
   6       -0.5839
   7       -0.5839
   8        1.6267
   9        1.7901
  10        1.7901
  11        3.3979
  12        3.5309
  13        4.6591
  14        4.6591
  15        4.7125
  16        4.7125
  17        4.8063
  18        5.1111
  19        5.1111
  20        5.2784
  21        5.2784
  22        6.8437
  23        8.4786
  24        8.4786
  25       13.3961
  26       13.3961
  27       14.7501
  28       17.2915
  29       17.2915
  30       17.4206
  31       17.4206
  32       17.8492
 
  0.1388889E+00  0.0000000E+00  0.0000000E+00  0.1286008E-03
   1       -3.6227
   2       -0.9436
   3       -0.8658
   4       -0.8658
   5       -0.5825
   6       -0.5320
   7       -0.5320
   8        1.5785
   9        1.8322
  10        1.8322
  11        3.3459
  12        3.5518
  13        4.4008
  14        4.4008
  15        4.6363
  16        4.6363
  17        4.7815
  18        5.0218
  19        5.0218
  20        5.2786
  21        5.2786
  22        6.4402
  23        8.7920
  24        8.7920
  25       13.3055
  26       13.3055
  27       15.2993
  28       17.1685
  29       17.1685
  30       17.3782
  31       17.3782
  32       18.0335
 
  0.1666667E+00  0.0000000E+00  0.0000000E+00  0.1286008E-03
   1       -3.5166
   2       -0.9082
   3       -0.7946
   4       -0.7946
   5       -0.5418
   6       -0.4687
   7       -0.4687
   8        1.5209
   9        1.8835
  10        1.8835
  11        3.2840
  12        3.5770
  13        4.1311
  14        4.1311
  15        4.5452
  16        4.5452
  17        4.7518
  18        4.9169
  19        4.9169
  20        5.2788
  21        5.2788
  22        6.0139
  23        9.1286
  24        9.1286
  25       13.2044
  26       13.2044
  27       15.9052
  28       17.0196
  29       17.0196
  30       17.3332
  31       17.3332
  32       18.2540
 
  0.1944444E+00  0.0000000E+00  0.0000000E+00  0.1286008E-03
   1       -3.3924
   2       -0.8699
   3       -0.7126
   4       -0.7126
   5       -0.4941
   6       -0.3939
   7       -0.3939
   8        1.4546
   9        1.9438
  10        1.9438
  11        3.2133
  12        3.6064
  13        3.8566
  14        3.8566
  15        4.4405
  16        4.4405
  17        4.7173
  18        4.7983
  19        4.7983
  20        5.2790
  21        5.2790
  22        5.5791
  23        9.4814
  24        9.4814
  25       13.0970
  26       13.0970
  27       16.5544
  28       16.8455
  29       16.8455
  30       17.2877
  31       17.2877
  32       18.5083
 
  0.2222222E+00  0.0000000E+00  0.0000000E+00  0.1286008E-03
   1       -3.2509
   2       -0.8308
   3       -0.6212
   4       -0.6212
   5       -0.4396
   6       -0.3078
   7       -0.3078
   8        1.3804
   9        2.0131
  10        2.0131
  11        3.1352
  12        3.5815
  13        3.5815
  14        3.6399
  15        4.3241
  16        4.3241
  17        4.6683
  18        4.6683
  19        4.6785
  20        5.1467
  21        5.2792
  22        5.2792
  23        9.8459
  24        9.8459
  25       12.9875
  26       12.9875
  27       16.6473
  28       16.6473
  29       17.2376
  30       17.2432
  31       17.2432
  32       18.7938
 
  0.2500000E+00  0.0000000E+00  0.0000000E+00  0.1286008E-03
   1       -3.0930
   2       -0.7939
   3       -0.5219
   4       -0.5219
   5       -0.3785
   6       -0.2104
   7       -0.2104
   8        1.2991
   9        2.0912
  10        2.0912
  11        3.0513
  12        3.3087
  13        3.3087
  14        3.6773
  15        4.1982
  16        4.1982
  17        4.5289
  18        4.5289
  19        4.6357
  20        4.7252
  21        5.2794
  22        5.2794
  23       10.2188
  24       10.2188
  25       12.8796
  26       12.8796
  27       16.4261
  28       16.4261
  29       17.2010
  30       17.2010
  31       17.9478
  32       19.1077
 
  0.2777778E+00  0.0000000E+00  0.0000000E+00  0.1286008E-03
   1       -2.9198
   2       -0.7624
   3       -0.4168
   4       -0.4168
   5       -0.3113
   6       -0.1018
   7       -0.1018
   8        1.2117
   9        2.1779
  10        2.1779
  11        2.9633
  12        3.0401
  13        3.0401
  14        3.7182
  15        4.0657
  16        4.0657
  17        4.3221
  18        4.3822
  19        4.3822
  20        4.5892
  21        5.2796
  22        5.2796
  23       10.5975
  24       10.5975
  25       12.7766
  26       12.7766
  27       16.1832
  28       16.1832
  29       17.1620
  30       17.1620
  31       18.6796
  32       19.4475
 
  0.3055556E+00  0.0000000E+00  0.0000000E+00  0.1286008E-03
   1       -2.7328
   2       -0.7408
   3       -0.3084
   4       -0.3084
   5       -0.2381
   6        0.0180
   7        0.0180
   8        1.1192
   9        2.2730
  10        2.2730
  11        2.7771
  12        2.7771
  13        2.8736
  14        3.7626
  15        3.9298
  16        3.9298
  17        3.9443
  18        4.2301
  19        4.2301
  20        4.5395
  21        5.2798
  22        5.2798
  23       10.9802
  24       10.9802
  25       12.6812
  26       12.6812
  27       15.9200
  28       15.9200
  29       17.1266
  30       17.1266
  31       19.4283
  32       19.8103
 
  0.3333333E+00  0.0000000E+00  0.0000000E+00  0.1286008E-03
   1       -2.5338
   2       -0.7342
   3       -0.1996
   4       -0.1996
   5       -0.1594
   6        0.1488
   7        0.1488
   8        1.0224
   9        2.3762
  10        2.3762
  11        2.5209
  12        2.5209
  13        2.7849
  14        3.5989
  15        3.7947
  16        3.7947
  17        3.8100
  18        4.0744
  19        4.0744
  20        4.4871
  21        5.2800
  22        5.2800
  23       11.3652
  24       11.3652
  25       12.5954
  26       12.5954
  27       15.6380
  28       15.6380
  29       17.0953
  30       17.0953
  31       20.1931
  32       20.1934
 
  0.3611111E+00  0.0000000E+00  0.0000000E+00  0.1286008E-03
   1       -2.3252
   2       -0.7485
   3       -0.0944
   4       -0.0944
   5       -0.0756
   6        0.2905
   7        0.2905
   8        0.9222
   9        2.2720
  10        2.2720
  11        2.4872
  12        2.4872
  13        2.7003
  14        3.2928
  15        3.6651
  16        3.6651
  17        3.8602
  18        3.9168
  19        3.9168
  20        4.4324
  21        5.2802
  22        5.2802
  23       11.7509
  24       11.7509
  25       12.5208
  26       12.5208
  27       15.3389
  28       15.3389
  29       17.0684
  30       17.0684
  31       20.5942
  32       20.5942
 
  0.3888889E+00  0.0000000E+00  0.0000000E+00  0.1286008E-03
   1       -2.1101
   2       -0.7896
   3        0.0027
   4        0.0027
   5        0.0129
   6        0.4430
   7        0.4430
   8        0.8197
   9        2.0313
  10        2.0313
  11        2.6057
  12        2.6057
  13        2.6240
  14        3.0327
  15        3.5465
  16        3.5465
  17        3.7586
  18        3.7586
  19        3.9129
  20        4.3758
  21        5.2803
  22        5.2803
  23       12.1359
  24       12.1359
  25       12.4586
  26       12.4586
  27       15.0242
  28       15.0242
  29       17.0461
  30       17.0461
  31       21.0096
  32       21.0096
 
  0.4166667E+00  0.0000000E+00  0.0000000E+00  0.1286008E-03
   1       -1.8924
   2       -0.8623
   3        0.0866
   4        0.0866
   5        0.1056
   6        0.6062
   7        0.6062
   8        0.7157
   9        1.7992
  10        1.7992
  11        2.5605
  12        2.7312
  13        2.7312
  14        2.8236
  15        3.4449
  16        3.4449
  17        3.6013
  18        3.6013
  19        3.9677
  20        4.3179
  21        5.2804
  22        5.2804
  23       12.4096
  24       12.4096
  25       12.5189
  26       12.5189
  27       14.6956
  28       14.6956
  29       17.0286
  30       17.0286
  31       21.4369
  32       21.4369
 
  0.4444444E+00  0.0000000E+00  0.0000000E+00  0.1286008E-03
   1       -1.6770
   2       -0.9691
   3        0.1519
   4        0.1519
   5        0.2020
   6        0.6110
   7        0.7799
   8        0.7799
   9        1.5760
  10        1.5760
  11        2.5157
  12        2.6681
  13        2.8634
  14        2.8634
  15        3.3664
  16        3.3664
  17        3.4459
  18        3.4459
  19        4.0242
  20        4.2591
  21        5.2805
  22        5.2805
  23       12.3742
  24       12.3742
  25       12.8985
  26       12.8985
  27       14.3546
  28       14.3546
  29       17.0160
  30       17.0160
  31       21.8728
  32       21.8728
 
  0.4722222E+00  0.0000000E+00  0.0000000E+00  0.1286008E-03
   1       -1.4699
   2       -1.1092
   3        0.1936
   4        0.1936
   5        0.3013
   6        0.5066
   7        0.9640
   8        0.9640
   9        1.3622
  10        1.3622
  11        2.4964
  12        2.5652
  13        3.0016
  14        3.0016
  15        3.2936
  16        3.2936
  17        3.3166
  18        3.3166
  19        4.0820
  20        4.1999
  21        5.2806
  22        5.2806
  23       12.3529
  24       12.3529
  25       13.2733
  26       13.2733
  27       14.0028
  28       14.0028
  29       17.0084
  30       17.0084
  31       22.3140
  32       22.3140
 
  0.5000000E+00  0.0000000E+00  0.0000000E+00  0.6430041E-04
   1       -1.2783
   2       -1.2783
   3        0.2079
   4        0.2079
   5        0.4031
   6        0.4031
   7        1.1581
   8        1.1581
   9        1.1581
  10        1.1581
  11        2.5103
  12        2.5103
  13        3.1452
  14        3.1452
  15        3.1452
  16        3.1452
  17        3.2995
  18        3.2995
  19        4.1407
  20        4.1407
  21        5.2806
  22        5.2806
  23       12.3458
  24       12.3458
  25       13.6419
  26       13.6419
  27       13.6419
  28       13.6419
  29       17.0059
  30       17.0059
  31       22.7569
  32       22.7569
 
  0.2777778E-01  0.2777778E-01  0.0000000E+00  0.2572016E-03
   1       -3.8474
   2       -1.0231
   3       -1.0231
   4       -1.0201
   5       -0.6668
   6       -0.6668
   7       -0.6647
   8        1.7066
   9        1.7214
  10        1.7243
  11        3.4856
  12        3.4940
  13        4.8337
  14        4.8392
  15        4.8392
  16        5.1886
  17        5.2181
  18        5.2181
  19        5.2674
  20        5.2674
  21        5.2713
  22        7.7477
  23        7.7477
  24        7.8695
  25       13.5523
  26       13.6491
  27       13.6491
  28       17.4322
  29       17.5198
  30       17.5199
  31       17.5273
  32       17.5275
 
  0.5555556E-01  0.2777778E-01  0.0000000E+00  0.5144033E-03
   1       -3.8179
   2       -1.0116
   3       -1.0025
   4       -0.9999
   5       -0.6555
   6       -0.6495
   7       -0.6472
   8        1.6914
   9        1.7340
  10        1.7382
  11        3.4691
  12        3.4995
  13        4.8076
  14        4.8113
  15        4.8295
  16        5.0609
  17        5.0828
  18        5.1857
  19        5.2353
  20        5.2674
  21        5.2675
  22        7.5545
  23        7.9026
  24        8.0197
  25       13.5161
  26       13.6135
  27       13.8911
  28       17.3453
  29       17.4781
  30       17.5087
  31       17.5834
  32       17.5837
 
  0.8333333E-01  0.2777778E-01  0.0000000E+00  0.5144033E-03
   1       -3.7688
   2       -0.9929
   3       -0.9685
   4       -0.9664
   5       -0.6367
   6       -0.6206
   7       -0.6180
   8        1.6642
   9        1.7572
  10        1.7615
  11        3.4395
  12        3.5112
  13        4.7604
  14        4.7644
  15        4.8132
  16        4.8693
  17        4.8916
  18        5.1327
  19        5.1828
  20        5.2665
  21        5.2675
  22        7.2638
  23        8.1312
  24        8.2434
  25       13.4578
  26       13.5564
  27       14.2634
  28       17.2431
  29       17.4089
  30       17.4797
  31       17.5931
  32       17.6897
 
  0.1111111E+00  0.2777778E-01  0.0000000E+00  0.5144033E-03
   1       -3.7005
   2       -0.9676
   3       -0.9214
   4       -0.9200
   5       -0.6105
   6       -0.5803
   7       -0.5771
   8        1.6263
   9        1.7899
  10        1.7940
  11        3.3985
  12        3.5276
  13        4.6228
  14        4.6380
  15        4.7047
  16        4.7323
  17        4.7897
  18        5.0606
  19        5.1111
  20        5.2662
  21        5.2676
  22        6.9068
  23        8.4094
  24        8.5182
  25       13.3804
  26       13.4809
  27       14.7357
  28       17.1266
  29       17.3125
  30       17.4430
  31       17.5832
  32       17.8357
 
  0.1388889E+00  0.2777778E-01  0.0000000E+00  0.5144033E-03
   1       -3.6131
   2       -0.9366
   3       -0.8618
   4       -0.8614
   5       -0.5770
   6       -0.5285
   7       -0.5247
   8        1.5783
   9        1.8320
  10        1.8357
  11        3.3467
  12        3.5487
  13        4.3756
  14        4.3838
  15        4.6290
  16        4.6449
  17        4.7573
  18        4.9720
  19        5.0218
  20        5.2662
  21        5.2677
  22        6.5101
  23        8.7205
  24        8.8277
  25       13.2880
  26       13.3910
  27       15.2825
  28       16.9960
  29       17.1894
  30       17.4013
  31       17.5562
  32       18.0190
 
  0.1666667E+00  0.2777778E-01  0.0000000E+00  0.5144033E-03
   1       -3.5072
   2       -0.9010
   3       -0.7911
   4       -0.7905
   5       -0.5363
   6       -0.4652
   7       -0.4607
   8        1.5209
   9        1.8832
  10        1.8864
  11        3.2852
  12        3.5743
  13        4.1083
  14        4.1174
  15        4.5385
  16        4.5518
  17        4.7108
  18        4.8728
  19        4.9168
  20        5.2663
  21        5.2679
  22        6.0949
  23        9.0535
  24        9.1612
  25       13.1845
  26       13.2912
  27       15.8846
  28       16.8503
  29       17.0402
  30       17.3572
  31       17.5157
  32       18.2394
 
  0.1944444E+00  0.2777778E-01  0.0000000E+00  0.5144033E-03
   1       -3.3832
   2       -0.8627
   3       -0.7103
   4       -0.7085
   5       -0.4887
   6       -0.3905
   7       -0.3852
   8        1.4548
   9        1.9436
  10        1.9460
  11        3.2150
  12        3.6042
  13        3.8350
  14        3.8455
  15        4.4345
  16        4.4466
  17        4.6341
  18        4.7784
  19        4.7982
  20        5.2665
  21        5.2680
  22        5.6785
  23        9.4012
  24        9.5115
  25       13.0746
  26       13.1861
  27       16.5284
  28       16.6878
  29       16.8659
  30       17.3127
  31       17.4660
  32       18.4932
 
  0.2222222E+00  0.2777778E-01  0.0000000E+00  0.5144033E-03
   1       -3.2419
   2       -0.8236
   3       -0.6200
   4       -0.6169
   5       -0.4343
   6       -0.3046
   7       -0.2984
   8        1.3808
   9        2.0129
  10        2.0143
  11        3.1376
  12        3.5609
  13        3.5725
  14        3.6381
  15        4.3188
  16        4.3301
  17        4.5066
  18        4.6682
  19        4.7046
  20        5.2667
  21        5.2682
  22        5.2789
  23        9.7587
  24        9.8740
  25       12.9623
  26       13.0804
  27       16.5066
  28       16.6674
  29       17.2034
  30       17.2696
  31       17.4114
  32       18.7815
 
  0.2500000E+00  0.2777778E-01  0.0000000E+00  0.5144033E-03
   1       -3.0842
   2       -0.7865
   3       -0.5218
   4       -0.5175
   5       -0.3734
   6       -0.2073
   7       -0.2005
   8        1.2998
   9        2.0910
  10        2.0910
  11        3.0546
  12        3.2890
  13        3.3015
  14        3.6760
  15        4.1936
  16        4.2043
  17        4.3269
  18        4.5288
  19        4.6376
  20        4.9223
  21        5.2670
  22        5.2683
  23       10.1219
  24       10.2451
  25       12.8513
  26       12.9786
  27       16.3052
  28       16.4460
  29       17.2290
  30       17.3558
  31       17.9008
  32       19.0913
 
  0.2777778E+00  0.2777778E-01  0.0000000E+00  0.5144033E-03
   1       -2.9112
   2       -0.7549
   3       -0.4175
   4       -0.4122
   5       -0.3063
   6       -0.0989
   7       -0.0917
   8        1.2127
   9        2.1757
  10        2.1777
  11        2.9682
  12        3.0214
  13        3.0344
  14        3.7176
  15        4.0617
  16        4.0718
  17        4.0903
  18        4.3820
  19        4.5284
  20        4.6723
  21        5.2673
  22        5.2685
  23       10.4872
  24       10.6225
  25       12.7450
  26       12.8853
  27       16.0829
  28       16.2029
  29       17.1918
  30       17.3020
  31       18.6098
  32       19.4303
 
  0.3055556E+00  0.2777778E-01  0.0000000E+00  0.5144033E-03
   1       -2.7244
   2       -0.7333
   3       -0.3095
   4       -0.3036
   5       -0.2333
   6        0.0207
   7        0.0278
   8        1.1204
   9        2.2675
  10        2.2727
  11        2.7595
  12        2.7727
  13        2.8813
  14        3.7627
  15        3.8056
  16        3.9265
  17        3.9361
  18        4.2299
  19        4.3325
  20        4.5739
  21        5.2675
  22        5.2686
  23       10.8504
  24       11.0040
  25       12.6458
  26       12.8054
  27       15.8400
  28       15.9395
  29       17.1584
  30       17.2520
  31       19.3084
  32       19.7922
 
  0.3333333E+00  0.2777778E-01  0.0000000E+00  0.5144033E-03
   1       -2.5257
   2       -0.7266
   3       -0.2007
   4       -0.1946
   5       -0.1548
   6        0.1513
   7        0.1576
   8        1.0239
   9        2.3645
  10        2.3759
  11        2.5044
  12        2.5174
  13        2.7982
  14        3.5077
  15        3.7922
  16        3.8010
  17        3.8108
  18        4.0742
  19        4.1414
  20        4.5099
  21        5.2678
  22        5.2688
  23       11.2051
  24       11.3880
  25       12.5558
  26       12.7457
  27       15.5774
  28       15.6574
  29       17.1295
  30       17.2071
  31       19.9366
  32       20.1742
 
  0.3611111E+00  0.2777778E-01  0.0000000E+00  0.5144033E-03
   1       -2.3173
   2       -0.7409
   3       -0.0949
   4       -0.0892
   5       -0.0711
   6        0.2928
   7        0.2977
   8        0.9241
   9        2.2568
  10        2.2695
  11        2.4602
  12        2.4869
  13        2.7283
  14        3.2273
  15        3.6633
  16        3.6712
  17        3.8618
  18        3.9165
  19        3.9640
  20        4.4498
  21        5.2681
  22        5.2689
  23       11.5397
  24       11.7729
  25       12.4763
  26       12.7178
  27       15.2967
  28       15.3582
  29       17.1053
  30       17.1679
  31       20.4425
  32       20.5736
 
  0.3888889E+00  0.2777778E-01  0.0000000E+00  0.5144033E-03
   1       -2.1024
   2       -0.7820
   3        0.0033
   4        0.0081
   5        0.0172
   6        0.4450
   7        0.4480
   8        0.8218
   9        2.0175
  10        2.0296
  11        2.5244
  12        2.6054
  13        2.7053
  14        2.9824
  15        3.5455
  16        3.5523
  17        3.7584
  18        3.7945
  19        3.9154
  20        4.3899
  21        5.2683
  22        5.2689
  23       11.8304
  24       12.1573
  25       12.4080
  26       12.7454
  27       14.9998
  28       15.0434
  29       17.0861
  30       17.1347
  31       20.8904
  32       20.9874
 
  0.4166667E+00  0.2777778E-01  0.0000000E+00  0.5144033E-03
   1       -1.8850
   2       -0.8548
   3        0.0886
   4        0.0922
   5        0.1096
   6        0.6079
   7        0.6086
   8        0.7181
   9        1.7870
  10        1.7981
  11        2.5148
  12        2.7310
  13        2.7761
  14        2.7830
  15        3.4447
  16        3.4501
  17        3.6010
  18        3.6304
  19        3.9711
  20        4.3296
  21        5.2685
  22        5.2690
  23       12.0387
  24       12.3512
  25       12.5397
  26       12.8662
  27       14.6893
  28       14.7148
  29       17.0721
  30       17.1077
  31       21.3248
  32       21.4127
 
  0.4444444E+00  0.2777778E-01  0.0000000E+00  0.5144033E-03
   1       -1.6697
   2       -0.9617
   3        0.1552
   4        0.1576
   5        0.2057
   6        0.6137
   7        0.7794
   8        0.7813
   9        1.5657
  10        1.5756
  11        2.4837
  12        2.6339
  13        2.8631
  14        2.8935
  15        3.3671
  16        3.3709
  17        3.4456
  18        3.4712
  19        4.0286
  20        4.2689
  21        5.2687
  22        5.2690
  23       12.1509
  24       12.3052
  25       12.9189
  26       13.0930
  27       14.3679
  28       14.3739
  29       17.0636
  30       17.0869
  31       21.7550
  32       21.8460
 
  0.4722222E+00  0.2777778E-01  0.0000000E+00  0.5144033E-03
   1       -1.4628
   2       -1.1019
   3        0.1980
   4        0.1991
   5        0.3048
   6        0.5096
   7        0.9606
   8        0.9650
   9        1.3540
  10        1.3624
  11        2.4682
  12        2.5351
  13        3.0013
  14        3.0265
  15        3.2933
  16        3.3170
  17        3.3182
  18        3.3202
  19        4.0875
  20        4.2080
  21        5.2688
  22        5.2690
  23       12.2047
  24       12.2686
  25       13.2933
  26       13.3870
  27       14.0223
  28       14.0393
  29       17.0607
  30       17.0722
  31       22.1790
  32       22.2837
 
  0.5000000E+00  0.2777778E-01  0.0000000E+00  0.2572016E-03
   1       -1.2711
   2       -1.2711
   3        0.2131
   4        0.2131
   5        0.4063
   6        0.4063
   7        1.1522
   8        1.1522
   9        1.1587
  10        1.1587
  11        2.4823
  12        2.4823
  13        3.1449
  14        3.1449
  15        3.1683
  16        3.1683
  17        3.3022
  18        3.3022
  19        4.1475
  20        4.1475
  21        5.2689
  22        5.2689
  23       12.2378
  24       12.2378
  25       13.6616
  26       13.6616
  27       13.7091
  28       13.7091
  29       17.0635
  30       17.0635
  31       22.5906
  32       22.5977
 
  0.5555556E-01  0.5555556E-01  0.0000000E+00  0.2572016E-03
   1       -3.7885
   2       -0.9910
   3       -0.9910
   4       -0.9805
   5       -0.6382
   6       -0.6382
   7       -0.6291
   8        1.6822
   9        1.7408
  10        1.7518
  11        3.4621
  12        3.4961
  13        4.7821
  14        4.7963
  15        4.7963
  16        4.9569
  17        5.0526
  18        5.0526
  19        5.2354
  20        5.2354
  21        5.2507
  22        7.7112
  23        7.7112
  24        8.1592
  25       13.4777
  26       13.8551
  27       13.8551
  28       17.2089
  29       17.5418
  30       17.5418
  31       17.5734
  32       17.5734
 
  0.8333333E-01  0.5555556E-01  0.0000000E+00  0.5144033E-03
   1       -3.7396
   2       -0.9722
   3       -0.9569
   4       -0.9484
   5       -0.6195
   6       -0.6095
   7       -0.5989
   8        1.6590
   9        1.7603
  10        1.7744
  11        3.4376
  12        3.5036
  13        4.7233
  14        4.7398
  15        4.7692
  16        4.7872
  17        4.8805
  18        5.0046
  19        5.1828
  20        5.2354
  21        5.2408
  22        7.4247
  23        7.9400
  24        8.3701
  25       13.4161
  26       13.7974
  27       14.2255
  28       17.0645
  29       17.4722
  30       17.5454
  31       17.6469
  32       17.6804
 
  0.1111111E+00  0.5555556E-01  0.0000000E+00  0.5144033E-03
   1       -3.6716
   2       -0.9468
   3       -0.9097
   4       -0.9041
   5       -0.5935
   6       -0.5693
   7       -0.5567
   8        1.6231
   9        1.7913
  10        1.8059
  11        3.3986
  12        3.5193
  13        4.5525
  14        4.5728
  15        4.6813
  16        4.7258
  17        4.7529
  18        4.9435
  19        5.1110
  20        5.2354
  21        5.2358
  22        7.0755
  23        8.2159
  24        8.6328
  25       13.3342
  26       13.7215
  27       14.6936
  28       16.9145
  29       17.3752
  30       17.5102
  31       17.7873
  32       17.7920
 
  0.1388889E+00  0.5555556E-01  0.0000000E+00  0.5144033E-03
   1       -3.5845
   2       -0.9155
   3       -0.8499
   4       -0.8478
   5       -0.5602
   6       -0.5177
   7       -0.5026
   8        1.5764
   9        1.8325
  10        1.8463
  11        3.3483
  12        3.5407
  13        4.3094
  14        4.3317
  15        4.6072
  16        4.6585
  17        4.6615
  18        4.8772
  19        5.0216
  20        5.2334
  21        5.2355
  22        6.6912
  23        8.5217
  24        8.9319
  25       13.2360
  26       13.6318
  27       15.2332
  28       16.7600
  29       17.2515
  30       17.4706
  31       17.8068
  32       17.9752
 
  0.1666667E+00  0.5555556E-01  0.0000000E+00  0.5144033E-03
   1       -3.4790
   2       -0.8798
   3       -0.7805
   4       -0.7783
   5       -0.5198
   6       -0.4547
   7       -0.4368
   8        1.5201
   9        1.8833
  10        1.8952
  11        3.2881
  12        3.5671
  13        4.0451
  14        4.0755
  15        4.5184
  16        4.5594
  17        4.5665
  18        4.8131
  19        4.9166
  20        5.2321
  21        5.2355
  22        6.2939
  23        8.8463
  24        9.2567
  25       13.1259
  26       13.5333
  27       15.8245
  28       16.6008
  29       17.1017
  30       17.4292
  31       17.8029
  32       18.1944
 
  0.1944444E+00  0.5555556E-01  0.0000000E+00  0.5144033E-03
   1       -3.3555
   2       -0.8412
   3       -0.7028
   4       -0.6960
   5       -0.4725
   6       -0.3804
   7       -0.3595
   8        1.4549
   9        1.9434
  10        1.9526
  11        3.2195
  12        3.5981
  13        3.7741
  14        3.8118
  15        4.4163
  16        4.4258
  17        4.4611
  18        4.7522
  19        4.7979
  20        5.2315
  21        5.2355
  22        5.9017
  23        9.1823
  24        9.5999
  25       13.0084
  26       13.4314
  27       16.4353
  28       16.4526
  29       16.9266
  30       17.3881
  31       17.7784
  32       18.4470
 
  0.2222222E+00  0.5555556E-01  0.0000000E+00  0.5144033E-03
   1       -3.2148
   2       -0.8018
   3       -0.6157
   4       -0.6041
   5       -0.4185
   6       -0.2948
   7       -0.2710
   8        1.3818
   9        2.0125
  10        2.0179
  11        3.1441
  12        3.5022
  13        3.5454
  14        3.6335
  15        4.2587
  16        4.3026
  17        4.3450
  18        4.6678
  19        4.6901
  20        5.2313
  21        5.2356
  22        5.5312
  23        9.5243
  24        9.9566
  25       12.8878
  26       13.3314
  27       16.2615
  28       16.7275
  29       17.1051
  30       17.3491
  31       17.7371
  32       18.7304
 
  0.2500000E+00  0.5555556E-01  0.0000000E+00  0.5144033E-03
   1       -3.0577
   2       -0.7644
   3       -0.5205
   4       -0.5043
   5       -0.3580
   6       -0.1980
   7       -0.1718
   8        1.3017
   9        2.0905
  10        2.0906
  11        3.0641