   4   4   0   0
  0.1238582E+02  0.3672780E-09  0.3672780E-09  0.3672780E-09  0.5000000E-15
  1.000000000000000E-004
  CAR 
 unknown system                          
     25.96487172     -7.10203390  301      3.38884723      1.00000000
     -7.102  0.0000E+00  0.0000E+00
     -6.992  0.0000E+00  0.0000E+00
     -6.882  0.0000E+00  0.0000E+00
     -6.771  0.0000E+00  0.0000E+00
     -6.661  0.0000E+00  0.0000E+00
     -6.551  0.0000E+00  0.0000E+00
     -6.441  0.0000E+00  0.0000E+00
     -6.330  0.0000E+00  0.0000E+00
     -6.220  0.0000E+00  0.0000E+00
     -6.110  0.0000E+00  0.0000E+00
     -6.000  0.0000E+00  0.0000E+00
     -5.890  0.0000E+00  0.0000E+00
     -5.779  0.0000E+00  0.0000E+00
     -5.669  0.0000E+00  0.0000E+00
     -5.559  0.6708E-02  0.7394E-03
     -5.449  0.7935E-01  0.1385E-01
     -5.338  0.3963E-01  0.2405E-01
     -5.228  0.3124E+00  0.5849E-01
     -5.118  0.6203E-01  0.6588E-01
     -5.008  0.2615E+00  0.9661E-01
     -4.898  0.1678E+00  0.1256E+00
     -4.787  0.1702E+00  0.1492E+00
     -4.677  0.1355E-03  0.1830E+00
     -4.567  0.3176E+00  0.2223E+00
     -4.457  0.1587E+00  0.2660E+00
     -4.346  0.3175E+00  0.3185E+00
     -4.236  0.2350E-04  0.3360E+00
     -4.126  0.1984E+00  0.3754E+00
     -4.016  0.3703E+00  0.4512E+00
     -3.906  0.4761E+00  0.5036E+00
     -3.795  0.2778E-04  0.5386E+00
     -3.685  0.3568E+00  0.5867E+00
     -3.575  0.3683E+00  0.6579E+00
     -3.465  0.3387E+00  0.7115E+00
     -3.354  0.5505E-01  0.7502E+00
     -3.244  0.7681E+00  0.8638E+00
     -3.134  0.1641E+00  0.9022E+00
     -3.024  0.4765E+00  0.9891E+00
     -2.914  0.2984E+00  0.1028E+01
     -2.803  0.5454E+00  0.1129E+01
     -2.693  0.9273E+00  0.1233E+01
     -2.583  0.4759E+00  0.1323E+01
     -2.473  0.4755E+00  0.1375E+01
     -2.362  0.3219E+00  0.1446E+01
     -2.252  0.5273E+00  0.1556E+01
     -2.142  0.9289E+00  0.1710E+01
     -2.032  0.1163E+01  0.1840E+01
     -1.922  0.7915E+00  0.1928E+01
     -1.811  0.8548E+00  0.2048E+01
     -1.701  0.1273E+01  0.2252E+01
     -1.591  0.1270E+01  0.2431E+01
     -1.481  0.1046E+01  0.2581E+01
     -1.370  0.1792E+01  0.2931E+01
     -1.260  0.3480E+01  0.3352E+01
     -1.150  0.3218E+01  0.3794E+01
     -1.040  0.3816E+01  0.4375E+01
     -0.930  0.3950E+01  0.4950E+01
     -0.819  0.3702E+01  0.5544E+01
     -0.709  0.5064E+01  0.6304E+01
     -0.599  0.6624E+01  0.7285E+01
     -0.489  0.8139E+01  0.8423E+01
     -0.378  0.7024E+01  0.9476E+01
     -0.268  0.5284E+01  0.1040E+02
     -0.158  0.6905E+01  0.1147E+02
     -0.048  0.5752E+01  0.1238E+02
      0.062  0.8746E+01  0.1359E+02
      0.173  0.8997E+01  0.1480E+02
      0.283  0.1095E+02  0.1640E+02
      0.393  0.9539E+01  0.1787E+02
      0.503  0.1252E+02  0.1972E+02
      0.614  0.1258E+02  0.2171E+02
      0.724  0.1162E+02  0.2379E+02
      0.834  0.9142E+01  0.2529E+02
      0.944  0.7971E+01  0.2650E+02
      1.054  0.9346E+01  0.2783E+02
      1.165  0.1149E+02  0.2945E+02
      1.275  0.1229E+02  0.3137E+02
      1.385  0.1018E+02  0.3290E+02
      1.495  0.1096E+02  0.3441E+02
      1.606  0.1042E+02  0.3607E+02
      1.716  0.1325E+02  0.3807E+02
      1.826  0.1907E+02  0.4107E+02
      1.936  0.5241E+01  0.4183E+02
      2.046  0.2336E+01  0.4215E+02
      2.157  0.7886E+00  0.4227E+02
      2.267  0.1200E+01  0.4242E+02
      2.377  0.1534E+01  0.4266E+02
      2.487  0.3599E+00  0.4276E+02
      2.598  0.7669E+00  0.4291E+02
      2.708  0.1379E+01  0.4314E+02
      2.818  0.6347E+00  0.4325E+02
      2.928  0.6334E+00  0.4336E+02
      3.038  0.1347E+01  0.4352E+02
      3.149  0.1428E+01  0.4375E+02
      3.259  0.9527E+00  0.4386E+02
      3.369  0.3366E+00  0.4395E+02
      3.479  0.3729E+00  0.4405E+02
      3.590  0.6929E+00  0.4416E+02
      3.700  0.5156E+00  0.4437E+02
      3.810  0.8096E+00  0.4447E+02
      3.920  0.7935E+00  0.4468E+02
      4.030  0.6348E+00  0.4475E+02
      4.141  0.7903E+00  0.4486E+02
      4.251  0.5888E+00  0.4492E+02
      4.361  0.1028E+01  0.4512E+02
      4.471  0.4708E+00  0.4527E+02
      4.582  0.9702E+00  0.4538E+02
      4.692  0.5313E+00  0.4547E+02
      4.802  0.7943E+00  0.4557E+02
      4.912  0.7282E+00  0.4569E+02
      5.022  0.6349E+00  0.4577E+02
      5.133  0.1508E+01  0.4595E+02
      5.243  0.8171E+00  0.4604E+02
      5.353  0.7935E+00  0.4619E+02
      5.463  0.4872E+00  0.4624E+02
      5.574  0.8166E+00  0.4635E+02
      5.684  0.6350E+00  0.4647E+02
      5.794  0.5537E+00  0.4657E+02
      5.904  0.3716E+00  0.4662E+02
      6.015  0.1322E+01  0.4677E+02
      6.125  0.3968E+00  0.4687E+02
      6.235  0.4467E+00  0.4692E+02
      6.345  0.1096E+01  0.4704E+02
      6.455  0.5745E+00  0.4711E+02
      6.566  0.3174E+00  0.4718E+02
      6.676  0.3120E+00  0.4722E+02
      6.786  0.6349E+00  0.4730E+02
      6.896  0.7992E+00  0.4740E+02
      7.007  0.1743E+00  0.4744E+02
      7.117  0.1335E+01  0.4761E+02
      7.227  0.7935E+00  0.4774E+02
      7.337  0.8405E+00  0.4784E+02
      7.447  0.3382E+00  0.4794E+02
      7.558  0.9329E+00  0.4811E+02
      7.668  0.8558E+00  0.4826E+02
      7.778  0.9173E+00  0.4836E+02
      7.888  0.7321E+00  0.4846E+02
      7.999  0.1098E+01  0.4869E+02
      8.109  0.1684E+00  0.4874E+02
      8.219  0.6972E+00  0.4885E+02
      8.329  0.9287E+00  0.4899E+02
      8.439  0.1114E+01  0.4916E+02
      8.550  0.5628E+00  0.4926E+02
      8.660  0.8364E+00  0.4938E+02
      8.770  0.9522E+00  0.4955E+02
      8.880  0.4761E+00  0.4960E+02
      8.991  0.7319E+00  0.4969E+02
      9.101  0.1062E+01  0.4984E+02
      9.211  0.6946E+00  0.5000E+02
      9.321  0.3725E+00  0.5007E+02
      9.431  0.5310E+00  0.5019E+02
      9.542  0.4841E+00  0.5028E+02
      9.652  0.5607E+00  0.5039E+02
      9.762  0.9093E+00  0.5053E+02
      9.872  0.8000E+00  0.5062E+02
      9.983  0.2139E+00  0.5071E+02
     10.093  0.7935E-01  0.5079E+02
     10.203  0.1130E+01  0.5091E+02
     10.313  0.7301E+00  0.5104E+02
     10.423  0.1006E+01  0.5120E+02
     10.534  0.4974E+00  0.5130E+02
     10.644  0.9211E+00  0.5145E+02
     10.754  0.1147E+01  0.5159E+02
     10.864  0.1331E+01  0.5177E+02
     10.975  0.8229E+00  0.5189E+02
     11.085  0.1276E+01  0.5207E+02
     11.195  0.5897E+00  0.5218E+02
     11.305  0.1111E+01  0.5234E+02
     11.415  0.1587E+01  0.5253E+02
     11.526  0.6083E+00  0.5260E+02
     11.636  0.2093E+01  0.5284E+02
     11.746  0.5531E+00  0.5295E+02
     11.856  0.1250E+01  0.5310E+02
     11.967  0.1475E+01  0.5330E+02
     12.077  0.7914E+00  0.5343E+02
     12.187  0.1473E+01  0.5360E+02
     12.297  0.9709E+00  0.5378E+02
     12.407  0.9336E+00  0.5393E+02
     12.518  0.1056E+01  0.5405E+02
     12.628  0.8199E+00  0.5416E+02
     12.738  0.1562E+01  0.5447E+02
     12.848  0.9064E+00  0.5458E+02
     12.959  0.1053E+01  0.5476E+02
     13.069  0.1111E+01  0.5494E+02
     13.179  0.1293E+01  0.5508E+02
     13.289  0.1110E+01  0.5525E+02
     13.399  0.1436E+01  0.5541E+02
     13.510  0.3174E+00  0.5548E+02
     13.620  0.7537E+00  0.5556E+02
     13.730  0.1395E+01  0.5581E+02
     13.840  0.1251E+01  0.5606E+02
     13.951  0.1634E+01  0.5627E+02
     14.061  0.1290E+01  0.5645E+02
     14.171  0.1427E+01  0.5662E+02
     14.281  0.6167E+00  0.5674E+02
     14.391  0.1713E+01  0.5695E+02
     14.502  0.1100E+01  0.5715E+02
     14.612  0.7936E+00  0.5724E+02
     14.722  0.1267E+01  0.5739E+02
     14.832  0.1089E+01  0.5758E+02
     14.943  0.1391E+01  0.5780E+02
     15.053  0.8512E+00  0.5799E+02
     15.163  0.1263E+01  0.5816E+02
     15.273  0.8363E+00  0.5827E+02
     15.383  0.9459E+00  0.5841E+02
     15.494  0.1935E+01  0.5867E+02
     15.604  0.1590E+01  0.5888E+02
     15.714  0.9674E+00  0.5904E+02
     15.824  0.1338E+01  0.5924E+02
     15.935  0.7581E+00  0.5941E+02
     16.045  0.2211E+01  0.5967E+02
     16.155  0.8468E+00  0.5980E+02
     16.265  0.1588E+01  0.6004E+02
     16.375  0.4919E+00  0.6020E+02
     16.486  0.1015E+01  0.6033E+02
     16.596  0.1069E+01  0.6058E+02
     16.706  0.1638E+01  0.6081E+02
     16.816  0.1122E+01  0.6096E+02
     16.927  0.4789E+00  0.6105E+02
     17.037  0.1608E+01  0.6128E+02
     17.147  0.9247E+00  0.6140E+02
     17.257  0.8149E+00  0.6153E+02
     17.367  0.1677E+01  0.6172E+02
     17.478  0.9924E+00  0.6184E+02
     17.588  0.7901E+00  0.6196E+02
     17.698  0.2882E+00  0.6206E+02
     17.808  0.7357E+00  0.6222E+02
     17.919  0.1268E+01  0.6238E+02
     18.029  0.0000E+00  0.6238E+02
     18.139  0.1076E+00  0.6239E+02
     18.249  0.1784E+00  0.6249E+02
     18.359  0.9163E+00  0.6259E+02
     18.470  0.2882E+00  0.6265E+02
     18.580  0.7935E+00  0.6278E+02
     18.690  0.6285E+00  0.6285E+02
     18.800  0.1867E+00  0.6287E+02
     18.911  0.3041E+00  0.6295E+02
     19.021  0.3174E+00  0.6299E+02
     19.131  0.3286E+00  0.6302E+02
     19.241  0.9413E+00  0.6313E+02
     19.351  0.7935E+00  0.6322E+02
     19.462  0.0000E+00  0.6322E+02
     19.572  0.6835E+00  0.6330E+02
     19.682  0.2580E-13  0.6333E+02
     19.792  0.1587E+00  0.6335E+02
     19.903  0.2115E+00  0.6337E+02
     20.013  0.4723E+00  0.6342E+02
     20.123  0.3571E+00  0.6346E+02
     20.233  0.1436E+00  0.6348E+02
     20.343  0.3174E+00  0.6355E+02
     20.454  0.1591E+00  0.6357E+02
     20.564  0.0000E+00  0.6360E+02
     20.674  0.6214E-03  0.6360E+02
     20.784  0.6101E-02  0.6362E+02
     20.895  0.5971E-13  0.6364E+02
     21.005  0.6348E+00  0.6371E+02
     21.115  0.1291E+00  0.6372E+02
     21.225  0.0000E+00  0.6372E+02
     21.336  0.0000E+00  0.6372E+02
     21.446  0.3174E+00  0.6376E+02
     21.556  0.4105E-01  0.6376E+02
     21.666  0.7265E-02  0.6379E+02
     21.776  0.1562E+00  0.6382E+02
     21.887  0.0000E+00  0.6382E+02
     21.997  0.3174E+00  0.6385E+02
     22.107  0.1587E+00  0.6387E+02
     22.217  0.0000E+00  0.6387E+02
     22.328  0.0000E+00  0.6387E+02
     22.438  0.1587E+00  0.6389E+02
     22.548  0.0000E+00  0.6389E+02
     22.658  0.3919E-02  0.6389E+02
     22.768  0.3170E+00  0.6394E+02
     22.879  0.0000E+00  0.6394E+02
     22.989  0.0000E+00  0.6394E+02
     23.099  0.1587E+00  0.6396E+02
     23.209  0.0000E+00  0.6396E+02
     23.320  0.0000E+00  0.6396E+02
     23.430  0.2043E-13  0.6396E+02
     23.540  0.1587E+00  0.6397E+02
     23.650  0.5290E-01  0.6398E+02
     23.760  0.1404E+00  0.6400E+02
     23.871  0.0000E+00  0.6400E+02
     23.981  0.0000E+00  0.6400E+02
     24.091  0.0000E+00  0.6400E+02
     24.201  0.0000E+00  0.6400E+02
     24.312  0.0000E+00  0.6400E+02
     24.422  0.1907E-09  0.6400E+02
     24.532  0.2645E-01  0.6400E+02
     24.642  0.0000E+00  0.6400E+02
     24.752  0.0000E+00  0.6400E+02
     24.863  0.0000E+00  0.6400E+02
     24.973  0.0000E+00  0.6400E+02
     25.083  0.0000E+00  0.6400E+02
     25.193  0.0000E+00  0.6400E+02
     25.304  0.0000E+00  0.6400E+02
     25.414  0.0000E+00  0.6400E+02
     25.524  0.0000E+00  0.6400E+02
     25.634  0.0000E+00  0.6400E+02
     25.744  0.0000E+00  0.6400E+02
     25.855  0.0000E+00  0.6400E+02
     25.965  0.0000E+00  0.6400E+02
