    4    4    1    1
  0.1238582E+02  0.3672780E-09  0.3672780E-09  0.3672780E-09  0.5000000E-15
  1.000000000000000E-004
  CAR 
 unknown system                          
   44  120   32
 
  0.0000000E+00  0.0000000E+00  0.0000000E+00  0.3644315E-03
   1       -5.5990
   2       -1.2307
   3       -1.2307
   4       -1.2307
   5       -0.8085
   6       -0.8085
   7       -0.8085
   8        0.4828
   9        0.4828
  10        0.4828
  11        1.2517
  12        1.2517
  13        1.7627
  14        1.7627
  15        1.7627
  16        1.9058
  17        1.9058
  18        1.9058
  19        1.9058
  20        1.9058
  21        1.9058
  22        4.9390
  23        4.9390
  24        4.9390
  25       10.1839
  26       10.1839
  27       10.1839
  28       16.1891
  29       16.1891
  30       16.1891
  31       16.1891
  32       16.1891
 
  0.7142857E-01  0.0000000E+00  0.0000000E+00  0.2186589E-02
   1       -5.5390
   2       -1.2316
   3       -1.2032
   4       -1.2032
   5       -0.7931
   6       -0.7922
   7       -0.7922
   8        0.4658
   9        0.4965
  10        0.4965
  11        1.2363
  12        1.2579
  13        1.7428
  14        1.7428
  15        1.7561
  16        1.8060
  17        1.8060
  18        1.8822
  19        1.8822
  20        1.9059
  21        1.9059
  22        4.5432
  23        5.0929
  24        5.0929
  25       10.2073
  26       10.2073
  27       10.7008
  28       15.7637
  29       15.7637
  30       15.9126
  31       15.9126
  32       16.2763
 
  0.1428571E+00  0.0000000E+00  0.0000000E+00  0.2186589E-02
   1       -5.3598
   2       -1.2426
   3       -1.1238
   4       -1.1238
   5       -0.7475
   6       -0.7432
   7       -0.7432
   8        0.4159
   9        0.5375
  10        0.5375
  11        1.1913
  12        1.2765
  13        1.5547
  14        1.5547
  15        1.6844
  16        1.6844
  17        1.7369
  18        1.8139
  19        1.8139
  20        1.9060
  21        1.9060
  22        3.6622
  23        5.5065
  24        5.5065
  25       10.2793
  26       10.2793
  27       11.9521
  28       14.8184
  29       14.8184
  30       15.2398
  31       15.2398
  32       16.5351
 
  0.2142857E+00  0.0000000E+00  0.0000000E+00  0.2186589E-02
   1       -5.0643
   2       -1.2930
   3       -1.0010
   4       -1.0010
   5       -0.6737
   6       -0.6607
   7       -0.6607
   8        0.3357
   9        0.6049
  10        0.6049
  11        1.1209
  12        1.2337
  13        1.2337
  14        1.3064
  15        1.5921
  16        1.5921
  17        1.7059
  18        1.7074
  19        1.7074
  20        1.9061
  21        1.9061
  22        2.6872
  23        6.0970
  24        6.0970
  25       10.4045
  26       10.4045
  27       13.5707
  28       13.7152
  29       13.7152
  30       14.4183
  31       14.4183
  32       16.9579
 
  0.2857143E+00  0.0000000E+00  0.0000000E+00  0.2186589E-02
   1       -4.6580
   2       -1.4414
   3       -0.8510
   4       -0.8510
   5       -0.5749
   6       -0.5440
   7       -0.5440
   8        0.2300
   9        0.6974
  10        0.6974
  11        0.8984
  12        0.8984
  13        1.0326
  14        1.3463
  15        1.4757
  16        1.4757
  17        1.5721
  18        1.5721
  19        1.6649
  20        1.8319
  21        1.9062
  22        1.9062
  23        6.8082
  24        6.8082
  25       10.5904
  26       10.5904
  27       12.5901
  28       12.5901
  29       13.5981
  30       13.5981
  31       15.3927
  32       17.5336
 
  0.3571429E+00  0.0000000E+00  0.0000000E+00  0.2186589E-02
   1       -4.1506
   2       -1.7659
   3       -0.6988
   4       -0.6988
   5       -0.4557
   6       -0.3919
   7       -0.3919
   8        0.1044
   9        0.5768
  10        0.5768
  11        0.8128
  12        0.8128
  13        0.9390
  14        1.2309
  15        1.3537
  16        1.3537
  17        1.3942
  18        1.4188
  19        1.4188
  20        1.6159
  21        1.9064
  22        1.9064
  23        7.6102
  24        7.6102
  25       10.8461
  26       10.8461
  27       11.4899
  28       11.4899
  29       12.8504
  30       12.8504
  31       17.3457
  32       18.2493
 
  0.4285714E+00  0.0000000E+00  0.0000000E+00  0.2186589E-02
   1       -3.5594
   2       -2.2859
   3       -0.5800
   4       -0.5800
   5       -0.3214
   6       -0.2036
   7       -0.2036
   8       -0.0342
   9        0.2823
  10        0.2823
  11        0.8608
  12        0.9243
  13        0.9479
  14        0.9479
  15        1.2557
  16        1.2557
  17        1.2578
  18        1.2578
  19        1.4479
  20        1.5616
  21        1.9065
  22        1.9065
  23        8.4874
  24        8.4874
  25       10.4336
  26       10.4336
  27       11.1776
  28       11.1776
  29       12.2103
  30       12.2103
  31       19.0917
  32       19.0917
 
  0.5000000E+00  0.0000000E+00  0.0000000E+00  0.1093294E-02
   1       -2.9171
   2       -2.9171
   3       -0.5341
   4       -0.5341
   5       -0.1786
   6       -0.1786
   7        0.0214
   8        0.0214
   9        0.0214
  10        0.0214
  11        0.8343
  12        0.8343
  13        1.0982
  14        1.0982
  15        1.0982
  16        1.0982
  17        1.2172
  18        1.2172
  19        1.5046
  20        1.5046
  21        1.9065
  22        1.9065
  23        9.4306
  24        9.4306
  25        9.4306
  26        9.4306
  27       11.4842
  28       11.4842
  29       11.7989
  30       11.7989
  31       20.0480
  32       20.0480
 
  0.7142857E-01  0.7142857E-01  0.0000000E+00  0.4373178E-02
   1       -5.4791
   2       -1.2036
   3       -1.2036
   4       -1.1763
   5       -0.7770
   6       -0.7770
   7       -0.7764
   8        0.4563
   9        0.5031
  10        0.5093
  11        1.2320
  12        1.2541
  13        1.7235
  14        1.7237
  15        1.7237
  16        1.7296
  17        1.7912
  18        1.7912
  19        1.8822
  20        1.8822
  21        1.8907
  22        4.6946
  23        4.6946
  24        5.2387
  25       10.2310
  26       10.7307
  27       10.7307
  28       14.8698
  29       15.8463
  30       15.8463
  31       15.9963
  32       15.9963
 
  0.1428571E+00  0.7142857E-01  0.0000000E+00  0.8746356E-02
   1       -5.3005
   2       -1.2132
   3       -1.1227
   4       -1.0983
   5       -0.7321
   6       -0.7287
   7       -0.7285
   8        0.4110
   9        0.5401
  10        0.5470
  11        1.1925
  12        1.2703
  13        1.5034
  14        1.5073
  15        1.6550
  16        1.6669
  17        1.6926
  18        1.7581
  19        1.8137
  20        1.8822
  21        1.8825
  22        3.8192
  23        5.0940
  24        5.6356
  25       10.3035
  26       10.8222
  27       11.9905
  28       13.7617
  29       14.8955
  30       15.3164
  31       16.0911
  32       16.1759
 
  0.2142857E+00  0.7142857E-01  0.0000000E+00  0.8746356E-02
   1       -5.0060
   2       -1.2608
   3       -0.9975
   4       -0.9778
   5       -0.6594
   6       -0.6483
   7       -0.6473
   8        0.3332
   9        0.6064
  10        0.6084
  11        1.1259
  12        1.1877
  13        1.2007
  14        1.3026
  15        1.5241
  16        1.5772
  17        1.5981
  18        1.7071
  19        1.7158
  20        1.8806
  21        1.8821
  22        2.8748
  23        5.6521
  24        6.2103
  25       10.4284
  26       10.9809
  27       12.6457
  28       13.6139
  29       13.7896
  30       14.4878
  31       15.5159
  32       16.4895
 
  0.2857143E+00  0.7142857E-01  0.0000000E+00  0.8746356E-02
   1       -4.6011
   2       -1.4055
   3       -0.8440
   4       -0.8297
   5       -0.5621
   6       -0.5359
   7       -0.5323
   8        0.2296
   9        0.6886
  10        0.6983
  11        0.8553
  12        0.8786
  13        1.0460
  14        1.3138
  15        1.3464
  16        1.4641
  17        1.4817
  18        1.5717
  19        1.6571
  20        1.8802
  21        1.8820
  22        2.1091
  23        6.3117
  24        6.9092
  25       10.6064
  26       11.2155
  27       11.5809
  28       12.6639
  29       13.6612
  30       14.6997
  31       15.4370
  32       17.0284
 
  0.3571429E+00  0.7142857E-01  0.0000000E+00  0.8746356E-02
   1       -4.0956
   2       -1.7256
   3       -0.6873
   4       -0.6778
   5       -0.4446
   6       -0.3917
   7       -0.3825
   8        0.1064
   9        0.5387
  10        0.5666
  11        0.7676
  12        0.8133
  13        0.9839
  14        1.0295
  15        1.3456
  16        1.3592
  17        1.3993
  18        1.4184
  19        1.5350
  20        1.7099
  21        1.8803
  22        1.8817
  23        7.0439
  24        7.7021
  25       10.4885
  26       10.9433
  27       11.5354
  28       11.5646
  29       12.9082
  30       13.8875
  31       17.3706
  32       17.6923
 
  0.4285714E+00  0.7142857E-01  0.0000000E+00  0.8746356E-02
   1       -3.5071
   2       -2.2411
   3       -0.5634
   4       -0.5578
   5       -0.3125
   6       -0.2151
   7       -0.1973
   8       -0.0299
   9        0.2509
  10        0.2793
  11        0.7801
  12        0.8242
  13        0.9481
  14        1.0225
  15        1.2516
  16        1.2574
  17        1.2594
  18        1.3309
  19        1.4591
  20        1.5955
  21        1.8807
  22        1.8814
  23        7.8346
  24        8.5726
  25        9.5714
  26       10.5105
  27       11.2495
  28       11.9280
  29       12.2824
  30       13.1479
  31       18.4637
  32       18.6465
 
  0.5000000E+00  0.7142857E-01  0.0000000E+00  0.4373178E-02
   1       -2.8682
   2       -2.8682
   3       -0.5130
   4       -0.5130
   5       -0.1719
   6       -0.1719
   7       -0.0014
   8       -0.0014
   9        0.0236
  10        0.0236
  11        0.7632
  12        0.7632
  13        1.0981
  14        1.0981
  15        1.1557
  16        1.1557
  17        1.2173
  18        1.2173
  19        1.5240
  20        1.5240
  21        1.8811
  22        1.8811
  23        8.6778
  24        8.6778
  25        9.5110
  26        9.5110
  27       11.6795
  28       11.6795
  29       12.5150
  30       12.5150
  31       19.3244
  32       19.3244
 
  0.1428571E+00  0.1428571E+00  0.0000000E+00  0.4373178E-02
   1       -5.1235
   2       -1.1276
   3       -1.1276
   4       -1.0247
   5       -0.6857
   6       -0.6857
   7       -0.6843
   8        0.3825
   9        0.5625
  10        0.5752
  11        1.1777
  12        1.2716
  13        1.3430
  14        1.3894
  15        1.3894
  16        1.6153
  17        1.6920
  18        1.6920
  19        1.8134
  20        1.8134
  21        1.8457
  22        4.2102
  23        4.2102
  24        5.9959
  25       10.3761
  26       12.1073
  27       12.1073
  28       12.5347
  29       15.1237
  30       15.1237
  31       15.5438
  32       15.5438
 
  0.2142857E+00  0.1428571E+00  0.0000000E+00  0.8746356E-02
   1       -4.8319
   2       -1.1673
   3       -0.9948
   4       -0.9107
   5       -0.6163
   6       -0.6109
   7       -0.6078
   8        0.3184
   9        0.6187
  10        0.6192
  11        1.0646
  12        1.0981
  13        1.1279
  14        1.2148
  15        1.3044
  16        1.5333
  17        1.6015
  18        1.6658
  19        1.7063
  20        1.8127
  21        1.8243
  22        3.2784
  23        4.7287
  24        6.5332
  25       10.4870
  26       11.3813
  27       12.3066
  28       13.7443
  29       14.0099
  30       14.6948
  31       15.4944
  32       15.9164
 
  0.2857143E+00  0.1428571E+00  0.0000000E+00  0.8746356E-02
   1       -4.4313
   2       -1.3007
   3       -0.8307
   4       -0.7692
   5       -0.5235
   6       -0.5104
   7       -0.4978
   8        0.2248
   9        0.6702
  10        0.7053
  11        0.7396
  12        0.8175
  13        0.9920
  14        1.0664
  15        1.3592
  16        1.4292
  17        1.4879
  18        1.5707
  19        1.6082
  20        1.8119
  21        1.8147
  22        2.5148
  23        5.3244
  24        7.2012
  25       10.1789
  26       10.7923
  27       12.5936
  28       12.8825
  29       13.8505
  30       15.5657
  31       15.9953
  32       16.2224
 
  0.3571429E+00  0.1428571E+00  0.0000000E+00  0.8746356E-02
   1       -3.9320
   2       -1.6078
   3       -0.6601
   4       -0.6184
   5       -0.4115
   6       -0.3892
   7       -0.3550
   8        0.1101
   9        0.4366
  10        0.5351
  11        0.7006
  12        0.7762
  13        0.8172
  14        1.0364
  15        1.3205
  16        1.3662
  17        1.4174
  18        1.4290
  19        1.5091
  20        1.8106
  21        1.8110
  22        2.0178
  23        5.9791
  24        7.9703
  25        9.2139
  26       11.0231
  27       11.7859
  28       12.9369
  29       13.1181
  30       15.4782
  31       16.6119
  32       16.9903
 
  0.4285714E+00  0.1428571E+00  0.0000000E+00  0.8746356E-02
   1       -3.3517
   2       -2.1095
   3       -0.5194
   4       -0.4933
   5       -0.2858
   6       -0.2479
   7       -0.1790
   8       -0.0181
   9        0.1657
  10        0.2693
  11        0.6563
  12        0.6797
  13        0.9499
  14        1.0866
  15        1.2369
  16        1.2569
  17        1.2632
  18        1.3629
  19        1.5118
  20        1.7548
  21        1.8093
  22        1.8101
  23        6.6896
  24        8.2997
  25        8.8228
  26       10.7379
  27       11.3761
  28       12.3917
  29       13.4758
  30       14.7356
  31       17.3298
  32       17.7500
 
  0.5000000E+00  0.1428571E+00  0.0000000E+00  0.4373178E-02
   1       -2.7235
   2       -2.7235
   3       -0.4531
   4       -0.4531
   5       -0.1524
   6       -0.1524
   7       -0.0654
   8       -0.0654
   9        0.0298
  10        0.0298
  11        0.6425
  12        0.6425
  13        1.0985
  14        1.0985
  15        1.2072
  16        1.2072
  17        1.2132
  18        1.2132
  19        1.6123
  20        1.6123
  21        1.8094
  22        1.8094
  23        7.4604
  24        7.4604
  25        9.7479
  26        9.7479
  27       11.8310
  28       11.8310
  29       14.0590
  30       14.0590
  31       18.1358
  32       18.1358
 
  0.2142857E+00  0.2142857E+00  0.0000000E+00  0.4373178E-02
   1       -4.5453
   2       -1.0213
   3       -1.0213
   4       -0.8077
   5       -0.5483
   6       -0.5441
   7       -0.5441
   8        0.2775
   9        0.6366
  10        0.6574
  11        0.8891
  12        0.8891
  13        0.9282
  14        1.1021
  15        1.3398
  16        1.4624
  17        1.5822
  18        1.5822
  19        1.7051
  20        1.7051
  21        1.7719
  22        3.7677
  23        3.7677
  24        7.0280
  25       10.0611
  26       10.7407
  27       13.9628
  28       13.9628
  29       14.3680
  30       14.3680
  31       15.0378
  32       15.0378
 
  0.2857143E+00  0.2142857E+00  0.0000000E+00  0.8746356E-02
   1       -4.1525
   2       -1.1366
   3       -0.8389
   4       -0.6795
   5       -0.4647
   6       -0.4590
   7       -0.4424
   8        0.2059
   9        0.5816
  10        0.6528
  11        0.6948
  12        0.7127
  13        0.7293
  14        1.0586
  15        1.3714
  16        1.4120
  17        1.4740
  18        1.5290
  19        1.5694
  20        1.7038
  21        1.7373
  22        2.9575
  23        4.3113
  24        7.6579
  25        8.9889
  26       10.9147
  27       13.2379
  28       14.1123
  29       14.3287
  30       14.8524
  31       15.4501
  32       15.8593
 
  0.3571429E+00  0.2142857E+00  0.0000000E+00  0.8746356E-02
   1       -3.6640
   2       -1.4225
   3       -0.6448
   4       -0.5356
   5       -0.3752
   6       -0.3568
   7       -0.3110
   8        0.1098
   9        0.3028
  10        0.4796
  11        0.5463
  12        0.6454
  13        0.8314
  14        1.0398
  15        1.2763
  16        1.3558
  17        1.4166
  18        1.4371
  19        1.5098
  20        1.7026
  21        1.7179
  22        2.3762
  23        4.9058
  24        7.9884
  25        8.3957
  26       11.2005
  27       12.1450
  28       13.3476
  29       14.7050
  30       15.4504
  31       16.0520
  32       17.1682
 
  0.4285714E+00  0.2142857E+00  0.0000000E+00  0.8746356E-02
   1       -3.0987
   2       -1.9002
   3       -0.4741
   4       -0.3943
   5       -0.2977
   6       -0.2425
   7       -0.1503
   8       -0.0022
   9        0.0567
  10        0.2504
  11        0.4975
  12        0.5966
  13        0.9576
  14        1.0829
  15        1.2060
  16        1.2517
  17        1.2576
  18        1.3128
  19        1.6307
  20        1.7022
  21        1.7079
  22        2.0107
  23        5.5583
  24        7.0872
  25        9.2236
  26       11.1060
  27       11.5802
  28       12.6500
  29       15.2131
  30       16.1497
  31       16.4842
  32       16.7365
 
  0.5000000E+00  0.2142857E+00  0.0000000E+00  0.4373178E-02
   1       -2.4905
   2       -2.4905
   3       -0.3708
   4       -0.3708
   5       -0.1537
   6       -0.1537
   7       -0.1220
   8       -0.1220
   9        0.0380
  10        0.0380
  11        0.5311
  12        0.5311
  13        1.1020
  14        1.1020
  15        1.1832
  16        1.1832
  17        1.1942
  18        1.1942
  19        1.7035
  20        1.7035
  21        1.7858
  22        1.7858
  23        6.2809
  24        6.2809
  25       10.1298
  26       10.1298
  27       12.0611
  28       12.0611
  29       15.8135
  30       15.8135
  31       16.9399
  32       16.9399
 
  0.2857143E+00  0.2857143E+00  0.0000000E+00  0.4373178E-02
   1       -3.7714
   2       -0.9303
   3       -0.9303
   4       -0.5753
   5       -0.3980
   6       -0.3688
   7       -0.3688
   8        0.1640
   9        0.4288
  10        0.4288
  11        0.5686
  12        0.6359
  13        0.7814
  14        1.0237
  15        1.2951
  16        1.4265
  17        1.4265
  18        1.5098
  19        1.5684
  20        1.5684
  21        1.6711
  22        3.4377
  23        3.4377
  24        7.8753
  25        8.2507
  26       11.1441
  27       13.7188
  28       13.7188
  29       14.5707
  30       14.5707
  31       16.1549
  32       16.1549
 
  0.3571429E+00  0.2857143E+00  0.0000000E+00  0.8746356E-02
   1       -3.3000
   2       -1.1883
   3       -0.7081
   4       -0.4686
   5       -0.3227
   6       -0.2811
   7       -0.2534
   8        0.0978
   9        0.1962
  10        0.3477
  11        0.3986
  12        0.6021
  13        0.8654
  14        1.0013
  15        1.2135
  16        1.3133
  17        1.3409
  18        1.4173
  19        1.5686
  20        1.6246
  21        1.6408
  22        2.7716
  23        3.9651
  24        6.8761
  25        8.9562
  26       11.4605
  27       12.6306
  28       13.7388
  29       14.3132
  30       15.1065
  31       16.5756
  32       17.6341
 
  0.4285714E+00  0.2857143E+00  0.0000000E+00  0.8746356E-02
   1       -2.7587
   2       -1.6304
   3       -0.5075
   4       -0.3737
   5       -0.2607
   6       -0.1842
   7       -0.1143
   8       -0.0017
   9        0.0124
  10        0.2195
  11        0.3640
  12        0.5329
  13        0.9779
  14        1.0301
  15        1.1543
  16        1.2112
  17        1.2275
  18        1.2621
  19        1.5716
  20        1.5957
  21        1.8035
  22        2.3152
  23        4.5548
  24        5.9947
  25        9.7573
  26       11.6023
  27       11.8710
  28       13.0065
  29       15.0099
  30       15.7469
  31       16.6759
  32       17.0922
 
  0.5000000E+00  0.2857143E+00  0.0000000E+00  0.4373178E-02
   1       -2.1825
   2       -2.1825
   3       -0.3772
   4       -0.3772
   5       -0.1616
   6       -0.1616
   7       -0.0841
   8       -0.0841
   9        0.0453
  10        0.0453
  11        0.4413
  12        0.4413
  13        1.1127
  14        1.1127
  15        1.1132
  16        1.1132
  17        1.1505
  18        1.1505
  19        1.5795
  20        1.5795
  21        2.0143
  22        2.0143
  23        5.2254
  24        5.2254
  25       10.6422
  26       10.6422
  27       12.3842
  28       12.3842
  29       15.7998
  30       15.7998
  31       16.4891
  32       16.4891
 
  0.3571429E+00  0.3571429E+00  0.0000000E+00  0.4373178E-02
   1       -2.8539
   2       -0.9346
   3       -0.9346
   4       -0.4471
   5       -0.2250
   6       -0.1861
   7       -0.1861
   8        0.0679
   9        0.1839
  10        0.1839
  11        0.2943
  12        0.5550
  13        0.9269
  14        0.9621
  15        1.1417
  16        1.2341
  17        1.2341
  18        1.4216
  19        1.4216
  20        1.5467
  21        1.8092
  22        3.2149
  23        3.2149
  24        5.8933
  25        9.6317
  26       11.8094
  27       13.2303
  28       13.2303
  29       14.2353
  30       14.2353
  31       16.5842
  32       17.2616
 
  0.4285714E+00  0.3571429E+00  0.0000000E+00  0.8746356E-02
   1       -2.3489
   2       -1.3274
   3       -0.7032
   4       -0.4631
   5       -0.1261
   6       -0.1141
   7       -0.0748
   8        0.0195
   9        0.0565
  10        0.1740
  11        0.2595
  12        0.4790
  13        0.9665
  14        1.0184
  15        1.0863
  16        1.1298
  17        1.1377
  18        1.2739
  19        1.4323
  20        1.4901
  21        2.0172
  22        2.6677
  23        3.7255
  24        5.0454
  25       10.4069
  26       12.2136
  27       12.2551
  28       13.4653
  29       13.9332
  30       14.8367
  31       15.6155
  32       16.3510
 
  0.5000000E+00  0.3571429E+00  0.0000000E+00  0.4373178E-02
   1       -1.8219
   2       -1.8219
   3       -0.5400
   4       -0.5400
   5       -0.0433
   6       -0.0433
   7       -0.0397
   8       -0.0397
   9        0.0477
  10        0.0477
  11        0.3716
  12        0.3716
  13        1.0293
  14        1.0293
  15        1.0811
  16        1.0811
  17        1.1365
  18        1.1365
  19        1.4535
  20        1.4535
  21        2.2879
  22        2.2879
  23        4.3279
  24        4.3279
  25       11.2702
  26       11.2702
  27       12.8053
  28       12.8053
  29       14.7304
  30       14.7304
  31       15.5422
  32       15.5422
 
  0.4285714E+00  0.4285714E+00  0.0000000E+00  0.4373178E-02
   1       -1.8969
   2       -1.0295
   3       -1.0295
   4       -0.5909
   5       -0.0368
   6       -0.0368
   7       -0.0001
   8        0.0139
   9        0.1137
  10        0.1778
  11        0.1778
  12        0.4105
  13        0.9347
  14        1.0237
  15        1.0446
  16        1.0446
  17        1.0851
  18        1.2979
  19        1.2979
  20        1.4031
  21        2.2799
  22        3.0872
  23        3.0872
  24        4.2497
  25       11.1584
  26       12.7391
  27       12.9285
  28       12.9285
  29       14.0282
  30       14.0282
  31       14.6350
  32       15.4712
 
  0.5000000E+00  0.4285714E+00  0.0000000E+00  0.4373178E-02
   1       -1.4416
   2       -1.4416
   3       -0.7768
   4       -0.7768
   5       -0.0056
   6       -0.0056
   7        0.0414
   8        0.0414
   9        0.0996
  10        0.0996
  11        0.3067
  12        0.3067
  13        0.9645
  14        0.9645
  15        1.0032
  16        1.0032
  17        1.1794
  18        1.1794
  19        1.3394
  20        1.3394
  21        2.6209
  22        2.6209
  23        3.6040
  24        3.6040
  25       12.0016
  26       12.0016
  27       13.3289
  28       13.3289
  29       13.7379
  30       13.7379
  31       14.6965
  32       14.6965
 
  0.5000000E+00  0.5000000E+00  0.0000000E+00  0.1093294E-02
   1       -1.0819
   2       -1.0819
   3       -1.0819
   4       -1.0819
   5        0.0237
   6        0.0237
   7        0.0237
   8        0.0237
   9        0.2201
  10        0.2201
  11        0.2201
  12        0.2201
  13        0.9536
  14        0.9536
  15        0.9536
  16        0.9536
  17        1.2467
  18        1.2467
  19        1.2467
  20        1.2467
  21        3.0458
  22        3.0458
  23        3.0458
  24        3.0458
  25       12.8265
  26       12.8265
  27       12.8265
  28       12.8265
  29       13.9585
  30       13.9585
  31       13.9585
  32       13.9585
 
  0.7142857E-01  0.7142857E-01  0.7142857E-01  0.2915452E-02
   1       -5.4195
   2       -1.1763
   3       -1.1763
   4       -1.1763
   5       -0.7614
   6       -0.7614
   7       -0.7614
   8        0.4473
   9        0.5152
  10        0.5152
  11        1.2395
  12        1.2395
  13        1.6985
  14        1.6985
  15        1.6985
  16        1.7084
  17        1.7084
  18        1.7084
  19        1.8769
  20        1.8769
  21        1.8769
  22        4.8364
  23        4.8364
  24        4.8364
  25       10.7609
  26       10.7609
  27       10.7609
  28       14.9477
  29       14.9477
  30       14.9477
  31       16.4455
  32       16.4455
 
  0.1428571E+00  0.7142857E-01  0.7142857E-01  0.8746356E-02
   1       -5.2414
   2       -1.1844
   3       -1.0970
   4       -1.0970
   5       -0.7170
   6       -0.7141
   7       -0.7141
   8        0.4058
   9        0.5477
  10        0.5513
  11        1.1973
  12        1.2617
  13        1.4624
  14        1.4624
  15        1.6045
  16        1.6572
  17        1.6572
  18        1.6611
  19        1.8399
  20        1.8701
  21        1.8701
  22        3.9606
  23        5.2167
  24        5.2167
  25       10.8531
  26       10.8531
  27       12.0292
  28       13.8359
  29       13.8359
  30       15.1785
  31       16.2567
  32       16.2567
 
  0.2142857E+00  0.7142857E-01  0.7142857E-01  0.8746356E-02
   1       -4.9479
   2       -1.2297
   3       -0.9743
   4       -0.9743
   5       -0.6452
   6       -0.6350
   7       -0.6350
   8        0.3309
   9        0.6079
  10        0.6109
  11        1.1333
  12        1.1575
  13        1.1575
  14        1.2974
  15        1.4425
  16        1.5732
  17        1.5732
  18        1.5795
  19        1.7891
  20        1.8650
  21        1.8650
  22        3.0255
  23        5.7571
  24        5.7571
  25       11.0120
  26       11.0120
  27       12.7177
  28       12.7177
  29       13.6571
  30       15.5544
  31       15.5889
  32       15.5889
 
  0.2857143E+00  0.7142857E-01  0.7142857E-01  0.8746356E-02
   1       -4.5445
   2       -1.3709
   3       -0.8232
   4       -0.8232
   5       -0.5492
   6       -0.5243
   7       -0.5243
   8        0.2297
   9        0.6850
  10        0.6930
  11        0.8379
  12        0.8379
  13        1.0618
  14        1.2047
  15        1.3449
  16        1.4638
  17        1.4638
  18        1.4675
  19        1.7310
  20        1.8620
  21        1.8620
  22        2.2602
  23        6.4027
  24        6.4027
  25       11.2299
  26       11.2299
  27       11.6618
  28       11.6618
  29       14.7663
  30       14.7663
  31       15.4767
  32       16.0704
 
  0.3571429E+00  0.7142857E-01  0.7142857E-01  0.8746356E-02
   1       -4.0411
   2       -1.6868
   3       -0.6670
   4       -0.6670
   5       -0.4333
   6       -0.3833
   7       -0.3833
   8        0.1089
   9        0.5317
  10        0.5317
  11        0.7476
  12        0.7958
  13        0.9360
  14        1.0240
  15        1.3349
  16        1.3468
  17        1.3468
  18        1.4018
  19        1.6679
  20        1.7633
  21        1.8603
  22        1.8603
  23        7.1232
  24        7.1232
  25       10.6074
  26       10.6074
  27       11.5961
  28       11.5961
  29       13.9488
  30       13.9488
  31       16.6704
  32       17.4621
 
  0.4285714E+00  0.7142857E-01  0.7142857E-01  0.8746356E-02
   1       -3.4554
   2       -2.1975
   3       -0.5414
   4       -0.5414
   5       -0.3030
   6       -0.2137
   7       -0.2137
   8       -0.0249
   9        0.2544
  10        0.2544
  11        0.7431
  12        0.7631
  13        0.9163
  14        1.0900
  15        1.1927
  16        1.2518
  17        1.2518
  18        1.4584
  19        1.4654
  20        1.6013
  21        1.8595
  22        1.8595
  23        7.8997
  24        7.8997
  25        9.6668
  26        9.6668
  27       12.0147
  28       12.0147
  29       13.2048
  30       13.2048
  31       17.4056
  32       19.1298
 
  0.5000000E+00  0.7142857E-01  0.7142857E-01  0.4373178E-02
   1       -2.8202
   2       -2.8202
   3       -0.4916
   4       -0.4916
   5       -0.1646
   6       -0.1646
   7       -0.0540
   8       -0.0540
   9        0.0569
  10        0.0569
  11        0.7192
  12        0.7192
  13        1.0506
  14        1.0506
  15        1.2142
  16        1.2142
  17        1.2442
  18        1.2442
  19        1.5329
  20        1.5329
  21        1.8593
  22        1.8593
  23        8.5865
  24        8.5865
  25        8.9254
  26        8.9254
  27       12.4766
  28       12.4766
  29       12.6316
  30       12.6316
  31       18.2275
  32       18.2275
 
  0.1428571E+00  0.1428571E+00  0.7142857E-01  0.8746356E-02
   1       -5.0651
   2       -1.1011
   3       -1.1011
   4       -1.0225
   5       -0.6716
   6       -0.6716
   7       -0.6704
   8        0.3784
   9        0.5691
  10        0.5768
  11        1.1896
  12        1.2591
  13        1.3061
  14        1.3488
  15        1.3488
  16        1.5882
  17        1.6161
  18        1.6161
  19        1.8373
  20        1.8373
  21        1.8473
  22        4.3247
  23        4.3247
  24        5.5558
  25       10.9462
  26       12.1465
  27       12.1465
  28       12.6073
  29       14.0556
  30       14.0556
  31       16.4966
  32       16.4966
 
  0.2142857E+00  0.1428571E+00  0.7142857E-01  0.1749271E-01
   1       -4.7746
   2       -1.1394
   3       -0.9719
   4       -0.9075
   5       -0.6026
   6       -0.5977
   7       -0.5956
   8        0.3171
   9        0.6177
  10        0.6207
  11        1.0392