  32  32   0   0
  0.1313628E+02  0.7491017E-09  0.7491017E-09  0.7491017E-09  0.5000000E-15
  1.000000000000000E-004
  CAR 
 unknown system                          
     13.27500610     -6.54080620  301      2.94855038      1.00000000
     -6.541  0.0000E+00  0.0000E+00
     -6.475  0.0000E+00  0.0000E+00
     -6.409  0.0000E+00  0.0000E+00
     -6.343  0.0000E+00  0.0000E+00
     -6.277  0.0000E+00  0.0000E+00
     -6.211  0.0000E+00  0.0000E+00
     -6.144  0.0000E+00  0.0000E+00
     -6.078  0.0000E+00  0.0000E+00
     -6.012  0.0000E+00  0.0000E+00
     -5.946  0.0000E+00  0.0000E+00
     -5.880  0.0000E+00  0.0000E+00
     -5.814  0.0000E+00  0.0000E+00
     -5.748  0.0000E+00  0.0000E+00
     -5.682  0.1224E-09  0.8088E-11
     -5.616  0.8825E-01  0.5829E-02
     -5.550  0.5299E+00  0.4083E-01
     -5.484  0.1067E+01  0.1113E+00
     -5.418  0.7795E+00  0.1628E+00
     -5.352  0.1738E+01  0.2776E+00
     -5.286  0.2831E+01  0.4646E+00
     -5.220  0.1166E+00  0.4723E+00
     -5.154  0.1060E+01  0.5423E+00
     -5.088  0.2668E+01  0.7185E+00
     -5.022  0.2492E+01  0.8831E+00
     -4.956  0.2260E+01  0.1032E+01
     -4.889  0.2245E+01  0.1181E+01
     -4.823  0.4237E+01  0.1464E+01
     -4.757  0.8968E-03  0.1464E+01
     -4.691  0.1091E+01  0.1536E+01
     -4.625  0.5705E+01  0.1913E+01
     -4.559  0.3236E+01  0.2126E+01
     -4.493  0.2118E+01  0.2268E+01
     -4.427  0.4322E+01  0.2554E+01
     -4.361  0.2033E+01  0.2688E+01
     -4.295  0.1997E+01  0.2820E+01
     -4.229  0.2766E+01  0.3003E+01
     -4.163  0.6407E+01  0.3426E+01
     -4.097  0.2774E+01  0.3609E+01
     -4.031  0.5912E+01  0.4000E+01
     -3.965  0.4587E+01  0.4309E+01
     -3.899  0.1456E-01  0.4310E+01
     -3.833  0.3589E+01  0.4547E+01
     -3.767  0.5856E+01  0.4934E+01
     -3.701  0.4441E+01  0.5227E+01
     -3.634  0.2819E+01  0.5413E+01
     -3.568  0.7917E+01  0.5936E+01
     -3.502  0.2378E+00  0.5953E+01
     -3.436  0.5139E+01  0.6293E+01
     -3.370  0.9567E+01  0.6925E+01
     -3.304  0.2252E+01  0.7074E+01
     -3.238  0.6713E+01  0.7518E+01
     -3.172  0.5938E+01  0.7910E+01
     -3.106  0.7062E+00  0.7959E+01
     -3.040  0.7229E+01  0.8437E+01
     -2.974  0.5011E+01  0.8770E+01
     -2.908  0.4784E+01  0.9086E+01
     -2.842  0.1125E+02  0.9829E+01
     -2.776  0.5260E+01  0.1018E+02
     -2.710  0.6214E+01  0.1059E+02
     -2.644  0.5082E+01  0.1092E+02
     -2.578  0.7819E+01  0.1144E+02
     -2.512  0.2485E+01  0.1160E+02
     -2.446  0.1140E+02  0.1236E+02
     -2.379  0.7453E+01  0.1285E+02
     -2.313  0.1050E+02  0.1355E+02
     -2.247  0.8597E+01  0.1412E+02
     -2.181  0.9129E+01  0.1472E+02
     -2.115  0.3709E+01  0.1497E+02
     -2.049  0.1160E+02  0.1573E+02
     -1.983  0.1009E+02  0.1640E+02
     -1.917  0.1837E+02  0.1762E+02
     -1.851  0.9175E+01  0.1823E+02
     -1.785  0.1437E+02  0.1918E+02
     -1.719  0.1396E+02  0.2010E+02
     -1.653  0.6726E+01  0.2055E+02
     -1.587  0.3161E+02  0.2263E+02
     -1.521  0.1804E+02  0.2383E+02
     -1.455  0.3524E+02  0.2615E+02
     -1.389  0.2099E+02  0.2754E+02
     -1.323  0.4366E+02  0.3043E+02
     -1.257  0.4695E+02  0.3353E+02
     -1.191  0.3616E+02  0.3592E+02
     -1.124  0.5072E+02  0.3927E+02
     -1.058  0.4733E+02  0.4240E+02
     -0.992  0.4406E+02  0.4531E+02
     -0.926  0.5746E+02  0.4911E+02
     -0.860  0.6759E+02  0.5358E+02
     -0.794  0.8283E+02  0.5906E+02
     -0.728  0.8454E+02  0.6465E+02
     -0.662  0.8902E+02  0.7054E+02
     -0.596  0.8205E+02  0.7596E+02
     -0.530  0.7334E+02  0.8081E+02
     -0.464  0.7602E+02  0.8583E+02
     -0.398  0.8724E+02  0.9160E+02
     -0.332  0.7227E+02  0.9638E+02
     -0.266  0.7333E+02  0.1012E+03
     -0.200  0.1064E+03  0.1083E+03
     -0.134  0.1010E+03  0.1149E+03
     -0.068  0.9645E+02  0.1213E+03
     -0.002  0.1348E+03  0.1302E+03
      0.064  0.1122E+03  0.1377E+03
      0.131  0.1283E+03  0.1461E+03
      0.197  0.1524E+03  0.1562E+03
      0.263  0.1654E+03  0.1671E+03
      0.329  0.1830E+03  0.1792E+03
      0.395  0.1470E+03  0.1890E+03
      0.461  0.1146E+03  0.1965E+03
      0.527  0.1108E+03  0.2039E+03
      0.593  0.9328E+02  0.2100E+03
      0.659  0.1002E+03  0.2167E+03
      0.725  0.1130E+03  0.2241E+03
      0.791  0.1350E+03  0.2330E+03
      0.857  0.1548E+03  0.2433E+03
      0.923  0.1415E+03  0.2526E+03
      0.989  0.1321E+03  0.2614E+03
      1.055  0.1133E+03  0.2689E+03
      1.121  0.1254E+03  0.2772E+03
      1.187  0.1133E+03  0.2847E+03
      1.253  0.1517E+03  0.2947E+03
      1.319  0.1934E+03  0.3075E+03
      1.386  0.2406E+03  0.3234E+03
      1.452  0.1240E+03  0.3316E+03
      1.518  0.4555E+02  0.3346E+03
      1.584  0.2318E+02  0.3361E+03
      1.650  0.2085E+02  0.3375E+03
      1.716  0.4999E+01  0.3378E+03
      1.782  0.1297E+02  0.3387E+03
      1.848  0.1799E+02  0.3399E+03
      1.914  0.1185E+02  0.3407E+03
      1.980  0.1384E+02  0.3416E+03
      2.046  0.7425E+01  0.3421E+03
      2.112  0.1279E+02  0.3429E+03
      2.178  0.1449E+02  0.3439E+03
      2.244  0.1517E+02  0.3449E+03
      2.310  0.1044E+02  0.3456E+03
      2.376  0.4853E+01  0.3459E+03
      2.442  0.1059E+02  0.3466E+03
      2.508  0.6313E+01  0.3470E+03
      2.574  0.1586E+02  0.3481E+03
      2.641  0.2137E+02  0.3495E+03
      2.707  0.8335E+01  0.3500E+03
      2.773  0.1264E+02  0.3509E+03
      2.839  0.6224E+01  0.3513E+03
      2.905  0.2664E+01  0.3514E+03
      2.971  0.1229E+02  0.3523E+03
      3.037  0.6546E+01  0.3527E+03
      3.103  0.1280E+02  0.3535E+03
      3.169  0.1452E+02  0.3545E+03
      3.235  0.9471E+01  0.3551E+03
      3.301  0.1009E+02  0.3558E+03
      3.367  0.1181E+02  0.3566E+03
      3.433  0.1149E+02  0.3573E+03
      3.499  0.8223E+01  0.3579E+03
      3.565  0.2587E+01  0.3580E+03
      3.631  0.1180E+02  0.3588E+03
      3.697  0.6834E+00  0.3589E+03
      3.763  0.1165E+02  0.3596E+03
      3.829  0.1481E+02  0.3606E+03
      3.896  0.1732E+02  0.3618E+03
      3.962  0.4198E+01  0.3620E+03
      4.028  0.4115E+01  0.3623E+03
      4.094  0.1247E+02  0.3631E+03
      4.160  0.8988E+01  0.3637E+03
      4.226  0.9384E+00  0.3638E+03
      4.292  0.1166E+02  0.3646E+03
      4.358  0.8971E+01  0.3652E+03
      4.424  0.7920E+01  0.3657E+03
      4.490  0.7861E+01  0.3662E+03
      4.556  0.1127E+02  0.3669E+03
      4.622  0.7765E+01  0.3675E+03
      4.688  0.8230E+01  0.3680E+03
      4.754  0.1455E+02  0.3690E+03
      4.820  0.7909E+01  0.3695E+03
      4.886  0.4236E+01  0.3698E+03
      4.952  0.4253E+01  0.3700E+03
      5.018  0.6439E+01  0.3705E+03
      5.084  0.1554E+02  0.3715E+03
      5.151  0.5575E+01  0.3719E+03
      5.217  0.3095E+01  0.3721E+03
      5.283  0.9459E+01  0.3727E+03
      5.349  0.4311E+01  0.3730E+03
      5.415  0.1136E+02  0.3737E+03
      5.481  0.9330E+01  0.3743E+03
      5.547  0.7909E+01  0.3749E+03
      5.613  0.1058E+01  0.3749E+03
      5.679  0.4645E+01  0.3752E+03
      5.745  0.8210E+01  0.3758E+03
      5.811  0.8331E+01  0.3763E+03
      5.877  0.4475E+01  0.3766E+03
      5.943  0.9453E+01  0.3773E+03
      6.009  0.2818E+01  0.3774E+03
      6.075  0.2953E+00  0.3775E+03
      6.141  0.8517E+01  0.3780E+03
      6.207  0.7492E+01  0.3785E+03
      6.273  0.1211E+02  0.3793E+03
      6.339  0.5027E+01  0.3797E+03
      6.406  0.6104E+01  0.3801E+03
      6.472  0.1936E+02  0.3813E+03
      6.538  0.1059E+02  0.3820E+03
      6.604  0.5140E+01  0.3824E+03
      6.670  0.6706E+01  0.3828E+03
      6.736  0.7667E+01  0.3833E+03
      6.802  0.9365E+01  0.3839E+03
      6.868  0.1570E+02  0.3850E+03
      6.934  0.9080E+01  0.3856E+03
      7.000  0.8180E+01  0.3861E+03
      7.066  0.1120E+02  0.3869E+03
      7.132  0.9321E+01  0.3875E+03
      7.198  0.8266E+01  0.3880E+03
      7.264  0.8523E+01  0.3886E+03
      7.330  0.1129E+02  0.3893E+03
      7.396  0.1056E+02  0.3900E+03
      7.462  0.7316E+01  0.3905E+03
      7.528  0.8744E+01  0.3911E+03
      7.594  0.8470E+01  0.3917E+03
      7.661  0.1376E+02  0.3926E+03
      7.727  0.1200E+02  0.3934E+03
      7.793  0.7066E+01  0.3938E+03
      7.859  0.4683E+01  0.3941E+03
      7.925  0.6206E+01  0.3946E+03
      7.991  0.2153E+02  0.3960E+03
      8.057  0.6769E+01  0.3964E+03
      8.123  0.4136E+01  0.3967E+03
      8.189  0.2041E+01  0.3968E+03
      8.255  0.6369E+01  0.3973E+03
      8.321  0.1151E+02  0.3980E+03
      8.387  0.1605E+02  0.3991E+03
      8.453  0.1179E+02  0.3999E+03
      8.519  0.1580E+01  0.4000E+03
      8.585  0.7811E+01  0.4005E+03
      8.651  0.1261E+02  0.4013E+03
      8.717  0.1028E+02  0.4020E+03
      8.783  0.1476E+01  0.4021E+03
      8.849  0.6511E+01  0.4025E+03
      8.916  0.8270E+01  0.4031E+03
      8.982  0.1377E+02  0.4040E+03
      9.048  0.6370E+00  0.4040E+03
      9.114  0.1417E+02  0.4050E+03
      9.180  0.1057E+02  0.4057E+03
      9.246  0.8423E+01  0.4062E+03
      9.312  0.1539E-02  0.4062E+03
      9.378  0.4480E+01  0.4065E+03
      9.444  0.1086E+02  0.4072E+03
      9.510  0.1245E+02  0.4081E+03
      9.576  0.1031E+02  0.4087E+03
      9.642  0.1072E+02  0.4094E+03
      9.708  0.8641E+01  0.4100E+03
      9.774  0.5992E+01  0.4104E+03
      9.840  0.9255E+01  0.4110E+03
      9.906  0.1512E+02  0.4120E+03
      9.972  0.1353E+02  0.4129E+03
     10.038  0.1544E+02  0.4139E+03
     10.104  0.1035E+02  0.4146E+03
     10.171  0.1552E+02  0.4156E+03
     10.237  0.4949E+01  0.4160E+03
     10.303  0.1356E+02  0.4169E+03
     10.369  0.6293E+01  0.4173E+03
     10.435  0.1308E+02  0.4181E+03
     10.501  0.8753E+01  0.4187E+03
     10.567  0.1732E+02  0.4199E+03
     10.633  0.7640E+01  0.4204E+03
     10.699  0.6537E+01  0.4208E+03
     10.765  0.1621E+02  0.4219E+03
     10.831  0.8205E+01  0.4224E+03
     10.897  0.1767E+02  0.4236E+03
     10.963  0.3846E+01  0.4238E+03
     11.029  0.1266E+02  0.4247E+03
     11.095  0.1238E+02  0.4255E+03
     11.161  0.1605E+02  0.4266E+03
     11.227  0.8006E+01  0.4271E+03
     11.293  0.1256E+02  0.4279E+03
     11.359  0.3308E+01  0.4281E+03
     11.426  0.2016E+02  0.4295E+03
     11.492  0.9256E+01  0.4301E+03
     11.558  0.4237E+01  0.4304E+03
     11.624  0.7882E+01  0.4309E+03
     11.690  0.2708E+01  0.4311E+03
     11.756  0.2152E+01  0.4312E+03
     11.822  0.4097E+01  0.4315E+03
     11.888  0.2515E+01  0.4316E+03
     11.954  0.1829E+01  0.4318E+03
     12.020  0.1412E+01  0.4319E+03
     12.086  0.0000E+00  0.4319E+03
     12.152  0.0000E+00  0.4319E+03
     12.218  0.0000E+00  0.4319E+03
     12.284  0.0000E+00  0.4319E+03
     12.350  0.1624E-02  0.4319E+03
     12.416  0.2117E+01  0.4320E+03
     12.482  0.0000E+00  0.4320E+03
     12.548  0.0000E+00  0.4320E+03
     12.614  0.0000E+00  0.4320E+03
     12.681  0.0000E+00  0.4320E+03
     12.747  0.0000E+00  0.4320E+03
     12.813  0.0000E+00  0.4320E+03
     12.879  0.0000E+00  0.4320E+03
     12.945  0.0000E+00  0.4320E+03
     13.011  0.0000E+00  0.4320E+03
     13.077  0.0000E+00  0.4320E+03
     13.143  0.0000E+00  0.4320E+03
     13.209  0.0000E+00  0.4320E+03
     13.275  0.0000E+00  0.4320E+03
