   32   32    1    1
  0.1313628E+02  0.7491017E-09  0.7491017E-09  0.7491017E-09  0.5000000E-15
  1.000000000000000E-004
  CAR 
 unknown system                          
  352   20  216
 
  0.0000000E+00  0.0000000E+00  0.0000000E+00  0.2915452E-02
   1       -5.6401
   2       -3.0542
   3       -3.0542
   4       -3.0542
   5       -3.0542
   6       -3.0542
   7       -3.0542
   8       -1.6010
   9       -1.6010
  10       -1.6010
  11       -1.6010
  12       -1.3818
  13       -1.3818
  14       -1.3818
  15       -1.2783
  16       -1.2783
  17       -1.2783
  18       -1.2783
  19       -1.2783
  20       -1.2783
  21       -1.2783
  22       -1.2783
  23       -1.2783
  24       -1.2783
  25       -1.2783
  26       -1.2783
  27       -0.9944
  28       -0.9944
  29       -0.9944
  30       -0.7341
  31       -0.7341
  32       -0.7341
  33       -0.7341
  34       -0.7341
  35       -0.7341
  36       -0.4185
  37       -0.4185
  38       -0.4185
  39       -0.4185
  40       -0.4185
  41       -0.4185
  42       -0.2317
  43       -0.2317
  44       -0.2317
  45       -0.2317
  46       -0.2317
  47       -0.2317
  48       -0.2317
  49       -0.2317
  50       -0.2317
  51       -0.2317
  52       -0.2317
  53       -0.2317
  54       -0.2307
  55       -0.2307
  56       -0.2307
  57       -0.2307
  58       -0.2307
  59       -0.2307
  60       -0.2307
  61       -0.2307
  62       -0.2307
  63       -0.2307
  64       -0.2307
  65       -0.2307
  66       -0.0488
  67       -0.0488
  68       -0.0488
  69       -0.0488
  70       -0.0488
  71       -0.0488
  72       -0.0488
  73       -0.0488
  74       -0.0488
  75       -0.0488
  76       -0.0488
  77       -0.0488
  78        0.1606
  79        0.1606
  80        0.1606
  81        0.1606
  82        0.1606
  83        0.1606
  84        0.1606
  85        0.1606
  86        0.1828
  87        0.1828
  88        0.1828
  89        0.5069
  90        0.5069
  91        0.5069
  92        0.5069
  93        0.5069
  94        0.5069
  95        0.6154
  96        0.6154
  97        0.6154
  98        0.6154
  99        0.6154
 100        0.6154
 101        0.6154
 102        0.6154
 103        0.6154
 104        0.6154
 105        0.6154
 106        0.6154
 107        0.7461
 108        0.7461
 109        0.7461
 110        0.7461
 111        0.7461
 112        0.7461
 113        0.7461
 114        0.7461
 115        0.7461
 116        0.7461
 117        0.7461
 118        0.7461
 119        0.8552
 120        0.8552
 121        0.8552
 122        0.8552
 123        0.8552
 124        0.8552
 125        0.8809
 126        0.8809
 127        0.8809
 128        0.8809
 129        0.8809
 130        0.8809
 131        0.8809
 132        0.8809
 133        0.8809
 134        0.8809
 135        0.8809
 136        0.8809
 137        0.8843
 138        0.8843
 139        1.1156
 140        1.1156
 141        1.1156
 142        1.1156
 143        1.1156
 144        1.1156
 145        1.3512
 146        1.3512
 147        1.3512
 148        1.3634
 149        1.3634
 150        1.3634
 151        1.3634
 152        1.3634
 153        1.3634
 154        1.3634
 155        1.3634
 156        1.4818
 157        1.4818
 158        1.4818
 159        1.4818
 160        1.4818
 161        1.4818
 162        1.4825
 163        1.4825
 164        1.4825
 165        1.4825
 166        1.4825
 167        1.4825
 168        2.2321
 169        2.2321
 170        2.2321
 171        2.2321
 172        2.5596
 173        2.5596
 174        2.5596
 175        2.5596
 176        2.5596
 177        2.5596
 178        2.5596
 179        2.5596
 180        2.5596
 181        2.5596
 182        2.5596
 183        2.5596
 184        4.5164
 185        4.5164
 186        4.5164
 187        6.1740
 188        6.1740
 189        6.1740
 190        6.1740
 191        8.7604
 192        8.7604
 193        8.7604
 194        8.7604
 195        8.7604
 196        8.7604
 197        8.7604
 198        8.7604
 199        8.7604
 200        8.7604
 201        8.7604
 202        8.7604
 203        9.3297
 204        9.3297
 205        9.3297
 206       10.7511
 207       10.7511
 208       10.7511
 209       10.7511
 210       10.7511
 211       10.7512
 212       10.8144
 213       10.8144
 214       10.8144
 215       10.8144
 216       10.8144
 
  0.1428571E+00  0.0000000E+00  0.0000000E+00  0.1749271E-01
   1       -5.5826
   2       -3.6774
   3       -3.0070
   4       -3.0070
   5       -3.0070
   6       -3.0070
   7       -2.4369
   8       -1.6269
   9       -1.6269
  10       -1.6269
  11       -1.6269
  12       -1.5892
  13       -1.5892
  14       -1.5892
  15       -1.5892
  16       -1.3833
  17       -1.3563
  18       -1.3563
  19       -1.3021
  20       -1.3021
  21       -1.3021
  22       -1.3021
  23       -0.9838
  24       -0.9838
  25       -0.9838
  26       -0.9838
  27       -0.9803
  28       -0.9795
  29       -0.9795
  30       -0.7768
  31       -0.7768
  32       -0.7147
  33       -0.7147
  34       -0.7147
  35       -0.7147
  36       -0.5488
  37       -0.4386
  38       -0.4386
  39       -0.4123
  40       -0.4123
  41       -0.4123
  42       -0.4123
  43       -0.2869
  44       -0.2581
  45       -0.2581
  46       -0.2581
  47       -0.2581
  48       -0.2530
  49       -0.2530
  50       -0.2530
  51       -0.2530
  52       -0.2297
  53       -0.2297
  54       -0.2297
  55       -0.2297
  56       -0.2140
  57       -0.2140
  58       -0.2140
  59       -0.2140
  60       -0.1701
  61       -0.1701
  62       -0.1701
  63       -0.1701
  64       -0.1580
  65       -0.1580
  66       -0.1580
  67       -0.1580
  68       -0.0373
  69       -0.0373
  70       -0.0373
  71       -0.0373
  72        0.0082
  73        0.0082
  74        0.0285
  75        0.0285
  76        0.0285
  77        0.0285
  78        0.1512
  79        0.1512
  80        0.1512
  81        0.1512
  82        0.1675
  83        0.1743
  84        0.1743
  85        0.1743
  86        0.1743
  87        0.1954
  88        0.1954
  89        0.4416
  90        0.4416
  91        0.4416
  92        0.4416
  93        0.5302
  94        0.5627
  95        0.5627
  96        0.5627
  97        0.5627
  98        0.5918
  99        0.6087
 100        0.6087
 101        0.6255
 102        0.6255
 103        0.6255
 104        0.6255
 105        0.6610
 106        0.6610
 107        0.6610
 108        0.6610
 109        0.7460
 110        0.7460
 111        0.7460
 112        0.7460
 113        0.7993
 114        0.7993
 115        0.7993
 116        0.7993
 117        0.8196
 118        0.8196
 119        0.8196
 120        0.8196
 121        0.8555
 122        0.8555
 123        0.8555
 124        0.8555
 125        0.8704
 126        0.8901
 127        0.8904
 128        0.8904
 129        0.8918
 130        0.8918
 131        0.9350
 132        0.9350
 133        0.9350
 134        0.9350
 135        0.9656
 136        0.9656
 137        0.9656
 138        0.9656
 139        1.0638
 140        1.1334
 141        1.1334
 142        1.1334
 143        1.1334
 144        1.1676
 145        1.2227
 146        1.2227
 147        1.2227
 148        1.2227
 149        1.3332
 150        1.3332
 151        1.3452
 152        1.3483
 153        1.3483
 154        1.3483
 155        1.3483
 156        1.3938
 157        1.3938
 158        1.4593
 159        1.4593
 160        1.4593
 161        1.4593
 162        1.4604
 163        1.4604
 164        1.4818
 165        1.4818
 166        1.4824
 167        1.4824
 168        2.1553
 169        2.1553
 170        2.1553
 171        2.1553
 172        2.2954
 173        2.2954
 174        2.2954
 175        2.2954
 176        2.5564
 177        2.5564
 178        2.5564
 179        2.5564
 180        3.0958
 181        3.0958
 182        3.0958
 183        3.0958
 184        4.1174
 185        4.6570
 186        4.6570
 187        6.3538
 188        6.3538
 189        6.3538
 190        6.3538
 191        7.8581
 192        7.8581
 193        8.0146
 194        8.0146
 195        8.0146
 196        8.0146
 197        8.8367
 198        8.8367
 199        8.8367
 200        8.8367
 201        9.3536
 202        9.3536
 203        9.7224
 204        9.7224
 205        9.8470
 206       10.3453
 207       10.3453
 208       10.8286
 209       10.8286
 210       10.8286
 211       10.8286
 212       11.0205
 213       11.0205
 214       11.0205
 215       11.0205
 216       11.2181
 
  0.2857143E+00  0.0000000E+00  0.0000000E+00  0.1749271E-01
   1       -5.4107
   2       -4.2482
   3       -2.8674
   4       -2.8674
   5       -2.8674
   6       -2.8674
   7       -1.9955
   8       -1.9955
   9       -1.9955
  10       -1.9955
  11       -1.9228
  12       -1.5548
  13       -1.5548
  14       -1.5548
  15       -1.5548
  16       -1.3961
  17       -1.3612
  18       -1.3612
  19       -1.3612
  20       -1.3612
  21       -1.2823
  22       -1.2823
  23       -0.9385
  24       -0.9345
  25       -0.9345
  26       -0.8872
  27       -0.8872
  28       -0.7562
  29       -0.7562
  30       -0.7562
  31       -0.7562
  32       -0.6715
  33       -0.6596
  34       -0.6596
  35       -0.6596
  36       -0.6596
  37       -0.6117
  38       -0.6117
  39       -0.3943
  40       -0.3943
  41       -0.3943
  42       -0.3943
  43       -0.3132
  44       -0.3132
  45       -0.3132
  46       -0.3132
  47       -0.2931
  48       -0.2931
  49       -0.2931
  50       -0.2931
  51       -0.2853
  52       -0.2853
  53       -0.2853
  54       -0.2853
  55       -0.2240
  56       -0.2240
  57       -0.2240
  58       -0.2240
  59       -0.2080
  60       -0.2080
  61       -0.2080
  62       -0.2080
  63       -0.1607
  64       -0.0085
  65       -0.0085
  66       -0.0085
  67       -0.0085
  68        0.0021
  69        0.0021
  70        0.0021
  71        0.0021
  72        0.0862
  73        0.0862
  74        0.0862
  75        0.0862
  76        0.1221
  77        0.1242
  78        0.1242
  79        0.1242
  80        0.1242
  81        0.2146
  82        0.2146
  83        0.2146
  84        0.2146
  85        0.2329
  86        0.2329
  87        0.2787
  88        0.2787
  89        0.3313
  90        0.3313
  91        0.3313
  92        0.3313
  93        0.4638
  94        0.4638
  95        0.4638
  96        0.4638
  97        0.4851
  98        0.4851
  99        0.6010
 100        0.6848
 101        0.6848
 102        0.6848
 103        0.6848
 104        0.7325
 105        0.7325
 106        0.7325
 107        0.7325
 108        0.7463
 109        0.7463
 110        0.7463
 111        0.7463
 112        0.7805
 113        0.7805
 114        0.7805
 115        0.7805
 116        0.8297
 117        0.8469
 118        0.8469
 119        0.8469
 120        0.8469
 121        0.8521
 122        0.8521
 123        0.8521
 124        0.8521
 125        0.8824
 126        0.9071
 127        0.9148
 128        0.9148
 129        0.9148
 130        0.9148
 131        0.9798
 132        0.9798
 133        1.0147
 134        1.0377
 135        1.0377
 136        1.0377
 137        1.0377
 138        1.0387
 139        1.0387
 140        1.0698
 141        1.0698
 142        1.0698
 143        1.0698
 144        1.1694
 145        1.1694
 146        1.2149
 147        1.2149
 148        1.2149
 149        1.2149
 150        1.2173
 151        1.2803
 152        1.2803
 153        1.3042
 154        1.3042
 155        1.3042
 156        1.3042
 157        1.3277
 158        1.3941
 159        1.3941
 160        1.3941
 161        1.3941
 162        1.3983
 163        1.3983
 164        1.4819
 165        1.4819
 166        1.4823
 167        1.4823
 168        1.8419
 169        1.8419
 170        1.8419
 171        1.8419
 172        2.3998
 173        2.3998
 174        2.3998
 175        2.3998
 176        2.5452
 177        2.5452
 178        2.5452
 179        2.5452
 180        3.2441
 181        3.7950
 182        3.7950
 183        3.7950
 184        3.7950
 185        5.0388
 186        5.0388
 187        6.8286
 188        6.8286
 189        6.8286
 190        6.8286
 191        6.8646
 192        6.8646
 193        6.8646
 194        6.8646
 195        7.0221
 196        7.0221
 197        9.0620
 198        9.0620
 199        9.0620
 200        9.0620
 201        9.4269
 202        9.4269
 203        9.7682
 204        9.7682
 205        9.7682
 206        9.7682
 207       10.0031
 208       10.0031
 209       10.5163
 210       10.5163
 211       10.5163
 212       10.5163
 213       10.7381
 214       10.7381
 215       10.9608
 216       10.9608
 
  0.4285714E+00  0.0000000E+00  0.0000000E+00  0.1749271E-01
   1       -5.1271
   2       -4.7367
   3       -2.6424
   4       -2.6424
   5       -2.6424
   6       -2.6424
   7       -2.3446
   8       -2.3446
   9       -2.3446
  10       -2.3446
  11       -1.5985
  12       -1.5008
  13       -1.5008
  14       -1.5008
  15       -1.5008
  16       -1.4485
  17       -1.4330
  18       -1.4330
  19       -1.4330
  20       -1.4330
  21       -1.1682
  22       -1.1682
  23       -1.0287
  24       -1.0287
  25       -0.8709
  26       -0.8588
  27       -0.8588
  28       -0.7805
  29       -0.7515
  30       -0.7515
  31       -0.5979
  32       -0.5979
  33       -0.5979
  34       -0.5979
  35       -0.5841
  36       -0.5841
  37       -0.5841
  38       -0.5841
  39       -0.3996
  40       -0.3996
  41       -0.3996
  42       -0.3996
  43       -0.3965
  44       -0.3965
  45       -0.3965
  46       -0.3965
  47       -0.3662
  48       -0.3662
  49       -0.3662
  50       -0.3662
  51       -0.3310
  52       -0.3310
  53       -0.3310
  54       -0.3310
  55       -0.2166
  56       -0.2166
  57       -0.2166
  58       -0.2166
  59       -0.2101
  60       -0.2101
  61       -0.2101
  62       -0.2101
  63       -0.0466
  64        0.0375
  65        0.0375
  66        0.0375
  67        0.0375
  68        0.0495
  69        0.0840
  70        0.0840
  71        0.0840
  72        0.0840
  73        0.1486
  74        0.1486
  75        0.1486
  76        0.1486
  77        0.2299
  78        0.2299
  79        0.2299
  80        0.2299
  81        0.2549
  82        0.2549
  83        0.2549
  84        0.2549
  85        0.2793
  86        0.2793
  87        0.2793
  88        0.2793
  89        0.2947
  90        0.2947
  91        0.3646
  92        0.3646
  93        0.3646
  94        0.3646
  95        0.3794
  96        0.3794
  97        0.5711
  98        0.5711
  99        0.5711
 100        0.5711
 101        0.5734
 102        0.5734
 103        0.6859
 104        0.7493
 105        0.7493
 106        0.7493
 107        0.7493
 108        0.7590
 109        0.7590
 110        0.7590
 111        0.7590
 112        0.7613
 113        0.7613
 114        0.7613
 115        0.7613
 116        0.7659
 117        0.7957
 118        0.7957
 119        0.7957
 120        0.7957
 121        0.8251
 122        0.8251
 123        0.8251
 124        0.8251
 125        0.8352
 126        0.8352
 127        0.8352
 128        0.8352
 129        0.8793
 130        0.8793
 131        0.9344
 132        0.9709
 133        1.0909
 134        1.0909
 135        1.1425
 136        1.1425
 137        1.1425
 138        1.1425
 139        1.1785
 140        1.1785
 141        1.1847
 142        1.1847
 143        1.1847
 144        1.1847
 145        1.1966
 146        1.1966
 147        1.2339
 148        1.2339
 149        1.2339
 150        1.2339
 151        1.2620
 152        1.2978
 153        1.2978
 154        1.2978
 155        1.2978
 156        1.2994
 157        1.3015
 158        1.3015
 159        1.3752
 160        1.3752
 161        1.3752
 162        1.3752
 163        1.4597
 164        1.4821
 165        1.4821
 166        1.4822
 167        1.4822
 168        1.5869
 169        1.5869
 170        1.5869
 171        1.5869
 172        2.2898
 173        2.4763
 174        2.4763
 175        2.4763
 176        2.4763
 177        2.5213
 178        2.5213
 179        2.5213
 180        2.5213
 181        4.6634
 182        4.6634
 183        4.6634
 184        4.6634
 185        5.5906
 186        5.5906
 187        5.6852
 188        5.6852
 189        5.6852
 190        5.6852
 191        6.2611
 192        6.2611
 193        7.6427
 194        7.6427
 195        7.6427
 196        7.6427
 197        8.6263
 198        8.6263
 199        8.6263
 200        8.6263
 201        9.4259
 202        9.4259
 203        9.4259
 204        9.4259
 205        9.5542
 206        9.5542
 207        9.7430
 208        9.7430
 209        9.9151
 210        9.9151
 211        9.9151
 212        9.9151
 213       11.1821
 214       11.1821
 215       11.1821
 216       11.1821
 
  0.1428571E+00  0.1428571E+00  0.0000000E+00  0.3498542E-01
   1       -5.5252
   2       -3.6269
   3       -3.6269
   4       -2.9606
   5       -2.9606
   6       -2.3938
   7       -2.3938
   8       -2.0690
   9       -1.6286
  10       -1.6286
  11       -1.6286
  12       -1.6286
  13       -1.6244
  14       -1.6244
  15       -1.5334
  16       -1.5334
  17       -1.3573
  18       -1.3573
  19       -1.3312
  20       -1.2268
  21       -1.2268
  22       -1.0278
  23       -1.0278
  24       -1.0278
  25       -1.0278
  26       -0.9656
  27       -0.9656
  28       -0.9649
  29       -0.8056
  30       -0.7616
  31       -0.7616
  32       -0.7565
  33       -0.7565
  34       -0.6951
  35       -0.6951
  36       -0.5406
  37       -0.5406
  38       -0.4493
  39       -0.4493
  40       -0.4328
  41       -0.4328
  42       -0.4055
  43       -0.4055
  44       -0.3018
  45       -0.3018
  46       -0.2863
  47       -0.2863
  48       -0.2829
  49       -0.2829
  50       -0.2469
  51       -0.2406
  52       -0.2105
  53       -0.2105
  54       -0.2105
  55       -0.2105
  56       -0.1991
  57       -0.1991
  58       -0.1605
  59       -0.1605
  60       -0.1605
  61       -0.1605
  62       -0.1473
  63       -0.1301
  64       -0.1301
  65       -0.1301
  66       -0.1301
  67       -0.0890
  68       -0.0890
  69       -0.0211
  70       -0.0211
  71        0.0054
  72        0.0054
  73        0.0370
  74        0.0370
  75        0.0370
  76        0.0370
  77        0.1220
  78        0.1220
  79        0.1225
  80        0.1554
  81        0.1554
  82        0.1589
  83        0.1839
  84        0.1839
  85        0.1976
  86        0.1976
  87        0.2014
  88        0.2071
  89        0.4013
  90        0.4013
  91        0.4564
  92        0.4564
  93        0.4989
  94        0.4989
  95        0.5615
  96        0.5615
  97        0.5615
  98        0.5615
  99        0.5978
 100        0.6088
 101        0.6088
 102        0.6121
 103        0.6121
 104        0.6121
 105        0.6121
 106        0.6772
 107        0.6772
 108        0.6795
 109        0.6993
 110        0.6993
 111        0.7026
 112        0.7026
 113        0.7334
 114        0.8527
 115        0.8527
 116        0.8665
 117        0.8806
 118        0.8806
 119        0.8867
 120        0.8868
 121        0.8868
 122        0.8878
 123        0.8878
 124        0.8878
 125        0.8878
 126        0.8915
 127        0.8915
 128        0.8940
 129        0.8940
 130        0.9278
 131        0.9278
 132        0.9605
 133        0.9605
 134        1.0133
 135        1.0133
 136        1.0133
 137        1.0133
 138        1.0236
 139        1.0471
 140        1.0471
 141        1.0740
 142        1.0740
 143        1.1415
 144        1.1415
 145        1.1549
 146        1.1549
 147        1.1990
 148        1.1990
 149        1.3157
 150        1.3164
 151        1.3164
 152        1.3263
 153        1.3560
 154        1.3560
 155        1.3580
 156        1.3580
 157        1.3799
 158        1.3799
 159        1.4395
 160        1.4395
 161        1.4590
 162        1.4590
 163        1.4597
 164        1.4597
 165        1.4604
 166        1.4604
 167        1.4681
 168        1.8337
 169        2.0196
 170        2.0196
 171        2.1473
 172        2.1473
 173        2.1473
 174        2.1473
 175        2.6004
 176        2.6004
 177        2.6690
 178        2.6690
 179        3.1013
 180        3.1013
 181        3.1013
 182        3.1013
 183        3.7188
 184        4.2550
 185        4.2550
 186        4.7909
 187        6.2085
 188        6.2085
 189        6.8058
 190        6.8058
 191        7.2078
 192        7.2078
 193        7.9390
 194        7.9390
 195        7.9508
 196        7.9508
 197        8.2212
 198        8.2212
 199        8.8753
 200        8.8753
 201        9.3778
 202        9.7957
 203        9.7957
 204        9.8772
 205        9.8772
 206       10.2862
 207       10.2862
 208       10.2862
 209       10.2862
 210       10.3892
 211       10.3892
 212       10.4081
 213       11.1106
 214       11.1106
 215       11.3715
 216       11.3715
 
  0.2857143E+00  0.1428571E+00  0.0000000E+00  0.6997085E-01
   1       -5.3538
   2       -4.1952
   3       -3.4770
   4       -2.8239
   5       -2.8239
   6       -2.5075
   7       -2.2671
   8       -1.9789
   9       -1.9789
  10       -1.8843
  11       -1.6416
  12       -1.6416
  13       -1.6337
  14       -1.6337
  15       -1.5139
  16       -1.4563
  17       -1.4563
  18       -1.3686
  19       -1.2820
  20       -1.2588
  21       -1.1295
  22       -1.1295
  23       -0.9244
  24       -0.9211
  25       -0.9209
  26       -0.9104
  27       -0.8769
  28       -0.8681
  29       -0.8121
  30       -0.8121
  31       -0.7215
  32       -0.6976
  33       -0.6841
  34       -0.6613
  35       -0.6390
  36       -0.6390
  37       -0.6115
  38       -0.6032
  39       -0.5160
  40       -0.4798
  41       -0.4161
  42       -0.3854
  43       -0.3854
  44       -0.3812
  45       -0.3812
  46       -0.3607
  47       -0.3577
  48       -0.3209
  49       -0.2782
  50       -0.2782
  51       -0.2718
  52       -0.2604
  53       -0.2604
  54       -0.2360
  55       -0.2007
  56       -0.1713
  57       -0.1713
  58       -0.1589
  59       -0.1332
  60       -0.1332
  61       -0.1077
  62       -0.1077
  63       -0.1009
  64       -0.0915
  65       -0.0679
  66       -0.0679
  67       -0.0164
  68       -0.0037
  69        0.0276
  70        0.0276
  71        0.0602
  72        0.0602
  73        0.0754
  74        0.0754
  75        0.0918
  76        0.0918
  77        0.1178
  78        0.1445
  79        0.1445
  80        0.1839
  81        0.2178
  82        0.2178
  83        0.2354
  84        0.2417
  85        0.2432
  86        0.2467
  87        0.2467
  88        0.2694
  89        0.3146
  90        0.3146
  91        0.3444
  92        0.3648
  93        0.4441
  94        0.4570
  95        0.4570
  96        0.4855
  97        0.5144
  98        0.5144
  99        0.5939
 100        0.5939
 101        0.6104
 102        0.6268
 103        0.6419
 104        0.6726
 105        0.6730
 106        0.6730
 107        0.6874
 108        0.6874
 109        0.6902
 110        0.7360
 111        0.7367
 112        0.7773
 113        0.7847
 114        0.7950
 115        0.7950
 116        0.8308
 117        0.8409
 118        0.8409
 119        0.8526
 120        0.8526
 121        0.8736
 122        0.8796
 123        0.8796
 124        0.8910
 125        0.8981
 126        0.9015
 127        0.9061
 128        0.9517
 129        0.9517
 130        0.9725
 131        0.9852
 132        0.9899
 133        1.0046
 134        1.0046
 135        1.0194
 136        1.0384
 137        1.0506
 138        1.1030
 139        1.1070
 140        1.1070
 141        1.1089
 142        1.1089
 143        1.1225
 144        1.1237
 145        1.1259
 146        1.1488
 147        1.2059
 148        1.2059
 149        1.2557
 150        1.2645
 151        1.2884
 152        1.3086
 153        1.3120
 154        1.3120
 155        1.3351
 156        1.3351
 157        1.3476
 158        1.3488
 159        1.3841
 160        1.3841
 161        1.3941
 162        1.3948
 163        1.3982
 164        1.4587
 165        1.4600
 166        1.4604
 167        1.4606
 168        1.5887
 169        1.8323
 170        1.8323
 171        1.9742
 172        1.9742
 173        2.1228
 174        2.1228
 175        2.2018
 176        2.9507
 177        2.9507
 178        3.1141
 179        3.1141
 180        3.2150
 181        3.3856
 182        3.8112
 183        3.8112
 184        4.4885
 185        4.6223
 186        5.1587
 187        6.0881
 188        6.4417
 189        6.4417
 190        6.4552
 191        6.8609
 192        6.8609
 193        7.1090
 194        7.4941
 195        7.4941
 196        7.6389
 197        8.1765
 198        8.3263
 199        8.3263
 200        9.0593
 201        9.0593
 202        9.4521
 203        9.6429
 204        9.6429
 205        9.6878
 206        9.7787
 207        9.9697
 208       10.0121
 209       10.0599
 210       10.5073
 211       10.5730
 212       10.5730
 213       10.6900
 214       10.8093
 215       11.1202
 216       11.3676
 
  0.4285714E+00  0.1428571E+00  0.0000000E+00  0.6997085E-01
   1       -5.0711
   2       -4.6819
   3       -3.2329
   4       -2.9042
   5       -2.6041
   6       -2.6041
   7       -2.3148
   8       -2.3148
   9       -2.0657
  10       -1.8058
  11       -1.6451
  12       -1.6451
  13       -1.6406
  14       -1.6406
  15       -1.5645
  16       -1.4184
  17       -1.3594
  18       -1.3594
  19       -1.2473
  20       -1.2473
  21       -1.1655
  22       -1.1468
  23       -1.0227
  24       -1.0093
  25       -0.8578
  26       -0.8472
  27       -0.8465
  28       -0.7687
  29       -0.7438
  30       -0.7408
  31       -0.7183
  32       -0.6813
  33       -0.6473
  34       -0.6473
  35       -0.6085
  36       -0.6000
  37       -0.5705
  38       -0.5705
  39       -0.5249
  40       -0.4827
  41       -0.4761
  42       -0.4648
  43       -0.4648
  44       -0.4223
  45       -0.4051
  46       -0.4051
  47       -0.3899
  48       -0.3570
  49       -0.3530
  50       -0.3530
  51       -0.3101
  52       -0.3101
  53       -0.2569
  54       -0.2563
  55       -0.2430
  56       -0.2030
  57       -0.1513
  58       -0.1513
  59       -0.1380
  60       -0.1380
  61       -0.0496
  62       -0.0483
  63       -0.0483
  64       -0.0468
  65       -0.0211
  66        0.0161
  67        0.0161
  68        0.0473
  69        0.0779
  70        0.0898
  71        0.0898
  72        0.1213
  73        0.1213
  74        0.1504
  75        0.1504
  76        0.1679
  77        0.1679
  78        0.1993
  79        0.2251
  80        0.2251
  81        0.2320
  82        0.2550
  83        0.2550
  84        0.2741
  85        0.2741
  86        0.2894
  87        0.2961
  88        0.2980
  89        0.3180
  90        0.3180
  91        0.3608
  92        0.3608
  93        0.3716
  94        0.3802
  95        0.4136
  96        0.4136
  97        0.4915
  98        0.4915
  99        0.5229
 100        0.5229
 101        0.5335
 102        0.5555
 103        0.6173
 104        0.6279
 105        0.6279
 106        0.6358
 107        0.6523
 108        0.6523
 109        0.6847
 110        0.6980
 111        0.7328
 112        0.7596
 113        0.7596
 114        0.7704
 115        0.7988
 116        0.8118
 117        0.8118
 118        0.8368
 119        0.8457
 120        0.8495
 121        0.8517
 122        0.8664
 123        0.8882
 124        0.8916
 125        0.8955
 126        0.9060
 127        0.9060
 128        0.9310
 129        0.9437
 130        0.9437
 131        0.9441
 132        0.9504
 133        0.9710
 134        1.0804
 135        1.0967
 136        1.1219
 137        1.1219
 138        1.1388
 139        1.1776
 140        1.1781
 141        1.1832
 142        1.1994
 143        1.2018
 144        1.2018
 145        1.2025
 146        1.2085
 147        1.2085
 148        1.2271
 149        1.2271
 150        1.2319
 151        1.2567
 152        1.2808
 153        1.2808
 154        1.2967
 155        1.3013
 156        1.3017
 157        1.3033
 158        1.3033
 159        1.3097
 160        1.3644
 161        1.3644
 162        1.3910
 163        1.4585
 164        1.4589
 165        1.4602
 166        1.4603
 167        1.5769
 168        1.5769
 169        1.5859
 170        1.7047
 171        1.8702
 172        2.0250
 173        2.0250
 174        2.0812
 175        2.0812
 176        2.4572
 177        3.0849
 178        3.0849
 179        3.1197
 180        3.1197
 181        4.0170
 182        4.6893
 183        4.6893
 184        4.9894
 185        5.1421
 186        5.4074
 187        5.6967
 188        5.7175
 189        5.7175
 190        5.7622
 191        6.3563
 192        6.4646
 193        7.0519
 194        7.0519
 195        7.9546
 196        7.9546
 197        8.3712
 198        8.3712
 199        8.5577
 200        8.6517
 201        8.6517
 202        9.0667
 203        9.0952
 204        9.0952
 205        9.4055
 206        9.4055
 207        9.5807
 208        9.7695
 209       10.1301
 210       10.3633
 211       10.3667
 212       10.7060
 213       10.7882
 214       10.8377
 215       10.9903
 216       11.7710
 
  0.2857143E+00  0.2857143E+00  0.0000000E+00  0.3498542E-01
   1       -5.1840
   2       -4.0376
   3       -4.0376
   4       -2.9968
   5       -2.6961
   6       -2.6961
   7       -1.9332
   8       -1.9332
   9       -1.9332
  10       -1.9332
  11       -1.7718
  12       -1.7718
  13       -1.7207
  14       -1.7207
  15       -1.3435
  16       -1.3435
  17       -1.2888
  18       -1.2888
  19       -1.1906
  20       -1.1300
  21       -1.1300
  22       -0.9360
  23       -0.9360
  24       -0.9360
  25       -0.9360
  26       -0.8818
  27       -0.8818
  28       -0.8802
  29       -0.8528
  30       -0.8528