 vasp.4.6.28 25Jul05 complex 
 executed on             LinuxIFC date 2016.01.16  20:55:28
 running on    8 nodes
 distr:  one band on    1 nodes,    8 groups


--------------------------------------------------------------------------------------------------------


 INCAR:
 POTCAR:   PAW_PBE Cu 05Jan2001                   
 POTCAR:   PAW_PBE Cu 05Jan2001                   
   VRHFIN =Cu: d10 p1                                                           
   LEXCH  = PE                                                                  
   EATOM  =  1390.9800 eV,  102.2341 Ry                                         
                                                                                
   TITEL  = PAW_PBE Cu 05Jan2001                                                
   LULTRA =        F    use ultrasoft PP ?                                      
   IUNSCR =        1    unscreen: 0-lin 1-nonlin 2-no                           
   RPACOR =    2.000    partial core radius                                     
   POMASS =   63.546; ZVAL   =   11.000    mass and valenz                      
   RCORE  =    2.300    outmost cutoff radius                                   
   RWIGS  =    2.480; RWIGS  =    1.312    wigner-seitz radius (au A)           
   ENMAX  =  273.214; ENMIN  =  204.910 eV                                      
   RCLOC  =    1.712    cutoff for local pot                                    
   LCOR   =        T    correct aug charges                                     
   LPAW   =        T    paw PP                                                  
   EAUG   =  516.456                                                            
   DEXC   =    -.008                                                            
   RMAX   =    2.789    core radius for proj-oper                               
   RAUG   =    1.300    factor for augmentation sphere                          
   RDEP   =    2.302    radius for radial grids                                 
   QCUT   =   -4.481; QGAM   =    8.962    optimization parameters              
                                                                                
   Description                                                                  
     l     E      TYP  RCUT    TYP  RCUT                                        
     2   .000     23  2.300                                                     
     2   .000     23  2.300                                                     
     0   .000     23  2.300                                                     
     0   .000     23  2.300                                                     
     1  -.200     23  2.300                                                     
     1   .000     23  2.300                                                     
     3   .000      7   .000                                                     
  local pseudopotential read in
  partial core-charges read in
  atomic valenz-charges read in
  non local Contribution for L=           2  read in
    real space projection operators read in
  non local Contribution for L=           2  read in
    real space projection operators read in
  non local Contribution for L=           0  read in
    real space projection operators read in
  non local Contribution for L=           0  read in
    real space projection operators read in
  non local Contribution for L=           1  read in
    real space projection operators read in
  non local Contribution for L=           1  read in
    real space projection operators read in
    PAW grid and wavefunctions read in
 
   number of l-projection  operators is LMAX  =           6
   number of lm-projection operators is LMMAX =          18
 

 ----------------------------------------------------------------------------- 
|                                                                             |
|  ADVICE TO THIS USER RUNNING 'VASP/VAMP'   (HEAR YOUR MASTER'S VOICE ...):  |
|                                                                             |
|      You have a (more or less) 'large supercell' and for larger cells       |
|      it might be more efficient to use real space projection operators      |
|      So try LREAL= Auto  in the INCAR   file.                               |
|      Mind: If you want to do an extremely accurate calculations keep the    |
|      reciprocal projection scheme          (i.e. LREAL=.FALSE.)             |
|                                                                             |
 ----------------------------------------------------------------------------- 

 PAW_PBE Cu 05Jan2001                   :
 energy of atom  1       EATOM=-1390.9800
 kinetic energy error for atom=    0.0032 (will be added to EATOM!!)
 
 EXHCAR: internal setup
 exchange correlation table for  LEXCH =        8
   RHO(1)=    0.500       N(1)  =     2000
   RHO(2)=  100.500       N(2)  =     4000
 
 POSCAR: Cu                                      
  positions in direct lattice
  No initial velocities read in
 


--------------------------------------------------------------------------------------------------------


 ion  position               nearest neighbor table
   1  0.000  0.000  0.000-   9 2.65  10 2.65  11 2.65  12 2.65  17 2.65  18 2.65  21 2.65  22 2.65
                            25 2.65  27 2.65  29 2.65  31 2.65
   2  0.500  0.000  0.000-   9 2.65  10 2.65  11 2.65  12 2.65  17 2.65  18 2.65  21 2.65  22 2.65
                            26 2.65  28 2.65  30 2.65  32 2.65
   3  0.000  0.500  0.000-   9 2.65  10 2.65  11 2.65  12 2.65  19 2.65  20 2.65  23 2.65  24 2.65
                            25 2.65  27 2.65  29 2.65  31 2.65
   4  0.500  0.500  0.000-   9 2.65  10 2.65  11 2.65  12 2.65  19 2.65  20 2.65  23 2.65  24 2.65
                            26 2.65  28 2.65  30 2.65  32 2.65
   5  0.000  0.000  0.500-  13 2.65  14 2.65  15 2.65  16 2.65  17 2.65  18 2.65  21 2.65  22 2.65
                            25 2.65  27 2.65  29 2.65  31 2.65
   6  0.500  0.000  0.500-  13 2.65  14 2.65  15 2.65  16 2.65  17 2.65  18 2.65  21 2.65  22 2.65
                            26 2.65  28 2.65  30 2.65  32 2.65
   7  0.000  0.500  0.500-  13 2.65  14 2.65  15 2.65  16 2.65  19 2.65  20 2.65  23 2.65  24 2.65
                            25 2.65  27 2.65  29 2.65  31 2.65
   8  0.500  0.500  0.500-  13 2.65  14 2.65  15 2.65  16 2.65  19 2.65  20 2.65  23 2.65  24 2.65
                            26 2.65  28 2.65  30 2.65  32 2.65
   9  0.250  0.250  0.000-   1 2.65   2 2.65   3 2.65   4 2.65  17 2.65  19 2.65  21 2.65  23 2.65
                            25 2.65  26 2.65  29 2.65  30 2.65
  10  0.750  0.250  0.000-   1 2.65   2 2.65   3 2.65   4 2.65  18 2.65  20 2.65  22 2.65  24 2.65
                            25 2.65  26 2.65  29 2.65  30 2.65
  11  0.250  0.750  0.000-   1 2.65   2 2.65   3 2.65   4 2.65  17 2.65  19 2.65  21 2.65  23 2.65
                            27 2.65  28 2.65  31 2.65  32 2.65
  12  0.750  0.750  0.000-   1 2.65   2 2.65   3 2.65   4 2.65  18 2.65  20 2.65  22 2.65  24 2.65
                            27 2.65  28 2.65  31 2.65  32 2.65
  13  0.250  0.250  0.500-   5 2.65   6 2.65   7 2.65   8 2.65  17 2.65  19 2.65  21 2.65  23 2.65
                            25 2.65  26 2.65  29 2.65  30 2.65
  14  0.750  0.250  0.500-   5 2.65   6 2.65   7 2.65   8 2.65  18 2.65  20 2.65  22 2.65  24 2.65
                            25 2.65  26 2.65  29 2.65  30 2.65
  15  0.250  0.750  0.500-   5 2.65   6 2.65   7 2.65   8 2.65  17 2.65  19 2.65  21 2.65  23 2.65
                            27 2.65  28 2.65  31 2.65  32 2.65
  16  0.750  0.750  0.500-   5 2.65   6 2.65   7 2.65   8 2.65  18 2.65  20 2.65  22 2.65  24 2.65
                            27 2.65  28 2.65  31 2.65  32 2.65
  17  0.250  0.000  0.250-   1 2.65   2 2.65   5 2.65   6 2.65   9 2.65  11 2.65  13 2.65  15 2.65
                            25 2.65  26 2.65  27 2.65  28 2.65
  18  0.750  0.000  0.250-   1 2.65   2 2.65   5 2.65   6 2.65  10 2.65  12 2.65  14 2.65  16 2.65
                            25 2.65  26 2.65  27 2.65  28 2.65
  19  0.250  0.500  0.250-   3 2.65   4 2.65   7 2.65   8 2.65   9 2.65  11 2.65  13 2.65  15 2.65
                            25 2.65  26 2.65  27 2.65  28 2.65
  20  0.750  0.500  0.250-   3 2.65   4 2.65   7 2.65   8 2.65  10 2.65  12 2.65  14 2.65  16 2.65
                            25 2.65  26 2.65  27 2.65  28 2.65
  21  0.250  0.000  0.750-   1 2.65   2 2.65   5 2.65   6 2.65   9 2.65  11 2.65  13 2.65  15 2.65
                            29 2.65  30 2.65  31 2.65  32 2.65
  22  0.750  0.000  0.750-   1 2.65   2 2.65   5 2.65   6 2.65  10 2.65  12 2.65  14 2.65  16 2.65
                            29 2.65  30 2.65  31 2.65  32 2.65
  23  0.250  0.500  0.750-   3 2.65   4 2.65   7 2.65   8 2.65   9 2.65  11 2.65  13 2.65  15 2.65
                            29 2.65  30 2.65  31 2.65  32 2.65
  24  0.750  0.500  0.750-   3 2.65   4 2.65   7 2.65   8 2.65  10 2.65  12 2.65  14 2.65  16 2.65
                            29 2.65  30 2.65  31 2.65  32 2.65
  25  0.000  0.250  0.250-   1 2.65   3 2.65   5 2.65   7 2.65   9 2.65  10 2.65  13 2.65  14 2.65
                            17 2.65  18 2.65  19 2.65  20 2.65
  26  0.500  0.250  0.250-   2 2.65   4 2.65   6 2.65   8 2.65   9 2.65  10 2.65  13 2.65  14 2.65
                            17 2.65  18 2.65  19 2.65  20 2.65
  27  0.000  0.750  0.250-   1 2.65   3 2.65   5 2.65   7 2.65  11 2.65  12 2.65  15 2.65  16 2.65
                            17 2.65  18 2.65  19 2.65  20 2.65
  28  0.500  0.750  0.250-   2 2.65   4 2.65   6 2.65   8 2.65  11 2.65  12 2.65  15 2.65  16 2.65
                            17 2.65  18 2.65  19 2.65  20 2.65
  29  0.000  0.250  0.750-   1 2.65   3 2.65   5 2.65   7 2.65   9 2.65  10 2.65  13 2.65  14 2.65
                            21 2.65  22 2.65  23 2.65  24 2.65
  30  0.500  0.250  0.750-   2 2.65   4 2.65   6 2.65   8 2.65   9 2.65  10 2.65  13 2.65  14 2.65
                            21 2.65  22 2.65  23 2.65  24 2.65
  31  0.000  0.750  0.750-   1 2.65   3 2.65   5 2.65   7 2.65  11 2.65  12 2.65  15 2.65  16 2.65
                            21 2.65  22 2.65  23 2.65  24 2.65
  32  0.500  0.750  0.750-   2 2.65   4 2.65   6 2.65   8 2.65  11 2.65  12 2.65  15 2.65  16 2.65
                            21 2.65  22 2.65  23 2.65  24 2.65
 
  LATTYP: Found a simple cubic cell.
 ALAT       =     7.4910165722
  
  Lattice vectors:
  
 A1 = (   7.4910165722,   0.0000000000,   0.0000000000)
 A2 = (   0.0000000000,   7.4910165722,   0.0000000000)
 A3 = (   0.0000000000,   0.0000000000,   7.4910165722)
 Subroutine PRICEL returns following result:
 
  LATTYP: Found a face centered cubic cell.
 ALAT       =     3.7455082861
  
  Lattice vectors:
  
 A1 = (   1.8727541430,   1.8727541430,  -0.0000000000)
 A2 = (   1.8727541430,   0.0000000000,  -1.8727541430)
 A3 = (   0.0000000000,   1.8727541430,  -1.8727541430)
 
  32 primitive cells build up your supercell.
 

Analysis of symmetry for initial positions (statically):

 Routine SETGRP: Setting up the symmetry group for a 
 simple cubic supercell.


 Subroutine GETGRP returns: Found 48 space group operations
 (whereof 48 operations were pure point group operations)
 out of a pool of 48 trial point group operations.


The static configuration has the point symmetry O_h .

Analysis of symmetry for dynamics (positions and initial velocities):

 Subroutine DYNSYM returns: Found 48 space group operations
 (whereof 48 operations were pure point group operations)
 out of a pool of 48 trial space group operations
 (whereof 48 operations were pure point group operations)
 and found also    32 'primitive' translations


The dynamic configuration has the point symmetry O_h .
 
 
 KPOINTS: Automatic mesh                          

Automatic generation of k-mesh.
 generate k-points for:   7   7   7
 
 Subroutine IBZKPT returns following result:
 ===========================================
 
 Found     20 irreducible k-points:
 
 Following reciprocal coordinates:
            Coordinates               Weight
  0.000000  0.000000  0.000000      1.000000
  0.142857  0.000000  0.000000      6.000000
  0.285714  0.000000  0.000000      6.000000
  0.428571  0.000000  0.000000      6.000000
  0.142857  0.142857  0.000000     12.000000
  0.285714  0.142857  0.000000     24.000000
  0.428571  0.142857  0.000000     24.000000
  0.285714  0.285714  0.000000     12.000000
  0.428571  0.285714  0.000000     24.000000
  0.428571  0.428571  0.000000     12.000000
  0.142857  0.142857  0.142857      8.000000
  0.285714  0.142857  0.142857     24.000000
  0.428571  0.142857  0.142857     24.000000
  0.285714  0.285714  0.142857     24.000000
  0.428571  0.285714  0.142857     48.000000
  0.428571  0.428571  0.142857     24.000000
  0.285714  0.285714  0.285714      8.000000
  0.428571  0.285714  0.285714     24.000000
  0.428571  0.428571  0.285714     24.000000
  0.428571  0.428571  0.428571      8.000000
 
 Following cartesian coordinates:
            Coordinates               Weight
  0.000000  0.000000  0.000000      1.000000
  0.019070  0.000000  0.000000      6.000000
  0.038141  0.000000  0.000000      6.000000
  0.057211  0.000000  0.000000      6.000000
  0.019070  0.019070  0.000000     12.000000
  0.038141  0.019070  0.000000     24.000000
  0.057211  0.019070  0.000000     24.000000
  0.038141  0.038141  0.000000     12.000000
  0.057211  0.038141  0.000000     24.000000
  0.057211  0.057211  0.000000     12.000000
  0.019070  0.019070  0.019070      8.000000
  0.038141  0.019070  0.019070     24.000000
  0.057211  0.019070  0.019070     24.000000
  0.038141  0.038141  0.019070     24.000000
  0.057211  0.038141  0.019070     48.000000
  0.057211  0.057211  0.019070     24.000000
  0.038141  0.038141  0.038141      8.000000
  0.057211  0.038141  0.038141     24.000000
  0.057211  0.057211  0.038141     24.000000
  0.057211  0.057211  0.057211      8.000000
 


--------------------------------------------------------------------------------------------------------




 Dimension of arrays:
   k-Points           NKPTS =     20   number of bands    NBANDS=    216
   number of dos      NEDOS =    301   number of ions     NIONS =     32
   non local maximal  LDIM  =      6   non local SUM 2l+1 LMDIM =     18
   total plane-waves  NPLWV = 175616
   max r-space proj   IRMAX =      1   max aug-charges    IRDMAX= 117486
   dimension x,y,z NGX =    56 NGY =   56 NGZ =   56
   dimension x,y,z NGXF=   112 NGYF=  112 NGZF=  112
   support grid    NGXF=   224 NGYF=  224 NGZF=  224
   ions per type =              32
 NGX,Y,Z   is equivalent  to a cutoff of  12.43, 12.43, 12.43 a.u.
 NGXF,Y,Z  is equivalent  to a cutoff of  24.86, 24.86, 24.86 a.u.


 I would recommend the setting:
   dimension x,y,z NGX =    55 NGY =   55 NGZ =   55
 SYSTEM =  unknown system                          
 POSCAR =  Cu                                      

 Startparameter for this run:
   NWRITE =      2    write-flag & timer
   PREC   = accura    medium, high low
   ISTART =      0    job   : 0-new  1-cont  2-samecut
   ICHARG =      2    charge: 1-file 2-atom 10-const
   ISPIN  =      1    spin polarized calculation?
   LNONCOLLINEAR =      F non collinear calculations
   LSORBIT =      F    spin-orbit coupling
   INIWAV =      1    electr: 0-lowe 1-rand  2-diag
   LASPH  =      F    aspherical Exc in radial PAW
   METAGGA=      F    non-selfconsistent MetaGGA calc.

 Electronic Relaxation 1
   ENCUT  =  500.0 eV  36.75 Ry    6.06 a.u.  13.66 13.66 13.66*2*pi/ulx,y,z
   ENINI  =  500.0     initial cutoff
   ENAUG  =  516.5 eV  augmentation charge cutoff
   NELM   =     60;   NELMIN=  2; NELMDL=  0     # of ELM steps 
   EDIFF  = 0.1E-07   stopping-criterion for ELM
   LREAL  =      F    real-space projection
   LCOMPAT=      F    compatible to vasp.4.4
   LREAL_COMPAT= F    compatible to vasp.4.5.1-3
   GGA_COMPAT  = T    GGA compatible to vasp.4.4-vasp.4.6
   LMAXPAW     = -100 max onsite density
   LMAXMIX     =    2 max onsite mixed and CHGCAR
   VOSKOWN=      0    Vosko Wilk Nusair interpolation
   ROPT   =    0.00000
 Ionic relaxation
   EDIFFG = 0.1E-06   stopping-criterion for IOM
   NSW    =      0    number of steps for IOM
   NBLOCK =      1;   KBLOCK =      1    inner block; outer block 
   IBRION =     -1    ionic relax: 0-MD 1-quasi-New 2-CG
   NFREE  =      0    steps in history (QN), initial steepest desc. (CG)
   ISIF   =      2    stress and relaxation
   IWAVPR =     10    prediction:  0-non 1-charg 2-wave 3-comb
   ISYM   =      2    0-nonsym 1-usesym 2-fastsym
   LCORR  =      T    Harris-Foulkes like correction to forces

   POTIM  =   0.50    time-step for ionic-motion
   TEIN   =    0.0    initial temperature
   TEBEG  =    0.0;   TEEND  =   0.0 temperature during run
   SMASS  =  -3.00    Nose mass-parameter (am)
   estimated Nose-frequenzy (Omega)   =  0.10E-29 period in steps =****** mass=  -0.128E-26a.u.
   NPACO  =    256;   APACO  = 16.0  distance and # of slots for P.C.
   PSTRESS=    0.0 pullay stress

  Mass of Ions in am
   POMASS =  63.55
  Ionic Valenz
   ZVAL   =  11.00
  Atomic Wigner-Seitz radii
   RWIGS  =  -1.00
   NELECT =     352.0000    total number of electrons
   NUPDOWN=      -1.0000    fix difference up-down

 DOS related values:
   EMIN   =  10.00;   EMAX   =-10.00  energy-range for DOS
   ISMEAR =     0;   SIGMA  =   0.01  broadening in eV -4-tet -1-fermi 0-gaus

 Electronic relaxation 2 (details)
   IALGO  =     38    algorithm
   LDIAG  =      T    sub-space diagonalisation
   IMIX   =      4    mixing-type and parameters
     AMIX     =   0.40;   BMIX     =  1.00
     AMIX_MAG =   1.60;   BMIX_MAG =  1.00
     AMIN     =   0.10
     WC   =   100.;   INIMIX=   1;  MIXPRE=   1

 Intra band minimization:
   WEIMIN = 0.0000     energy-eigenvalue tresh-hold
   EBREAK =  0.12E-10  absolut break condition
   DEPER  =   0.30     relativ break condition  

   TIME   =   0.10     timestep for ELM

  volume/ion in A,a.u.               =      13.14        88.65
  Fermi-wavevector in a.u.,eV,Ry     =   1.543056 32.395760  2.381021

 Second variation
   LSECVAR=     F    do a second variation
 
 Write flags
   LWAVE  =      F    write WAVECAR
   LCHARG =      F    write CHGCAR
   LVTOT  =      F    write LOCPOT, local potential
   LELF   =      F    write electronic localiz. function (ELF)
   LORBIT =      0    0 simple, 1 ext, 2 COOP (PROOUT)


 Dipole corrections
   IDIPOL =      0    1-x, 2-y, 3-z
   LDIPOL =      F    correct potential



--------------------------------------------------------------------------------------------------------


 Static calculation
 charge density will be updated during run
 non-spin polarized calculation
 Variant of blocked Davidson
 Davidson routine will perform the subspace rotation
 performe sub-space diagonalisation
    after iterative eigenvector-optimisation
 modified Broyden-mixing scheme, WC =      100.0
 initial mixing is a Kerker type mixing with AMIX =  0.4000 and BMIX =      1.0000
 Hartree-type preconditioning will be used
 using additional bands           40
 reciprocal scheme for non local part
 use partial core corrections
 calculate Harris-corrections to forces 
   (improved forces if not selfconsistent)
 use gradient corrections 
 use of overlap-Matrix (Vanderbilt PP)
 Gauss-broadening in eV      SIGMA  =   0.01


--------------------------------------------------------------------------------------------------------


  energy-cutoff  :      500.00
  volume of cell :      420.36
      direct lattice vectors                 reciprocal lattice vectors
     7.491016572  0.000000000  0.000000000     0.133493230  0.000000000  0.000000000
     0.000000000  7.491016572  0.000000000     0.000000000  0.133493230  0.000000000
     0.000000000  0.000000000  7.491016572     0.000000000  0.000000000  0.133493230

  length of vectors
     7.491016572  7.491016572  7.491016572     0.133493230  0.133493230  0.133493230


 
 k-points in units of 2pi/SCALE and weight: Automatic mesh                          
   0.00000000  0.00000000  0.00000000       0.003
   0.01907046  0.00000000  0.00000000       0.017
   0.03814092  0.00000000  0.00000000       0.017
   0.05721138  0.00000000  0.00000000       0.017
   0.01907046  0.01907046  0.00000000       0.035
   0.03814092  0.01907046  0.00000000       0.070
   0.05721138  0.01907046  0.00000000       0.070
   0.03814092  0.03814092  0.00000000       0.035
   0.05721138  0.03814092  0.00000000       0.070
   0.05721138  0.05721138  0.00000000       0.035
   0.01907046  0.01907046  0.01907046       0.023
   0.03814092  0.01907046  0.01907046       0.070
   0.05721138  0.01907046  0.01907046       0.070
   0.03814092  0.03814092  0.01907046       0.070
   0.05721138  0.03814092  0.01907046       0.140
   0.05721138  0.05721138  0.01907046       0.070
   0.03814092  0.03814092  0.03814092       0.023
   0.05721138  0.03814092  0.03814092       0.070
   0.05721138  0.05721138  0.03814092       0.070
   0.05721138  0.05721138  0.05721138       0.023
 
 k-points in reciprocal lattice and weights: Automatic mesh                          
   0.00000000  0.00000000  0.00000000       0.003
   0.14285714  0.00000000  0.00000000       0.017
   0.28571429  0.00000000  0.00000000       0.017
   0.42857143  0.00000000  0.00000000       0.017
   0.14285714  0.14285714  0.00000000       0.035
   0.28571429  0.14285714  0.00000000       0.070
   0.42857143  0.14285714  0.00000000       0.070
   0.28571429  0.28571429  0.00000000       0.035
   0.42857143  0.28571429  0.00000000       0.070
   0.42857143  0.42857143  0.00000000       0.035
   0.14285714  0.14285714  0.14285714       0.023
   0.28571429  0.14285714  0.14285714       0.070
   0.42857143  0.14285714  0.14285714       0.070
   0.28571429  0.28571429  0.14285714       0.070
   0.42857143  0.28571429  0.14285714       0.140
   0.42857143  0.42857143  0.14285714       0.070
   0.28571429  0.28571429  0.28571429       0.023
   0.42857143  0.28571429  0.28571429       0.070
   0.42857143  0.42857143  0.28571429       0.070
   0.42857143  0.42857143  0.42857143       0.023
 
 position of ions in fractional coordinates (direct lattice) 
   0.00000000  0.00000000  0.00000000
   0.50000000  0.00000000  0.00000000
   0.00000000  0.50000000  0.00000000
   0.50000000  0.50000000  0.00000000
   0.00000000  0.00000000  0.50000000
   0.50000000  0.00000000  0.50000000
   0.00000000  0.50000000  0.50000000
   0.50000000  0.50000000  0.50000000
   0.25000000  0.25000000  0.00000000
   0.75000000  0.25000000  0.00000000
   0.25000000  0.75000000  0.00000000
   0.75000000  0.75000000  0.00000000
   0.25000000  0.25000000  0.50000000
   0.75000000  0.25000000  0.50000000
   0.25000000  0.75000000  0.50000000
   0.75000000  0.75000000  0.50000000
   0.25000000  0.00000000  0.25000000
   0.75000000  0.00000000  0.25000000
   0.25000000  0.50000000  0.25000000
   0.75000000  0.50000000  0.25000000
   0.25000000  0.00000000  0.75000000
   0.75000000  0.00000000  0.75000000
   0.25000000  0.50000000  0.75000000
   0.75000000  0.50000000  0.75000000
   0.00000000  0.25000000  0.25000000
   0.50000000  0.25000000  0.25000000
   0.00000000  0.75000000  0.25000000
   0.50000000  0.75000000  0.25000000
   0.00000000  0.25000000  0.75000000
   0.50000000  0.25000000  0.75000000
   0.00000000  0.75000000  0.75000000
   0.50000000  0.75000000  0.75000000
 
 position of ions in cartesian coordinates  (Angst):
   0.00000000  0.00000000  0.00000000
   3.74550829  0.00000000  0.00000000
   0.00000000  3.74550829  0.00000000
   3.74550829  3.74550829  0.00000000
   0.00000000  0.00000000  3.74550829
   3.74550829  0.00000000  3.74550829
   0.00000000  3.74550829  3.74550829
   3.74550829  3.74550829  3.74550829
   1.87275414  1.87275414  0.00000000
   5.61826243  1.87275414  0.00000000
   1.87275414  5.61826243  0.00000000
   5.61826243  5.61826243  0.00000000
   1.87275414  1.87275414  3.74550829
   5.61826243  1.87275414  3.74550829
   1.87275414  5.61826243  3.74550829
   5.61826243  5.61826243  3.74550829
   1.87275414  0.00000000  1.87275414
   5.61826243  0.00000000  1.87275414
   1.87275414  3.74550829  1.87275414
   5.61826243  3.74550829  1.87275414
   1.87275414  0.00000000  5.61826243
   5.61826243  0.00000000  5.61826243
   1.87275414  3.74550829  5.61826243
   5.61826243  3.74550829  5.61826243
   0.00000000  1.87275414  1.87275414
   3.74550829  1.87275414  1.87275414
   0.00000000  5.61826243  1.87275414
   3.74550829  5.61826243  1.87275414
   0.00000000  1.87275414  5.61826243
   3.74550829  1.87275414  5.61826243
   0.00000000  5.61826243  5.61826243
   3.74550829  5.61826243  5.61826243
 


--------------------------------------------------------------------------------------------------------


 k-point  1 :  0.00000.00000.0000  plane waves:  10779
 k-point  2 :  0.14290.00000.0000  plane waves:  10711
 k-point  3 :  0.28570.00000.0000  plane waves:  10671
 k-point  4 :  0.42860.00000.0000  plane waves:  10672
 k-point  5 :  0.14290.14290.0000  plane waves:  10697
 k-point  6 :  0.28570.14290.0000  plane waves:  10666
 k-point  7 :  0.42860.14290.0000  plane waves:  10693
 k-point  8 :  0.28570.28570.0000  plane waves:  10661
 k-point  9 :  0.42860.28570.0000  plane waves:  10657
 k-point 10 :  0.42860.42860.0000  plane waves:  10672
 k-point 11 :  0.14290.14290.1429  plane waves:  10705
 k-point 12 :  0.28570.14290.1429  plane waves:  10659
 k-point 13 :  0.42860.14290.1429  plane waves:  10677
 k-point 14 :  0.28570.28570.1429  plane waves:  10669
 k-point 15 :  0.42860.28570.1429  plane waves:  10664
 k-point 16 :  0.42860.42860.1429  plane waves:  10664
 k-point 17 :  0.28570.28570.2857  plane waves:  10669
 k-point 18 :  0.42860.28570.2857  plane waves:  10687
 k-point 19 :  0.42860.42860.2857  plane waves:  10667
 k-point 20 :  0.42860.42860.4286  plane waves:  10669

 maximum and minimum number of plane-waves per node :  10779 10657

 maximum number of plane-waves:  10779
 maximal index in each direction: 
   IXMAX= 13   IYMAX= 13   IZMAX= 13
   IXMIN=-14   IYMIN=-14   IZMIN=-14

 NGX is ok and might be reduce to  56
 NGY is ok and might be reduce to  56
 NGZ is ok and might be reduce to  56

 parallel 3dFFT wavefunction:
    minimum data exchange during FFTs selected (reduces bandwidth)
 parallel 3dFFT charge:
    minimum data exchange during FFTs selected (reduces bandwidth)

 For storing wavefunctions  738.23 MBYTES are necessary
 For predicting wavefunctions   80.65 MBYTES are necessary
Broyden mixing: mesh for mixing (old mesh)
   NGX = 27   NGY = 27   NGZ = 27
  (NGX  =112   NGY  =112   NGZ  =112)
 gives a total of  19683 points
 initial charge density was supplied:
 charge density of overlapping atoms calculated
 number of electron  352.0000000 magnetization 
 keeping initial charge density in first step


--------------------------------------------------------------------------------------------------------


 Maximum index for augmentation-charges        14187 (set IRDMAX)


--------------------------------------------------------------------------------------------------------


 First call to EWALD:  gamma=   0.237
 Maximum number of real-space cells 3x 3x 3
 Maximum number of reciprocal cells 3x 3x 3

    FEWALD:  VPU time    0.01: CPU time    0.01


----------------------------------------- Iteration    1(   1)  ---------------------------------------


    POTLOK:  VPU time    0.12: CPU time    0.12
    SETDIJ:  VPU time    0.17: CPU time    0.17
    EDDAV :  VPU time   37.68: CPU time   37.73
    DOS   :  VPU time    0.00: CPU time   -0.00
    ------------------------------------------
      LOOP:  VPU time   37.99: CPU time   38.04

 eigenvalue-minimisations  :  8640
 total energy-change (2. order) : 0.3171532E+04  (-0.1465297E+05)
 number of electron  352.0000000 magnetization 
 augmentation part   352.0000000 magnetization 

 Free energy of the ion-electron system (eV)
  ---------------------------------------------------
  alpha Z        PSCENC =      3112.29743337
  Ewald energy   TEWEN  =    -34125.34027481
  -1/2 Hartree   DENC   =    -11098.63757587
  -V(xc)+E(xc)   XCENC  =      1395.82434726
  PAW double counting   =     34625.67335558   -39234.46421604
  entropy T*S    EENTRO =        -0.00094849
  eigenvalues    EBANDS =      3984.92092617
  atomic energy  EATOM  =     44511.25856501
  ---------------------------------------------------
  free energy    TOTEN  =      3171.53161219 eV

  energy without entropy =     3171.53256068  energy(sigma->0) =     3171.53208643


--------------------------------------------------------------------------------------------------------




----------------------------------------- Iteration    1(   2)  ---------------------------------------


    EDDAV :  VPU time   36.38: CPU time   36.38
    DOS   :  VPU time    0.00: CPU time   -0.00
    ------------------------------------------
      LOOP:  VPU time   36.40: CPU time   36.40

 eigenvalue-minimisations  :  8640
 total energy-change (2. order) :-0.2886244E+04  (-0.2773665E+04)
 number of electron  352.0000000 magnetization 
 augmentation part   352.0000000 magnetization 

 Free energy of the ion-electron system (eV)
  ---------------------------------------------------
  alpha Z        PSCENC =      3112.29743337
  Ewald energy   TEWEN  =    -34125.34027481
  -1/2 Hartree   DENC   =    -11098.63757587
  -V(xc)+E(xc)   XCENC  =      1395.82434726
  PAW double counting   =     34625.67335558   -39234.46421604
  entropy T*S    EENTRO =        -0.00095626
  eigenvalues    EBANDS =      1098.67717378
  atomic energy  EATOM  =     44511.25856501
  ---------------------------------------------------
  free energy    TOTEN  =       285.28785204 eV

  energy without entropy =      285.28880829  energy(sigma->0) =      285.28833016


--------------------------------------------------------------------------------------------------------




----------------------------------------- Iteration    1(   3)  ---------------------------------------


    EDDAV :  VPU time   35.50: CPU time   35.50
    DOS   :  VPU time    0.00: CPU time   -0.00
    ------------------------------------------
      LOOP:  VPU time   35.52: CPU time   35.51

 eigenvalue-minimisations  :  8640
 total energy-change (2. order) :-0.4083077E+03  (-0.3669386E+03)
 number of electron  352.0000000 magnetization 
 augmentation part   352.0000000 magnetization 

 Free energy of the ion-electron system (eV)
  ---------------------------------------------------
  alpha Z        PSCENC =      3112.29743337
  Ewald energy   TEWEN  =    -34125.34027481
  -1/2 Hartree   DENC   =    -11098.63757587
  -V(xc)+E(xc)   XCENC  =      1395.82434726
  PAW double counting   =     34625.67335558   -39234.46421604
  entropy T*S    EENTRO =        -0.00133635
  eigenvalues    EBANDS =       690.36988277
  atomic energy  EATOM  =     44511.25856501
  ---------------------------------------------------
  free energy    TOTEN  =      -123.01981907 eV

  energy without entropy =     -123.01848272  energy(sigma->0) =     -123.01915089


--------------------------------------------------------------------------------------------------------




----------------------------------------- Iteration    1(   4)  ---------------------------------------


    EDDAV :  VPU time   33.05: CPU time   33.05
    DOS   :  VPU time    0.00: CPU time   -0.00
    ------------------------------------------
      LOOP:  VPU time   33.06: CPU time   33.06

 eigenvalue-minimisations  :  9272
 total energy-change (2. order) :-0.2105990E+02  (-0.2060469E+02)
 number of electron  352.0000000 magnetization 
 augmentation part   352.0000000 magnetization 

 Free energy of the ion-electron system (eV)
  ---------------------------------------------------
  alpha Z        PSCENC =      3112.29743337
  Ewald energy   TEWEN  =    -34125.34027481
  -1/2 Hartree   DENC   =    -11098.63757587
  -V(xc)+E(xc)   XCENC  =      1395.82434726
  PAW double counting   =     34625.67335558   -39234.46421604
  entropy T*S    EENTRO =        -0.00258414
  eigenvalues    EBANDS =       669.31122628
  atomic energy  EATOM  =     44511.25856501
  ---------------------------------------------------
  free energy    TOTEN  =      -144.07972334 eV

  energy without entropy =     -144.07713920  energy(sigma->0) =     -144.07843127


--------------------------------------------------------------------------------------------------------




----------------------------------------- Iteration    1(   5)  ---------------------------------------


    EDDAV :  VPU time   37.80: CPU time   37.79
    DOS   :  VPU time    0.00: CPU time   -0.00
    CHARGE:  VPU time    1.68: CPU time    1.68
    MIXING:  VPU time    0.00: CPU time    0.00
    ------------------------------------------
      LOOP:  VPU time   39.50: CPU time   39.50

 eigenvalue-minimisations  :  9312
 total energy-change (2. order) :-0.1638350E+00  (-0.1635174E+00)
 number of electron  352.0000021 magnetization 
 augmentation part   214.7072731 magnetization 

 Broyden mixing:
  rms(total) = 0.38600E+01    rms(broyden)= 0.38599E+01
  rms(prec ) = 0.56669E+01
  weight for this iteration     100.00

 Free energy of the ion-electron system (eV)
  ---------------------------------------------------
  alpha Z        PSCENC =      3112.29743337
  Ewald energy   TEWEN  =    -34125.34027481
  -1/2 Hartree   DENC   =    -11098.63757587
  -V(xc)+E(xc)   XCENC  =      1395.82434726
  PAW double counting   =     34625.67335558   -39234.46421604
  entropy T*S    EENTRO =        -0.00257251
  eigenvalues    EBANDS =       669.14737966
  atomic energy  EATOM  =     44511.25856501
  ---------------------------------------------------
  free energy    TOTEN  =      -144.24355834 eV

  energy without entropy =     -144.24098583  energy(sigma->0) =     -144.24227208


--------------------------------------------------------------------------------------------------------




----------------------------------------- Iteration    1(   6)  ---------------------------------------


    POTLOK:  VPU time    0.12: CPU time    0.12
    SETDIJ:  VPU time    0.16: CPU time    0.16
    EDDAV :  VPU time   39.88: CPU time   39.88
    DOS   :  VPU time    0.00: CPU time   -0.00
    CHARGE:  VPU time    1.65: CPU time    1.65
    MIXING:  VPU time    0.00: CPU time    0.00
    ------------------------------------------
      LOOP:  VPU time   41.84: CPU time   41.84

 eigenvalue-minimisations  :  9288
 total energy-change (2. order) : 0.1424011E+02  (-0.2831567E+02)
 number of electron  352.0000024 magnetization 
 augmentation part   240.2935954 magnetization 

 Broyden mixing:
  rms(total) = 0.20263E+01    rms(broyden)= 0.20262E+01
  rms(prec ) = 0.28018E+01
  weight for this iteration     100.00

 eigenvalues of (default mixing * dielectric matrix)
  average eigenvalue GAMMA=   0.6567
  0.6567

 Free energy of the ion-electron system (eV)
  ---------------------------------------------------
  alpha Z        PSCENC =      3112.29743337
  Ewald energy   TEWEN  =    -34125.34027481
  -1/2 Hartree   DENC   =    -10287.42826268
  -V(xc)+E(xc)   XCENC  =      1355.23966926
  PAW double counting   =     33632.34818754   -37974.76794259
  entropy T*S    EENTRO =        -0.00089158
  eigenvalues    EBANDS =      -353.60992856
  atomic energy  EATOM  =     44511.25856501
  ---------------------------------------------------
  free energy    TOTEN  =      -130.00344504 eV

  energy without entropy =     -130.00255346  energy(sigma->0) =     -130.00299925


--------------------------------------------------------------------------------------------------------




----------------------------------------- Iteration    1(   7)  ---------------------------------------


    POTLOK:  VPU time    0.12: CPU time    0.12
    SETDIJ:  VPU time    0.16: CPU time    0.16
    EDDAV :  VPU time   40.83: CPU time   40.83
    DOS   :  VPU time    0.00: CPU time   -0.00
    CHARGE:  VPU time    1.68: CPU time    1.68
    MIXING:  VPU time    0.00: CPU time    0.00
    ------------------------------------------
      LOOP:  VPU time   42.82: CPU time   42.82

 eigenvalue-minimisations  :  9616
 total energy-change (2. order) : 0.1190482E+02  (-0.5314165E+01)
 number of electron  352.0000023 magnetization 
 augmentation part   230.6558284 magnetization 

 Broyden mixing:
  rms(total) = 0.24342E+00    rms(broyden)= 0.24331E+00
  rms(prec ) = 0.36774E+00
  weight for this iteration     100.00

 eigenvalues of (default mixing * dielectric matrix)
  average eigenvalue GAMMA=   1.2667
  1.8972  0.6363

 Free energy of the ion-electron system (eV)
  ---------------------------------------------------
  alpha Z        PSCENC =      3112.29743337
  Ewald energy   TEWEN  =    -34125.34027481
  -1/2 Hartree   DENC   =    -10535.66479115
  -V(xc)+E(xc)   XCENC  =      1368.20996744
  PAW double counting   =     34278.71283588   -38813.74819552
  entropy T*S    EENTRO =        -0.00086417
  eigenvalues    EBANDS =        86.17669921
  atomic energy  EATOM  =     44511.25856501
  ---------------------------------------------------
  free energy    TOTEN  =      -118.09862473 eV

  energy without entropy =     -118.09776056  energy(sigma->0) =     -118.09819265


--------------------------------------------------------------------------------------------------------




----------------------------------------- Iteration    1(   8)  ---------------------------------------


    POTLOK:  VPU time    0.12: CPU time    0.12
    SETDIJ:  VPU time    0.17: CPU time    0.17
    EDDAV :  VPU time   39.08: CPU time   39.08
    DOS   :  VPU time    0.00: CPU time   -0.00
    CHARGE:  VPU time    1.61: CPU time    1.61
    MIXING:  VPU time    0.00: CPU time    0.00
    ------------------------------------------
      LOOP:  VPU time   41.01: CPU time   41.00

 eigenvalue-minimisations  :  9104
 total energy-change (2. order) : 0.1469220E+00  (-0.8725902E-01)
 number of electron  352.0000023 magnetization 
 augmentation part   229.9506419 magnetization 

 Broyden mixing:
  rms(total) = 0.23039E+00    rms(broyden)= 0.23038E+00
  rms(prec ) = 0.34202E+00
  weight for this iteration     100.00

 eigenvalues of (default mixing * dielectric matrix)
  average eigenvalue GAMMA=   1.4112
  0.6672  0.9822  2.5842

 Free energy of the ion-electron system (eV)
  ---------------------------------------------------
  alpha Z        PSCENC =      3112.29743337
  Ewald energy   TEWEN  =    -34125.34027481
  -1/2 Hartree   DENC   =    -10471.28684525
  -V(xc)+E(xc)   XCENC  =      1365.46860051
  PAW double counting   =     34611.92879742   -39222.16484515
  entropy T*S    EENTRO =        -0.00094812
  eigenvalues    EBANDS =        99.88781430
  atomic energy  EATOM  =     44511.25856501
  ---------------------------------------------------
  free energy    TOTEN  =      -117.95170271 eV

  energy without entropy =     -117.95075459  energy(sigma->0) =     -117.95122865


--------------------------------------------------------------------------------------------------------




----------------------------------------- Iteration    1(   9)  ---------------------------------------


    POTLOK:  VPU time    0.12: CPU time    0.12
    SETDIJ:  VPU time    0.16: CPU time    0.16
    EDDAV :  VPU time   39.11: CPU time   39.10
    DOS   :  VPU time    0.00: CPU time   -0.00
    CHARGE:  VPU time    1.67: CPU time    1.67
    MIXING:  VPU time    0.00: CPU time    0.00
    ------------------------------------------
      LOOP:  VPU time   41.08: CPU time   41.08

 eigenvalue-minimisations  :  9152
 total energy-change (2. order) : 0.1013482E+00  (-0.3535040E-01)
 number of electron  352.0000023 magnetization 
 augmentation part   230.9018308 magnetization 

 Broyden mixing:
  rms(total) = 0.20337E-01    rms(broyden)= 0.20330E-01
  rms(prec ) = 0.29470E-01
  weight for this iteration     100.00

 eigenvalues of (default mixing * dielectric matrix)
  average eigenvalue GAMMA=   1.6021
  0.6742  0.8966  2.7186  2.1189

 Free energy of the ion-electron system (eV)
  ---------------------------------------------------
  alpha Z        PSCENC =      3112.29743337
  Ewald energy   TEWEN  =    -34125.34027481
  -1/2 Hartree   DENC   =    -10416.89131629
  -V(xc)+E(xc)   XCENC  =      1362.89005392
  PAW double counting   =     34678.10351334   -39298.19022592
  entropy T*S    EENTRO =        -0.00111372
  eigenvalues    EBANDS =        58.02301061
  atomic energy  EATOM  =     44511.25856501
  ---------------------------------------------------
  free energy    TOTEN  =      -117.85035449 eV

  energy without entropy =     -117.84924077  energy(sigma->0) =     -117.84979763


--------------------------------------------------------------------------------------------------------




----------------------------------------- Iteration    1(  10)  ---------------------------------------


    POTLOK:  VPU time    0.12: CPU time    0.12
    SETDIJ:  VPU time    0.17: CPU time    0.17
    EDDAV :  VPU time   39.24: CPU time   39.24
    DOS   :  VPU time    0.00: CPU time   -0.00
    CHARGE:  VPU time    1.67: CPU time    1.67
    MIXING:  VPU time    0.00: CPU time    0.00
    ------------------------------------------
      LOOP:  VPU time   41.23: CPU time   41.23

 eigenvalue-minimisations  :  9104
 total energy-change (2. order) :-0.1395170E-03  (-0.1047894E-02)
 number of electron  352.0000023 magnetization 
 augmentation part   230.8220639 magnetization 

 Broyden mixing:
  rms(total) = 0.27028E-02    rms(broyden)= 0.27023E-02
  rms(prec ) = 0.32017E-02
  weight for this iteration     100.00

 eigenvalues of (default mixing * dielectric matrix)
  average eigenvalue GAMMA=   1.5658
  2.5732  2.5732  0.6729  1.0746  0.9353

 Free energy of the ion-electron system (eV)
  ---------------------------------------------------
  alpha Z        PSCENC =      3112.29743337
  Ewald energy   TEWEN  =    -34125.34027481
  -1/2 Hartree   DENC   =    -10421.04751336
  -V(xc)+E(xc)   XCENC  =      1363.09107144
  PAW double counting   =     34687.49929035   -39307.27211830
  entropy T*S    EENTRO =        -0.00115677
  eigenvalues    EBANDS =        61.66420907
  atomic energy  EATOM  =     44511.25856501
  ---------------------------------------------------
  free energy    TOTEN  =      -117.85049401 eV

  energy without entropy =     -117.84933723  energy(sigma->0) =     -117.84991562


--------------------------------------------------------------------------------------------------------




----------------------------------------- Iteration    1(  11)  ---------------------------------------


    POTLOK:  VPU time    0.12: CPU time    0.12
    SETDIJ:  VPU time    0.16: CPU time    0.16
    EDDAV :  VPU time   39.68: CPU time   39.68
    DOS   :  VPU time    0.00: CPU time   -0.00
    CHARGE:  VPU time    1.65: CPU time    1.65
    MIXING:  VPU time    0.00: CPU time    0.00
    ------------------------------------------
      LOOP:  VPU time   41.63: CPU time   41.63

 eigenvalue-minimisations  :  9272
 total energy-change (2. order) :-0.1627661E-05  (-0.1366116E-04)
 number of electron  352.0000023 magnetization 
 augmentation part   230.8304708 magnetization 

 Broyden mixing:
  rms(total) = 0.55979E-03    rms(broyden)= 0.55967E-03
  rms(prec ) = 0.74570E-03
  weight for this iteration     100.00

 eigenvalues of (default mixing * dielectric matrix)
  average eigenvalue GAMMA=   1.5128
  2.5898  2.5898  0.6731  1.3475  0.9382  0.9382

 Free energy of the ion-electron system (eV)
  ---------------------------------------------------
  alpha Z        PSCENC =      3112.29743337
  Ewald energy   TEWEN  =    -34125.34027481
  -1/2 Hartree   DENC   =    -10421.27903246
  -V(xc)+E(xc)   XCENC  =      1363.09913849
  PAW double counting   =     34694.75226413   -39313.96382411
  entropy T*S    EENTRO =        -0.00115506
  eigenvalues    EBANDS =        61.32638980
  atomic energy  EATOM  =     44511.25856501
  ---------------------------------------------------
  free energy    TOTEN  =      -117.85049564 eV

  energy without entropy =     -117.84934058  energy(sigma->0) =     -117.84991811


--------------------------------------------------------------------------------------------------------




----------------------------------------- Iteration    1(  12)  ---------------------------------------


    POTLOK:  VPU time    0.12: CPU time    0.12
    SETDIJ:  VPU time    0.16: CPU time    0.16
    EDDAV :  VPU time   39.38: CPU time   39.38
    DOS   :  VPU time    0.00: CPU time   -0.00
    CHARGE:  VPU time    1.73: CPU time    1.73
    MIXING:  VPU time    0.00: CPU time    0.00
    ------------------------------------------
      LOOP:  VPU time   41.42: CPU time   41.42

 eigenvalue-minimisations  :  9208
 total energy-change (2. order) :-0.1397059E-04  (-0.1671657E-05)
 number of electron  352.0000023 magnetization 
 augmentation part   230.8257709 magnetization 

 Broyden mixing:
  rms(total) = 0.38316E-03    rms(broyden)= 0.38310E-03
  rms(prec ) = 0.52771E-03
  weight for this iteration     100.00

 eigenvalues of (default mixing * dielectric matrix)
  average eigenvalue GAMMA=   1.5739
  2.6629  2.3973  2.3973  0.6732  0.9192  0.9837  0.9837

 Free energy of the ion-electron system (eV)
  ---------------------------------------------------
  alpha Z        PSCENC =      3112.29743337
  Ewald energy   TEWEN  =    -34125.34027481
  -1/2 Hartree   DENC   =    -10421.26952073
  -V(xc)+E(xc)   XCENC  =      1363.09907203
  PAW double counting   =     34696.03029656   -39315.42324288
  entropy T*S    EENTRO =        -0.00115600
  eigenvalues    EBANDS =        61.49831783
  atomic energy  EATOM  =     44511.25856501
  ---------------------------------------------------
  free energy    TOTEN  =      -117.85050961 eV

  energy without entropy =     -117.84935361  energy(sigma->0) =     -117.84993161


--------------------------------------------------------------------------------------------------------




----------------------------------------- Iteration    1(  13)  ---------------------------------------


    POTLOK:  VPU time    0.13: CPU time    0.13
    SETDIJ:  VPU time    0.16: CPU time    0.16
    EDDAV :  VPU time   39.12: CPU time   39.12
    DOS   :  VPU time    0.00: CPU time   -0.00
    CHARGE:  VPU time    1.63: CPU time    1.63
    MIXING:  VPU time    0.00: CPU time    0.00
    ------------------------------------------
      LOOP:  VPU time   41.06: CPU time   41.06

 eigenvalue-minimisations  :  9096
 total energy-change (2. order) :-0.1153686E-04  (-0.1669343E-06)
 number of electron  352.0000023 magnetization 
 augmentation part   230.8275851 magnetization 

 Broyden mixing:
  rms(total) = 0.14456E-03    rms(broyden)= 0.14455E-03
  rms(prec ) = 0.21740E-03
  weight for this iteration     100.00

 eigenvalues of (default mixing * dielectric matrix)
  average eigenvalue GAMMA=   1.5716
  2.7001  2.5934  2.5934  0.6732  1.1264  1.0381  0.9059  0.9423

 Free energy of the ion-electron system (eV)
  ---------------------------------------------------
  alpha Z        PSCENC =      3112.29743337
  Ewald energy   TEWEN  =    -34125.34027481
  -1/2 Hartree   DENC   =    -10421.17020301
  -V(xc)+E(xc)   XCENC  =      1363.09386821
  PAW double counting   =     34696.37449143   -39315.79034925
  entropy T*S    EENTRO =        -0.00115560
  eigenvalues    EBANDS =        61.42710350
  atomic energy  EATOM  =     44511.25856501
  ---------------------------------------------------
  free energy    TOTEN  =      -117.85052114 eV

  energy without entropy =     -117.84936555  energy(sigma->0) =     -117.84994335


--------------------------------------------------------------------------------------------------------




----------------------------------------- Iteration    1(  14)  ---------------------------------------


    POTLOK:  VPU time    0.12: CPU time    0.12
    SETDIJ:  VPU time    0.16: CPU time    0.16
    EDDAV :  VPU time   38.95: CPU time   38.95
    DOS   :  VPU time    0.00: CPU time   -0.00
    CHARGE:  VPU time    1.67: CPU time    1.67
    MIXING:  VPU time    0.00: CPU time    0.00
    ------------------------------------------
      LOOP:  VPU time   40.93: CPU time   40.93

 eigenvalue-minimisations  :  9080
 total energy-change (2. order) : 0.1885710E-06  (-0.1337400E-07)
 number of electron  352.0000023 magnetization 
 augmentation part   230.8270314 magnetization 

 Broyden mixing:
  rms(total) = 0.57630E-05    rms(broyden)= 0.57420E-05
  rms(prec ) = 0.69619E-05
  weight for this iteration     100.00

 eigenvalues of (default mixing * dielectric matrix)
  average eigenvalue GAMMA=   1.6654
  2.8341  2.5975  2.5975  2.3789  0.6732  1.0380  0.9073  0.9810  0.9810

 Free energy of the ion-electron system (eV)
  ---------------------------------------------------
  alpha Z        PSCENC =      3112.29743337
  Ewald energy   TEWEN  =    -34125.34027481
  -1/2 Hartree   DENC   =    -10421.20155239
  -V(xc)+E(xc)   XCENC  =      1363.09527403
  PAW double counting   =     34696.39193879   -39315.80366007
  entropy T*S    EENTRO =        -0.00115573
  eigenvalues    EBANDS =        61.45291085
  atomic energy  EATOM  =     44511.25856501
  ---------------------------------------------------
  free energy    TOTEN  =      -117.85052096 eV

  energy without entropy =     -117.84936522  energy(sigma->0) =     -117.84994309


--------------------------------------------------------------------------------------------------------




----------------------------------------- Iteration    1(  15)  ---------------------------------------


    POTLOK:  VPU time    0.12: CPU time    0.12
    SETDIJ:  VPU time    0.16: CPU time    0.16
    EDDAV :  VPU time   26.51: CPU time   26.51
    DOS   :  VPU time    0.00: CPU time   -0.00
    CHARGE:  VPU time    1.65: CPU time    1.65
    MIXING:  VPU time    0.00: CPU time    0.00
    ------------------------------------------
      LOOP:  VPU time   28.46: CPU time   28.46

 eigenvalue-minimisations  :  5160
 total energy-change (2. order) : 0.9377254E-07  (-0.3633313E-09)
 number of electron  352.0000023 magnetization 
 augmentation part   230.8270474 magnetization 

 Broyden mixing:
  rms(total) = 0.83737E-05    rms(broyden)= 0.83734E-05
  rms(prec ) = 0.11405E-04
  weight for this iteration     100.00

 eigenvalues of (default mixing * dielectric matrix)
  average eigenvalue GAMMA=   1.6323
  3.0405  2.6372  2.6372  2.4866  0.6732  1.0497  1.0497  0.9220  0.9220  0.9049

 Free energy of the ion-electron system (eV)
  ---------------------------------------------------
  alpha Z        PSCENC =      3112.29743337
  Ewald energy   TEWEN  =    -34125.34027481
  -1/2 Hartree   DENC   =    -10421.20089383
  -V(xc)+E(xc)   XCENC  =      1363.09524471
  PAW double counting   =     34696.37903895   -39315.79069249
  entropy T*S    EENTRO =        -0.00115573
  eigenvalues    EBANDS =        61.45221396
  atomic energy  EATOM  =     44511.25856501
  ---------------------------------------------------
  free energy    TOTEN  =      -117.85052086 eV

  energy without entropy =     -117.84936513  energy(sigma->0) =     -117.84994300


--------------------------------------------------------------------------------------------------------




----------------------------------------- Iteration    1(  16)  ---------------------------------------


    POTLOK:  VPU time    0.12: CPU time    0.12
    SETDIJ:  VPU time    0.17: CPU time    0.17
    EDDAV :  VPU time   25.43: CPU time   25.43
    DOS   :  VPU time    0.00: CPU time   -0.00
    CHARGE:  VPU time    1.71: CPU time    1.71
    MIXING:  VPU time    0.00: CPU time    0.01
    ------------------------------------------
      LOOP:  VPU time   27.45: CPU time   27.45

 eigenvalue-minimisations  :  4800
 total energy-change (2. order) : 0.1818553E-06  (-0.4913391E-10)
 number of electron  352.0000023 magnetization 
 augmentation part   230.8270288 magnetization 

 Broyden mixing:
  rms(total) = 0.35902E-05    rms(broyden)= 0.35900E-05
  rms(prec ) = 0.51926E-05
  weight for this iteration     100.00

 eigenvalues of (default mixing * dielectric matrix)
  average eigenvalue GAMMA=   1.5564
  2.8525  2.5831  2.5831  2.5386  0.6732  1.1217  1.0737  0.9626  0.9626  0.9176
  0.8520

 Free energy of the ion-electron system (eV)
  ---------------------------------------------------
  alpha Z        PSCENC =      3112.29743337
  Ewald energy   TEWEN  =    -34125.34027481
  -1/2 Hartree   DENC   =    -10421.20131467
  -V(xc)+E(xc)   XCENC  =      1363.09527248
  PAW double counting   =     34696.36354963   -39315.77536175
  entropy T*S    EENTRO =        -0.00115573
  eigenvalues    EBANDS =        61.45276579
  atomic energy  EATOM  =     44511.25856501
  ---------------------------------------------------
  free energy    TOTEN  =      -117.85052068 eV

  energy without entropy =     -117.84936495  energy(sigma->0) =     -117.84994281


--------------------------------------------------------------------------------------------------------




----------------------------------------- Iteration    1(  17)  ---------------------------------------


    POTLOK:  VPU time    0.12: CPU time    0.12
    SETDIJ:  VPU time    0.16: CPU time    0.16
    EDDAV :  VPU time   25.35: CPU time   25.35
    DOS   :  VPU time    0.00: CPU time   -0.00
    ------------------------------------------
      LOOP:  VPU time   25.65: CPU time   25.65

 eigenvalue-minimisations  :  4800
 total energy-change (2. order) :-0.3623427E-08  (-0.8007514E-11)
 number of electron  352.0000023 magnetization 
 augmentation part   230.8270288 magnetization 

 Free energy of the ion-electron system (eV)
  ---------------------------------------------------
  alpha Z        PSCENC =      3112.29743337
  Ewald energy   TEWEN  =    -34125.34027481
  -1/2 Hartree   DENC   =    -10421.20128217
  -V(xc)+E(xc)   XCENC  =      1363.09527121
  PAW double counting   =     34696.36369556   -39315.77557067
  entropy T*S    EENTRO =        -0.00115573
  eigenvalues    EBANDS =        61.45279754
  atomic energy  EATOM  =     44511.25856501
  ---------------------------------------------------
  free energy    TOTEN  =      -117.85052068 eV

  energy without entropy =     -117.84936495  energy(sigma->0) =     -117.84994282


--------------------------------------------------------------------------------------------------------




 average (electrostatic) potential at core
  the test charge radii are     1.0053
  (the norm of the test charge is              1.0000)
       1 -40.5647       2 -40.5647       3 -40.5647       4 -40.5647       5 -40.5647
       6 -40.5647       7 -40.5647       8 -40.5647       9 -40.5647      10 -40.5647
      11 -40.5647      12 -40.5647      13 -40.5647      14 -40.5647      15 -40.5647
      16 -40.5647      17 -40.5647      18 -40.5647      19 -40.5647      20 -40.5647
      21 -40.5647      22 -40.5647      23 -40.5647      24 -40.5647      25 -40.5647
      26 -40.5647      27 -40.5647      28 -40.5647      29 -40.5647      30 -40.5647
      31 -40.5647      32 -40.5647
 
 
 
 E-fermi :   2.9486     XC(G=0): -12.1895     alpha+bet : -8.6587
   add alpha+bet to get absolut eigen values

 k-point   1 :       0.0000    0.0000    0.0000
  band No.  band energies     occupation 
      1      -5.6401      2.00000
      2      -3.0542      2.00000
      3      -3.0542      2.00000
      4      -3.0542      2.00000
      5      -3.0542      2.00000
      6      -3.0542      2.00000
      7      -3.0542      2.00000
      8      -1.6010      2.00000
      9      -1.6010      2.00000
     10      -1.6010      2.00000
     11      -1.6010      2.00000
     12      -1.3818      2.00000
     13      -1.3818      2.00000
     14      -1.3818      2.00000
     15      -1.2783      2.00000
     16      -1.2783      2.00000
     17      -1.2783      2.00000
     18      -1.2783      2.00000
     19      -1.2783      2.00000
     20      -1.2783      2.00000
     21      -1.2783      2.00000
     22      -1.2783      2.00000
     23      -1.2783      2.00000
     24      -1.2783      2.00000
     25      -1.2783      2.00000
     26      -1.2783      2.00000
     27      -0.9944      2.00000
     28      -0.9944      2.00000
     29      -0.9944      2.00000
     30      -0.7341      2.00000
     31      -0.7341      2.00000
     32      -0.7341      2.00000
     33      -0.7341      2.00000
     34      -0.7341      2.00000
     35      -0.7341      2.00000
     36      -0.4185      2.00000
     37      -0.4185      2.00000
     38      -0.4185      2.00000
     39      -0.4185      2.00000
     40      -0.4185      2.00000
     41      -0.4185      2.00000
     42      -0.2317      2.00000
     43      -0.2317      2.00000
     44      -0.2317      2.00000
     45      -0.2317      2.00000
     46      -0.2317      2.00000
     47      -0.2317      2.00000
     48      -0.2317      2.00000
     49      -0.2317      2.00000
     50      -0.2317      2.00000
     51      -0.2317      2.00000
     52      -0.2317      2.00000
     53      -0.2317      2.00000
     54      -0.2307      2.00000
     55      -0.2307      2.00000
     56      -0.2307      2.00000
     57      -0.2307      2.00000
     58      -0.2307      2.00000
     59      -0.2307      2.00000
     60      -0.2307      2.00000
     61      -0.2307      2.00000
     62      -0.2307      2.00000
     63      -0.2307      2.00000
     64      -0.2307      2.00000
     65      -0.2307      2.00000
     66      -0.0488      2.00000
     67      -0.0488      2.00000
     68      -0.0488      2.00000
     69      -0.0488      2.00000
     70      -0.0488      2.00000
     71      -0.0488      2.00000
     72      -0.0488      2.00000
     73      -0.0488      2.00000
     74      -0.0488      2.00000
     75      -0.0488      2.00000
     76      -0.0488      2.00000
     77      -0.0488      2.00000
     78       0.1606      2.00000
     79       0.1606      2.00000
     80       0.1606      2.00000
     81       0.1606      2.00000
     82       0.1606      2.00000
     83       0.1606      2.00000
     84       0.1606      2.00000
     85       0.1606      2.00000
     86       0.1828      2.00000
     87       0.1828      2.00000
     88       0.1828      2.00000
     89       0.5069      2.00000
     90       0.5069      2.00000
     91       0.5069      2.00000
     92       0.5069      2.00000
     93       0.5069      2.00000
     94       0.5069      2.00000
     95       0.6154      2.00000
     96       0.6154      2.00000
     97       0.6154      2.00000
     98       0.6154      2.00000
     99       0.6154      2.00000
    100       0.6154      2.00000
    101       0.6154      2.00000
    102       0.6154      2.00000
    103       0.6154      2.00000
    104       0.6154      2.00000
    105       0.6154      2.00000
    106       0.6154      2.00000
    107       0.7461      2.00000
    108       0.7461      2.00000
    109       0.7461      2.00000
    110       0.7461      2.00000
    111       0.7461      2.00000
    112       0.7461      2.00000
    113       0.7461      2.00000
    114       0.7461      2.00000
    115       0.7461      2.00000
    116       0.7461      2.00000
    117       0.7461      2.00000
    118       0.7461      2.00000
    119       0.8552      2.00000
    120       0.8552      2.00000
    121       0.8552      2.00000
    122       0.8552      2.00000
    123       0.8552      2.00000
    124       0.8552      2.00000
    125       0.8809      2.00000
    126       0.8809      2.00000
    127       0.8809      2.00000
    128       0.8809      2.00000
    129       0.8809      2.00000
    130       0.8809      2.00000
    131       0.8809      2.00000
    132       0.8809      2.00000
    133       0.8809      2.00000
    134       0.8809      2.00000
    135       0.8809      2.00000
    136       0.8809      2.00000
    137       0.8843      2.00000
    138       0.8843      2.00000
    139       1.1156      2.00000
    140       1.1156      2.00000
    141       1.1156      2.00000
    142       1.1156      2.00000
    143       1.1156      2.00000
    144       1.1156      2.00000
    145       1.3512      2.00000
    146       1.3512      2.00000
    147       1.3512      2.00000
    148       1.3634      2.00000
    149       1.3634      2.00000
    150       1.3634      2.00000
    151       1.3634      2.00000
    152       1.3634      2.00000
    153       1.3634      2.00000
    154       1.3634      2.00000
    155       1.3634      2.00000
    156       1.4818      2.00000
    157       1.4818      2.00000
    158       1.4818      2.00000
    159       1.4818      2.00000
    160       1.4818      2.00000
    161       1.4818      2.00000
    162       1.4825      2.00000
    163       1.4825      2.00000
    164       1.4825      2.00000
    165       1.4825      2.00000
    166       1.4825      2.00000
    167       1.4825      2.00000
    168       2.2321      2.00000
    169       2.2321      2.00000
    170       2.2321      2.00000
    171       2.2321      2.00000
    172       2.5596      2.00000
    173       2.5596      2.00000
    174       2.5596      2.00000
    175       2.5596      2.00000
    176       2.5596      2.00000
    177       2.5596      2.00000
    178       2.5596      2.00000
    179       2.5596      2.00000
    180       2.5596      2.00000
    181       2.5596      2.00000
    182       2.5596      2.00000
    183       2.5596      2.00000
    184       4.5164      0.00000
    185       4.5164      0.00000
    186       4.5164      0.00000
    187       6.1740      0.00000
    188       6.1740      0.00000
    189       6.1740      0.00000
    190       6.1740      0.00000
    191       8.7604      0.00000
    192       8.7604      0.00000
    193       8.7604      0.00000
    194       8.7604      0.00000
    195       8.7604      0.00000
    196       8.7604      0.00000
    197       8.7604      0.00000
    198       8.7604      0.00000
    199       8.7604      0.00000
    200       8.7604      0.00000
    201       8.7604      0.00000
    202       8.7604      0.00000
    203       9.3297      0.00000
    204       9.3297      0.00000
    205       9.3297      0.00000
    206      10.7511      0.00000
    207      10.7511      0.00000
    208      10.7511      0.00000
    209      10.7511      0.00000
    210      10.7511      0.00000
    211      10.7512      0.00000
    212      10.8144      0.00000
    213      10.8144      0.00000
    214      10.8144      0.00000
    215      10.8144      0.00000
    216      10.8144      0.00000

 k-point   2 :       0.1429    0.0000    0.0000
  band No.  band energies     occupation 
      1      -5.5826      2.00000
      2      -3.6774      2.00000
      3      -3.0070      2.00000
      4      -3.0070      2.00000
      5      -3.0070      2.00000
      6      -3.0070      2.00000
      7      -2.4369      2.00000
      8      -1.6269      2.00000
      9      -1.6269      2.00000
     10      -1.6269      2.00000
     11      -1.6269      2.00000
     12      -1.5892      2.00000
     13      -1.5892      2.00000
     14      -1.5892      2.00000
     15      -1.5892      2.00000
     16      -1.3833      2.00000
     17      -1.3563      2.00000
     18      -1.3563      2.00000
     19      -1.3021      2.00000
     20      -1.3021      2.00000
     21      -1.3021      2.00000
     22      -1.3021      2.00000
     23      -0.9838      2.00000
     24      -0.9838      2.00000
     25      -0.9838      2.00000
     26      -0.9838      2.00000
     27      -0.9803      2.00000
     28      -0.9795      2.00000
     29      -0.9795      2.00000
     30      -0.7768      2.00000
     31      -0.7768      2.00000
     32      -0.7147      2.00000
     33      -0.7147      2.00000
     34      -0.7147      2.00000
     35      -0.7147      2.00000
     36      -0.5488      2.00000
     37      -0.4386      2.00000
     38      -0.4386      2.00000
     39      -0.4123      2.00000
     40      -0.4123      2.00000
     41      -0.4123      2.00000
     42      -0.4123      2.00000
     43      -0.2869      2.00000
     44      -0.2581      2.00000
     45      -0.2581      2.00000
     46      -0.2581      2.00000
     47      -0.2581      2.00000
     48      -0.2530      2.00000
     49      -0.2530      2.00000
     50      -0.2530      2.00000
     51      -0.2530      2.00000
     52      -0.2297      2.00000
     53      -0.2297      2.00000
     54      -0.2297      2.00000
     55      -0.2297      2.00000
     56      -0.2140      2.00000
     57      -0.2140      2.00000
     58      -0.2140      2.00000
     59      -0.2140      2.00000
     60      -0.1701      2.00000
     61      -0.1701      2.00000
     62      -0.1701      2.00000
     63      -0.1701      2.00000
     64      -0.1580      2.00000
     65      -0.1580      2.00000
     66      -0.1580      2.00000
     67      -0.1580      2.00000
     68      -0.0373      2.00000
     69      -0.0373      2.00000
     70      -0.0373      2.00000
     71      -0.0373      2.00000
     72       0.0082      2.00000
     73       0.0082      2.00000
     74       0.0285      2.00000
     75       0.0285      2.00000
     76       0.0285      2.00000
     77       0.0285      2.00000
     78       0.1512      2.00000
     79       0.1512      2.00000
     80       0.1512      2.00000
     81       0.1512      2.00000
     82       0.1675      2.00000
     83       0.1743      2.00000
     84       0.1743      2.00000
     85       0.1743      2.00000
     86       0.1743      2.00000
     87       0.1954      2.00000
     88       0.1954      2.00000
     89       0.4416      2.00000
     90       0.4416      2.00000
     91       0.4416      2.00000
     92       0.4416      2.00000
     93       0.5302      2.00000
     94       0.5627      2.00000
     95       0.5627      2.00000
     96       0.5627      2.00000
     97       0.5627      2.00000
     98       0.5918      2.00000
     99       0.6087      2.00000
    100       0.6087      2.00000
    101       0.6255      2.00000
    102       0.6255      2.00000
    103       0.6255      2.00000
    104       0.6255      2.00000
    105       0.6610      2.00000
    106       0.6610      2.00000
    107       0.6610      2.00000
    108       0.6610      2.00000
    109       0.7460      2.00000
    110       0.7460      2.00000
    111       0.7460      2.00000
    112       0.7460      2.00000
    113       0.7993      2.00000
    114       0.7993      2.00000
    115       0.7993      2.00000
    116       0.7993      2.00000
    117       0.8196      2.00000
    118       0.8196      2.00000
    119       0.8196      2.00000
    120       0.8196      2.00000
    121       0.8555      2.00000
    122       0.8555      2.00000
    123       0.8555      2.00000
    124       0.8555      2.00000
    125       0.8704      2.00000
    126       0.8901      2.00000
    127       0.8904      2.00000
    128       0.8904      2.00000
    129       0.8918      2.00000
    130       0.8918      2.00000
    131       0.9350      2.00000
    132       0.9350      2.00000
    133       0.9350      2.00000
    134       0.9350      2.00000
    135       0.9656      2.00000
    136       0.9656      2.00000
    137       0.9656      2.00000
    138       0.9656      2.00000
    139       1.0638      2.00000
    140       1.1334      2.00000
    141       1.1334      2.00000
    142       1.1334      2.00000
    143       1.1334      2.00000
    144       1.1676      2.00000
    145       1.2227      2.00000
    146       1.2227      2.00000
    147       1.2227      2.00000
    148       1.2227      2.00000
    149       1.3332      2.00000
    150       1.3332      2.00000
    151       1.3452      2.00000
    152       1.3483      2.00000
    153       1.3483      2.00000
    154       1.3483      2.00000
    155       1.3483      2.00000
    156       1.3938      2.00000
    157       1.3938      2.00000
    158       1.4593      2.00000
    159       1.4593      2.00000
    160       1.4593      2.00000
    161       1.4593      2.00000
    162       1.4604      2.00000
    163       1.4604      2.00000
    164       1.4818      2.00000
    165       1.4818      2.00000
    166       1.4824      2.00000
    167       1.4824      2.00000
    168       2.1553      2.00000
    169       2.1553      2.00000
    170       2.1553      2.00000
    171       2.1553      2.00000
    172       2.2954      2.00000
    173       2.2954      2.00000
    174       2.2954      2.00000
    175       2.2954      2.00000
    176       2.5564      2.00000
    177       2.5564      2.00000
    178       2.5564      2.00000
    179       2.5564      2.00000
    180       3.0958      0.00000
    181       3.0958      0.00000
    182       3.0958      0.00000
    183       3.0958      0.00000
    184       4.1174      0.00000
    185       4.6570      0.00000
    186       4.6570      0.00000
    187       6.3538      0.00000
    188       6.3538      0.00000
    189       6.3538      0.00000
    190       6.3538      0.00000
    191       7.8581      0.00000
    192       7.8581      0.00000
    193       8.0146      0.00000
    194       8.0146      0.00000
    195       8.0146      0.00000
    196       8.0146      0.00000
    197       8.8367      0.00000
    198       8.8367      0.00000
    199       8.8367      0.00000
    200       8.8367      0.00000
    201       9.3536      0.00000
    202       9.3536      0.00000
    203       9.7224      0.00000
    204       9.7224      0.00000
    205       9.8470      0.00000
    206      10.3453      0.00000
    207      10.3453      0.00000
    208      10.8286      0.00000
    209      10.8286      0.00000
    210      10.8286      0.00000
    211      10.8286      0.00000
    212      11.0205      0.00000
    213      11.0205      0.00000
    214      11.0205      0.00000
    215      11.0205      0.00000
    216      11.2181      0.00000

 k-point   3 :       0.2857    0.0000    0.0000
  band No.  band energies     occupation 
      1      -5.4107      2.00000
      2      -4.2482      2.00000
      3      -2.8674      2.00000
      4      -2.8674      2.00000
      5      -2.8674      2.00000
      6      -2.8674      2.00000
      7      -1.9955      2.00000
      8      -1.9955      2.00000
      9      -1.9955      2.00000
     10      -1.9955      2.00000
     11      -1.9228      2.00000
     12      -1.5548      2.00000
     13      -1.5548      2.00000
     14      -1.5548      2.00000
     15      -1.5548      2.00000
     16      -1.3961      2.00000
     17      -1.3612      2.00000
     18      -1.3612      2.00000
     19      -1.3612      2.00000
     20      -1.3612      2.00000
     21      -1.2823      2.00000
     22      -1.2823      2.00000
     23      -0.9385      2.00000
     24      -0.9345      2.00000
     25      -0.9345      2.00000
     26      -0.8872      2.00000
     27      -0.8872      2.00000
     28      -0.7562      2.00000
     29      -0.7562      2.00000
     30      -0.7562      2.00000
     31      -0.7562      2.00000
     32      -0.6715      2.00000
     33      -0.6596      2.00000
     34      -0.6596      2.00000
     35      -0.6596      2.00000
     36      -0.6596      2.00000
     37      -0.6117      2.00000
     38      -0.6117      2.00000
     39      -0.3943      2.00000
     40      -0.3943      2.00000
     41      -0.3943      2.00000
     42      -0.3943      2.00000
     43      -0.3132      2.00000
     44      -0.3132      2.00000
     45      -0.3132      2.00000
     46      -0.3132      2.00000
     47      -0.2931      2.00000
     48      -0.2931      2.00000
     49      -0.2931      2.00000
     50      -0.2931      2.00000
     51      -0.2853      2.00000
     52      -0.2853      2.00000
     53      -0.2853      2.00000
     54      -0.2853      2.00000
     55      -0.2240      2.00000
     56      -0.2240      2.00000
     57      -0.2240      2.00000
     58      -0.2240      2.00000
     59      -0.2080      2.00000
     60      -0.2080      2.00000
     61      -0.2080      2.00000
     62      -0.2080      2.00000
     63      -0.1607      2.00000
     64      -0.0085      2.00000
     65      -0.0085      2.00000
     66      -0.0085      2.00000
     67      -0.0085      2.00000
     68       0.0021      2.00000
     69       0.0021      2.00000
     70       0.0021      2.00000
     71       0.0021      2.00000
     72       0.0862      2.00000
     73       0.0862      2.00000
     74       0.0862      2.00000
     75       0.0862      2.00000
     76       0.1221      2.00000
     77       0.1242      2.00000
     78       0.1242      2.00000
     79       0.1242      2.00000
     80       0.1242      2.00000
     81       0.2146      2.00000
     82       0.2146      2.00000
     83       0.2146      2.00000
     84       0.2146      2.00000
     85       0.2329      2.00000
     86       0.2329      2.00000
     87       0.2787      2.00000
     88       0.2787      2.00000
     89       0.3313      2.00000
     90       0.3313      2.00000
     91       0.3313      2.00000
     92       0.3313      2.00000
     93       0.4638      2.00000
     94       0.4638      2.00000
     95       0.4638      2.00000
     96       0.4638      2.00000
     97       0.4851      2.00000
     98       0.4851      2.00000
     99       0.6010      2.00000
    100       0.6848      2.00000
    101       0.6848      2.00000
    102       0.6848      2.00000
    103       0.6848      2.00000
    104       0.7325      2.00000
    105       0.7325      2.00000
    106       0.7325      2.00000
    107       0.7325      2.00000
    108       0.7463      2.00000
    109       0.7463      2.00000
    110       0.7463      2.00000
    111       0.7463      2.00000
    112       0.7805      2.00000
    113       0.7805      2.00000
    114       0.7805      2.00000
    115       0.7805      2.00000
    116       0.8297      2.00000
    117       0.8469      2.00000
    118       0.8469      2.00000
    119       0.8469      2.00000
    120       0.8469      2.00000
    121       0.8521      2.00000
    122       0.8521      2.00000
    123       0.8521      2.00000
    124       0.8521      2.00000
    125       0.8824      2.00000
    126       0.9071      2.00000
    127       0.9148      2.00000
    128       0.9148      2.00000
    129       0.9148      2.00000
    130       0.9148      2.00000
    131       0.9798      2.00000
    132       0.9798      2.00000
    133       1.0147      2.00000
    134       1.0377      2.00000
    135       1.0377      2.00000
    136       1.0377      2.00000
    137       1.0377      2.00000
    138       1.0387      2.00000
    139       1.0387      2.00000
    140       1.0698      2.00000
    141       1.0698      2.00000
    142       1.0698      2.00000
    143       1.0698      2.00000
    144       1.1694      2.00000
    145       1.1694      2.00000
    146       1.2149      2.00000
    147       1.2149      2.00000
    148       1.2149      2.00000
    149       1.2149      2.00000
    150       1.2173      2.00000
    151       1.2803      2.00000
    152       1.2803      2.00000
    153       1.3042      2.00000
    154       1.3042      2.00000
    155       1.3042      2.00000
    156       1.3042      2.00000
    157       1.3277      2.00000
    158       1.3941      2.00000
    159       1.3941      2.00000
    160       1.3941      2.00000
    161       1.3941      2.00000
    162       1.3983      2.00000
    163       1.3983      2.00000
    164       1.4819      2.00000
    165       1.4819      2.00000
    166       1.4823      2.00000
    167       1.4823      2.00000
    168       1.8419      2.00000
    169       1.8419      2.00000
    170       1.8419      2.00000
    171       1.8419      2.00000
    172       2.3998      2.00000
    173       2.3998      2.00000
    174       2.3998      2.00000
    175       2.3998      2.00000
    176       2.5452      2.00000
    177       2.5452      2.00000
    178       2.5452      2.00000
    179       2.5452      2.00000
    180       3.2441      0.00000
    181       3.7950      0.00000
    182       3.7950      0.00000
    183       3.7950      0.00000
    184       3.7950      0.00000
    185       5.0388      0.00000
    186       5.0388      0.00000
    187       6.8286      0.00000
    188       6.8286      0.00000
    189       6.8286      0.00000
    190       6.8286      0.00000
    191       6.8646      0.00000
    192       6.8646      0.00000
    193       6.8646      0.00000
    194       6.8646      0.00000
    195       7.0221      0.00000
    196       7.0221      0.00000
    197       9.0620      0.00000
    198       9.0620      0.00000
    199       9.0620      0.00000
    200       9.0620      0.00000
    201       9.4269      0.00000
    202       9.4269      0.00000
    203       9.7682      0.00000
    204       9.7682      0.00000
    205       9.7682      0.00000
    206       9.7682      0.00000
    207      10.0031      0.00000
    208      10.0031      0.00000
    209      10.5163      0.00000
    210      10.5163      0.00000
    211      10.5163      0.00000
    212      10.5163      0.00000
    213      10.7381      0.00000
    214      10.7381      0.00000
    215      10.9608      0.00000
    216      10.9608      0.00000

 k-point   4 :       0.4286    0.0000    0.0000
  band No.  band energies     occupation 
      1      -5.1271      2.00000
      2      -4.7367      2.00000
      3      -2.6424      2.00000
      4      -2.6424      2.00000
      5      -2.6424      2.00000
      6      -2.6424      2.00000
      7      -2.3446      2.00000
      8      -2.3446      2.00000
      9      -2.3446      2.00000
     10      -2.3446      2.00000
     11      -1.5985      2.00000
     12      -1.5008      2.00000
     13      -1.5008      2.00000
     14      -1.5008      2.00000
     15      -1.5008      2.00000
     16      -1.4485      2.00000
     17      -1.4330      2.00000
     18      -1.4330      2.00000
     19      -1.4330      2.00000
     20      -1.4330      2.00000
     21      -1.1682      2.00000
     22      -1.1682      2.00000
     23      -1.0287      2.00000
     24      -1.0287      2.00000
     25      -0.8709      2.00000
     26      -0.8588      2.00000
     27      -0.8588      2.00000
     28      -0.7805      2.00000
     29      -0.7515      2.00000
     30      -0.7515      2.00000
     31      -0.5979      2.00000
     32      -0.5979      2.00000
     33      -0.5979      2.00000
     34      -0.5979      2.00000
     35      -0.5841      2.00000
     36      -0.5841      2.00000
     37      -0.5841      2.00000
     38      -0.5841      2.00000
     39      -0.3996      2.00000
     40      -0.3996      2.00000
     41      -0.3996      2.00000
     42      -0.3996      2.00000
     43      -0.3965      2.00000
     44      -0.3965      2.00000
     45      -0.3965      2.00000
     46      -0.3965      2.00000
     47      -0.3662      2.00000
     48      -0.3662      2.00000
     49      -0.3662      2.00000
     50      -0.3662      2.00000
     51      -0.3310      2.00000
     52      -0.3310      2.00000
     53      -0.3310      2.00000
     54      -0.3310      2.00000
     55      -0.2166      2.00000
     56      -0.2166      2.00000
     57      -0.2166      2.00000
     58      -0.2166      2.00000
     59      -0.2101      2.00000
     60      -0.2101      2.00000
     61      -0.2101      2.00000
     62      -0.2101      2.00000
     63      -0.0466      2.00000
     64       0.0375      2.00000
[...]
     72       0.1709      2.00000
     73       0.1709      2.00000
     74       0.1993      2.00000
     75       0.1993      2.00000
     76       0.1993      2.00000
     77       0.2361      2.00000
     78       0.2361      2.00000
     79       0.2361      2.00000
     80       0.2361      2.00000
     81       0.2361      2.00000
     82       0.2361      2.00000
     83       0.2434      2.00000
     84       0.2434      2.00000
     85       0.2434      2.00000
     86       0.2969      2.00000
     87       0.2969      2.00000
     88       0.3110      2.00000
     89       0.3110      2.00000
     90       0.3110      2.00000
     91       0.3239      2.00000
     92       0.3239      2.00000
     93       0.3246      2.00000
     94       0.3246      2.00000
     95       0.3246      2.00000
     96       0.3247      2.00000
     97       0.3247      2.00000
     98       0.3247      2.00000
     99       0.3335      2.00000
    100       0.3335      2.00000
    101       0.3335      2.00000
    102       0.3694      2.00000
    103       0.3694      2.00000
    104       0.3694      2.00000
    105       0.5976      2.00000
    106       0.5976      2.00000
    107       0.5976      2.00000
    108       0.6915      2.00000
    109       0.6915      2.00000
    110       0.6915      2.00000
    111       0.6915      2.00000
    112       0.6915      2.00000
    113       0.6915      2.00000
    114       0.7029      2.00000
    115       0.7029      2.00000
    116       0.7029      2.00000
    117       0.7618      2.00000
    118       0.7618      2.00000
    119       0.7618      2.00000
    120       0.7961      2.00000
    121       0.7961      2.00000
    122       0.7961      2.00000
    123       0.7961      2.00000
    124       0.7961      2.00000
    125       0.7961      2.00000
    126       0.8694      2.00000
    127       0.8694      2.00000
    128       0.8694      2.00000
    129       0.8895      2.00000
    130       0.8895      2.00000
    131       0.8895      2.00000
    132       0.9005      2.00000
    133       0.9005      2.00000
    134       0.9200      2.00000
    135       0.9200      2.00000
    136       0.9200      2.00000
    137       0.9891      2.00000
    138       0.9891      2.00000
    139       0.9891      2.00000
    140       1.0287      2.00000
    141       1.0287      2.00000
    142       1.0497      2.00000
    143       1.0497      2.00000
    144       1.0497      2.00000
    145       1.3709      2.00000
    146       1.3709      2.00000
    147       1.3709      2.00000
    148       1.3836      2.00000
    149       1.3836      2.00000
    150       1.3836      2.00000
    151       1.3836      2.00000
    152       1.3836      2.00000
    153       1.3836      2.00000
    154       1.3849      2.00000
    155       1.3849      2.00000
    156       1.3849      2.00000
    157       1.3849      2.00000
    158       1.3849      2.00000
    159       1.3849      2.00000
    160       1.3892      2.00000
    161       1.3892      2.00000
    162       1.3892      2.00000
    163       1.3978      2.00000
    164       1.3978      2.00000
    165       1.3978      2.00000
    166       1.4058      2.00000
    167       1.4058      2.00000
    168       1.4058      2.00000
    169       2.9916      0.00000
    170       2.9916      0.00000
    171       2.9916      0.00000
    172       3.3425      0.00000
    173       3.3425      0.00000
    174       3.3425      0.00000
    175       3.3425      0.00000
    176       3.3425      0.00000
    177       3.3425      0.00000
    178       3.6280      0.00000
    179       3.6280      0.00000
    180       3.6280      0.00000
    181       3.9019      0.00000
    182       3.9019      0.00000
    183       3.9019      0.00000
    184       4.3094      0.00000
    185       4.3094      0.00000
    186       4.3094      0.00000
    187       4.3094      0.00000
    188       4.3094      0.00000
    189       4.3094      0.00000
    190       4.6442      0.00000
    191       4.6442      0.00000
    192       4.6442      0.00000
    193       7.9247      0.00000
    194       7.9247      0.00000
    195       7.9247      0.00000
    196       8.3385      0.00000
    197       8.3385      0.00000
    198       8.3385      0.00000
    199       8.9489      0.00000
    200       8.9489      0.00000
    201       8.9489      0.00000
    202       8.9489      0.00000
    203       8.9489      0.00000
    204       8.9489      0.00000
    205       9.3799      0.00000
    206       9.3799      0.00000
    207       9.3799      0.00000
    208       9.3799      0.00000
    209       9.3799      0.00000
    210       9.3799      0.00000
    211      10.0077      0.00000
    212      10.0077      0.00000
    213      10.0077      0.00000
    214      10.4457      0.00000
    215      10.4457      0.00000
    216      10.4457      0.00000


--------------------------------------------------------------------------------------------------------


 soft charge-density along one line, spin component           1
         0         1         2         3         4         5         6         7         8         9
 total charge-density along one line
 
 pseudopotential strength for first ion, spin component:           1
 -6.893   0.000  -0.000   0.000  -0.000  -0.051  -0.000   0.000
  0.000  -6.893  -0.000   0.000  -0.000  -0.000  -0.051   0.000
 -0.000  -0.000  -6.877  -0.000  -0.000   0.000   0.000  -0.059
  0.000   0.000  -0.000  -6.893   0.000  -0.000  -0.000   0.000
 -0.000  -0.000  -0.000   0.000  -6.877   0.000   0.000   0.000
 -0.051  -0.000   0.000  -0.000   0.000   1.591   0.000  -0.000
 -0.000  -0.051   0.000  -0.000   0.000   0.000   1.591  -0.000
  0.000   0.000  -0.059   0.000   0.000  -0.000  -0.000   1.594
 -0.000  -0.000   0.000  -0.051  -0.000   0.000   0.000  -0.000
  0.000   0.000   0.000  -0.000  -0.059  -0.000  -0.000  -0.000
 -0.000  -0.000  -0.000  -0.000  -0.000  -0.000  -0.000  -0.000
  0.000   0.000   0.000   0.000   0.000  -0.000  -0.000  -0.000
  0.000   0.000   0.000   0.000   0.000  -0.000  -0.000  -0.000
  0.000  -0.000   0.000   0.000   0.000   0.000   0.000  -0.000
 -0.000   0.000  -0.000   0.000   0.000   0.000   0.000   0.000
 -0.000  -0.000  -0.000  -0.000  -0.000   0.000   0.000   0.000
 -0.000   0.000  -0.000  -0.000  -0.000   0.000  -0.000   0.000
  0.000  -0.000   0.000  -0.000  -0.000  -0.000   0.000  -0.000
 total augmentation occupancy for first ion, spin component:           1
  1.895  -0.001  -0.004   0.001   0.001  -0.029   0.000   0.001  -0.000  -0.000   0.008   0.000   0.000   0.000  -0.000   0.000
 -0.001   1.902  -0.002  -0.001  -0.001   0.000  -0.037   0.002   0.001  -0.000   0.002  -0.001  -0.000   0.000   0.000  -0.000
 -0.004  -0.002   1.920  -0.000   0.004   0.001   0.002  -0.074   0.001  -0.002   0.020   0.003   0.000  -0.000   0.000   0.000
  0.001  -0.001  -0.000   1.901   0.002  -0.000   0.001   0.001  -0.033  -0.001   0.004   0.000  -0.000  -0.000  -0.000  -0.000
  0.001  -0.001   0.004   0.002   1.902  -0.000  -0.000  -0.002  -0.001  -0.062  -0.008  -0.002  -0.000   0.000  -0.000  -0.000
 -0.029   0.000   0.001  -0.000  -0.000   0.059  -0.000   0.001   0.000   0.000  -0.002   0.000  -0.000  -0.000  -0.000   0.000
  0.000  -0.037   0.002   0.001  -0.000  -0.000   0.065  -0.002  -0.000   0.001   0.002   0.001  -0.000   0.000   0.000  -0.000
  0.001   0.002  -0.074   0.001  -0.002   0.001  -0.002   0.059  -0.001  -0.000  -0.010   0.000   0.000  -0.000   0.000   0.000
 -0.000   0.001   0.001  -0.033  -0.001   0.000  -0.000  -0.001   0.059  -0.000  -0.001   0.000  -0.000  -0.000   0.000   0.000
 -0.000  -0.000  -0.002  -0.001  -0.062   0.000   0.001  -0.000  -0.000   0.055   0.005   0.000  -0.000  -0.000  -0.000  -0.000
  0.008   0.002   0.020   0.004  -0.008  -0.002   0.002  -0.010  -0.001   0.005   1.135  -0.307   0.000  -0.000  -0.000   0.000
  0.000  -0.001   0.003   0.000  -0.002   0.000   0.001   0.000   0.000   0.000  -0.307   0.122   0.000   0.000   0.000  -0.000
  0.000  -0.000   0.000  -0.000  -0.000  -0.000  -0.000   0.000  -0.000  -0.000   0.000   0.000   0.157  -0.003   0.002  -0.011
  0.000   0.000  -0.000  -0.000   0.000  -0.000   0.000  -0.000  -0.000  -0.000  -0.000   0.000  -0.003   0.161   0.000  -0.000
 -0.000   0.000   0.000  -0.000  -0.000  -0.000   0.000   0.000   0.000  -0.000  -0.000   0.000   0.002   0.000   0.159  -0.000
  0.000  -0.000   0.000  -0.000  -0.000   0.000  -0.000   0.000   0.000  -0.000   0.000  -0.000  -0.011  -0.000  -0.000   0.001
 -0.000  -0.000  -0.000  -0.000   0.000  -0.000  -0.000   0.000   0.000   0.000  -0.000   0.000  -0.000  -0.011  -0.000   0.000
 -0.000   0.000   0.000  -0.000  -0.000   0.000   0.000   0.000  -0.000  -0.000  -0.000   0.000  -0.000  -0.000  -0.010   0.000


------------------------ aborting loop because EDIFF is reached ----------------------------------------




--------------------------------------------------------------------------------------------------------


    CHARGE:  VPU time    1.69: CPU time    1.69
    FORLOC:  VPU time    0.03: CPU time    0.03
    FORNL :  VPU time   18.22: CPU time   18.21
    STRESS:  VPU time   30.75: CPU time   30.75
    FORCOR:  VPU time    0.14: CPU time    0.14
    FORHAR:  VPU time    0.05: CPU time    0.05
    MIXING:  VPU time    0.00: CPU time    0.01


--------------------------------------------------------------------------------------------------------



  FREE ENERGIE OF THE ION-ELECTRON SYSTEM (eV)
  ---------------------------------------------------
  free  energy   TOTEN  =      -117.850521 eV

  energy  without entropy=     -117.849365  energy(sigma->0) =     -117.849943
 

  FORCE on cell =-STRESS in cart. coord.  units (eV/reduce length):
  Direction    X        Y        Z        XY       YZ       ZX
  --------------------------------------------------------------------------------------
  Alpha Z   3112.30   3112.30   3112.30
  Ewald   -11375.16 -11375.16 -11375.16      0.00     -0.00     -0.00
  Hartree   3473.73   3473.73   3473.73     -0.00     -0.00     -0.00
  E(xc)    -1999.25  -1999.25  -1999.25      0.00      0.00     -0.00
  Local     3660.52   3660.52   3660.52      0.00      0.00      0.00
  n-local  -1202.60  -1199.64  -1194.21      2.12     -0.46      0.99
  augment   1805.18   1805.18   1805.18     -0.00     -0.00     -0.00
  Kinetic   2493.21   2494.10   2500.48      0.82     -3.48     -0.34
  -------------------------------------------------------------------------------------
  Total      -25.56    -25.56    -25.56      0.00      0.00      0.00
  in kB      -97.41    -97.41    -97.41      0.00      0.00      0.00
  external pressure =      -97.41 kB  Pullay stress =        0.00 kB


 VOLUME and BASIS-vectors are now :
 -----------------------------------------------------------------------------
  energy-cutoff  :      500.00
  volume of cell :      420.36
      direct lattice vectors                 reciprocal lattice vectors
     7.491016572  0.000000000  0.000000000     0.133493230  0.000000000  0.000000000
     0.000000000  7.491016572  0.000000000     0.000000000  0.133493230  0.000000000
     0.000000000  0.000000000  7.491016572     0.000000000  0.000000000  0.133493230

  length of vectors
     7.491016572  7.491016572  7.491016572     0.133493230  0.133493230  0.133493230


 FORCES acting on ions
    electron-ion (+dipol)            ewald-force                    non-local-force                 convergence-correction
 -----------------------------------------------------------------------------------------------
   -.158E-12 -.144E-12 -.196E-12   0.353E-12 0.924E-13 -.124E-12   0.327E-25 -.994E-25 0.129E-25   0.199E-12 0.141E-12 0.195E-12
   0.103E-11 -.126E-12 0.130E-10   0.322E-12 0.888E-13 -.533E-13   -.122E-24 0.953E-25 0.153E-25   -.290E-12 0.944E-13 0.160E-12
   -.156E-12 0.101E-11 -.182E-12   0.342E-12 0.853E-13 -.107E-13   -.111E-24 0.132E-24 -.509E-25   0.164E-12 -.103E-12 0.214E-12
   0.103E-11 0.665E-11 -.671E-12   0.340E-12 0.817E-13 -.533E-13   0.703E-25 -.166E-24 -.141E-25   -.282E-12 -.121E-12 0.176E-12
   -.158E-12 -.144E-12 0.106E-11   0.324E-12 0.995E-13 -.178E-13   0.116E-24 -.128E-24 0.905E-25   0.196E-12 0.139E-12 -.234E-12
   0.103E-11 -.144E-12 0.239E-11   0.322E-12 0.888E-13 0.533E-13   -.525E-25 0.905E-25 -.121E-24   -.297E-12 0.926E-13 -.228E-12
   -.157E-12 0.101E-11 0.108E-11   0.314E-12 0.853E-13 0.355E-14   -.372E-25 0.132E-24 -.258E-25   0.184E-12 -.101E-12 -.259E-12
   0.103E-11 -.444E-11 0.405E-11   0.312E-12 0.110E-12 -.320E-13   0.937E-25 -.123E-24 0.105E-25   -.295E-12 -.117E-12 -.270E-12
   0.415E-12 0.326E-11 -.429E-12   0.711E-14 0.239E-13 -.391E-13   0.129E-24 -.693E-25 0.258E-25   0.272E-13 0.142E-12 0.171E-12
   0.159E-11 -.167E-10 -.579E-11   0.711E-13 0.203E-13 -.462E-13   -.103E-24 0.104E-24 -.485E-26   -.103E-12 0.151E-12 0.206E-12
   0.419E-12 -.126E-11 -.428E-12   0.249E-13 0.362E-13 -.249E-13   -.590E-25 0.598E-25 -.404E-25   0.926E-14 -.281E-12 0.195E-12
   0.160E-11 0.253E-11 -.469E-11   0.604E-13 0.326E-13 -.249E-13   0.856E-25 -.775E-25 0.864E-25   -.135E-12 -.277E-12 0.238E-12
   0.384E-12 -.242E-11 0.808E-12   0.355E-13 0.239E-13 0.320E-13   0.800E-25 -.128E-24 0.307E-25   0.699E-13 0.128E-12 -.208E-12
   0.163E-11 0.729E-11 -.664E-11   0.426E-13 0.488E-13 -.249E-13   -.695E-25 0.109E-24 -.775E-25   -.156E-12 0.118E-12 -.225E-12
   0.386E-12 0.458E-11 0.869E-12   0.249E-13 0.433E-13 -.320E-13   -.103E-24 0.880E-25 -.889E-26   0.603E-13 -.265E-12 -.231E-12
   0.163E-11 -.976E-11 0.566E-11   0.320E-13 0.326E-13 -.320E-13   0.469E-25 -.921E-25 0.961E-25   -.186E-12 -.243E-12 -.275E-12
   0.384E-12 -.138E-12 0.110E-11   -.497E-13 0.293E-13 0.638E-13   -.110E-25 0.885E-25 0.549E-25   0.583E-13 0.129E-12 0.185E-12
   0.162E-11 -.142E-12 -.146E-10   -.142E-13 -.275E-13 0.497E-13   -.396E-25 -.423E-25 0.129E-25   -.139E-12 0.624E-13 0.193E-12
   0.414E-12 0.100E-11 -.457E-11   -.178E-13 -.258E-13 0.639E-13   0.110E-24 -.364E-25 0.743E-25   0.418E-13 -.133E-12 0.152E-12
   0.160E-11 -.442E-11 0.923E-11   -.107E-13 0.275E-13 0.497E-13   -.808E-26 -.302E-25 -.559E-25   -.131E-12 -.890E-13 0.163E-12
   0.386E-12 -.142E-12 -.342E-11   -.604E-13 0.320E-13 0.796E-14   -.872E-25 -.670E-25 -.303E-25   0.758E-13 0.153E-12 -.353E-12
   0.162E-11 -.128E-12 0.962E-11   -.249E-13 0.320E-13 -.133E-13   -.464E-25 0.533E-25 -.444E-25   -.164E-12 0.112E-12 -.340E-12
   0.416E-12 0.106E-11 0.241E-11   -.604E-13 0.249E-13 0.293E-13   -.242E-26 0.133E-24 -.149E-25   0.500E-13 -.154E-12 -.354E-12
   0.160E-11 0.726E-11 -.370E-11   0.355E-14 0.249E-13 0.720E-13   -.775E-25 0.513E-25 -.438E-25   -.143E-12 -.134E-12 -.314E-12
   -.157E-12 0.410E-12 0.444E-12   -.320E-12 -.143E-12 0.277E-13   0.130E-24 0.727E-26 0.286E-25   0.200E-12 0.171E-12 0.138E-12
   0.103E-11 -.985E-12 0.738E-11   -.324E-12 -.143E-12 0.348E-13   -.630E-25 0.143E-24 0.267E-25   -.301E-12 0.157E-12 0.180E-12
   -.158E-12 0.161E-11 0.451E-12   -.322E-12 -.143E-12 0.135E-13   -.113E-25 -.501E-25 0.383E-25   0.156E-12 -.278E-12 0.162E-12
   0.103E-11 0.280E-11 -.413E-11   -.325E-12 -.139E-12 0.136E-13   -.319E-25 -.104E-24 0.166E-25   -.248E-12 -.278E-12 0.178E-12
   -.157E-12 0.412E-12 0.158E-11   -.343E-12 -.147E-12 0.287E-13   -.755E-25 0.409E-25 0.162E-25   0.221E-12 0.155E-12 -.317E-12
   0.103E-11 -.553E-12 -.729E-12   -.375E-12 -.147E-12 0.856E-13   -.291E-25 -.561E-25 -.372E-25   -.323E-12 0.125E-12 -.383E-12
   -.158E-12 0.161E-11 0.158E-11   -.313E-12 -.138E-12 -.210E-13   -.565E-25 -.656E-25 -.242E-25   0.198E-12 -.258E-12 -.303E-12
   0.103E-11 -.975E-11 -.133E-11   -.373E-12 -.138E-12 0.927E-13   -.275E-25 0.113E-24 0.266E-25   -.287E-12 -.246E-12 -.376E-12
 -----------------------------------------------------------------------------------------------
   0.231E-10 -.889E-11 0.112E-10   -.535E-15 -.287E-13 0.172E-12   -.328E-24 0.107E-24 0.687E-25   -.157E-11 -.101E-11 -.176E-11
 
 
 POSITION                                       TOTAL-FORCE (eV/Angst)
 -----------------------------------------------------------------------------------
      0.00000      0.00000      0.00000        -0.000000     -0.000000     -0.000000
      3.74551      0.00000      0.00000         0.000000      0.000000     -0.000000
      0.00000      3.74551      0.00000         0.000000     -0.000000     -0.000000
      3.74551      3.74551      0.00000        -0.000000     -0.000000     -0.000000
      0.00000      0.00000      3.74551        -0.000000      0.000000     -0.000000
      3.74551      0.00000      3.74551        -0.000000     -0.000000     -0.000000
      0.00000      3.74551      3.74551        -0.000000      0.000000     -0.000000
      3.74551      3.74551      3.74551        -0.000000     -0.000000      0.000000
      1.87275      1.87275      0.00000        -0.000000      0.000000      0.000000
      5.61826      1.87275      0.00000        -0.000000      0.000000     -0.000000
      1.87275      5.61826      0.00000        -0.000000     -0.000000     -0.000000
      5.61826      5.61826      0.00000        -0.000000     -0.000000      0.000000
      1.87275      1.87275      3.74551         0.000000     -0.000000      0.000000
      5.61826      1.87275      3.74551         0.000000     -0.000000     -0.000000
      1.87275      5.61826      3.74551         0.000000      0.000000     -0.000000
      5.61826      5.61826      3.74551        -0.000000     -0.000000      0.000000
      1.87275      0.00000      1.87275         0.000000     -0.000000     -0.000000
      5.61826      0.00000      1.87275        -0.000000     -0.000000     -0.000000
      1.87275      3.74551      1.87275        -0.000000      0.000000     -0.000000
      5.61826      3.74551      1.87275        -0.000000      0.000000     -0.000000
      1.87275      0.00000      5.61826        -0.000000     -0.000000      0.000000
      5.61826      0.00000      5.61826        -0.000000      0.000000      0.000000
      1.87275      3.74551      5.61826        -0.000000     -0.000000      0.000000
      5.61826      3.74551      5.61826         0.000000     -0.000000      0.000000
      0.00000      1.87275      1.87275         0.000000     -0.000000     -0.000000
      3.74551      1.87275      1.87275        -0.000000      0.000000      0.000000
      0.00000      5.61826      1.87275        -0.000000      0.000000      0.000000
      3.74551      5.61826      1.87275        -0.000000      0.000000      0.000000
      0.00000      1.87275      5.61826        -0.000000     -0.000000      0.000000
      3.74551      1.87275      5.61826        -0.000000     -0.000000      0.000000
      0.00000      5.61826      5.61826        -0.000000     -0.000000      0.000000
      3.74551      5.61826      5.61826         0.000000      0.000000      0.000000
 -----------------------------------------------------------------------------------
    total drift:                                0.000000     -0.000000      0.000000


--------------------------------------------------------------------------------------------------------



 mean value of Nose-termostat <S>:     1.000 mean value of <T> :     0.000
 mean temperature <T/S>/<1/S>  :     0.000

     LOOP+:  VPU time  687.97: CPU time  687.99
  
  
 General timing and accounting informations for this job:
 ========================================================
  
                  Total CPU time used (sec):      699.784
                            User time (sec):      658.113
                          System time (sec):       41.671
                         Elapsed time (sec):      699.821
  
                   Maximum memory used (kb):     1257348.
                   Average memory used (kb):           0.
  
                          Minor page faults:       213699
                          Major page faults:            0
                 Voluntary context switches:          917
