   4   4   0   0
  0.1797740E+02  0.4158426E-09  0.4158426E-09  0.4158426E-09  0.5000000E-15
  1.000000000000000E-004
  CAR 
 unknown system                          
     18.71698912     -4.47578586  301      7.16125437      1.00000000
     -4.476  0.0000E+00  0.0000E+00
     -4.398  0.0000E+00  0.0000E+00
     -4.321  0.0000E+00  0.0000E+00
     -4.244  0.0000E+00  0.0000E+00
     -4.167  0.0000E+00  0.0000E+00
     -4.089  0.0000E+00  0.0000E+00
     -4.012  0.0000E+00  0.0000E+00
     -3.935  0.0000E+00  0.0000E+00
     -3.857  0.0000E+00  0.0000E+00
     -3.780  0.0000E+00  0.0000E+00
     -3.703  0.0000E+00  0.0000E+00
     -3.625  0.0000E+00  0.0000E+00
     -3.548  0.0000E+00  0.0000E+00
     -3.471  0.2593E-13  0.2005E-14
     -3.393  0.1497E-01  0.1157E-02
     -3.316  0.9497E-01  0.8500E-02
     -3.239  0.2627E+00  0.2881E-01
     -3.162  0.8976E-01  0.3819E-01
     -3.084  0.3606E+00  0.6607E-01
     -3.007  0.3580E+00  0.9375E-01
     -2.930  0.1782E+00  0.1075E+00
     -2.852  0.4492E+00  0.1424E+00
     -2.775  0.4295E+00  0.1756E+00
     -2.698  0.4035E+00  0.2068E+00
     -2.620  0.3593E+00  0.2350E+00
     -2.543  0.7186E+00  0.2905E+00
     -2.466  0.7660E-01  0.2964E+00
     -2.388  0.7185E+00  0.3530E+00
     -2.311  0.5449E+00  0.3951E+00
     -2.234  0.5955E+00  0.4412E+00
     -2.157  0.7178E+00  0.5057E+00
     -2.079  0.3593E+00  0.5336E+00
     -2.002  0.1660E+00  0.5464E+00
     -1.925  0.6397E+00  0.5959E+00
     -1.847  0.1078E+01  0.6794E+00
     -1.770  0.4788E+00  0.7164E+00
     -1.693  0.1055E+01  0.7980E+00
     -1.615  0.7186E+00  0.8553E+00
     -1.538  0.2664E-01  0.8574E+00
     -1.461  0.8312E+00  0.9216E+00
     -1.383  0.7186E+00  0.9803E+00
     -1.306  0.7524E+00  0.1038E+01
     -1.229  0.7331E+00  0.1095E+01
     -1.151  0.1078E+01  0.1182E+01
     -1.074  0.1321E-01  0.1183E+01
     -0.997  0.1506E+01  0.1299E+01
     -0.920  0.7185E+00  0.1376E+01
     -0.842  0.3661E+00  0.1404E+01
     -0.765  0.1129E+01  0.1492E+01
     -0.688  0.7182E+00  0.1571E+01
     -0.610  0.1207E-02  0.1571E+01
     -0.533  0.6361E+00  0.1620E+01
     -0.456  0.1516E+01  0.1739E+01
     -0.378  0.7207E+00  0.1795E+01
     -0.301  0.9727E+00  0.1870E+01
     -0.224  0.1897E+01  0.2017E+01
     -0.146  0.2709E-02  0.2018E+01
     -0.069  0.1090E+01  0.2102E+01
      0.008  0.7030E+00  0.2156E+01
      0.085  0.1078E+01  0.2240E+01
      0.163  0.5135E+00  0.2279E+01
      0.240  0.1996E+01  0.2434E+01
      0.317  0.3794E-03  0.2434E+01
      0.395  0.7851E+00  0.2495E+01
      0.472  0.2174E+01  0.2663E+01
      0.549  0.3617E+00  0.2691E+01
      0.627  0.1457E+01  0.2804E+01
      0.704  0.1412E+01  0.2913E+01
      0.781  0.2313E-02  0.2913E+01
      0.859  0.9173E+00  0.2984E+01
      0.936  0.2130E+01  0.3149E+01
      1.013  0.8397E+00  0.3214E+01
      1.090  0.1176E+01  0.3305E+01
      1.168  0.1336E+01  0.3408E+01
      1.245  0.3580E-02  0.3409E+01
      1.322  0.1340E+01  0.3512E+01
      1.400  0.1011E+01  0.3610E+01
      1.477  0.1090E+01  0.3694E+01
      1.554  0.1266E+01  0.3792E+01
      1.632  0.1796E+01  0.3943E+01
      1.709  0.5504E-02  0.3944E+01
      1.786  0.2109E+01  0.4107E+01
      1.864  0.1796E+01  0.4277E+01
      1.941  0.7186E+00  0.4332E+01
      2.018  0.6342E+00  0.4381E+01
      2.096  0.1437E+01  0.4499E+01
      2.173  0.3429E-01  0.4501E+01
      2.250  0.9983E+00  0.4579E+01
      2.327  0.1617E+01  0.4707E+01
      2.405  0.1222E+01  0.4802E+01
      2.482  0.2751E+01  0.5015E+01
      2.559  0.7186E+00  0.5075E+01
      2.637  0.5640E+00  0.5119E+01
      2.714  0.1925E+01  0.5269E+01
      2.791  0.1086E+01  0.5354E+01
      2.869  0.1472E+01  0.5467E+01
      2.946  0.1131E+01  0.5557E+01
      3.023  0.2155E+01  0.5723E+01
      3.101  0.3833E-07  0.5723E+01
      3.178  0.1437E+01  0.5834E+01
      3.255  0.1515E+01  0.5952E+01
      3.332  0.1545E+01  0.6071E+01
      3.410  0.1970E+01  0.6224E+01
      3.487  0.1065E+01  0.6307E+01
      3.564  0.8054E+00  0.6369E+01
      3.642  0.1515E+01  0.6486E+01
      3.719  0.1784E+01  0.6624E+01
      3.796  0.6533E+00  0.6675E+01
      3.874  0.3006E+01  0.6907E+01
      3.951  0.8230E+00  0.6980E+01
      4.028  0.5431E+00  0.7022E+01
      4.106  0.2252E+01  0.7196E+01
      4.183  0.1985E+01  0.7350E+01
      4.260  0.6777E+00  0.7408E+01
      4.337  0.2170E+01  0.7579E+01
      4.415  0.1081E+01  0.7662E+01
      4.492  0.1438E+01  0.7773E+01
      4.569  0.2265E+01  0.7949E+01
      4.647  0.1769E+01  0.8092E+01
      4.724  0.1722E+01  0.8228E+01
      4.801  0.9849E+00  0.8304E+01
      4.879  0.1795E+00  0.8331E+01
      4.956  0.2048E+01  0.8489E+01
      5.033  0.2560E+01  0.8704E+01
      5.111  0.4776E+00  0.8743E+01
      5.188  0.1854E+01  0.8886E+01
      5.265  0.2081E+01  0.9048E+01
      5.342  0.5045E+00  0.9088E+01
      5.420  0.2431E+01  0.9276E+01
      5.497  0.1612E+01  0.9410E+01
      5.574  0.1350E+01  0.9514E+01
      5.652  0.7829E+00  0.9575E+01
      5.729  0.1145E+01  0.9663E+01
      5.806  0.1334E+01  0.9766E+01
      5.884  0.2872E+01  0.9996E+01
      5.961  0.5928E+00  0.1004E+02
      6.038  0.1388E+01  0.1015E+02
      6.116  0.2712E+01  0.1036E+02
      6.193  0.1414E+01  0.1047E+02
      6.270  0.7439E+00  0.1053E+02
      6.348  0.1201E+01  0.1062E+02
      6.425  0.2122E+01  0.1078E+02
      6.502  0.1693E+01  0.1092E+02
      6.579  0.2556E+01  0.1112E+02
      6.657  0.1237E+01  0.1121E+02
      6.734  0.9599E+00  0.1129E+02
      6.811  0.1936E+01  0.1144E+02
      6.889  0.6333E+00  0.1150E+02
      6.966  0.1628E+01  0.1162E+02
      7.043  0.3231E+01  0.1188E+02
      7.121  0.1087E+01  0.1196E+02
      7.198  0.3461E+01  0.1223E+02
      7.275  0.1092E+01  0.1234E+02
      7.353  0.1214E+01  0.1244E+02
      7.430  0.1687E+01  0.1257E+02
      7.507  0.1821E+01  0.1271E+02
      7.584  0.6071E+00  0.1277E+02
      7.662  0.2247E+01  0.1295E+02
      7.739  0.1437E+01  0.1306E+02
      7.816  0.4507E+00  0.1310E+02
      7.894  0.1505E+01  0.1321E+02
      7.971  0.2290E+01  0.1339E+02
      8.048  0.3096E+01  0.1363E+02
      8.126  0.1423E+01  0.1374E+02
      8.203  0.2293E+01  0.1392E+02
      8.280  0.1216E+01  0.1403E+02
      8.358  0.1662E+01  0.1418E+02
      8.435  0.1411E+01  0.1430E+02
      8.512  0.2440E+01  0.1449E+02
      8.589  0.3401E+01  0.1476E+02
      8.667  0.3588E+00  0.1478E+02
      8.744  0.1492E+01  0.1490E+02
      8.821  0.1770E+01  0.1504E+02
      8.899  0.1383E+01  0.1516E+02
      8.976  0.2594E+01  0.1536E+02
      9.053  0.1697E+01  0.1549E+02
      9.131  0.2232E+01  0.1566E+02
      9.208  0.1178E+01  0.1576E+02
      9.285  0.1077E+01  0.1584E+02
      9.363  0.3064E+01  0.1608E+02
      9.440  0.2682E+01  0.1628E+02
      9.517  0.1065E+01  0.1637E+02
      9.594  0.2320E+01  0.1655E+02
      9.672  0.1106E+01  0.1665E+02
      9.749  0.1864E+01  0.1680E+02
      9.826  0.1146E+01  0.1690E+02
      9.904  0.2159E+01  0.1707E+02
      9.981  0.1711E+01  0.1720E+02
     10.058  0.3404E+01  0.1746E+02
     10.136  0.3179E+01  0.1771E+02
     10.213  0.8384E+00  0.1779E+02
     10.290  0.2140E+01  0.1796E+02
     10.368  0.1961E+01  0.1811E+02
     10.445  0.1354E+01  0.1821E+02
     10.522  0.2833E+01  0.1844E+02
     10.600  0.1235E+01  0.1853E+02
     10.677  0.2815E+01  0.1875E+02
     10.754  0.2034E+01  0.1892E+02
     10.831  0.1086E+01  0.1901E+02
     10.909  0.1671E+01  0.1914E+02
     10.986  0.2515E+01  0.1934E+02
     11.063  0.1814E+01  0.1948E+02
     11.141  0.2748E+01  0.1969E+02
     11.218  0.1004E+01  0.1978E+02
     11.295  0.1896E+01  0.1993E+02
     11.373  0.2042E+01  0.2008E+02
     11.450  0.2718E+01  0.2029E+02
     11.527  0.2664E+01  0.2050E+02
     11.605  0.4205E+01  0.2084E+02
     11.682  0.2758E+00  0.2087E+02
     11.759  0.1508E+01  0.2099E+02
     11.836  0.2416E+01  0.2118E+02
     11.914  0.8964E+00  0.2125E+02
     11.991  0.3842E+01  0.2155E+02
     12.068  0.1437E+01  0.2167E+02
     12.146  0.1147E+01  0.2176E+02
     12.223  0.8287E+00  0.2182E+02
     12.300  0.2052E+01  0.2198E+02
     12.378  0.1156E+01  0.2208E+02
     12.455  0.2401E+01  0.2226E+02
     12.532  0.7976E+00  0.2232E+02
     12.610  0.2189E+00  0.2234E+02
     12.687  0.2036E+01  0.2250E+02
     12.764  0.8224E+00  0.2256E+02
     12.841  0.1574E+01  0.2269E+02
     12.919  0.1078E+01  0.2278E+02
     12.996  0.3843E+00  0.2281E+02
     13.073  0.1334E+01  0.2292E+02
     13.151  0.1118E+01  0.2300E+02
     13.228  0.8723E-01  0.2301E+02
     13.305  0.2863E+00  0.2303E+02
     13.383  0.1711E+00  0.2305E+02
     13.460  0.1284E+01  0.2315E+02
     13.537  0.8409E+00  0.2322E+02
     13.615  0.5091E+00  0.2326E+02
     13.692  0.8035E+00  0.2332E+02
     13.769  0.3704E+00  0.2335E+02
     13.847  0.0000E+00  0.2336E+02
     13.924  0.1269E-01  0.2336E+02
     14.001  0.6369E+00  0.2341E+02
     14.078  0.3593E+00  0.2344E+02
     14.156  0.7186E+00  0.2350E+02
     14.233  0.4931E+00  0.2354E+02
     14.310  0.3154E+00  0.2356E+02
     14.388  0.0000E+00  0.2356E+02
     14.465  0.3129E-03  0.2356E+02
     14.542  0.7183E+00  0.2362E+02
     14.620  0.7001E+00  0.2367E+02
     14.697  0.0000E+00  0.2367E+02
     14.774  0.2365E+00  0.2369E+02
     14.852  0.1198E+00  0.2371E+02
     14.929  0.0000E+00  0.2371E+02
     15.006  0.5883E-06  0.2371E+02
     15.083  0.1062E+01  0.2379E+02
     15.161  0.1129E-02  0.2379E+02
     15.238  0.3582E+00  0.2382E+02
     15.315  0.0000E+00  0.2382E+02
     15.393  0.0000E+00  0.2382E+02
     15.470  0.0000E+00  0.2382E+02
     15.547  0.0000E+00  0.2382E+02
     15.625  0.2861E+00  0.2384E+02
     15.702  0.6821E+00  0.2390E+02
     15.779  0.0000E+00  0.2390E+02
     15.857  0.0000E+00  0.2390E+02
     15.934  0.0000E+00  0.2390E+02
     16.011  0.0000E+00  0.2390E+02
     16.088  0.3566E+00  0.2393E+02
     16.166  0.3593E+00  0.2396E+02
     16.243  0.1198E+00  0.2397E+02
     16.320  0.0000E+00  0.2397E+02
     16.398  0.0000E+00  0.2397E+02
     16.475  0.0000E+00  0.2397E+02
     16.552  0.7525E-08  0.2397E+02
     16.630  0.3593E+00  0.2400E+02
     16.707  0.0000E+00  0.2400E+02
     16.784  0.0000E+00  0.2400E+02
     16.862  0.0000E+00  0.2400E+02
     16.939  0.0000E+00  0.2400E+02
     17.016  0.0000E+00  0.2400E+02
     17.093  0.0000E+00  0.2400E+02
     17.171  0.0000E+00  0.2400E+02
     17.248  0.0000E+00  0.2400E+02
     17.325  0.0000E+00  0.2400E+02
     17.403  0.0000E+00  0.2400E+02
     17.480  0.0000E+00  0.2400E+02
     17.557  0.0000E+00  0.2400E+02
     17.635  0.2101E-05  0.2400E+02
     17.712  0.5988E-01  0.2400E+02
     17.789  0.0000E+00  0.2400E+02
     17.867  0.0000E+00  0.2400E+02
     17.944  0.0000E+00  0.2400E+02
     18.021  0.0000E+00  0.2400E+02
     18.099  0.0000E+00  0.2400E+02
     18.176  0.0000E+00  0.2400E+02
     18.253  0.0000E+00  0.2400E+02
     18.330  0.0000E+00  0.2400E+02
     18.408  0.0000E+00  0.2400E+02
     18.485  0.0000E+00  0.2400E+02
     18.562  0.0000E+00  0.2400E+02
     18.640  0.0000E+00  0.2400E+02
     18.717  0.0000E+00  0.2400E+02
