    4    4    1    1
  0.1797740E+02  0.4158426E-09  0.4158426E-09  0.4158426E-09  0.5000000E-15
  1.000000000000000E-004
  CAR 
 unknown system                          
   12   84   12
 
  0.0000000E+00  0.0000000E+00  0.0000000E+00  0.5787037E-03
   1       -3.4216
   2        4.4168
   3        4.4168
   4        4.4168
   5        5.5339
   6        5.5339
   7        5.5339
   8       12.3435
   9       12.3435
  10       12.3435
  11       12.3435
  12       12.3439
 
  0.8333333E-01  0.0000000E+00  0.0000000E+00  0.3472222E-02
   1       -3.3621
   2        3.5514
   3        4.4717
   4        4.4717
   5        5.5923
   6        5.5923
   7        6.5035
   8       11.0858
   9       11.0858
  10       11.9064
  11       11.9064
  12       12.3997
 
  0.1666667E+00  0.0000000E+00  0.0000000E+00  0.3472222E-02
   1       -3.1839
   2        2.3968
   3        4.6365
   4        4.6365
   5        5.7671
   6        5.7671
   7        7.9705
   8        9.9261
   9        9.9261
  10       11.0265
  11       11.0265
  12       12.5486
 
  0.2500000E+00  0.0000000E+00  0.0000000E+00  0.3472222E-02
   1       -2.8874
   2        1.3159
   3        4.9111
   4        4.9111
   5        6.0572
   6        6.0572
   7        8.8772
   8        8.8772
   9        9.5709
  10       10.0804
  11       10.0804
  12       12.8051
 
  0.3333333E+00  0.0000000E+00  0.0000000E+00  0.3472222E-02
   1       -2.4732
   2        0.3360
   3        5.2959
   4        5.2959
   5        6.4600
   6        6.4600
   7        7.9393
   8        7.9393
   9        9.1795
  10        9.1795
  11       11.2757
  12       13.1641
 
  0.4166667E+00  0.0000000E+00  0.0000000E+00  0.3472222E-02
   1       -1.9422
   2       -0.5357
   3        5.7908
   4        5.7908
   5        6.9682
   6        6.9682
   7        7.1124
   8        7.1124
   9        8.3645
  10        8.3645
  11       13.0736
  12       13.6259
 
  0.5000000E+00  0.0000000E+00  0.0000000E+00  0.1736111E-02
   1       -1.2959
   2       -1.2959
   3        6.3963
   4        6.3963
   5        6.3963
   6        6.3963
   7        7.4486
   8        7.4486
   9        7.7808
  10        7.7808
  11       14.1902
  12       14.1902
 
  0.8333333E-01  0.8333333E-01  0.0000000E+00  0.6944444E-02
   1       -3.3027
   2        3.6078
   3        3.6078
   4        4.5266
   5        5.6506
   6        6.5603
   7        6.5603
   8       10.2243
   9       11.1407
  10       11.1407
  11       11.9587
  12       11.9587
 
  0.1666667E+00  0.8333333E-01  0.0000000E+00  0.1388889E-01
   1       -3.1246
   2        2.4539
   3        3.7769
   4        4.6914
   5        5.8252
   6        6.7305
   7        8.0263
   8        9.1138
   9        9.9811
  10       11.0802
  11       11.3056
  12       11.8808
 
  0.2500000E+00  0.8333333E-01  0.0000000E+00  0.1388889E-01
   1       -2.8281
   2        1.3735
   3        4.0585
   4        4.9661
   5        6.1145
   6        7.0130
   7        8.0776
   8        8.9323
   9        9.6257
  10       10.1356
  11       10.9653
  12       11.5801
 
  0.3333333E+00  0.8333333E-01  0.0000000E+00  0.1388889E-01
   1       -2.4141
   2        0.3940
   3        4.4521
   4        5.3508
   5        6.5116
   6        7.1455
   7        7.4047
   8        7.9944
   9        9.2372
  10       10.0747
  11       11.3288
  12       11.9637
 
  0.4166667E+00  0.8333333E-01  0.0000000E+00  0.1388889E-01
   1       -1.8834
   2       -0.4774
   3        4.9571
   4        5.8458
   5        6.2924
   6        7.0448
   7        7.1674
   8        7.8833
   9        8.4420
  10        9.2647
  11       12.4558
  12       13.1116
 
  0.5000000E+00  0.8333333E-01  0.0000000E+00  0.6944444E-02
   1       -1.2373
   2       -1.2373
   3        5.5721
   4        5.5721
   5        6.4513
   6        6.4513
   7        7.6513
   8        7.6513
   9        8.5607
  10        8.5607
  11       13.0555
  12       13.0555
 
  0.1666667E+00  0.1666667E+00  0.0000000E+00  0.6944444E-02
   1       -2.9467
   2        2.6252
   3        2.6252
   4        4.8562
   5        5.9986
   6        8.0085
   7        8.1933
   8        8.1933
   9       10.1462
  10       10.1462
  11       11.2414
  12       11.2414
 
  0.2500000E+00  0.1666667E+00  0.0000000E+00  0.1388889E-01
   1       -2.6506
   2        1.5462
   3        2.9103
   4        5.1309
   5        6.2814
   6        6.9745
   7        8.4693
   8        9.0974
   9        9.7886
  10       10.3019
  11       10.4213
  12       11.5100
 
  0.3333333E+00  0.1666667E+00  0.0000000E+00  0.1388889E-01
   1       -2.2370
   2        0.5679
   3        3.3087
   4        5.5158
   5        6.0066
   6        6.7080
   7        8.1596
   8        8.8371
   9        9.4238
  10       10.8060
  11       11.4672
  12       11.4767
 
  0.4166667E+00  0.1666667E+00  0.0000000E+00  0.1388889E-01
   1       -1.7069
   2       -0.3025
   3        3.8196
   4        5.1731
   5        6.0108
   6        7.2154
   7        7.3326
   8        8.5482
   9        9.3899
  10       10.6803
  11       11.3002
  12       12.3483
 
  0.5000000E+00  0.1666667E+00  0.0000000E+00  0.6944444E-02
   1       -1.0615
   2       -1.0615
   3        4.4417
   4        4.4417
   5        6.6164
   6        6.6164
   7        7.8350
   8        7.8350
   9        9.9804
  10        9.9804
  11       11.9032
  12       11.9032
 
  0.2500000E+00  0.2500000E+00  0.0000000E+00  0.6944444E-02
   1       -2.3551
   2        1.8337
   3        1.8337
   4        5.4058
   5        5.9040
   6        6.5938
   7        9.3727
   8        9.3727
   9       10.0450
  10       10.0450
  11       10.5909
  12       10.5909
 
  0.3333333E+00  0.2500000E+00  0.0000000E+00  0.1388889E-01
   1       -1.9423
   2        0.8573
   3        2.2353
   4        4.9602
   5        5.7907
   6        6.9887
   7        8.4349
   8        9.6488
   9        9.7580
  10       10.4747
  11       10.9313
  12       11.7785
 
  0.4166667E+00  0.2500000E+00  0.0000000E+00  0.1388889E-01
   1       -1.4132
   2       -0.0115
   3        2.7503
   4        4.1150
   5        6.2859
   6        7.5007
   7        7.6079
   8        8.8418
   9       10.2530
  10       10.9532
  11       11.4249
  12       11.5712
 
  0.5000000E+00  0.2500000E+00  0.0000000E+00  0.6944444E-02
   1       -0.7691
   2       -0.7691
   3        3.3775
   4        3.3775
   5        6.8916
   6        6.8916
   7        8.1206
   8        8.1206
   9       10.8576
  10       10.8576
  11       11.5399
  12       11.5399
 
  0.3333333E+00  0.3333333E+00  0.0000000E+00  0.6944444E-02
   1       -1.5307
   2        1.2616
   3        1.2616
   4        4.0047
   5        6.1758
   6        7.3879
   7        8.8203
   8        8.8203
   9       10.0464
  10       10.0464
  11       11.4605
  12       12.1478
 
  0.4166667E+00  0.3333333E+00  0.0000000E+00  0.1388889E-01
   1       -1.0030
   2        0.3951
   3        1.7799
   4        3.1535
   5        6.6712
   6        7.8982
   7        7.9933
   8        9.2347
   9        9.3158
  10       10.5408
  11       10.6363
  12       11.8311
 
  0.5000000E+00  0.3333333E+00  0.0000000E+00  0.6944444E-02
   1       -0.3605
   2       -0.3605
   3        2.4111
   4        2.4111
   5        7.2770
   6        7.2770
   7        8.5156
   8        8.5156
   9        9.9212
  10        9.9212
  11       11.1370
  12       11.1370
 
  0.4166667E+00  0.4166667E+00  0.0000000E+00  0.6944444E-02
   1       -0.4771
   2        0.9163
   3        0.9163
   4        2.2975
   5        7.1667
   6        8.4054
   7        8.4889
   8        8.4889
   9        9.7336
  10        9.7336
  11        9.8106
  12       11.0382
 
  0.5000000E+00  0.4166667E+00  0.0000000E+00  0.6944444E-02
   1        0.1632
   2        0.1632
   3        1.5510
   4        1.5510
   5        7.7726
   6        7.7726
   7        9.0190
   8        9.0190
   9        9.0947
  10        9.0947
  11       10.3363
  12       10.3363
 
  0.5000000E+00  0.5000000E+00  0.0000000E+00  0.1736111E-02
   1        0.8009
   2        0.8009
   3        0.8009
   4        0.8009
   5        8.3785
   6        8.3785
   7        8.3785
   8        8.3785
   9        9.6275
  10        9.6275
  11        9.6275
  12        9.6275
 
  0.8333333E-01  0.8333333E-01  0.8333333E-01  0.4629630E-02
   1       -3.2433
   2        3.6642
   3        3.6642
   4        3.6642
   5        6.6171
   6        6.6171
   7        6.6171
   8       10.2793
   9       10.2793
  10       10.2793
  11       12.4978
  12       12.4978
 
  0.1666667E+00  0.8333333E-01  0.8333333E-01  0.1388889E-01
   1       -3.0652
   2        2.5110
   3        3.8333
   4        3.8333
   5        6.7869
   6        6.7869
   7        8.0819
   8        9.1693
   9        9.1693
  10       10.4442
  11       11.9338
  12       11.9338
 
  0.2500000E+00  0.8333333E-01  0.8333333E-01  0.1388889E-01
   1       -2.7689
   2        1.4311
   3        4.1148
   4        4.1148
   5        7.0675
   6        7.0675
   7        8.1348
   8        8.1348
   9        9.6793
  10       10.7195
  11       11.0196
  12       11.0196
 
  0.3333333E+00  0.8333333E-01  0.8333333E-01  0.1388889E-01
   1       -2.3550
   2        0.4520
   3        4.5083
   4        4.5083
   5        7.1735
   6        7.1735
   7        7.4843
   8        7.4843
   9       10.1302
  10       10.1302
  11       11.0913
  12       11.3929
 
  0.4166667E+00  0.8333333E-01  0.8333333E-01  0.1388889E-01
   1       -1.8245
   2       -0.4191
   3        5.0129
   4        5.0129
   5        6.3546
   6        6.3546
   7        7.9710
   8        7.9710
   9        9.3231
  10        9.3231
  11       11.5894
  12       12.8921
 
  0.5000000E+00  0.8333333E-01  0.8333333E-01  0.6944444E-02
   1       -1.1787
   2       -1.1787
   3        5.5940
   4        5.5940
   5        5.6647
   6        5.6647
   7        8.4723
   8        8.4723
   9        8.7175
  10        8.7175
  11       12.1883
  12       12.1883
 
  0.1666667E+00  0.1666667E+00  0.8333333E-01  0.1388889E-01
   1       -2.8874
   2        2.6823
   3        2.6823
   4        4.0022
   5        6.9544
   6        8.0660
   7        8.2473
   8        8.2473
   9        9.3367
  10        9.3367
  11       12.0928
  12       12.0928
 
  0.2500000E+00  0.1666667E+00  0.8333333E-01  0.2777778E-01
   1       -2.5914
   2        1.6038
   3        2.9673
   4        4.2835
   5        6.9939
   6        7.2687
   7        8.2767
   8        8.5491
   9        9.5917
  10        9.8637
  11       11.1824
  12       12.3435
 
  0.3333333E+00  0.1666667E+00  0.8333333E-01  0.2777778E-01
   1       -2.1780
   2        0.6258
   3        3.3656
   4        4.6765
   5        6.0707
   6        7.3545
   7        7.6422
   8        8.9187
   9        9.9905
  10       10.2978
  11       11.5214
  12       11.5486
 
  0.4166667E+00  0.1666667E+00  0.8333333E-01  0.2777778E-01
   1       -1.6481
   2       -0.2443
   3        3.8762
   4        5.1636
   5        5.2496
   6        6.5228
   7        8.1444
   8        9.3355
   9        9.5670
  10       10.4857
  11       10.7354
  12       11.7964
 
  0.5000000E+00  0.1666667E+00  0.8333333E-01  0.1388889E-01
   1       -1.0030
   2       -1.0030
   3        4.4980
   4        4.4980
   5        5.7985
   6        5.7985
   7        8.7517
   8        8.7517
   9       10.0380
  10       10.0380
  11       11.0880
  12       11.0880
 
  0.2500000E+00  0.2500000E+00  0.8333333E-01  0.1388889E-01
   1       -2.2960
   2        1.8911
   3        1.8911
   4        4.5642
   5        5.9683
   6        7.5305
   7        8.5695
   8        8.5695
   9       10.1229
  10       10.1229
  11       11.4542
  12       11.4542
 
  0.3333333E+00  0.2500000E+00  0.8333333E-01  0.2777778E-01
   1       -1.8834
   2        0.9151
   3        2.2927
   4        4.9430
   5        5.0332
   6        7.6335
   7        7.9227
   8        8.9577
   9       10.4343
  10       10.6398
  11       11.5900
  12       11.7470
 
  0.4166667E+00  0.2500000E+00  0.8333333E-01  0.2777778E-01
   1       -1.3546
   2        0.0466
   3        2.8075
   4        4.1716
   5        5.4632
   6        6.8017
   7        8.4256
   8        9.4546
   9        9.7447
  10       10.7724
  11       11.0097
  12       12.2716
 
  0.5000000E+00  0.2500000E+00  0.8333333E-01  0.1388889E-01
   1       -0.7107
   2       -0.7107
   3        3.4344
   4        3.4344
   5        6.0776
   6        6.0776
   7        9.0351
   8        9.0351
   9       10.0599
  10       10.0599
  11       11.5945
  12       11.5945
 
  0.3333333E+00  0.3333333E+00  0.8333333E-01  0.1388889E-01
   1       -1.4719
   2        1.3192
   3        1.3192
   4        4.0613
   5        5.3512
   6        8.0223
   7        8.0223
   8        8.3150
   9       10.6659
  10       10.9370
  11       10.9370
  12       12.2028
 
  0.4166667E+00  0.3333333E+00  0.8333333E-01  0.2777778E-01
   1       -0.9445
   2        0.4531
   3        1.8374
   4        3.2106
   5        5.8544
   6        7.1914
   7        8.5209
   8        8.8166
   9        9.8443
  10       10.1346
  11       11.4282
  12       12.6752
 
  0.5000000E+00  0.3333333E+00  0.8333333E-01  0.1388889E-01
   1       -0.3023
   2       -0.3023
   3        2.4684
   4        2.4684
   5        6.4682
   6        6.4682
   7        9.1287
   8        9.1287
   9        9.4247
  10        9.4247
  11       12.0203
  12       12.0203
 
  0.4166667E+00  0.4166667E+00  0.8333333E-01  0.1388889E-01
   1       -0.4188
   2        0.9741
   3        0.9741
   4        2.3549
   5        6.3568
   6        7.6916
   7        7.6916
   8        9.0195
   9        9.3161
  10       10.6282
  11       10.6282
  12       11.9224
 
  0.5000000E+00  0.4166667E+00  0.8333333E-01  0.1388889E-01
   1        0.2213
   2        0.2213
   3        1.6086
   4        1.6086
   5        6.9696
   6        6.9696
   7        8.3013
   8        8.3013
   9        9.9215
  10        9.9215
  11       11.2255
  12       11.2255
 
  0.5000000E+00  0.5000000E+00  0.8333333E-01  0.3472222E-02
   1        0.8588
   2        0.8588
   3        0.8588
   4        0.8588
   5        7.5810
   6        7.5810
   7        7.5810
   8        7.5810
   9       10.5231
  10       10.5231
  11       10.5231
  12       10.5231
 
  0.1666667E+00  0.1666667E+00  0.1666667E+00  0.4629630E-02
   1       -2.7098
   2        2.8533
   3        2.8533
   4        2.8533
   5        8.1998
   6        8.1998
   7        8.1998
   8        8.4469
   9        8.4469
  10        8.4469
  11       12.9609
  12       12.9609
 
  0.2500000E+00  0.1666667E+00  0.1666667E+00  0.1388889E-01
   1       -2.4141
   2        1.7762
   3        3.1381
   4        3.1381
   5        7.1822
   6        7.1822
   7        8.4997
   8        8.7033
   9        8.7033
  10       10.0180
  11       12.4380
  12       12.5013
 
  0.3333333E+00  0.1666667E+00  0.1666667E+00  0.1388889E-01
   1       -2.0012
   2        0.7994
   3        3.5360
   4        3.5360
   5        6.2399
   6        6.2399
   7        8.8888
   8        9.0897
   9        9.0897
  10       11.5206
  11       11.6836
  12       11.6842
 
  0.4166667E+00  0.1666667E+00  0.1666667E+00  0.1388889E-01
   1       -1.4719
   2       -0.0697
   3        4.0461
   4        4.0461
   5        5.4011
   6        5.4011
   7        9.3861
   8        9.5828
   9        9.5828
  10       10.7039
  11       10.9017
  12       10.9017
 
  0.5000000E+00  0.1666667E+00  0.1666667E+00  0.6944444E-02
   1       -0.8275
   2       -0.8275
   3        4.6365
   4        4.6365
   5        4.7007
   6        4.7007
   7        9.9917
   8        9.9917
   9       10.0917
  10       10.0917
  11       10.2938
  12       10.2938
 
  0.2500000E+00  0.2500000E+00  0.1666667E+00  0.1388889E-01
   1       -2.1191
   2        2.0633
   3        2.0633
   4        3.4224
   5        6.1378
   6        7.4625
   7        7.4625
   8        8.9804
   9       10.2912
  10       10.2912
  11       11.4217
  12       12.7657
 
  0.3333333E+00  0.2500000E+00  0.1666667E+00  0.2777778E-01
   1       -1.7070
   2        1.0884
   3        2.4645
   4        3.8196
   5        5.1885
   6        6.5202
   7        7.8524
   8        9.3679
   9       10.4989
  10       10.6711
  11       11.9543
  12       11.9814
 
  0.4166667E+00  0.2500000E+00  0.1666667E+00  0.2777778E-01
   1       -1.1787
   2        0.2209
   3        2.9788
   4        4.3083
   5        4.3642
   6        5.6819
   7        8.3523
   8        9.6773
   9        9.8629
  10       11.0780
  11       11.2526
  12       12.4293
 
  0.5000000E+00  0.2500000E+00  0.1666667E+00  0.1388889E-01
   1       -0.5355
   2       -0.5355
   3        3.6050
   4        3.6050
   5        4.9514
   6        4.9514
   7        8.9610
   8        8.9610
   9       10.4606
  10       10.4606
  11       11.7587
  12       11.7587
 
  0.3333333E+00  0.3333333E+00  0.1666667E+00  0.1388889E-01
   1       -1.2960
   2        1.4921
   3        1.4921
   4        4.1981
   5        4.2511
   6        6.9117
   7        6.9117
   8        9.5710
   9        9.7548
  10       12.2745
  11       12.2746
  12       12.4083
 
  0.4166667E+00  0.3333333E+00  0.1666667E+00  0.2777778E-01
   1       -0.7691
   2        0.6269
   3        2.0098
   4        3.3815
   5        4.7259
   6        6.0748
   7        7.4137
   8        8.7452
   9       10.2489
  10       11.5412
  11       12.8028
  12       12.8362
 
  0.5000000E+00  0.3333333E+00  0.1666667E+00  0.1388889E-01
   1       -0.1276
   2       -0.1276
   3        2.6401
   4        2.6401
   5        5.3454
   6        5.3454
   7        8.0254
   8        8.0254
   9       10.8467
  10       10.8467
  11       13.3858
  12       13.3905
 
  0.4166667E+00  0.4166667E+00  0.1666667E+00  0.1388889E-01
   1       -0.2440
   2        1.1474
   3        1.1474
   4        2.5268
   5        5.2331
   6        6.5788
   7        6.5788
   8        7.9159
   9       10.7410
  10       12.0287
  11       12.0287
  12       13.2995
 
  0.5000000E+00  0.4166667E+00  0.1666667E+00  0.1388889E-01
   1        0.3954
   2        0.3954
   3        1.7813
   4        1.7813
   5        5.8512
   6        5.8512
   7        7.1930
   8        7.1930
   9       11.3364
  10       11.3364
  11       12.6164
  12       12.6164
 
  0.5000000E+00  0.5000000E+00  0.1666667E+00  0.3472222E-02
   1        1.0322
   2        1.0322
   3        1.0322
   4        1.0322
   5        6.4676
   6        6.4676
   7        6.4676
   8        6.4676
   9       11.9283
  10       11.9283
  11       11.9283
  12       11.9283
 
  0.2500000E+00  0.2500000E+00  0.2500000E+00  0.4629630E-02
   1       -1.8246
   2        2.3500
   3        2.3500
   4        2.3500
   5        6.4184
   6        6.4184
   7        6.4184
   8       10.3999
   9       10.5659
  10       10.5659
  11       10.5659
  12       13.7337
 
  0.3333333E+00  0.2500000E+00  0.2500000E+00  0.1388889E-01
   1       -1.4133
   2        1.3769
   3        2.7504
   4        2.7504
   5        5.4700
   6        5.4700
   7        6.8103
   8        9.4717
   9       10.9474
  10       10.9474
  11       12.2520
  12       13.3981
 
  0.4166667E+00  0.2500000E+00  0.2500000E+00  0.1388889E-01
   1       -0.8860
   2        0.5110
   3        3.2639
   4        3.2639
   5        4.6259
   6        4.6259
   7        7.3129
   8        8.6455
   9       11.4322
  10       11.4322
  11       12.6976
  12       12.6976
 
  0.5000000E+00  0.2500000E+00  0.2500000E+00  0.6944444E-02
   1       -0.2440
   2       -0.2440
   3        3.8707
   4        3.8707
   5        3.9087
   6        3.9087
   7        7.9251
   8        7.9251
   9       11.9499
  10       11.9499
  11       12.0949
  12       12.0949
 
  0.3333333E+00  0.3333333E+00  0.2500000E+00  0.1388889E-01
   1       -1.0031
   2        1.7800
   3        1.7800
   4        3.1500
   5        4.5160
   6        5.8637
   7        5.8637
   8        8.5386
   9       11.3286
  10       12.6247
  11       12.6247
  12       13.7655
 
  0.4166667E+00  0.3333333E+00  0.2500000E+00  0.2777778E-01
   1       -0.4772
   2        0.9163
   3        2.2967
   4        3.6504
   5        3.6788
   6        5.0213
   7        6.3688
   8        7.7082
   9       11.8134
  10       13.0301
  11       13.1349
  12       14.2320
 
  0.5000000E+00  0.3333333E+00  0.2500000E+00  0.1388889E-01
   1        0.1632
   2        0.1632
   3        2.9261
   4        2.9261
   5        4.2870
   6        4.2870
   7        6.9841
   8        6.9841
   9       12.3960
  10       12.3960
  11       13.6576
  12       13.6576
 
  0.4166667E+00  0.4166667E+00  0.2500000E+00  0.1388889E-01
   1        0.0470
   2        1.4359
   3        1.4359
   4        2.8129
   5        4.1737
   6        5.5286
   7        5.5286
   8        6.8739
   9       12.2964
  10       13.5410
  11       13.5410
  12       14.7713
 
  0.5000000E+00  0.4166667E+00  0.2500000E+00  0.1388889E-01
   1        0.6852
   2        0.6852
   3        2.0686
   4        2.0686
   5        4.7962
   6        4.7962
   7        6.1467
   8        6.1467
   9       12.8770
  10       12.8770
  11       14.1143
  12       14.1143
 
  0.5000000E+00  0.5000000E+00  0.2500000E+00  0.3472222E-02
   1        1.3209
   2        1.3209
   3        1.3209
   4        1.3209
   5        5.4166
   6        5.4166
   7        5.4166
   8        5.4166
   9       13.4542
  10       13.4542
  11       13.4542
  12       13.4542
 
  0.3333333E+00  0.3333333E+00  0.3333333E+00  0.4629630E-02
   1       -0.5939
   2        2.1821
   3        2.1821
   4        2.1821
   5        4.9117
   6        4.9117
   7        4.9117
   8        7.6007
   9       12.9978
  10       12.9978
  11       12.9978
  12       14.8164
 
  0.4166667E+00  0.3333333E+00  0.3333333E+00  0.1388889E-01
   1       -0.0694
   2        1.3206
   3        2.6977
   4        2.6977
   5        4.0644
   6        4.0644
   7        5.4195
   8        6.7659
   9       13.4680
  10       13.4680
  11       14.6056
  12       14.6061
 
  0.5000000E+00  0.3333333E+00  0.3333333E+00  0.6944444E-02
   1        0.5693
   2        0.5693
   3        3.3198
   4        3.3198
   5        3.3315
   6        3.3315
   7        6.0381
   8        6.0381
   9       13.9950
  10       13.9950
  11       14.0508
  12       14.0508
 
  0.4166667E+00  0.4166667E+00  0.3333333E+00  0.1388889E-01
   1        0.4535
   2        1.8389
   3        1.8389
   4        3.2094
   5        3.2152
   6        4.5746
   7        4.5746
   8        5.9272
   9       13.9366
  10       15.0689
  11       15.0697
  12       15.1801
 
  0.5000000E+00  0.4166667E+00  0.3333333E+00  0.1388889E-01
   1        1.0901
   2        1.0901
   3        2.4702
   4        2.4702
   5        3.8379
   6        3.8379
   7        5.1960
   8        5.1960
   9       14.4885
  10       14.4885
  11       15.6337
  12       15.6458
 
  0.5000000E+00  0.5000000E+00  0.3333333E+00  0.3472222E-02
   1        1.7242
   2        1.7242
   3        1.7242
   4        1.7242
   5        4.4619
   6        4.4619
   7        4.4619
   8        4.4619
   9       15.0390
  10       15.0390
  11       15.0390
  12       15.0390
 
  0.4166667E+00  0.4166667E+00  0.4166667E+00  0.4629630E-02
   1        0.9746
   2        2.3557
   3        2.3557
   4        2.3557
   5        3.7255
   6        3.7255
   7        3.7255
   8        5.0846
   9       15.6210
  10       15.6210
  11       15.6210
  12       16.2049
 
  0.5000000E+00  0.4166667E+00  0.4166667E+00  0.6944444E-02
   1        1.6092
   2        1.6092
   3        2.9817
   4        2.9817
   5        2.9884
   6        2.9884
   7        4.3499
   8        4.3499
   9       16.0713
  10       16.0713
  11       16.1178
  12       16.1178
 
  0.5000000E+00  0.5000000E+00  0.4166667E+00  0.3472222E-02
   1        2.2414
   2        2.2414
   3        2.2414
   4        2.2414
   5        3.6122
   6        3.6122
   7        3.6122
   8        3.6122
   9       16.5911
  10       16.5911
  11       16.5911
  12       16.5911
 
  0.5000000E+00  0.5000000E+00  0.5000000E+00  0.5787037E-03
   1        2.8646
   2        2.8646
   3        2.8646
   4        2.8646
   5        2.8778
   6        2.8778
   7        2.8778
   8        2.8778
   9       17.6628
  10       17.6628
  11       17.6628
  12       17.6628
