<?xml version="1.0" encoding="ISO-8859-1"?>
<modeling>
 <generator>
  <i name="program" type="string">vasp</i>
  <i name="version" type="string">4.6.28 </i>
  <i name="subversion" type="string">25Jul05 complex  parallel</i>
  <i name="platform" type="string">LinuxIFC</i>
  <i name="date" type="string">2017 01 08</i>
  <i name="time" type="string">10:01:00</i>
 </generator>
 <incar>
  <i type="string" name="PREC">accurate</i>
  <i type="int" name="IALGO">    38</i>
  <i type="logical" name="ADDGRID"> T  </i>
  <i name="EDIFF">      0.00000001</i>
  <i type="int" name="IBRION">    -1</i>
  <i name="ENCUT">    750.00000000</i>
  <i type="logical" name="LREAL"> F  </i>
  <i type="int" name="ISMEAR">     0</i>
  <i name="SIGMA">      0.01000000</i>
  <i type="logical" name="LWAVE"> F  </i>
  <i type="logical" name="LCHARG"> F  </i>
 </incar>
 <kpoints>
  <generation param="Gamma">
   <v type="int" name="divisions">      12      12      12</v>
   <v name="usershift">      0.00000000      0.00000000      0.00000000</v>
   <v name="genvec1">      0.08333333      0.00000000      0.00000000</v>
   <v name="genvec2">      0.00000000      0.08333333      0.00000000</v>
   <v name="genvec3">      0.00000000      0.00000000      0.08333333</v>
   <v name="shift">      0.00000000      0.00000000      0.00000000</v>
  </generation>
  <varray name="kpointlist" >
   <v>       0.00000000      0.00000000      0.00000000</v>
   <v>       0.08333333      0.00000000      0.00000000</v>
   <v>       0.16666667      0.00000000      0.00000000</v>
   <v>       0.25000000      0.00000000      0.00000000</v>
   <v>       0.33333333      0.00000000      0.00000000</v>
   <v>       0.41666667      0.00000000      0.00000000</v>
   <v>       0.50000000      0.00000000      0.00000000</v>
   <v>       0.08333333      0.08333333      0.00000000</v>
   <v>       0.16666667      0.08333333      0.00000000</v>
   <v>       0.25000000      0.08333333      0.00000000</v>
   <v>       0.33333333      0.08333333      0.00000000</v>
   <v>       0.41666667      0.08333333      0.00000000</v>
   <v>       0.50000000      0.08333333      0.00000000</v>
   <v>       0.16666667      0.16666667      0.00000000</v>
   <v>       0.25000000      0.16666667      0.00000000</v>
   <v>       0.33333333      0.16666667      0.00000000</v>
   <v>       0.41666667      0.16666667      0.00000000</v>
   <v>       0.50000000      0.16666667      0.00000000</v>
   <v>       0.25000000      0.25000000      0.00000000</v>
   <v>       0.33333333      0.25000000      0.00000000</v>
   <v>       0.41666667      0.25000000      0.00000000</v>
   <v>       0.50000000      0.25000000      0.00000000</v>
   <v>       0.33333333      0.33333333      0.00000000</v>
   <v>       0.41666667      0.33333333      0.00000000</v>
   <v>       0.50000000      0.33333333      0.00000000</v>
   <v>       0.41666667      0.41666667      0.00000000</v>
   <v>       0.50000000      0.41666667      0.00000000</v>
   <v>       0.50000000      0.50000000      0.00000000</v>
   <v>       0.08333333      0.08333333      0.08333333</v>
   <v>       0.16666667      0.08333333      0.08333333</v>
   <v>       0.25000000      0.08333333      0.08333333</v>
   <v>       0.33333333      0.08333333      0.08333333</v>
   <v>       0.41666667      0.08333333      0.08333333</v>
   <v>       0.50000000      0.08333333      0.08333333</v>
   <v>       0.16666667      0.16666667      0.08333333</v>
   <v>       0.25000000      0.16666667      0.08333333</v>
   <v>       0.33333333      0.16666667      0.08333333</v>
   <v>       0.41666667      0.16666667      0.08333333</v>
   <v>       0.50000000      0.16666667      0.08333333</v>
   <v>       0.25000000      0.25000000      0.08333333</v>
   <v>       0.33333333      0.25000000      0.08333333</v>
   <v>       0.41666667      0.25000000      0.08333333</v>
   <v>       0.50000000      0.25000000      0.08333333</v>
   <v>       0.33333333      0.33333333      0.08333333</v>
   <v>       0.41666667      0.33333333      0.08333333</v>
   <v>       0.50000000      0.33333333      0.08333333</v>
   <v>       0.41666667      0.41666667      0.08333333</v>
   <v>       0.50000000      0.41666667      0.08333333</v>
   <v>       0.50000000      0.50000000      0.08333333</v>
   <v>       0.16666667      0.16666667      0.16666667</v>
   <v>       0.25000000      0.16666667      0.16666667</v>
   <v>       0.33333333      0.16666667      0.16666667</v>
   <v>       0.41666667      0.16666667      0.16666667</v>
   <v>       0.50000000      0.16666667      0.16666667</v>
   <v>       0.25000000      0.25000000      0.16666667</v>
   <v>       0.33333333      0.25000000      0.16666667</v>
   <v>       0.41666667      0.25000000      0.16666667</v>
   <v>       0.50000000      0.25000000      0.16666667</v>
   <v>       0.33333333      0.33333333      0.16666667</v>
   <v>       0.41666667      0.33333333      0.16666667</v>
   <v>       0.50000000      0.33333333      0.16666667</v>
   <v>       0.41666667      0.41666667      0.16666667</v>
   <v>       0.50000000      0.41666667      0.16666667</v>
   <v>       0.50000000      0.50000000      0.16666667</v>
   <v>       0.25000000      0.25000000      0.25000000</v>
   <v>       0.33333333      0.25000000      0.25000000</v>
   <v>       0.41666667      0.25000000      0.25000000</v>
   <v>       0.50000000      0.25000000      0.25000000</v>
   <v>       0.33333333      0.33333333      0.25000000</v>
   <v>       0.41666667      0.33333333      0.25000000</v>
   <v>       0.50000000      0.33333333      0.25000000</v>
   <v>       0.41666667      0.41666667      0.25000000</v>
   <v>       0.50000000      0.41666667      0.25000000</v>
   <v>       0.50000000      0.50000000      0.25000000</v>
   <v>       0.33333333      0.33333333      0.33333333</v>
   <v>       0.41666667      0.33333333      0.33333333</v>
   <v>       0.50000000      0.33333333      0.33333333</v>
   <v>       0.41666667      0.41666667      0.33333333</v>
   <v>       0.50000000      0.41666667      0.33333333</v>
   <v>       0.50000000      0.50000000      0.33333333</v>
   <v>       0.41666667      0.41666667      0.41666667</v>
   <v>       0.50000000      0.41666667      0.41666667</v>
   <v>       0.50000000      0.50000000      0.41666667</v>
   <v>       0.50000000      0.50000000      0.50000000</v>
  </varray>
  <varray name="weights" >
   <v>       0.00057870</v>
   <v>       0.00347222</v>
   <v>       0.00347222</v>
   <v>       0.00347222</v>
   <v>       0.00347222</v>
   <v>       0.00347222</v>
   <v>       0.00173611</v>
   <v>       0.00694444</v>
   <v>       0.01388889</v>
   <v>       0.01388889</v>
   <v>       0.01388889</v>
   <v>       0.01388889</v>
   <v>       0.00694444</v>
   <v>       0.00694444</v>
   <v>       0.01388889</v>
   <v>       0.01388889</v>
   <v>       0.01388889</v>
   <v>       0.00694444</v>
   <v>       0.00694444</v>
   <v>       0.01388889</v>
   <v>       0.01388889</v>
   <v>       0.00694444</v>
   <v>       0.00694444</v>
   <v>       0.01388889</v>
   <v>       0.00694444</v>
   <v>       0.00694444</v>
   <v>       0.00694444</v>
   <v>       0.00173611</v>
   <v>       0.00462963</v>
   <v>       0.01388889</v>
   <v>       0.01388889</v>
   <v>       0.01388889</v>
   <v>       0.01388889</v>
   <v>       0.00694444</v>
   <v>       0.01388889</v>
   <v>       0.02777778</v>
   <v>       0.02777778</v>
   <v>       0.02777778</v>
   <v>       0.01388889</v>
   <v>       0.01388889</v>
   <v>       0.02777778</v>
   <v>       0.02777778</v>
   <v>       0.01388889</v>
   <v>       0.01388889</v>
   <v>       0.02777778</v>
   <v>       0.01388889</v>
   <v>       0.01388889</v>
   <v>       0.01388889</v>
   <v>       0.00347222</v>
   <v>       0.00462963</v>
   <v>       0.01388889</v>
   <v>       0.01388889</v>
   <v>       0.01388889</v>
   <v>       0.00694444</v>
   <v>       0.01388889</v>
   <v>       0.02777778</v>
   <v>       0.02777778</v>
   <v>       0.01388889</v>
   <v>       0.01388889</v>
   <v>       0.02777778</v>
   <v>       0.01388889</v>
   <v>       0.01388889</v>
   <v>       0.01388889</v>
   <v>       0.00347222</v>
   <v>       0.00462963</v>
   <v>       0.01388889</v>
   <v>       0.01388889</v>
   <v>       0.00694444</v>
   <v>       0.01388889</v>
   <v>       0.02777778</v>
   <v>       0.01388889</v>
   <v>       0.01388889</v>
   <v>       0.01388889</v>
   <v>       0.00347222</v>
   <v>       0.00462963</v>
   <v>       0.01388889</v>
   <v>       0.00694444</v>
   <v>       0.01388889</v>
   <v>       0.01388889</v>
   <v>       0.00347222</v>
   <v>       0.00462963</v>
   <v>       0.00694444</v>
   <v>       0.00347222</v>
   <v>       0.00057870</v>
  </varray>
 </kpoints>
 <parameters>
  <separator name="general" >
   <i type="string" name="SYSTEM">unknown system</i>
   <i type="logical" name="LCOMPAT"> F  </i>
  </separator>
  <separator name="electronic" >
   <i type="string" name="PREC">accura</i>
   <i name="ENMAX">    750.00000000</i>
   <i name="ENAUG">    291.05200000</i>
   <i name="EDIFF">      0.00000001</i>
   <i type="int" name="IALGO">    38</i>
   <i type="int" name="IWAVPR">    10</i>
   <i type="int" name="NBANDS">    10</i>
   <i name="NELECT">     12.00000000</i>
   <separator name="electronic smearing" >
    <i type="int" name="ISMEAR">     0</i>
    <i name="SIGMA">      0.01000000</i>
   </separator>
   <separator name="electronic projectors" >
    <i type="logical" name="LREAL"> F  </i>
    <v name="ROPT">      0.00000000</v>
    <i type="int" name="LMAXPAW">  -100</i>
    <i type="int" name="LMAXMIX">     2</i>
   </separator>
   <separator name="electronic startup" >
    <i type="int" name="ISTART">     0</i>
    <i type="int" name="ICHARG">     2</i>
    <i type="int" name="INIWAV">     1</i>
   </separator>
   <separator name="electronic spin" >
    <i type="int" name="ISPIN">     1</i>
    <i type="logical" name="LNONCOLLINEAR"> F  </i>
    <v name="MAGMOM">      1.00000000      1.00000000      1.00000000      1.00000000</v>
    <i name="NUPDOWN">     -1.00000000</i>
    <i type="logical" name="LSORBIT"> F  </i>
    <v name="SAXIS">      0.00000000      0.00000000      1.00000000</v>
    <i type="logical" name="LSPIRAL"> F  </i>
    <v name="QSPIRAL">      0.00000000      0.00000000      0.00000000</v>
    <i type="logical" name="LZEROZ"> F  </i>
   </separator>
   <separator name="electronic exchange-correlation" >
    <i type="string" name="GGA">--</i>
    <i type="int" name="VOSKOWN">     0</i>
    <i type="logical" name="LASPH"> F  </i>
    <i type="logical" name="LMETAGGA"> F  </i>
    <i type="string" name="GGA2">--</i>
   </separator>
   <separator name="electronic convergence" >
    <i type="int" name="NELM">    60</i>
    <i type="int" name="NELMDL">     0</i>
    <i type="int" name="NELMIN">     2</i>
    <i name="ENINI">    750.00000000</i>
    <separator name="electronic convergence detail" >
     <i type="logical" name="LDIAG"> T  </i>
     <i name="WEIMIN">      0.00000000</i>
     <i name="EBREAK">      0.00000000</i>
     <i name="DEPER">      0.30000000</i>
     <i type="int" name="NRMM">     4</i>
     <i name="TIME">      0.10000000</i>
    </separator>
   </separator>
   <separator name="electronic mixer" >
    <i name="AMIX">      0.40000000</i>
    <i name="BMIX">      1.00000000</i>
    <i name="AMIN">      0.10000000</i>
    <i name="AMIX_MAG">      1.60000000</i>
    <i name="BMIX_MAG">      1.00000000</i>
    <separator name="electronic mixer details" >
     <i type="int" name="IMIX">     4</i>
     <i type="int" name="MAXMIX">   -45</i>
     <i name="WC">    100.00000000</i>
     <i type="int" name="INIMIX">     1</i>
     <i type="int" name="MIXPRE">     1</i>
     <i type="int" name="MREMOVE">     5</i>
    </separator>
   </separator>
   <separator name="electronic dipolcorrection" >
    <i type="int" name="IDIPOL">     0</i>
    <i type="logical" name="LDIPOL"> F  </i>
    <v name="DIPOL">   -100.00000000</v>
    <i name="EFIELD">      0.00000000</i>
   </separator>
  </separator>
  <separator name="grids" >
   <i type="int" name="NGX">    40</i>
   <i type="int" name="NGY">    40</i>
   <i type="int" name="NGZ">    40</i>
   <i type="int" name="NGXF">    80</i>
   <i type="int" name="NGYF">    80</i>
   <i type="int" name="NGZF">    80</i>
   <i type="logical" name="ADDGRID"> T  </i>
  </separator>
  <separator name="ionic" >
   <i type="int" name="NSW">     0</i>
   <i type="int" name="IBRION">    -1</i>
   <i type="int" name="ISIF">     2</i>
   <i name="PSTRESS">      0.00000000</i>
   <i name="EDIFFG">      0.00000010</i>
   <i type="int" name="NFREE">     0</i>
   <i name="POTIM">      0.50000000</i>
   <i name="SMASS">     -3.00000000</i>
  </separator>
  <separator name="ionic md" >
   <i name="TEBEG">      0.00010000</i>
   <i name="TEEND">      0.00010000</i>
   <i type="int" name="NBLOCK">     1</i>
   <i type="int" name="KBLOCK">     1</i>
   <i type="int" name="NPACO">   256</i>
   <i name="APACO">     16.00000000</i>
  </separator>
  <separator name="symmetry" >
   <i type="int" name="ISYM">     2</i>
   <i name="SYMPREC">      0.00001000</i>
  </separator>
  <separator name="dos" >
   <i type="logical" name="LORBIT"> F  </i>
   <v name="RWIGS">     -1.00000000</v>
   <i type="int" name="NEDOS">   301</i>
   <i name="EMIN">     10.00000000</i>
   <i name="EMAX">    -10.00000000</i>
  </separator>
  <separator name="writing" >
   <i type="int" name="NWRITE">     2</i>
   <i type="logical" name="LWAVE"> F  </i>
   <i type="logical" name="LCHARG"> F  </i>
   <i type="logical" name="LPARD"> F  </i>
   <i type="logical" name="LVTOT"> F  </i>
   <i type="logical" name="LELF"> F  </i>
   <i type="logical" name="LOPTICS"> F  </i>
   <i name="STM">      0.00000000</i>
  </separator>
  <separator name="performance" >
   <i type="int" name="NPAR">     4</i>
   <i type="int" name="NSIM">     4</i>
   <i type="int" name="NBLK">   256</i>
   <i type="logical" name="LPLANE"> T  </i>
   <i type="logical" name="LCRITICAL_MEM"> F  </i>
   <i type="logical" name="LSCALAPACK"> F  </i>
   <i type="logical" name="LSCALU"> F  </i>
   <i type="logical" name="LASYNC"> F  </i>
  </separator>
  <separator name="miscellaneous" >
   <i type="int" name="IDIOT">     3</i>
   <i type="logical" name="LMUSIC"> F  </i>
   <v name="POMASS">     26.98200000</v>
   <i type="logical" name="LCORR"> T  </i>
  </separator>
  <i type="logical" name="LREAL_COMPAT"> F  </i>
  <i type="logical" name="GGA_COMPAT"> T  </i>
  <i type="logical" name="LBERRY"> F  </i>
  <i type="int" name="ICORELEVEL">     0</i>
  <i type="logical" name="LDAU"> F  </i>
  <i type="int" name="I_CONSTRAINED_M">     0</i>
 </parameters>
 <atominfo>
  <atoms>       4</atoms>
  <types>       1</types>
  <array name="atoms" >
   <dimension dim="1">ion</dimension>
   <field type="string">element</field>
   <field type="int">atomtype</field>
   <set>
    <rc><c>Al</c><c>   1</c></rc>
    <rc><c>Al</c><c>   1</c></rc>
    <rc><c>Al</c><c>   1</c></rc>
    <rc><c>Al</c><c>   1</c></rc>
   </set>
  </array>
  <array name="atomtypes" >
   <dimension dim="1">type</dimension>
   <field type="int">atomspertype</field>
   <field type="string">element</field>
   <field>mass</field>
   <field>valence</field>
   <field type="string">pseudopotential</field>
   <set>
    <rc><c>   4</c><c>Al</c><c>     26.98200000</c><c>      3.00000000</c><c> PAW_PBE Al 04Jan2001                   </c></rc>
   </set>
  </array>
 </atominfo>
 <structure name="initialpos" >
  <crystal>
   <varray name="basis" >
    <v>       4.15842556      0.00000000      0.00000000</v>
    <v>       0.00000000      4.15842556      0.00000000</v>
    <v>       0.00000000      0.00000000      4.15842556</v>
   </varray>
   <i name="volume">     71.90958709</i>
   <varray name="rec_basis" >
    <v>       0.24047563      0.00000000      0.00000000</v>
    <v>       0.00000000      0.24047563      0.00000000</v>
    <v>       0.00000000      0.00000000      0.24047563</v>
   </varray>
  </crystal>
  <varray name="positions" >
   <v>       0.50000000      0.50000000      0.00000000</v>
   <v>       0.50000000      0.00000000      0.50000000</v>
   <v>       0.00000000      0.50000000      0.50000000</v>
   <v>       0.00000000      0.00000000      0.00000000</v>
  </varray>
 </structure>
 <calculation>
  <scstep>
   <time name="dav">    2.04    2.07</time>
   <time name="total">    2.22    2.24</time>
   <energy>
    <i name="alphaZ">     -0.74734113</i>
    <i name="ewald">   -285.77611412</i>
    <i name="hartreedc">     -0.56593525</i>
    <i name="XCdc">   -105.56599567</i>
    <i name="pawpsdc">    142.21701965</i>
    <i name="pawaedc">    -14.39593217</i>
    <i name="eentropy">     -0.00008369</i>
    <i name="bandstr">     61.71378114</i>
    <i name="atom">    214.15438658</i>
    <i name="e_fr_energy">     11.03378534</i>
    <i name="e_wo_entrp">     11.03386903</i>
    <i name="e_0_energy">     11.03382718</i>
   </energy>
  </scstep>
  <scstep>
   <time name="dav">    2.37    2.37</time>
   <time name="total">    2.37    2.37</time>
   <energy>
    <i name="e_fr_energy">    -14.02552894</i>
    <i name="e_wo_entrp">    -14.02532292</i>
    <i name="e_0_energy">    -14.02542593</i>
   </energy>
  </scstep>
  <scstep>
   <time name="dav">    2.47    2.47</time>
   <time name="total">    2.47    2.47</time>
   <energy>
    <i name="e_fr_energy">    -14.93854537</i>
    <i name="e_wo_entrp">    -14.93830997</i>
    <i name="e_0_energy">    -14.93842767</i>
   </energy>
  </scstep>
  <scstep>
   <time name="dav">    2.22    2.22</time>
   <time name="total">    2.22    2.22</time>
   <energy>
    <i name="e_fr_energy">    -14.94627194</i>
    <i name="e_wo_entrp">    -14.94602345</i>
    <i name="e_0_energy">    -14.94614769</i>
   </energy>
  </scstep>
  <scstep>
   <time name="dav">    2.34    2.34</time>
   <time name="total">    2.57    2.57</time>
   <energy>
    <i name="e_fr_energy">    -14.94634932</i>
    <i name="e_wo_entrp">    -14.94610079</i>
    <i name="e_0_energy">    -14.94622506</i>
   </energy>
  </scstep>
  <scstep>
   <time name="dav">    2.21    2.21</time>
   <time name="total">    2.63    2.63</time>
   <energy>
    <i name="e_fr_energy">    -14.89644196</i>
    <i name="e_wo_entrp">    -14.89625150</i>
    <i name="e_0_energy">    -14.89634673</i>
   </energy>
  </scstep>
  <scstep>
   <time name="dav">    2.19    2.20</time>
   <time name="total">    2.62    2.62</time>
   <energy>
    <i name="e_fr_energy">    -14.86041189</i>
    <i name="e_wo_entrp">    -14.86028641</i>
    <i name="e_0_energy">    -14.86034915</i>
   </energy>
  </scstep>
  <scstep>
   <time name="dav">    3.46    3.46</time>
   <time name="total">    3.97    3.97</time>
   <energy>
    <i name="e_fr_energy">    -14.86040702</i>
    <i name="e_wo_entrp">    -14.86028084</i>
    <i name="e_0_energy">    -14.86034393</i>
   </energy>
  </scstep>
  <scstep>
   <time name="dav">    3.47    3.47</time>
   <time name="total">    4.02    4.02</time>
   <energy>
    <i name="e_fr_energy">    -14.86041065</i>
    <i name="e_wo_entrp">    -14.86028453</i>
    <i name="e_0_energy">    -14.86034759</i>
   </energy>
  </scstep>
  <scstep>
   <time name="dav">    3.66    3.66</time>
   <time name="total">    4.21    4.21</time>
   <energy>
    <i name="e_fr_energy">    -14.86040923</i>
    <i name="e_wo_entrp">    -14.86028313</i>
    <i name="e_0_energy">    -14.86034618</i>
   </energy>
  </scstep>
  <scstep>
   <time name="dav">    2.65    2.66</time>
   <time name="total">    3.20    3.20</time>
   <energy>
    <i name="e_fr_energy">    -14.86040908</i>
    <i name="e_wo_entrp">    -14.86028298</i>
    <i name="e_0_energy">    -14.86034603</i>
   </energy>
  </scstep>
  <scstep>
   <time name="dav">    2.48    2.48</time>
   <time name="total">    3.02    3.02</time>
   <energy>
    <i name="e_fr_energy">    -14.86040912</i>
    <i name="e_wo_entrp">    -14.86028302</i>
    <i name="e_0_energy">    -14.86034607</i>
   </energy>
  </scstep>
  <scstep>
   <time name="dav">    2.39    2.39</time>
   <time name="total">    2.62    2.62</time>
   <energy>
    <i name="alphaZ">     -0.74734113</i>
    <i name="ewald">   -285.77611412</i>
    <i name="hartreedc">     -0.39193901</i>
    <i name="XCdc">   -105.20452043</i>
    <i name="pawpsdc">    141.76077573</i>
    <i name="pawaedc">    -13.94195258</i>
    <i name="eentropy">     -0.00012610</i>
    <i name="bandstr">     35.28642195</i>
    <i name="atom">    214.15438658</i>
    <i name="e_fr_energy">    -14.86040912</i>
    <i name="e_wo_entrp">    -14.86028302</i>
    <i name="e_0_energy">    -14.86034607</i>
   </energy>
  </scstep>
  <structure>
   <crystal>
    <varray name="basis" >
     <v>       4.15842556      0.00000000      0.00000000</v>
     <v>       0.00000000      4.15842556      0.00000000</v>
     <v>       0.00000000      0.00000000      4.15842556</v>
    </varray>
    <i name="volume">     71.90958709</i>
    <varray name="rec_basis" >
     <v>       0.24047563      0.00000000      0.00000000</v>
     <v>       0.00000000      0.24047563      0.00000000</v>
     <v>       0.00000000      0.00000000      0.24047563</v>
    </varray>
   </crystal>
   <varray name="positions" >
    <v>       0.50000000      0.50000000      0.00000000</v>
    <v>       0.50000000      0.00000000      0.50000000</v>
    <v>       0.00000000      0.50000000      0.50000000</v>
    <v>       0.00000000      0.00000000      0.00000000</v>
   </varray>
  </structure>
  <varray name="forces" >
   <v>       0.00000000     -0.00000000     -0.00000000</v>
   <v>      -0.00000000      0.00000000      0.00000000</v>
   <v>       0.00000000     -0.00000000      0.00000000</v>
   <v>       0.00000000      0.00000000      0.00000000</v>
  </varray>
  <varray name="stress" >
   <v>     -54.23668898      0.00000000      0.00000000</v>
   <v>       0.00000000    -54.23668898      0.00000000</v>
   <v>      -0.00000000      0.00000000    -54.23668898</v>
  </varray>
  <energy>
   <i name="e_fr_energy">    -14.86040912</i>
   <i name="e_wo_entrp">    -14.86034607</i>
   <i name="e_0_energy">     -0.00012610</i>
  </energy>
  <eigenvalues>
   <array>
    <dimension dim="1">band</dimension>
    <dimension dim="2">kpoint</dimension>
    <dimension dim="3">spin</dimension>
    <field>eigene</field>
    <field>occ</field>
    <set>
     <set comment="spin 1">
      <set comment="kpoint 1">
       <r>  -3.4216  1.0000</r>
       <r>   4.4168  1.0000</r>
       <r>   4.4168  1.0000</r>
       <r>   4.4168  1.0000</r>
       <r>   5.5339  1.0000</r>
       <r>   5.5339  1.0000</r>
       <r>   5.5339  1.0000</r>
       <r>  12.3435  0.0000</r>
       <r>  12.3435  0.0000</r>
       <r>  12.3435  0.0000</r>
       <r>  12.3435  0.0000</r>
       <r>  12.3439  0.0000</r>
      </set>
      <set comment="kpoint 2">
       <r>  -3.3621  1.0000</r>
       <r>   3.5514  1.0000</r>
       <r>   4.4717  1.0000</r>
       <r>   4.4717  1.0000</r>
       <r>   5.5923  1.0000</r>
       <r>   5.5923  1.0000</r>
       <r>   6.5035  1.0000</r>
       <r>  11.0858  0.0000</r>
       <r>  11.0858  0.0000</r>
       <r>  11.9064  0.0000</r>
       <r>  11.9064  0.0000</r>
       <r>  12.3997  0.0000</r>
      </set>
      <set comment="kpoint 3">
       <r>  -3.1839  1.0000</r>
       <r>   2.3968  1.0000</r>
       <r>   4.6365  1.0000</r>
       <r>   4.6365  1.0000</r>
       <r>   5.7671  1.0000</r>
       <r>   5.7671  1.0000</r>
       <r>   7.9705  0.0000</r>
       <r>   9.9261  0.0000</r>
       <r>   9.9261  0.0000</r>
       <r>  11.0265  0.0000</r>
       <r>  11.0265  0.0000</r>
       <r>  12.5486  0.0000</r>
      </set>
      <set comment="kpoint 4">
       <r>  -2.8874  1.0000</r>
       <r>   1.3159  1.0000</r>
       <r>   4.9111  1.0000</r>
       <r>   4.9111  1.0000</r>
       <r>   6.0572  1.0000</r>
       <r>   6.0572  1.0000</r>
       <r>   8.8772  0.0000</r>
       <r>   8.8772  0.0000</r>
       <r>   9.5709  0.0000</r>
       <r>  10.0804  0.0000</r>
       <r>  10.0804  0.0000</r>
       <r>  12.8051  0.0000</r>
      </set>
      <set comment="kpoint 5">
       <r>  -2.4732  1.0000</r>
       <r>   0.3360  1.0000</r>
       <r>   5.2959  1.0000</r>
       <r>   5.2959  1.0000</r>
       <r>   6.4600  1.0000</r>
       <r>   6.4600  1.0000</r>
       <r>   7.9393  0.0000</r>
       <r>   7.9393  0.0000</r>
       <r>   9.1795  0.0000</r>
       <r>   9.1795  0.0000</r>
       <r>  11.2757  0.0000</r>
       <r>  13.1641  0.0000</r>
      </set>
      <set comment="kpoint 6">
       <r>  -1.9422  1.0000</r>
       <r>  -0.5357  1.0000</r>
       <r>   5.7908  1.0000</r>
       <r>   5.7908  1.0000</r>
       <r>   6.9682  1.0000</r>
       <r>   6.9682  1.0000</r>
       <r>   7.1124  1.0000</r>
       <r>   7.1124  1.0000</r>
       <r>   8.3645  0.0000</r>
       <r>   8.3645  0.0000</r>
       <r>  13.0736  0.0000</r>
       <r>  13.6259  0.0000</r>
      </set>
      <set comment="kpoint 7">
       <r>  -1.2959  1.0000</r>
       <r>  -1.2959  1.0000</r>
       <r>   6.3963  1.0000</r>
       <r>   6.3963  1.0000</r>
       <r>   6.3963  1.0000</r>
       <r>   6.3963  1.0000</r>
       <r>   7.4486  0.0000</r>
       <r>   7.4486  0.0000</r>
       <r>   7.7808  0.0000</r>
       <r>   7.7808  0.0000</r>
       <r>  14.1902  0.0000</r>
       <r>  14.1902  0.0000</r>
      </set>
      <set comment="kpoint 8">
       <r>  -3.3027  1.0000</r>
       <r>   3.6078  1.0000</r>
       <r>   3.6078  1.0000</r>
       <r>   4.5266  1.0000</r>
       <r>   5.6506  1.0000</r>
       <r>   6.5603  1.0000</r>
       <r>   6.5603  1.0000</r>
       <r>  10.2243  0.0000</r>
       <r>  11.1407  0.0000</r>
       <r>  11.1407  0.0000</r>
       <r>  11.9587  0.0000</r>
       <r>  11.9587  0.0000</r>
      </set>
      <set comment="kpoint 9">
       <r>  -3.1246  1.0000</r>
       <r>   2.4539  1.0000</r>
       <r>   3.7769  1.0000</r>
       <r>   4.6914  1.0000</r>
       <r>   5.8252  1.0000</r>
       <r>   6.7305  1.0000</r>
       <r>   8.0263  0.0000</r>
       <r>   9.1138  0.0000</r>
       <r>   9.9811  0.0000</r>
       <r>  11.0802  0.0000</r>
       <r>  11.3056  0.0000</r>
       <r>  11.8808  0.0000</r>
      </set>
      <set comment="kpoint 10">
       <r>  -2.8281  1.0000</r>
       <r>   1.3735  1.0000</r>
       <r>   4.0585  1.0000</r>
       <r>   4.9661  1.0000</r>
       <r>   6.1145  1.0000</r>
       <r>   7.0130  1.0000</r>
       <r>   8.0776  0.0000</r>
       <r>   8.9323  0.0000</r>
       <r>   9.6257  0.0000</r>
       <r>  10.1356  0.0000</r>
       <r>  10.9653  0.0000</r>
       <r>  11.5801  0.0000</r>
      </set>
      <set comment="kpoint 11">
       <r>  -2.4141  1.0000</r>
       <r>   0.3940  1.0000</r>
       <r>   4.4521  1.0000</r>
       <r>   5.3508  1.0000</r>
       <r>   6.5116  1.0000</r>
       <r>   7.1455  0.9869</r>
       <r>   7.4047  0.0000</r>
       <r>   7.9944  0.0000</r>
       <r>   9.2372  0.0000</r>
       <r>  10.0747  0.0000</r>
       <r>  11.3288  0.0000</r>
       <r>  11.9637  0.0000</r>
      </set>
      <set comment="kpoint 12">
       <r>  -1.8834  1.0000</r>
       <r>  -0.4774  1.0000</r>
       <r>   4.9571  1.0000</r>
       <r>   5.8458  1.0000</r>
       <r>   6.2924  1.0000</r>
       <r>   7.0448  1.0000</r>
       <r>   7.1674  0.1915</r>
       <r>   7.8833  0.0000</r>
       <r>   8.4420  0.0000</r>
       <r>   9.2647  0.0000</r>
       <r>  12.4558  0.0000</r>
       <r>  13.1116  0.0000</r>
      </set>
      <set comment="kpoint 13">
       <r>  -1.2373  1.0000</r>
       <r>  -1.2373  1.0000</r>
       <r>   5.5721  1.0000</r>
       <r>   5.5721  1.0000</r>
       <r>   6.4513  1.0000</r>
       <r>   6.4513  1.0000</r>
       <r>   7.6513  0.0000</r>
       <r>   7.6513  0.0000</r>
       <r>   8.5607  0.0000</r>
       <r>   8.5607  0.0000</r>
       <r>  13.0555  0.0000</r>
       <r>  13.0555  0.0000</r>
      </set>
      <set comment="kpoint 14">
       <r>  -2.9467  1.0000</r>
       <r>   2.6252  1.0000</r>
       <r>   2.6252  1.0000</r>
       <r>   4.8562  1.0000</r>
       <r>   5.9986  1.0000</r>
       <r>   8.0085  0.0000</r>
       <r>   8.1933  0.0000</r>
       <r>   8.1933  0.0000</r>
       <r>  10.1462  0.0000</r>
       <r>  10.1462  0.0000</r>
       <r>  11.2414  0.0000</r>
       <r>  11.2414  0.0000</r>
      </set>
      <set comment="kpoint 15">
       <r>  -2.6506  1.0000</r>
       <r>   1.5462  1.0000</r>
       <r>   2.9103  1.0000</r>
       <r>   5.1309  1.0000</r>
       <r>   6.2814  1.0000</r>
       <r>   6.9745  1.0000</r>
       <r>   8.4693  0.0000</r>
       <r>   9.0974  0.0000</r>
       <r>   9.7886  0.0000</r>
       <r>  10.3019  0.0000</r>
       <r>  10.4213  0.0000</r>
       <r>  11.5100  0.0000</r>
      </set>
      <set comment="kpoint 16">
       <r>  -2.2370  1.0000</r>
       <r>   0.5679  1.0000</r>
       <r>   3.3087  1.0000</r>
       <r>   5.5158  1.0000</r>
       <r>   6.0066  1.0000</r>
       <r>   6.7080  1.0000</r>
       <r>   8.1596  0.0000</r>
       <r>   8.8371  0.0000</r>
       <r>   9.4238  0.0000</r>
       <r>  10.8060  0.0000</r>
       <r>  11.4672  0.0000</r>
       <r>  11.4767  0.0000</r>
      </set>
      <set comment="kpoint 17">
       <r>  -1.7069  1.0000</r>
       <r>  -0.3025  1.0000</r>
       <r>   3.8196  1.0000</r>
       <r>   5.1731  1.0000</r>
       <r>   6.0108  1.0000</r>
       <r>   7.2154  0.0000</r>
       <r>   7.3326  0.0000</r>
       <r>   8.5482  0.0000</r>
       <r>   9.3899  0.0000</r>
       <r>  10.6803  0.0000</r>
       <r>  11.3002  0.0000</r>
       <r>  12.3483  0.0000</r>
      </set>
      <set comment="kpoint 18">
       <r>  -1.0615  1.0000</r>
       <r>  -1.0615  1.0000</r>
       <r>   4.4417  1.0000</r>
       <r>   4.4417  1.0000</r>
       <r>   6.6164  1.0000</r>
       <r>   6.6164  1.0000</r>
       <r>   7.8350  0.0000</r>
       <r>   7.8350  0.0000</r>
       <r>   9.9804  0.0000</r>
       <r>   9.9804  0.0000</r>
       <r>  11.9032  0.0000</r>
       <r>  11.9032  0.0000</r>
      </set>
      <set comment="kpoint 19">
       <r>  -2.3551  1.0000</r>
       <r>   1.8337  1.0000</r>
       <r>   1.8337  1.0000</r>
       <r>   5.4058  1.0000</r>
       <r>   5.9040  1.0000</r>
       <r>   6.5938  1.0000</r>
       <r>   9.3727  0.0000</r>
       <r>   9.3727  0.0000</r>
       <r>  10.0450  0.0000</r>
       <r>  10.0450  0.0000</r>
       <r>  10.5909  0.0000</r>
       <r>  10.5909  0.0000</r>
      </set>
      <set comment="kpoint 20">
       <r>  -1.9423  1.0000</r>
       <r>   0.8573  1.0000</r>
       <r>   2.2353  1.0000</r>
       <r>   4.9602  1.0000</r>
       <r>   5.7907  1.0000</r>
       <r>   6.9887  1.0000</r>
       <r>   8.4349  0.0000</r>
       <r>   9.6488  0.0000</r>
       <r>   9.7580  0.0000</r>
       <r>  10.4747  0.0000</r>
       <r>  10.9313  0.0000</r>
       <r>  11.7785  0.0000</r>
      </set>
      <set comment="kpoint 21">
       <r>  -1.4132  1.0000</r>
       <r>  -0.0115  1.0000</r>
       <r>   2.7503  1.0000</r>
       <r>   4.1150  1.0000</r>
       <r>   6.2859  1.0000</r>
       <r>   7.5007  0.0000</r>
       <r>   7.6079  0.0000</r>
       <r>   8.8418  0.0000</r>
       <r>  10.2530  0.0000</r>
       <r>  10.9532  0.0000</r>
       <r>  11.4249  0.0000</r>
       <r>  11.5712  0.0000</r>
      </set>
      <set comment="kpoint 22">
       <r>  -0.7691  1.0000</r>
       <r>  -0.7691  1.0000</r>
       <r>   3.3775  1.0000</r>
       <r>   3.3775  1.0000</r>
       <r>   6.8916  1.0000</r>
       <r>   6.8916  1.0000</r>
       <r>   8.1206  0.0000</r>
       <r>   8.1206  0.0000</r>
       <r>  10.8576  0.0000</r>
       <r>  10.8576  0.0000</r>
       <r>  11.5399  0.0000</r>
       <r>  11.5399  0.0000</r>
      </set>
      <set comment="kpoint 23">
       <r>  -1.5307  1.0000</r>
       <r>   1.2616  1.0000</r>
       <r>   1.2616  1.0000</r>
       <r>   4.0047  1.0000</r>
       <r>   6.1758  1.0000</r>
       <r>   7.3879  0.0000</r>
       <r>   8.8203  0.0000</r>
       <r>   8.8203  0.0000</r>
       <r>  10.0464  0.0000</r>
       <r>  10.0464  0.0000</r>
       <r>  11.4605  0.0000</r>
       <r>  12.1478  0.0000</r>
      </set>
      <set comment="kpoint 24">
       <r>  -1.0030  1.0000</r>
       <r>   0.3951  1.0000</r>
       <r>   1.7799  1.0000</r>
       <r>   3.1535  1.0000</r>
       <r>   6.6712  1.0000</r>
       <r>   7.8982  0.0000</r>
       <r>   7.9933  0.0000</r>
       <r>   9.2347  0.0000</r>
       <r>   9.3158  0.0000</r>
       <r>  10.5408  0.0000</r>
       <r>  10.6363  0.0000</r>
       <r>  11.8311  0.0000</r>
      </set>
      <set comment="kpoint 25">
       <r>  -0.3605  1.0000</r>
       <r>  -0.3605  1.0000</r>
       <r>   2.4111  1.0000</r>
       <r>   2.4111  1.0000</r>
       <r>   7.2770  0.0000</r>
       <r>   7.2770  0.0000</r>
       <r>   8.5156  0.0000</r>
       <r>   8.5156  0.0000</r>
       <r>   9.9212  0.0000</r>
       <r>   9.9212  0.0000</r>
       <r>  11.1370  0.0000</r>
       <r>  11.1370  0.0000</r>
      </set>
      <set comment="kpoint 26">
       <r>  -0.4771  1.0000</r>
       <r>   0.9163  1.0000</r>
       <r>   0.9163  1.0000</r>
       <r>   2.2975  1.0000</r>
       <r>   7.1667  0.2219</r>
       <r>   8.4054  0.0000</r>
       <r>   8.4889  0.0000</r>
       <r>   8.4889  0.0000</r>
       <r>   9.7336  0.0000</r>
       <r>   9.7336  0.0000</r>
       <r>   9.8106  0.0000</r>
       <r>  11.0382  0.0000</r>
      </set>
      <set comment="kpoint 27">
       <r>   0.1632  1.0000</r>
       <r>   0.1632  1.0000</r>
       <r>   1.5510  1.0000</r>
       <r>   1.5510  1.0000</r>
       <r>   7.7726  0.0000</r>
       <r>   7.7726  0.0000</r>
       <r>   9.0190  0.0000</r>
       <r>   9.0190  0.0000</r>
       <r>   9.0947  0.0000</r>
       <r>   9.0947  0.0000</r>
       <r>  10.3363  0.0000</r>
       <r>  10.3363  0.0000</r>
      </set>
      <set comment="kpoint 28">
       <r>   0.8009  1.0000</r>
       <r>   0.8009  1.0000</r>
       <r>   0.8009  1.0000</r>
       <r>   0.8009  1.0000</r>
       <r>   8.3785  0.0000</r>
       <r>   8.3785  0.0000</r>
       <r>   8.3785  0.0000</r>
       <r>   8.3785  0.0000</r>
       <r>   9.6275  0.0000</r>
       <r>   9.6275  0.0000</r>
       <r>   9.6275  0.0000</r>
       <r>   9.6275  0.0000</r>
      </set>
      <set comment="kpoint 29">
       <r>  -3.2433  1.0000</r>
       <r>   3.6642  1.0000</r>
       <r>   3.6642  1.0000</r>
       <r>   3.6642  1.0000</r>
       <r>   6.6171  1.0000</r>
       <r>   6.6171  1.0000</r>
       <r>   6.6171  1.0000</r>
       <r>  10.2793  0.0000</r>
       <r>  10.2793  0.0000</r>
       <r>  10.2793  0.0000</r>
       <r>  12.4978  0.0000</r>
       <r>  12.4978  0.0000</r>
      </set>
      <set comment="kpoint 30">
       <r>  -3.0652  1.0000</r>
       <r>   2.5110  1.0000</r>
       <r>   3.8333  1.0000</r>
       <r>   3.8333  1.0000</r>
       <r>   6.7869  1.0000</r>
       <r>   6.7869  1.0000</r>
       <r>   8.0819  0.0000</r>
       <r>   9.1693  0.0000</r>
       <r>   9.1693  0.0000</r>
       <r>  10.4442  0.0000</r>
       <r>  11.9338  0.0000</r>
       <r>  11.9338  0.0000</r>
      </set>
      <set comment="kpoint 31">
       <r>  -2.7689  1.0000</r>
       <r>   1.4311  1.0000</r>
       <r>   4.1148  1.0000</r>
       <r>   4.1148  1.0000</r>
       <r>   7.0675  1.0000</r>
       <r>   7.0675  1.0000</r>
       <r>   8.1348  0.0000</r>
       <r>   8.1348  0.0000</r>
       <r>   9.6793  0.0000</r>
       <r>  10.7195  0.0000</r>
       <r>  11.0196  0.0000</r>
       <r>  11.0196  0.0000</r>
      </set>
      <set comment="kpoint 32">
       <r>  -2.3550  1.0000</r>
       <r>   0.4520  1.0000</r>
       <r>   4.5083  1.0000</r>
       <r>   4.5083  1.0000</r>
       <r>   7.1735  0.0413</r>
       <r>   7.1735  0.0413</r>
       <r>   7.4843  0.0000</r>
       <r>   7.4843  0.0000</r>
       <r>  10.1302  0.0000</r>
       <r>  10.1302  0.0000</r>
       <r>  11.0913  0.0000</r>
       <r>  11.3929  0.0000</r>
      </set>
      <set comment="kpoint 33">
       <r>  -1.8245  1.0000</r>
       <r>  -0.4191  1.0000</r>
       <r>   5.0129  1.0000</r>
       <r>   5.0129  1.0000</r>
       <r>   6.3546  1.0000</r>
       <r>   6.3546  1.0000</r>
       <r>   7.9710  0.0000</r>
       <r>   7.9710  0.0000</r>
       <r>   9.3231  0.0000</r>
       <r>   9.3231  0.0000</r>
       <r>  11.5894  0.0000</r>
       <r>  12.8921  0.0000</r>
      </set>
      <set comment="kpoint 34">
       <r>  -1.1787  1.0000</r>
       <r>  -1.1787  1.0000</r>
       <r>   5.5940  1.0000</r>
       <r>   5.5940  1.0000</r>
       <r>   5.6647  1.0000</r>
       <r>   5.6647  1.0000</r>
       <r>   8.4723  0.0000</r>
       <r>   8.4723  0.0000</r>
       <r>   8.7175  0.0000</r>
       <r>   8.7175  0.0000</r>
       <r>  12.1883  0.0000</r>
       <r>  12.1883  0.0000</r>
      </set>
      <set comment="kpoint 35">
       <r>  -2.8874  1.0000</r>
       <r>   2.6823  1.0000</r>
       <r>   2.6823  1.0000</r>
       <r>   4.0022  1.0000</r>
       <r>   6.9544  1.0000</r>
       <r>   8.0660  0.0000</r>
       <r>   8.2473  0.0000</r>
       <r>   8.2473  0.0000</r>
       <r>   9.3367  0.0000</r>
       <r>   9.3367  0.0000</r>
       <r>  12.0928  0.0000</r>
       <r>  12.0928  0.0000</r>
      </set>
      <set comment="kpoint 36">
       <r>  -2.5914  1.0000</r>
       <r>   1.6038  1.0000</r>
       <r>   2.9673  1.0000</r>
       <r>   4.2835  1.0000</r>
       <r>   6.9939  1.0000</r>
       <r>   7.2687  0.0000</r>
       <r>   8.2767  0.0000</r>
       <r>   8.5491  0.0000</r>
       <r>   9.5917  0.0000</r>
       <r>   9.8637  0.0000</r>
       <r>  11.1824  0.0000</r>
       <r>  12.3435  0.0000</r>
      </set>
      <set comment="kpoint 37">
       <r>  -2.1780  1.0000</r>
       <r>   0.6258  1.0000</r>
       <r>   3.3656  1.0000</r>
       <r>   4.6765  1.0000</r>
       <r>   6.0707  1.0000</r>
       <r>   7.3545  0.0000</r>
       <r>   7.6422  0.0000</r>
       <r>   8.9187  0.0000</r>
       <r>   9.9905  0.0000</r>
       <r>  10.2978  0.0000</r>
       <r>  11.5214  0.0000</r>
       <r>  11.5486  0.0000</r>
      </set>
      <set comment="kpoint 38">
       <r>  -1.6481  1.0000</r>
       <r>  -0.2443  1.0000</r>
       <r>   3.8762  1.0000</r>
       <r>   5.1636  1.0000</r>
       <r>   5.2496  1.0000</r>
       <r>   6.5228  1.0000</r>
       <r>   8.1444  0.0000</r>
       <r>   9.3355  0.0000</r>
       <r>   9.5670  0.0000</r>
       <r>  10.4857  0.0000</r>
       <r>  10.7354  0.0000</r>
       <r>  11.7964  0.0000</r>
      </set>
      <set comment="kpoint 39">
       <r>  -1.0030  1.0000</r>
       <r>  -1.0030  1.0000</r>
       <r>   4.4980  1.0000</r>
       <r>   4.4980  1.0000</r>
       <r>   5.7985  1.0000</r>
       <r>   5.7985  1.0000</r>
       <r>   8.7517  0.0000</r>
       <r>   8.7517  0.0000</r>
       <r>  10.0380  0.0000</r>
       <r>  10.0380  0.0000</r>
       <r>  11.0880  0.0000</r>
       <r>  11.0880  0.0000</r>
      </set>
      <set comment="kpoint 40">
       <r>  -2.2960  1.0000</r>
       <r>   1.8911  1.0000</r>
       <r>   1.8911  1.0000</r>
       <r>   4.5642  1.0000</r>
       <r>   5.9683  1.0000</r>
       <r>   7.5305  0.0000</r>
       <r>   8.5695  0.0000</r>
       <r>   8.5695  0.0000</r>
       <r>  10.1229  0.0000</r>
       <r>  10.1229  0.0000</r>
       <r>  11.4542  0.0000</r>
       <r>  11.4542  0.0000</r>
      </set>
      <set comment="kpoint 41">
       <r>  -1.8834  1.0000</r>
       <r>   0.9151  1.0000</r>
       <r>   2.2927  1.0000</r>
       <r>   4.9430  1.0000</r>
       <r>   5.0332  1.0000</r>
       <r>   7.6335  0.0000</r>
       <r>   7.9227  0.0000</r>
       <r>   8.9577  0.0000</r>
       <r>  10.4343  0.0000</r>
       <r>  10.6398  0.0000</r>
       <r>  11.5900  0.0000</r>
       <r>  11.7470  0.0000</r>
      </set>
      <set comment="kpoint 42">
       <r>  -1.3546  1.0000</r>
       <r>   0.0466  1.0000</r>
       <r>   2.8075  1.0000</r>
       <r>   4.1716  1.0000</r>
       <r>   5.4632  1.0000</r>
       <r>   6.8017  1.0000</r>
       <r>   8.4256  0.0000</r>
       <r>   9.4546  0.0000</r>
       <r>   9.7447  0.0000</r>
       <r>  10.7724  0.0000</r>
       <r>  11.0097  0.0000</r>
       <r>  12.2716  0.0000</r>
      </set>
      <set comment="kpoint 43">
       <r>  -0.7107  1.0000</r>
       <r>  -0.7107  1.0000</r>
       <r>   3.4344  1.0000</r>
       <r>   3.4344  1.0000</r>
       <r>   6.0776  1.0000</r>
       <r>   6.0776  1.0000</r>
       <r>   9.0351  0.0000</r>
       <r>   9.0351  0.0000</r>
       <r>  10.0599  0.0000</r>
       <r>  10.0599  0.0000</r>
       <r>  11.5945  0.0000</r>
       <r>  11.5945  0.0000</r>
      </set>
      <set comment="kpoint 44">
       <r>  -1.4719  1.0000</r>
       <r>   1.3192  1.0000</r>
       <r>   1.3192  1.0000</r>
       <r>   4.0613  1.0000</r>
       <r>   5.3512  1.0000</r>
       <r>   8.0223  0.0000</r>
       <r>   8.0223  0.0000</r>
       <r>   8.3150  0.0000</r>
       <r>  10.6659  0.0000</r>
       <r>  10.9370  0.0000</r>
       <r>  10.9370  0.0000</r>
       <r>  12.2028  0.0000</r>
      </set>
      <set comment="kpoint 45">
       <r>  -0.9445  1.0000</r>
       <r>   0.4531  1.0000</r>
       <r>   1.8374  1.0000</r>
       <r>   3.2106  1.0000</r>
       <r>   5.8544  1.0000</r>
       <r>   7.1914  0.0000</r>
       <r>   8.5209  0.0000</r>
       <r>   8.8166  0.0000</r>
       <r>   9.8443  0.0000</r>
       <r>  10.1346  0.0000</r>
       <r>  11.4282  0.0000</r>
       <r>  12.6752  0.0000</r>
      </set>
      <set comment="kpoint 46">
       <r>  -0.3023  1.0000</r>
       <r>  -0.3023  1.0000</r>
       <r>   2.4684  1.0000</r>
       <r>   2.4684  1.0000</r>
       <r>   6.4682  1.0000</r>
       <r>   6.4682  1.0000</r>
       <r>   9.1287  0.0000</r>
       <r>   9.1287  0.0000</r>
       <r>   9.4247  0.0000</r>
       <r>   9.4247  0.0000</r>
       <r>  12.0203  0.0000</r>
       <r>  12.0203  0.0000</r>
      </set>
      <set comment="kpoint 47">
       <r>  -0.4188  1.0000</r>
       <r>   0.9741  1.0000</r>
       <r>   0.9741  1.0000</r>
       <r>   2.3549  1.0000</r>
       <r>   6.3568  1.0000</r>
       <r>   7.6916  0.0000</r>
       <r>   7.6916  0.0000</r>
       <r>   9.0195  0.0000</r>
       <r>   9.3161  0.0000</r>
       <r>  10.6282  0.0000</r>
       <r>  10.6282  0.0000</r>
       <r>  11.9224  0.0000</r>
      </set>
      <set comment="kpoint 48">
       <r>   0.2213  1.0000</r>
       <r>   0.2213  1.0000</r>
       <r>   1.6086  1.0000</r>
       <r>   1.6086  1.0000</r>
       <r>   6.9696  1.0000</r>
       <r>   6.9696  1.0000</r>
       <r>   8.3013  0.0000</r>
       <r>   8.3013  0.0000</r>
       <r>   9.9215  0.0000</r>
       <r>   9.9215  0.0000</r>
       <r>  11.2255  0.0000</r>
       <r>  11.2255  0.0000</r>
      </set>
      <set comment="kpoint 49">
       <r>   0.8588  1.0000</r>
       <r>   0.8588  1.0000</r>
       <r>   0.8588  1.0000</r>
       <r>   0.8588  1.0000</r>
       <r>   7.5810  0.0000</r>
       <r>   7.5810  0.0000</r>
       <r>   7.5810  0.0000</r>
       <r>   7.5810  0.0000</r>
       <r>  10.5231  0.0000</r>
       <r>  10.5231  0.0000</r>
       <r>  10.5231  0.0000</r>
       <r>  10.5231  0.0000</r>
      </set>
      <set comment="kpoint 50">
       <r>  -2.7098  1.0000</r>
       <r>   2.8533  1.0000</r>
       <r>   2.8533  1.0000</r>
       <r>   2.8533  1.0000</r>
       <r>   8.1998  0.0000</r>
       <r>   8.1998  0.0000</r>
       <r>   8.1998  0.0000</r>
       <r>   8.4469  0.0000</r>
       <r>   8.4469  0.0000</r>
       <r>   8.4469  0.0000</r>
       <r>  12.9609  0.0000</r>
       <r>  12.9609  0.0000</r>
      </set>
      <set comment="kpoint 51">
       <r>  -2.4141  1.0000</r>
       <r>   1.7762  1.0000</r>
       <r>   3.1381  1.0000</r>
       <r>   3.1381  1.0000</r>
       <r>   7.1822  0.0015</r>
       <r>   7.1822  0.0015</r>
       <r>   8.4997  0.0000</r>
       <r>   8.7033  0.0000</r>
       <r>   8.7033  0.0000</r>
       <r>  10.0180  0.0000</r>
       <r>  12.4380  0.0000</r>
       <r>  12.5013  0.0000</r>
      </set>
      <set comment="kpoint 52">
       <r>  -2.0012  1.0000</r>
       <r>   0.7994  1.0000</r>
       <r>   3.5360  1.0000</r>
       <r>   3.5360  1.0000</r>
       <r>   6.2399  1.0000</r>
       <r>   6.2399  1.0000</r>
       <r>   8.8888  0.0000</r>
       <r>   9.0897  0.0000</r>
       <r>   9.0897  0.0000</r>
       <r>  11.5206  0.0000</r>
       <r>  11.6836  0.0000</r>
       <r>  11.6842  0.0000</r>
      </set>
      <set comment="kpoint 53">
       <r>  -1.4719  1.0000</r>
       <r>  -0.0697  1.0000</r>
       <r>   4.0461  1.0000</r>
       <r>   4.0461  1.0000</r>
       <r>   5.4011  1.0000</r>
       <r>   5.4011  1.0000</r>
       <r>   9.3861  0.0000</r>
       <r>   9.5828  0.0000</r>
       <r>   9.5828  0.0000</r>
       <r>  10.7039  0.0000</r>
       <r>  10.9017  0.0000</r>
       <r>  10.9017  0.0000</r>
      </set>
      <set comment="kpoint 54">
       <r>  -0.8275  1.0000</r>
       <r>  -0.8275  1.0000</r>
       <r>   4.6365  1.0000</r>
       <r>   4.6365  1.0000</r>
       <r>   4.7007  1.0000</r>
       <r>   4.7007  1.0000</r>
       <r>   9.9917  0.0000</r>
       <r>   9.9917  0.0000</r>
       <r>  10.0917  0.0000</r>
       <r>  10.0917  0.0000</r>
       <r>  10.2938  0.0000</r>
       <r>  10.2938  0.0000</r>
      </set>
      <set comment="kpoint 55">
       <r>  -2.1191  1.0000</r>
       <r>   2.0633  1.0000</r>
       <r>   2.0633  1.0000</r>
       <r>   3.4224  1.0000</r>
       <r>   6.1378  1.0000</r>
       <r>   7.4625  0.0000</r>
       <r>   7.4625  0.0000</r>
       <r>   8.9804  0.0000</r>
       <r>  10.2912  0.0000</r>
       <r>  10.2912  0.0000</r>
       <r>  11.4217  0.0000</r>
       <r>  12.7657  0.0000</r>
      </set>
      <set comment="kpoint 56">
       <r>  -1.7070  1.0000</r>
       <r>   1.0884  1.0000</r>
       <r>   2.4645  1.0000</r>
       <r>   3.8196  1.0000</r>
       <r>   5.1885  1.0000</r>
       <r>   6.5202  1.0000</r>
       <r>   7.8524  0.0000</r>
       <r>   9.3679  0.0000</r>
       <r>  10.4989  0.0000</r>
       <r>  10.6711  0.0000</r>
       <r>  11.9543  0.0000</r>
       <r>  11.9814  0.0000</r>
      </set>
      <set comment="kpoint 57">
       <r>  -1.1787  1.0000</r>
       <r>   0.2209  1.0000</r>
       <r>   2.9788  1.0000</r>
       <r>   4.3083  1.0000</r>
       <r>   4.3642  1.0000</r>
       <r>   5.6819  1.0000</r>
       <r>   8.3523  0.0000</r>
       <r>   9.6773  0.0000</r>
       <r>   9.8629  0.0000</r>
       <r>  11.0780  0.0000</r>
       <r>  11.2526  0.0000</r>
       <r>  12.4293  0.0000</r>
      </set>
      <set comment="kpoint 58">
       <r>  -0.5355  1.0000</r>
       <r>  -0.5355  1.0000</r>
       <r>   3.6050  1.0000</r>
       <r>   3.6050  1.0000</r>
       <r>   4.9514  1.0000</r>
       <r>   4.9514  1.0000</r>
       <r>   8.9610  0.0000</r>
       <r>   8.9610  0.0000</r>
       <r>  10.4606  0.0000</r>
       <r>  10.4606  0.0000</r>
       <r>  11.7587  0.0000</r>
       <r>  11.7587  0.0000</r>
      </set>
      <set comment="kpoint 59">
       <r>  -1.2960  1.0000</r>
       <r>   1.4921  1.0000</r>
       <r>   1.4921  1.0000</r>
       <r>   4.1981  1.0000</r>
       <r>   4.2511  1.0000</r>
       <r>   6.9117  1.0000</r>
       <r>   6.9117  1.0000</r>
       <r>   9.5710  0.0000</r>
       <r>   9.7548  0.0000</r>
       <r>  12.2745  0.0000</r>
       <r>  12.2746  0.0000</r>
       <r>  12.4083  0.0000</r>
      </set>
      <set comment="kpoint 60">
       <r>  -0.7691  1.0000</r>
       <r>   0.6269  1.0000</r>
       <r>   2.0098  1.0000</r>
       <r>   3.3815  1.0000</r>
       <r>   4.7259  1.0000</r>
       <r>   6.0748  1.0000</r>
       <r>   7.4137  0.0000</r>
       <r>   8.7452  0.0000</r>
       <r>  10.2489  0.0000</r>
       <r>  11.5412  0.0000</r>
       <r>  12.8028  0.0000</r>
       <r>  12.8362  0.0000</r>
      </set>
      <set comment="kpoint 61">
       <r>  -0.1276  1.0000</r>
       <r>  -0.1276  1.0000</r>
       <r>   2.6401  1.0000</r>
       <r>   2.6401  1.0000</r>
       <r>   5.3454  1.0000</r>
       <r>   5.3454  1.0000</r>
       <r>   8.0254  0.0000</r>
       <r>   8.0254  0.0000</r>
       <r>  10.8467  0.0000</r>
       <r>  10.8467  0.0000</r>
       <r>  13.3858  0.0000</r>
       <r>  13.3905  0.0000</r>
      </set>
      <set comment="kpoint 62">
       <r>  -0.2440  1.0000</r>
       <r>   1.1474  1.0000</r>
       <r>   1.1474  1.0000</r>
       <r>   2.5268  1.0000</r>
       <r>   5.2331  1.0000</r>
       <r>   6.5788  1.0000</r>
       <r>   6.5788  1.0000</r>
       <r>   7.9159  0.0000</r>
       <r>  10.7410  0.0000</r>
       <r>  12.0287  0.0000</r>
       <r>  12.0287  0.0000</r>
       <r>  13.2995  0.0000</r>
      </set>
      <set comment="kpoint 63">
       <r>   0.3954  1.0000</r>
       <r>   0.3954  1.0000</r>
       <r>   1.7813  1.0000</r>
       <r>   1.7813  1.0000</r>
       <r>   5.8512  1.0000</r>
       <r>   5.8512  1.0000</r>
       <r>   7.1930  0.0000</r>
       <r>   7.1930  0.0000</r>
       <r>  11.3364  0.0000</r>
       <r>  11.3364  0.0000</r>
       <r>  12.6164  0.0000</r>
       <r>  12.6164  0.0000</r>
      </set>
      <set comment="kpoint 64">
       <r>   1.0322  1.0000</r>
       <r>   1.0322  1.0000</r>
       <r>   1.0322  1.0000</r>
       <r>   1.0322  1.0000</r>
       <r>   6.4676  1.0000</r>
       <r>   6.4676  1.0000</r>
       <r>   6.4676  1.0000</r>
       <r>   6.4676  1.0000</r>
       <r>  11.9283  0.0000</r>
       <r>  11.9283  0.0000</r>
       <r>  11.9283  0.0000</r>
       <r>  11.9283  0.0000</r>
      </set>
      <set comment="kpoint 65">
       <r>  -1.8246  1.0000</r>
       <r>   2.3500  1.0000</r>
       <r>   2.3500  1.0000</r>
       <r>   2.3500  1.0000</r>
       <r>   6.4184  1.0000</r>
       <r>   6.4184  1.0000</r>
       <r>   6.4184  1.0000</r>
       <r>  10.3999  0.0000</r>
       <r>  10.5659  0.0000</r>
       <r>  10.5659  0.0000</r>
       <r>  10.5659  0.0000</r>
       <r>  13.7337  0.0000</r>
      </set>
      <set comment="kpoint 66">
       <r>  -1.4133  1.0000</r>
       <r>   1.3769  1.0000</r>
       <r>   2.7504  1.0000</r>
       <r>   2.7504  1.0000</r>
       <r>   5.4700  1.0000</r>
       <r>   5.4700  1.0000</r>
       <r>   6.8103  1.0000</r>
       <r>   9.4717  0.0000</r>
       <r>  10.9474  0.0000</r>
       <r>  10.9474  0.0000</r>
       <r>  12.2520  0.0000</r>
       <r>  13.3981  0.0000</r>
      </set>
      <set comment="kpoint 67">
       <r>  -0.8860  1.0000</r>
       <r>   0.5110  1.0000</r>
       <r>   3.2639  1.0000</r>
       <r>   3.2639  1.0000</r>
       <r>   4.6259  1.0000</r>
       <r>   4.6259  1.0000</r>
       <r>   7.3129  0.0000</r>
       <r>   8.6455  0.0000</r>
       <r>  11.4322  0.0000</r>
       <r>  11.4322  0.0000</r>
       <r>  12.6976  0.0000</r>
       <r>  12.6976  0.0000</r>
      </set>
      <set comment="kpoint 68">
       <r>  -0.2440  1.0000</r>
       <r>  -0.2440  1.0000</r>
       <r>   3.8707  1.0000</r>
       <r>   3.8707  1.0000</r>
       <r>   3.9087  1.0000</r>
       <r>   3.9087  1.0000</r>
       <r>   7.9251  0.0000</r>
       <r>   7.9251  0.0000</r>
       <r>  11.9499  0.0000</r>
       <r>  11.9499  0.0000</r>
       <r>  12.0949  0.0000</r>
       <r>  12.0949  0.0000</r>
      </set>
      <set comment="kpoint 69">
       <r>  -1.0031  1.0000</r>
       <r>   1.7800  1.0000</r>
       <r>   1.7800  1.0000</r>
       <r>   3.1500  1.0000</r>
       <r>   4.5160  1.0000</r>
       <r>   5.8637  1.0000</r>
       <r>   5.8637  1.0000</r>
       <r>   8.5386  0.0000</r>
       <r>  11.3286  0.0000</r>
       <r>  12.6247  0.0000</r>
       <r>  12.6247  0.0000</r>
       <r>  13.7655  0.0000</r>
      </set>
      <set comment="kpoint 70">
       <r>  -0.4772  1.0000</r>
       <r>   0.9163  1.0000</r>
       <r>   2.2967  1.0000</r>
       <r>   3.6504  1.0000</r>
       <r>   3.6788  1.0000</r>
       <r>   5.0213  1.0000</r>
       <r>   6.3688  1.0000</r>
       <r>   7.7082  0.0000</r>
       <r>  11.8134  0.0000</r>
       <r>  13.0301  0.0000</r>
       <r>  13.1349  0.0000</r>
       <r>  14.2320  0.0000</r>
      </set>
      <set comment="kpoint 71">
       <r>   0.1632  1.0000</r>
       <r>   0.1632  1.0000</r>
       <r>   2.9261  1.0000</r>
       <r>   2.9261  1.0000</r>
       <r>   4.2870  1.0000</r>
       <r>   4.2870  1.0000</r>
       <r>   6.9841  1.0000</r>
       <r>   6.9841  1.0000</r>
       <r>  12.3960  0.0000</r>
       <r>  12.3960  0.0000</r>
       <r>  13.6576  0.0000</r>
       <r>  13.6576  0.0000</r>
      </set>
      <set comment="kpoint 72">
       <r>   0.0470  1.0000</r>
       <r>   1.4359  1.0000</r>
       <r>   1.4359  1.0000</r>
       <r>   2.8129  1.0000</r>
       <r>   4.1737  1.0000</r>
       <r>   5.5286  1.0000</r>
       <r>   5.5286  1.0000</r>
       <r>   6.8739  1.0000</r>
       <r>  12.2964  0.0000</r>
       <r>  13.5410  0.0000</r>
       <r>  13.5410  0.0000</r>
       <r>  14.7713  0.0000</r>
      </set>
      <set comment="kpoint 73">
       <r>   0.6852  1.0000</r>
       <r>   0.6852  1.0000</r>
       <r>   2.0686  1.0000</r>
       <r>   2.0686  1.0000</r>
       <r>   4.7962  1.0000</r>
       <r>   4.7962  1.0000</r>
       <r>   6.1467  1.0000</r>
       <r>   6.1467  1.0000</r>
       <r>  12.8770  0.0000</r>
       <r>  12.8770  0.0000</r>
       <r>  14.1143  0.0000</r>
       <r>  14.1143  0.0000</r>
      </set>
      <set comment="kpoint 74">
       <r>   1.3209  1.0000</r>
       <r>   1.3209  1.0000</r>
       <r>   1.3209  1.0000</r>
       <r>   1.3209  1.0000</r>
       <r>   5.4166  1.0000</r>
       <r>   5.4166  1.0000</r>
       <r>   5.4166  1.0000</r>
       <r>   5.4166  1.0000</r>
       <r>  13.4542  0.0000</r>
       <r>  13.4542  0.0000</r>
       <r>  13.4542  0.0000</r>
       <r>  13.4542  0.0000</r>
      </set>
      <set comment="kpoint 75">
       <r>  -0.5939  1.0000</r>
       <r>   2.1821  1.0000</r>
       <r>   2.1821  1.0000</r>
       <r>   2.1821  1.0000</r>
       <r>   4.9117  1.0000</r>
       <r>   4.9117  1.0000</r>
       <r>   4.9117  1.0000</r>
       <r>   7.6007  0.0000</r>
       <r>  12.9978  0.0000</r>
       <r>  12.9978  0.0000</r>
       <r>  12.9978  0.0000</r>
       <r>  14.8164  0.0000</r>
      </set>
      <set comment="kpoint 76">
       <r>  -0.0694  1.0000</r>
       <r>   1.3206  1.0000</r>
       <r>   2.6977  1.0000</r>
       <r>   2.6977  1.0000</r>
       <r>   4.0644  1.0000</r>
       <r>   4.0644  1.0000</r>
       <r>   5.4195  1.0000</r>
       <r>   6.7659  1.0000</r>
       <r>  13.4680  0.0000</r>
       <r>  13.4680  0.0000</r>
       <r>  14.6056  0.0000</r>
       <r>  14.6061  0.0000</r>
      </set>
      <set comment="kpoint 77">
       <r>   0.5693  1.0000</r>
       <r>   0.5693  1.0000</r>
       <r>   3.3198  1.0000</r>
       <r>   3.3198  1.0000</r>
       <r>   3.3315  1.0000</r>
       <r>   3.3315  1.0000</r>
       <r>   6.0381  1.0000</r>
       <r>   6.0381  1.0000</r>
       <r>  13.9950  0.0000</r>
       <r>  13.9950  0.0000</r>
       <r>  14.0508  0.0000</r>
       <r>  14.0508  0.0000</r>
      </set>
      <set comment="kpoint 78">
       <r>   0.4535  1.0000</r>
       <r>   1.8389  1.0000</r>
       <r>   1.8389  1.0000</r>
       <r>   3.2094  1.0000</r>
       <r>   3.2152  1.0000</r>
       <r>   4.5746  1.0000</r>
       <r>   4.5746  1.0000</r>
       <r>   5.9272  1.0000</r>
       <r>  13.9366  0.0000</r>
       <r>  15.0689  0.0000</r>
       <r>  15.0697  0.0000</r>
       <r>  15.1801  0.0000</r>
      </set>
      <set comment="kpoint 79">
       <r>   1.0901  1.0000</r>
       <r>   1.0901  1.0000</r>
       <r>   2.4702  1.0000</r>
       <r>   2.4702  1.0000</r>
       <r>   3.8379  1.0000</r>
       <r>   3.8379  1.0000</r>
       <r>   5.1960  1.0000</r>
       <r>   5.1960  1.0000</r>
       <r>  14.4885  0.0000</r>
       <r>  14.4885  0.0000</r>
       <r>  15.6337  0.0000</r>
       <r>  15.6458  0.0000</r>
      </set>
      <set comment="kpoint 80">
       <r>   1.7242  1.0000</r>
       <r>   1.7242  1.0000</r>
       <r>   1.7242  1.0000</r>
       <r>   1.7242  1.0000</r>
       <r>   4.4619  1.0000</r>
       <r>   4.4619  1.0000</r>
       <r>   4.4619  1.0000</r>
       <r>   4.4619  1.0000</r>
       <r>  15.0390  0.0000</r>
       <r>  15.0390  0.0000</r>
       <r>  15.0390  0.0000</r>
       <r>  15.0390  0.0000</r>
      </set>
      <set comment="kpoint 81">
       <r>   0.9746  1.0000</r>
       <r>   2.3557  1.0000</r>
       <r>   2.3557  1.0000</r>
       <r>   2.3557  1.0000</r>
       <r>   3.7255  1.0000</r>
       <r>   3.7255  1.0000</r>
       <r>   3.7255  1.0000</r>
       <r>   5.0846  1.0000</r>
       <r>  15.6210  0.0000</r>
       <r>  15.6210  0.0000</r>
       <r>  15.6210  0.0000</r>
       <r>  16.2049  0.0000</r>
      </set>
      <set comment="kpoint 82">
       <r>   1.6092  1.0000</r>
       <r>   1.6092  1.0000</r>
       <r>   2.9817  1.0000</r>
       <r>   2.9817  1.0000</r>
       <r>   2.9884  1.0000</r>
       <r>   2.9884  1.0000</r>
       <r>   4.3499  1.0000</r>
       <r>   4.3499  1.0000</r>
       <r>  16.0713  0.0000</r>
       <r>  16.0713  0.0000</r>
       <r>  16.1178  0.0000</r>
       <r>  16.1178  0.0000</r>
      </set>
      <set comment="kpoint 83">
       <r>   2.2414  1.0000</r>
       <r>   2.2414  1.0000</r>
       <r>   2.2414  1.0000</r>
       <r>   2.2414  1.0000</r>
       <r>   3.6122  1.0000</r>
       <r>   3.6122  1.0000</r>
       <r>   3.6122  1.0000</r>
       <r>   3.6122  1.0000</r>
       <r>  16.5911  0.0000</r>
       <r>  16.5911  0.0000</r>
       <r>  16.5911  0.0000</r>
       <r>  16.5911  0.0000</r>
      </set>
      <set comment="kpoint 84">
       <r>   2.8646  1.0000</r>
       <r>   2.8646  1.0000</r>
       <r>   2.8646  1.0000</r>
       <r>   2.8646  1.0000</r>
       <r>   2.8778  1.0000</r>
       <r>   2.8778  1.0000</r>
       <r>   2.8778  1.0000</r>
       <r>   2.8778  1.0000</r>
       <r>  17.6628  0.0000</r>
       <r>  17.6628  0.0000</r>
       <r>  17.6628  0.0000</r>
       <r>  17.6628  0.0000</r>
      </set>
     </set>
    </set>
   </array>
  </eigenvalues>
 </calculation>
 <structure name="finalpos" >
  <crystal>
   <varray name="basis" >
    <v>       4.15842556      0.00000000      0.00000000</v>
    <v>       0.00000000      4.15842556      0.00000000</v>
    <v>       0.00000000      0.00000000      4.15842556</v>
   </varray>
   <i name="volume">     71.90958709</i>
   <varray name="rec_basis" >
    <v>       0.24047563      0.00000000      0.00000000</v>
    <v>       0.00000000      0.24047563      0.00000000</v>
    <v>       0.00000000      0.00000000      0.24047563</v>
   </varray>
  </crystal>
  <varray name="positions" >
   <v>       0.50000000      0.50000000      0.00000000</v>
   <v>       0.50000000      0.00000000      0.50000000</v>
   <v>       0.00000000      0.50000000      0.50000000</v>
   <v>       0.00000000      0.00000000      0.00000000</v>
  </varray>
 </structure>
</modeling>
