 running on    4 nodes
 distr:  one band on    1 nodes,    4 groups
 vasp.4.6.28 25Jul05 complex 
 POSCAR found :  1 types and   32 ions

 ----------------------------------------------------------------------------- 
|                                                                             |
|  ADVICE TO THIS USER RUNNING 'VASP/VAMP'   (HEAR YOUR MASTER'S VOICE ...):  |
|                                                                             |
|      You have a (more or less) 'large supercell' and for larger cells       |
|      it might be more efficient to use real space projection operators      |
|      So try LREAL= Auto  in the INCAR   file.                               |
|      Mind: If you want to do an extremely accurate calculations keep the    |
|      reciprocal projection scheme          (i.e. LREAL=.FALSE.)             |
|                                                                             |
 ----------------------------------------------------------------------------- 

 LDA part: xc-table for Pade appr. of Perdew
 found WAVECAR, reading the header
  number of k-points has changed, file:  20 present:  40
  trying to continue reading WAVECAR, but it might fail
 POSCAR, INCAR and KPOINTS ok, starting setup
 FFT: planning ...           1
 reading WAVECAR
 the WAVECAR file was read sucessfully
 initial charge from wavefunction
 entering main loop
       N       E                     dE             d eps       ncg     rms          rms(c)
RMM:   1    -0.918259500412E+02   -0.91826E+02   -0.59966E+02 17461   0.455E+01BRMIX: very serious problems
 the old and the new charge density differ
 old charge density:   344.39458 new  352.00000
    0.747E+00
RMM:   2    -0.901788110804E+02    0.16471E+01   -0.12766E+01 17793   0.120E+01    0.118E+00
RMM:   3    -0.901769643275E+02    0.18468E-02   -0.15148E-01 18327   0.717E-01    0.647E-01
RMM:   4    -0.901772754606E+02   -0.31113E-03   -0.31028E-02 18219   0.555E-01    0.189E-01
RMM:   5    -0.901767737413E+02    0.50172E-03   -0.72071E-03 18195   0.301E-01    0.480E-02
RMM:   6    -0.901767440837E+02    0.29658E-04   -0.78738E-05 17784   0.235E-02    0.299E-02
RMM:   7    -0.901767215682E+02    0.22515E-04   -0.11136E-04 18229   0.346E-02    0.310E-03
RMM:   8    -0.901767180486E+02    0.35196E-05   -0.45168E-06 10130   0.592E-03
   1 F= -.90176718E+02 E0= -.90172762E+02  d E =-.118688E-01

 ----------------------------------------------------------------------------- 
|                                                                             |
|           W    W    AA    RRRRR   N    N  II  N    N   GGGG   !!!           |
|           W    W   A  A   R    R  NN   N  II  NN   N  G    G  !!!           |
|           W    W  A    A  R    R  N N  N  II  N N  N  G       !!!           |
|           W WW W  AAAAAA  RRRRR   N  N N  II  N  N N  G  GGG   !            |
|           WW  WW  A    A  R   R   N   NN  II  N   NN  G    G                |
|           W    W  A    A  R    R  N    N  II  N    N   GGGG   !!!           |
|                                                                             |
|      The partial DOS and the PROCAR file are not evaluated for NPAR/=1      |
|      please rerun with NPAR=1                                               |
|                                                                             |
 ----------------------------------------------------------------------------- 

