       N       E                     dE             d eps       ncg     rms          rms(c)
RMM:   1     0.391155766517E+04    0.39116E+04   -0.16605E+05  4240   0.172E+03
RMM:   2     0.799274668853E+03   -0.31123E+04   -0.34967E+04  4240   0.421E+02
RMM:   3     0.162398744970E+03   -0.63688E+03   -0.69293E+03  4240   0.161E+02
RMM:   4    -0.230664351232E+02   -0.18547E+03   -0.13598E+03  4240   0.743E+01
RMM:   5    -0.822812856684E+02   -0.59215E+02   -0.35438E+02  4240   0.445E+01
RMM:   6    -0.937887461733E+02   -0.11507E+02   -0.83457E+01  4240   0.216E+01
RMM:   7    -0.961607680327E+02   -0.23720E+01   -0.19803E+01  4240   0.113E+01
RMM:   8    -0.966722105871E+02   -0.51144E+00   -0.47537E+00  4240   0.521E+00
RMM:   9    -0.968278539756E+02   -0.15564E+00   -0.14632E+00  8475   0.264E+00
RMM:  10    -0.968407357450E+02   -0.12882E-01   -0.11990E-01  8454   0.378E-01
RMM:  11    -0.968412326579E+02   -0.49691E-03   -0.44540E-03  8011   0.170E-01
RMM:  12    -0.968412760928E+02   -0.43435E-04   -0.41776E-04  6705   0.155E-02    0.152E+01
RMM:  13    -0.903942401717E+02    0.64470E+01   -0.25770E+01  8480   0.165E+01    0.280E+00
RMM:  14    -0.902467075391E+02    0.14753E+00   -0.40714E-01  8480   0.118E+00    0.150E+00
RMM:  15    -0.901773977280E+02    0.69310E-01   -0.41625E-02  8480   0.867E-01    0.205E-01
RMM:  16    -0.901780004797E+02   -0.60275E-03   -0.96501E-03  8480   0.274E-01    0.117E-01
RMM:  17    -0.901774489032E+02    0.55158E-03   -0.26729E-04  8480   0.476E-02    0.277E-02
RMM:  18    -0.901774215311E+02    0.27372E-04   -0.97350E-05  8107   0.312E-02    0.266E-03
RMM:  19    -0.901774148501E+02    0.66810E-05   -0.10903E-06  4516   0.225E-03
   1 F= -.90177415E+02 E0= -.90173459E+02  d E =-.901774E+02
