 running on    4 nodes
 distr:  one band on    1 nodes,    4 groups
 vasp.4.6.28 25Jul05 complex 
 POSCAR found :  1 types and    4 ions
 LDA part: xc-table for Pade appr. of Perdew
 generate k-points for:  12  12  12
 POSCAR, INCAR and KPOINTS ok, starting setup
 WARNING: wrap around errors must be expected
 FFT: planning ...           1
 reading WAVECAR
 WARNING: random wavefunctions but no delay for mixing, default for NELMDL
 entering main loop
       N       E                     dE             d eps       ncg     rms          rms(c)
DAV:   1     0.442591828258E+03    0.44259E+03   -0.21397E+04  4704   0.153E+03
DAV:   2     0.405905583872E+01   -0.43853E+03   -0.41808E+03  4752   0.450E+02
DAV:   3    -0.137808727817E+02   -0.17840E+02   -0.17303E+02  5256   0.975E+01
DAV:   4    -0.140510678014E+02   -0.27020E+00   -0.26953E+00  4972   0.111E+01
DAV:   5    -0.140538156286E+02   -0.27478E-02   -0.27474E-02  5032   0.110E+00    0.578E+00
DAV:   6    -0.131316294272E+02    0.92219E+00   -0.22767E+00  5000   0.148E+01    0.157E+00
DAV:   7    -0.130643016571E+02    0.67328E-01   -0.16737E-01  5308   0.341E+00    0.597E-01
DAV:   8    -0.130522728622E+02    0.12029E-01   -0.84054E-03  4788   0.895E-01    0.495E-02
DAV:   9    -0.130523071613E+02   -0.34299E-04   -0.50052E-04  5260   0.195E-01    0.280E-02
DAV:  10    -0.130523075796E+02   -0.41836E-06   -0.41361E-05  4836   0.465E-02    0.231E-03
DAV:  11    -0.130523092332E+02   -0.16536E-05   -0.63338E-07  5040   0.603E-03    0.580E-04
DAV:  12    -0.130523088580E+02    0.37523E-06   -0.36242E-08  4568   0.177E-03    0.140E-04
DAV:  13    -0.130523088042E+02    0.53829E-07   -0.18130E-09  2580   0.376E-04    0.157E-05
DAV:  14    -0.130523088061E+02   -0.19331E-08   -0.16163E-10  2532   0.140E-04
   1 F= -.13052309E+02 E0= -.13052267E+02  d E =-.130523E+02
 curvature:   0.00 expect dE= 0.000E+00 dE for cont linesearch  0.000E+00
 trial: gam= 0.00000 g(F)=  0.442E-60 g(S)=  0.164E+00 ort = 0.000E+00 (trialstep = 0.100E+01)
 search vector abs. value=  0.164E+00
 bond charge predicted
       N       E                     dE             d eps       ncg     rms          rms(c)
DAV:   1    -0.159755446665E+02   -0.15976E+02   -0.64157E+01  4728   0.834E+01    0.940E+00
DAV:   2    -0.131423646522E+02    0.28332E+01   -0.76723E+00  4728   0.281E+01    0.188E+00
DAV:   3    -0.130359618046E+02    0.10640E+00   -0.51190E-01  4972   0.590E+00    0.632E-01
DAV:   4    -0.130328575355E+02    0.31043E-02   -0.43184E-02  4724   0.177E+00    0.166E-01
DAV:   5    -0.130323939433E+02    0.46359E-03   -0.47794E-03  5196   0.623E-01    0.443E-02
DAV:   6    -0.130324168497E+02   -0.22906E-04   -0.18774E-04  4752   0.867E-02    0.216E-02
DAV:   7    -0.130324016390E+02    0.15211E-04   -0.53393E-05  4952   0.686E-02    0.147E-03
DAV:   8    -0.130324022430E+02   -0.60402E-06   -0.65643E-07  4788   0.558E-03    0.493E-04
DAV:   9    -0.130324024616E+02   -0.21861E-06   -0.17768E-08  4100   0.855E-04    0.506E-05
DAV:  10    -0.130324024480E+02    0.13554E-07   -0.86127E-10  2464   0.191E-04    0.268E-05
DAV:  11    -0.130324024337E+02    0.14336E-07   -0.11526E-10  2472   0.826E-05    0.691E-06
DAV:  12    -0.130324024311E+02    0.25989E-08   -0.24833E-11  2452   0.451E-05
   2 F= -.13032402E+02 E0= -.13032333E+02  d E =0.199064E-01
 trial-energy change:    0.019906  1 .order    0.011868   -0.163894    0.187630
 step:   0.4326(harm=  0.4662)  dis= 0.00000  next Energy=   -13.087105 (dE=-0.348E-01)
 bond charge predicted
       N       E                     dE             d eps       ncg     rms          rms(c)
DAV:   1    -0.140644745915E+02   -0.14064E+02   -0.20559E+01  4736   0.467E+01    0.553E+00
DAV:   2    -0.131120646614E+02    0.95241E+00   -0.26588E+00  4736   0.161E+01    0.100E+00
DAV:   3    -0.130868427362E+02    0.25222E-01   -0.13738E-01  5104   0.293E+00    0.368E-01
DAV:   4    -0.130867478649E+02    0.94871E-04   -0.12515E-02  4728   0.917E-01    0.816E-02
DAV:   5    -0.130866312608E+02    0.11660E-03   -0.13263E-03  5000   0.327E-01    0.255E-02
DAV:   6    -0.130866356677E+02   -0.44068E-05   -0.60489E-05  4756   0.585E-02    0.525E-03
DAV:   7    -0.130866350292E+02    0.63850E-06   -0.33166E-06  5076   0.168E-02    0.581E-04
DAV:   8    -0.130866353320E+02   -0.30279E-06   -0.41618E-08  4456   0.146E-03    0.186E-04
DAV:   9    -0.130866353202E+02    0.11803E-07   -0.13295E-09  2444   0.274E-04    0.198E-05
DAV:  10    -0.130866353123E+02    0.78467E-08   -0.19225E-10  2416   0.974E-05
   3 F= -.13086635E+02 E0= -.13086597E+02  d E =-.343265E-01
 curvature:  -0.23 expect dE=-0.280E-05 dE for cont linesearch -0.280E-05
 ZBRENT: interpolating
 opt :   0.4289  next Energy=   -13.086638 (dE=-0.343E-01)
 bond charge predicted
       N       E                     dE             d eps       ncg     rms          rms(c)
DAV:   1    -0.130866780706E+02   -0.13087E+02   -0.86977E-04  4752   0.306E-01    0.353E-02
DAV:   2    -0.130866381949E+02    0.39876E-04   -0.10635E-04  4752   0.103E-01    0.679E-03
DAV:   3    -0.130866374553E+02    0.73957E-06   -0.63549E-06  5008   0.205E-02    0.235E-03
DAV:   4    -0.130866385216E+02   -0.10663E-05   -0.55556E-07  4740   0.622E-03    0.564E-04
DAV:   5    -0.130866385652E+02   -0.43623E-07   -0.61423E-08  4664   0.225E-03    0.173E-04
DAV:   6    -0.130866386028E+02   -0.37575E-07   -0.25288E-09  2388   0.384E-04    0.481E-05
DAV:   7    -0.130866386065E+02   -0.36862E-08   -0.36703E-10  2388   0.113E-04
   4 F= -.13086639E+02 E0= -.13086600E+02  d E =-.343298E-01
 curvature:  -0.21 expect dE=-0.622E-08 dE for cont linesearch -0.622E-08
 trial: gam= 0.00000 g(F)=  0.311E-60 g(S)=  0.290E-07 ort =-0.690E-04 (trialstep = 0.886E+00)
 search vector abs. value=  0.291E-07
 reached required accuracy - stopping structural energy minimisation
