    4    4  200    1
  0.1758057E+02  0.4127600E-09  0.4127600E-09  0.4127600E-09  0.5000000E-15
  1.000000000000000E-004
  CAR 
 unknown system                          
   44   84   28
 
  0.0000000E+00  0.0000000E+00  0.0000000E+00  0.5787037E-03
   1       -4.2410
   2       -1.5823
   3       -1.5823
   4       -1.5823
   5       -1.3075
   6       -1.3075
   7       -1.3075
   8        0.5437
   9        0.5437
  10        0.5437
  11        1.9003
  12        1.9003
  13        2.9325
  14        2.9325
  15        2.9325
  16        3.2594
  17        3.2594
  18        3.2594
  19        3.2594
  20        3.2594
  21        3.2594
  22        6.1584
  23        6.1584
  24        6.1584
  25       10.2733
  26       10.2733
  27       10.2733
  28       14.9545
 
  0.8333333E-01  0.0000000E+00  0.0000000E+00  0.3472222E-02
   1       -4.1642
   2       -1.5570
   3       -1.5323
   4       -1.5323
   5       -1.2805
   6       -1.2665
   7       -1.2665
   8        0.5064
   9        0.5770
  10        0.5770
  11        1.8607
  12        1.9166
  13        2.8762
  14        2.8762
  15        2.9135
  16        3.0159
  17        3.0159
  18        3.1904
  19        3.1904
  20        3.2595
  21        3.2595
  22        5.5670
  23        6.4570
  24        6.4570
  25       10.2106
  26       10.2106
  27       10.9985
  28       14.8107
 
  0.1666667E+00  0.0000000E+00  0.0000000E+00  0.3472222E-02
   1       -3.9366
   2       -1.4894
   3       -1.3875
   4       -1.3875
   5       -1.2004
   6       -1.1436
   7       -1.1436
   8        0.3986
   9        0.6760
  10        0.6760
  11        1.7472
  12        1.9647
  13        2.4713
  14        2.4713
  15        2.7127
  16        2.7127
  17        2.8580
  18        2.9964
  19        2.9964
  20        3.2598
  21        3.2598
  22        4.4022
  23        7.1654
  24        7.1654
  25       10.0434
  26       10.0434
  27       12.5710
  28       14.3984
 
  0.2500000E+00  0.0000000E+00  0.0000000E+00  0.3472222E-02
   1       -3.5670
   2       -1.4101
   3       -1.1657
   4       -1.1657
   5       -1.0708
   6       -0.9393
   7       -0.9393
   8        0.2313
   9        0.8387
  10        0.8387
  11        1.5769
  12        1.8444
  13        1.8444
  14        2.0419
  15        2.4608
  16        2.4608
  17        2.7094
  18        2.7094
  19        2.7709
  20        3.2053
  21        3.2602
  22        3.2602
  23        8.0596
  24        8.0596
  25        9.8261
  26        9.8261
  27       13.7644
  28       13.7644
 
  0.3333333E+00  0.0000000E+00  0.0000000E+00  0.3472222E-02
   1       -3.0753
   2       -1.3870
   3       -0.9038
   4       -0.9038
   5       -0.8975
   6       -0.6547
   7       -0.6547
   8        0.0208
   9        1.0613
  10        1.0613
  11        1.2273
  12        1.2273
  13        1.3823
  14        2.1438
  15        2.1639
  16        2.1639
  17        2.1830
  18        2.3683
  19        2.3683
  20        2.6589
  21        3.2606
  22        3.2606
  23        9.0386
  24        9.0386
  25        9.6225
  26        9.6225
  27       12.9647
  28       12.9647
 
  0.4166667E+00  0.0000000E+00  0.0000000E+00  0.3472222E-02
   1       -2.5034
   2       -1.5371
   3       -0.6891
   4       -0.6714
   5       -0.6714
   6       -0.2918
   7       -0.2918
   8       -0.2147
   9        0.6560
  10        0.6560
  11        1.2215
  12        1.3377
  13        1.3377
  14        1.4872
  15        1.9025
  16        1.9025
  17        2.0085
  18        2.0085
  19        2.2645
  20        2.5310
  21        3.2609
  22        3.2609
  23        9.4822
  24        9.4822
  25       10.0530
  26       10.0530
  27       12.0512
  28       12.0512
 
  0.5000000E+00  0.0000000E+00  0.0000000E+00  0.1736111E-02
   1       -1.9404
   2       -1.9404
   3       -0.5728
   4       -0.5728
   5       -0.4569
   6       -0.4569
   7        0.1468
   8        0.1468
   9        0.1468
  10        0.1468
  11        1.2011
  12        1.2011
  13        1.6581
  14        1.6581
  15        1.6581
  16        1.6581
  17        1.7928
  18        1.7928
  19        2.3963
  20        2.3963
  21        3.2610
  22        3.2610
  23        9.4327
  24        9.4327
  25       11.0683
  26       11.0683
  27       11.0683
  28       11.0683
 
  0.8333333E-01  0.8333333E-01  0.0000000E+00  0.6944444E-02
   1       -4.0883
   2       -1.5064
   3       -1.5064
   4       -1.4890
   5       -1.2400
   6       -1.2400
   7       -1.2209
   8        0.4909
   9        0.5894
  10        0.6073
  11        1.8501
  12        1.9075
  13        2.8123
  14        2.8123
  15        2.8233
  16        2.8504
  17        2.9786
  18        2.9786
  19        3.1903
  20        3.1903
  21        3.2140
  22        5.8633
  23        5.8633
  24        6.7237
  25       10.1385
  26       10.9396
  27       10.9396
  28       14.2522
 
  0.1666667E+00  0.8333333E-01  0.0000000E+00  0.1388889E-01
   1       -3.8630
   2       -1.4374
   3       -1.3630
   4       -1.3601
   5       -1.1615
   6       -1.1187
   7       -1.0854
   8        0.3964
   9        0.6780
  10        0.6969
  11        1.7522
  12        1.9516
  13        2.3298
  14        2.3798
  15        2.5983
  16        2.6685
  17        2.7477
  18        2.8928
  19        2.9958
  20        3.1900
  21        3.1901
  22        4.7436
  23        6.5229
  24        7.3834
  25        9.9426
  26       10.7914
  27       12.4733
  28       13.6496
 
  0.2500000E+00  0.8333333E-01  0.0000000E+00  0.1388889E-01
   1       -3.4975
   2       -1.3558
   3       -1.1652
   4       -1.1355
   5       -1.0344
   6       -0.9172
   7       -0.8680
   8        0.2360
   9        0.8383
  10        0.8387
  11        1.5966
  12        1.7156
  13        1.7947
  14        2.0379
  15        2.2232
  16        2.4289
  17        2.4958
  18        2.7083
  19        2.7650
  20        3.1848
  21        3.1895
  22        3.6821
  23        7.2865
  24        8.2433
  25        9.6770
  26       10.6355
  27       13.0681
  28       13.9052
 
  0.3333333E+00  0.8333333E-01  0.0000000E+00  0.1388889E-01
   1       -3.0112
   2       -1.3303
   3       -0.9146
   4       -0.8692
   5       -0.8647
   6       -0.6367
   7       -0.5887
   8        0.0317
   9        0.9999
  10        1.0600
  11        1.1166
  12        1.2031
  13        1.4520
  14        1.7093
  15        2.1454
  16        2.1543
  17        2.2011
  18        2.3667
  19        2.5414
  20        2.9543
  21        3.1842
  22        3.1888
  23        8.0064
  24        9.2005
  25        9.4028
  26       10.5938
  27       12.4857
  28       13.1019
 
  0.4166667E+00  0.8333333E-01  0.0000000E+00  0.1388889E-01
   1       -2.4449
   2       -1.4807
   3       -0.6625
   4       -0.6608
   5       -0.6318
   6       -0.2796
   7       -0.2701
   8       -0.1975
   9        0.5722
  10        0.6485
  11        1.0476
  12        1.2406
  13        1.3359
  14        1.5020
  15        1.8991
  16        1.9342
  17        2.0067
  18        2.1541
  19        2.2942
  20        2.6385
  21        3.1851
  22        3.1877
  23        8.5577
  24        9.1533
  25       10.2013
  26       10.7965
  27       11.8741
  28       12.1881
 
  0.5000000E+00  0.8333333E-01  0.0000000E+00  0.6944444E-02
   1       -1.8852
   2       -1.8852
   3       -0.5372
   4       -0.5372
   5       -0.4338
   6       -0.4338
   7        0.1061
   8        0.1061
   9        0.1508
  10        0.1508
  11        1.0394
  12        1.0394
  13        1.6562
  14        1.6562
  15        1.7798
  16        1.7798
  17        1.8081
  18        1.8081
  19        2.4532
  20        2.4532
  21        3.1864
  22        3.1864
  23        8.9047
  24        8.9047
  25       11.2087
  26       11.2087
  27       11.2683
  28       11.2683
 
  0.1666667E+00  0.1666667E+00  0.0000000E+00  0.6944444E-02
   1       -3.6451
   2       -1.2864
   3       -1.2864
   4       -1.2806
   5       -1.0449
   6       -1.0449
   7       -0.9254
   8        0.3531
   9        0.7238
  10        0.7575
  11        1.7182
  12        1.9666
  13        2.0213
  14        2.0213
  15        2.0857
  16        2.5380
  17        2.7427
  18        2.7427
  19        2.9942
  20        2.9942
  21        3.0802
  22        5.4024
  23        5.4024
  24        7.9559
  25        9.6602
  26       12.2138
  27       12.2138
  28       12.9532
 
  0.2500000E+00  0.1666667E+00  0.0000000E+00  0.1388889E-01
   1       -3.2919
   2       -1.1973
   3       -1.1302
   4       -1.0531
   5       -0.9259
   6       -0.8518
   7       -0.6930
   8        0.2328
   9        0.8450
  10        0.8565
  11        1.4162
  12        1.6099
  13        1.6162
  14        1.6340
  15        2.0684
  16        2.3318
  17        2.5197
  18        2.6466
  19        2.7051
  20        2.9915
  21        3.0189
  22        4.3606
  23        6.1118
  24        8.7443
  25        9.2578
  26       11.8902
  27       12.4217
  28       13.7005
 
  0.3333333E+00  0.1666667E+00  0.0000000E+00  0.1388889E-01
   1       -2.8222
   2       -1.1649
   3       -0.9124
   4       -0.7726
   5       -0.7672
   6       -0.5839
   7       -0.4292
   8        0.0563
   9        0.8526
  10        0.9096
  11        1.0659
  12        1.1247
  13        1.1822
  14        1.5254
  15        2.0847
  16        2.2301
  17        2.2460
  18        2.3625
  19        2.4486
  20        2.9883
  21        2.9934
  22        3.5581
  23        6.7878
  24        8.8131
  25        9.6520
  26       11.6227
  27       12.0221
  28       13.4960
 
  0.4166667E+00  0.1666667E+00  0.0000000E+00  0.1388889E-01
   1       -2.2740
   2       -1.3176
   3       -0.6460
   4       -0.5773
   5       -0.5174
   6       -0.2445
   7       -0.1941
   8       -0.1504
   9        0.3634
  10        0.6228
  11        0.8676
  12        0.8681
  13        1.3359
  14        1.6041
  15        1.8772
  16        1.9812
  17        2.0025
  18        2.1573
  19        2.4354
  20        2.9846
  21        2.9852
  22        3.0292
  23        7.3890
  24        8.3669
  25       10.6205
  26       11.4965
  27       11.7250
  28       12.5800
 
  0.5000000E+00  0.1666667E+00  0.0000000E+00  0.6944444E-02
   1       -1.7254
   2       -1.7254
   3       -0.4403
   4       -0.4403
   5       -0.3672
   6       -0.3672
   7        0.0090
   8        0.0090
   9        0.1608
  10        0.1608
  11        0.7931
  12        0.7931
  13        1.6532
  14        1.6532
  15        1.8281
  16        1.8281
  17        1.8443
  18        1.8443
  19        2.6883
  20        2.6883
  21        2.9832
  22        2.9832
  23        7.9061
  24        7.9061
  25       11.5382
  26       11.5382
  27       11.6086
  28       11.6086
 
  0.2500000E+00  0.2500000E+00  0.0000000E+00  0.6944444E-02
   1       -2.9596
   2       -1.0329
   3       -0.9498
   4       -0.9498
   5       -0.7467
   6       -0.7467
   7       -0.4614
   8        0.1829
   9        0.8606
  10        0.9383
  11        1.0475
  12        1.0475
  13        1.3515
  14        1.5521
  15        2.1715
  16        2.2044
  17        2.4548
  18        2.4548
  19        2.7007
  20        2.7007
  21        2.8661
  22        5.0419
  23        5.0419
  24        8.6730
  25        9.4642
  26       12.0241
  27       13.0491
  28       13.0491
 
  0.3333333E+00  0.2500000E+00  0.0000000E+00  0.1388889E-01
   1       -2.5193
   2       -0.9058
   3       -0.8665
   4       -0.6441
   5       -0.6076
   6       -0.4999
   7       -0.2215
   8        0.0702
   9        0.5369
  10        0.7047
  11        0.8492
  12        0.9781
  13        1.1075
  14        1.4902
  15        1.9724
  16        2.2122
  17        2.2813
  18        2.3580
  19        2.4328
  20        2.6965
  21        2.7706
  22        4.1783
  23        5.6953
  24        8.0509
  25       10.3192
  26       11.8089
  27       12.4725
  28       14.0713
 
  0.4166667E+00  0.2500000E+00  0.0000000E+00  0.1388889E-01
   1       -2.0051
   2       -1.0685
   3       -0.6313
   4       -0.4432
   5       -0.3453
   6       -0.1911
   7       -0.0872
   8       -0.0560
   9        0.1021
  10        0.5368
  11        0.5696
  12        0.7467
  13        1.3539
  14        1.5517
  15        1.8100
  16        1.9651
  17        2.0007
  18        2.0236
  19        2.6952
  20        2.7220
  21        2.7241
  22        3.5413
  23        6.3080
  24        7.4562
  25       11.2511
  26       11.7365
  27       12.0522
  28       13.1803
 
  0.5000000E+00  0.2500000E+00  0.0000000E+00  0.6944444E-02
   1       -1.4814
   2       -1.4814
   3       -0.3444
   4       -0.3444
   5       -0.2648
   6       -0.2648
   7       -0.0572
   8       -0.0572
   9        0.1707
  10        0.1707
  11        0.5957
  12        0.5957
  13        1.6583
  14        1.6583
  15        1.7524
  16        1.7524
  17        1.7996
  18        1.7996
  19        2.7012
  20        2.7012
  21        3.0804
  22        3.0804
  23        6.8860
  24        6.8860
  25       11.8105
  26       11.8105
  27       12.2171
  28       12.2171
 
  0.3333333E+00  0.3333333E+00  0.0000000E+00  0.6944444E-02
   1       -2.1225
   2       -0.7670
   3       -0.5843
   4       -0.5843
   5       -0.3913
   6       -0.3913
   7       -0.0118
   8        0.0445
   9        0.2904
  10        0.2904
  11        0.7563
  12        0.7989
  13        1.2192
  14        1.4092
  15        1.8173
  16        2.0666
  17        2.0666
  18        2.3571
  19        2.3571
  20        2.5851
  21        2.7362
  22        4.7889
  23        4.7889
  24        7.2912
  25       11.1304
  26       11.7716
  27       13.2499
  28       13.2499
 
  0.4166667E+00  0.3333333E+00  0.0000000E+00  0.1388889E-01
   1       -1.6641
   2       -0.7831
   3       -0.6097
   4       -0.2872
   5       -0.2672
   6       -0.1270
   7       -0.0303
   8       -0.0214
   9        0.1171
  10        0.2942
  11        0.4755
  12        0.6816
  13        1.4159
  14        1.4226
  15        1.6834
  16        1.8325
  17        1.8433
  18        2.0097
  19        2.3664
  20        2.4632
  21        3.1050
  22        4.0833
  23        5.3850
  24        6.6027
  25       11.8833
  26       12.0303
  27       12.6076
  28       13.9337
 
  0.5000000E+00  0.3333333E+00  0.0000000E+00  0.6944444E-02
   1       -1.1921
   2       -1.1921
   3       -0.3980
   4       -0.3980
   5       -0.1411
   6       -0.1411
   7        0.0614
   8        0.0614
   9        0.1700
  10        0.1700
  11        0.4812
  12        0.4812
  13        1.5860
  14        1.5860
  15        1.6854
  16        1.6854
  17        1.6869
  18        1.6869
  19        2.3966
  20        2.3966
  21        3.5414
  22        3.5414
  23        5.9792
  24        5.9792
  25       12.1554
  26       12.1554
  27       12.9767
  28       12.9767
 
  0.4166667E+00  0.4166667E+00  0.0000000E+00  0.6944444E-02
   1       -1.2876
   2       -0.5711
   3       -0.5711
   4       -0.5710
   5       -0.0639
   6       -0.0639
   7       -0.0036
   8        0.2033
   9        0.2033
  10        0.2542
  11        0.3319
  12        0.6130
  13        1.3402
  14        1.5415
  15        1.5479
  16        1.6338
  17        1.6338
  18        2.0428
  19        2.0428
  20        2.2559
  21        3.5423
  22        4.6388
  23        4.6388
  24        5.8617
  25       12.1704
  26       12.9058
  27       13.2384
  28       13.2384
 
  0.5000000E+00  0.4166667E+00  0.0000000E+00  0.6944444E-02
   1       -0.9148
   2       -0.9148
   3       -0.5303
   4       -0.5303
   5       -0.0174
   6       -0.0174
   7        0.1447
   8        0.1447
   9        0.2609
  10        0.2609
  11        0.4468
  12        0.4468
  13        1.4241
  14        1.4241
  15        1.5074
  16        1.5074
  17        1.7609
  18        1.7609
  19        2.1185
  20        2.1185
  21        4.0414
  22        4.0414
  23        5.2203
  24        5.2203
  25       12.6167
  26       12.6167
  27       13.8364
  28       13.8364
 
  0.5000000E+00  0.5000000E+00  0.0000000E+00  0.1736111E-02
   1       -0.6952
   2       -0.6952
   3       -0.6952
   4       -0.6952
   5        0.0827
   6        0.0827
   7        0.0827
   8        0.0827
   9        0.4068
  10        0.4068
  11        0.4068
  12        0.4068
  13        1.3796
  14        1.3796
  15        1.3796
  16        1.3796
  17        1.9019
  18        1.9019
  19        1.9019
  20        1.9019
  21        4.5892
  22        4.5892
  23        4.5892
  24        4.5892
  25       13.2185
  26       13.2185
  27       13.2185
  28       13.2185
 
  0.8333333E-01  0.8333333E-01  0.8333333E-01  0.4629630E-02
   1       -4.0133
   2       -1.4632
   3       -1.4632
   4       -1.4632
   5       -1.1944
   6       -1.1944
   7       -1.1944
   8        0.4781
   9        0.6176
  10        0.6176
  11        1.8708
  12        1.8708
  13        2.7565
  14        2.7565
  15        2.7565
  16        2.7757
  17        2.7757
  18        2.7757
  19        3.1802
  20        3.1802
  21        3.1802
  22        6.1181
  23        6.1181
  24        6.1181
  25       10.8655
  26       10.8655
  27       10.8655
  28       14.4256
 
  0.1666667E+00  0.8333333E-01  0.8333333E-01  0.1388889E-01
   1       -3.7908
   2       -1.3942
   3       -1.3374
   4       -1.3374
   5       -1.1162
   6       -1.0592
   7       -1.0592
   8        0.3958
   9        0.6934
  10        0.7014
  11        1.7676
  12        1.9317
  13        2.2596
  14        2.2596
  15        2.4825
  16        2.6345
  17        2.6470
  18        2.6470
  19        3.0899
  20        3.1586
  21        3.1586
  22        5.0046
  23        6.7189
  24        6.7189
  25       10.6697
  26       10.6697
  27       12.3339
  28       13.8686
 
  0.2500000E+00  0.8333333E-01  0.8333333E-01  0.1388889E-01
   1       -3.4301
   2       -1.3125
   3       -1.1397
   4       -1.1397
   5       -0.9899
   6       -0.8425
   7       -0.8425
   8        0.2442
   9        0.8326
  10        0.8395
  11        1.6249
  12        1.6766
  13        1.6766
  14        2.0292
  15        2.0507
  16        2.4116
  17        2.4328
  18        2.4328
  19        2.9624
  20        3.1408
  21        3.1408
  22        3.9414
  23        7.4390
  24        7.4390
  25       10.4302
  26       10.4302
  27       13.3652
  28       13.3652
 
  0.3333333E+00  0.8333333E-01  0.8333333E-01  0.1388889E-01
   1       -2.9503
   2       -1.2862
   3       -0.8878
   4       -0.8878
   5       -0.8226
   6       -0.5666
   7       -0.5666
   8        0.0476
   9        0.9714
  10        1.0290
  11        1.1023
  12        1.1023
  13        1.5247
  14        1.5316
  15        2.1340
  16        2.1577
  17        2.1636
  18        2.1636
  19        2.8114
  20        3.0917
  21        3.1306
  22        3.1306
  23        8.1163
  24        8.1163
  25       10.2600
  26       10.2600
  27       12.8989
  28       12.8989
 
  0.4166667E+00  0.8333333E-01  0.8333333E-01  0.1388889E-01
   1       -2.3917
   2       -1.4358
   3       -0.6287
   4       -0.6287
   5       -0.6235
   6       -0.2646
   7       -0.2646
   8       -0.1742
   9        0.5830
  10        0.5830
  11        0.9787
  12        1.1090
  13        1.2644
  14        1.6452
  15        1.8335
  16        1.9166
  17        1.9166
  18        2.3094
  19        2.4587
  20        2.6461
  21        3.1256
  22        3.1256
  23        8.5828
  24        8.5828
  25       10.2549
  26       10.2549
  27       12.4841
  28       12.4841
 
  0.5000000E+00  0.8333333E-01  0.8333333E-01  0.6944444E-02
   1       -1.8382
   2       -1.8382
   3       -0.5018
   4       -0.5018
   5       -0.4032
   6       -0.4032
   7       -0.0114
   8       -0.0114
   9        0.2382
  10        0.2382
  11        0.9490
  12        0.9490
  13        1.5371
  14        1.5371
  15        1.8101
  16        1.8101
  17        1.9830
  18        1.9830
  19        2.4755
  20        2.4755
  21        3.1242
  22        3.1242
  23        8.7344
  24        8.7344
  25       10.3163
  26       10.3163
  27       12.2893
  28       12.2893
 
  0.1666667E+00  0.1666667E+00  0.8333333E-01  0.1388889E-01
   1       -3.5770
   2       -1.2691
   3       -1.2691
   4       -1.2587
   5       -0.9815
   6       -0.9815
   7       -0.8972
   8        0.3606
   9        0.7334
  10        0.7542
  11        1.7550
  12        1.9371
  13        1.9626
  14        1.9626
  15        1.9885
  16        2.4587
  17        2.5277
  18        2.5277
  19        3.0793
  20        3.0793
  21        3.0954
  22        5.5822
  23        5.5822
  24        7.2136
  25       10.3347
  26       11.9562
  27       11.9562
  28       13.2962
 
  0.2500000E+00  0.1666667E+00  0.8333333E-01  0.2777778E-01
   1       -3.2307
   2       -1.1883
   3       -1.1128
   4       -1.0731
   5       -0.8564
   6       -0.7655
   7       -0.6642
   8        0.2521
   9        0.8362
  10        0.8465
  11        1.3916
  12        1.5416
  13        1.5569
  14        1.6615
  15        2.0478
  16        2.2702
  17        2.3023
  18        2.3754
  19        2.9607
  20        3.0313
  21        3.0332
  22        4.5080
  23        6.2491
  24        7.8305
  25        9.8978
  26       11.4616
  27       12.9489
  28       13.1982
 
  0.3333333E+00  0.1666667E+00  0.8333333E-01  0.2777778E-01
   1       -2.7715
   2       -1.1616
   3       -0.8991
   4       -0.8202
   5       -0.6946
   6       -0.4963
   7       -0.4054
   8        0.0873
   9        0.8594
  10        0.8962
  11        1.0117
  12        1.0522
  13        1.1254
  14        1.6207
  15        2.0216
  16        2.0533
  17        2.1564
  18        2.2157
  19        2.7841
  20        2.9889
  21        2.9911
  22        3.6295
  23        6.9034
  24        8.3400
  25        9.5757
  26       10.9742
  27       12.7943
  28       13.8818
 
  0.4166667E+00  0.1666667E+00  0.8333333E-01  0.2777778E-01
   1       -2.2371
   2       -1.3100
   3       -0.6322
   4       -0.5414
   5       -0.5101
   6       -0.2474
   7       -0.2033
   8       -0.1074
   9        0.4302
  10        0.6071
  11        0.8234
  12        0.8444
  13        1.2156
  14        1.7306
  15        1.7792
  16        1.8559
  17        1.9260
  18        2.4199
  19        2.5031
  20        2.9656
  21        2.9678
  22        3.0163
  23        7.4928
  24        8.3564
  25        9.7124
  26       10.5397
  27       12.8275
  28       13.4606
 
  0.5000000E+00  0.1666667E+00  0.8333333E-01  0.1388889E-01
   1       -1.7045
   2       -1.7045
   3       -0.4062
   4       -0.4062
   5       -0.3115
   6       -0.3115
   7       -0.1649
   8       -0.1649
   9        0.3201
  10        0.3201
  11        0.7613
  12        0.7613
  13        1.4570
  14        1.4570
  15        1.7951
  16        1.7951
  17        2.1154
  18        2.1154
  19        2.6637
  20        2.6637
  21        2.9596
  22        2.9596
  23        7.9910
  24        7.9910
  25       10.1239
  26       10.1239
  27       13.0648
  28       13.0648
 
  0.2500000E+00  0.2500000E+00  0.8333333E-01  0.1388889E-01
   1       -2.9097
   2       -1.0246
   3       -0.9971
   4       -0.9971
   5       -0.6393
   6       -0.6393
   7       -0.4335
   8        0.2197
   9        0.8513
  10        0.9020
  11        1.0345
  12        1.0345
  13        1.2863
  14        1.6305
  15        2.0765
  16        2.1798
  17        2.1990
  18        2.1990
  19        2.8848
  20        2.8848
  21        2.9183
  22        5.1477
  23        5.1477
  24        8.2531
  25        9.3304
  26       12.3914
  27       12.3914
  28       12.8139
 
  0.3333333E+00  0.2500000E+00  0.8333333E-01  0.2777778E-01
   1       -2.4866
   2       -0.9774
   3       -0.8696
   4       -0.7540
   5       -0.4800
   6       -0.3693
   7       -0.2054
   8        0.1265
   9        0.5703
  10        0.7008
  11        0.8406
  12        0.9499
  13        1.0200
  14        1.6191
  15        1.8894
  16        1.9386
  17        2.0442
  18        2.4082
  19        2.6841
  20        2.8054
  21        2.8220
  22        4.2302
  23        5.7847
  24        8.1178
  25        9.3783
  26       11.6507
  27       12.8936
  28       13.2914
 
  0.4166667E+00  0.2500000E+00  0.8333333E-01  0.2777778E-01
   1       -1.9972
   2       -1.1301
   3       -0.6508
   4       -0.4801
   5       -0.3178
   6       -0.1835
   7       -0.0868
   8       -0.0095
   9        0.2790
  10        0.5333
  11        0.6274
  12        0.7387
  13        1.1848
  14        1.6569
  15        1.7401
  16        1.7681
  17        1.8563
  18        2.4014
  19        2.6971
  20        2.7542
  21        2.7606
  22        3.5395
  23        6.3956
  24        7.5641
  25        9.8883
  26       11.0091
  27       13.1758
  28       14.2079
 
  0.5000000E+00  0.2500000E+00  0.8333333E-01  0.1388889E-01
   1       -1.5069
   2       -1.5069
   3       -0.3920
   4       -0.3920
   5       -0.1932
   6       -0.1932
   7       -0.1623
   8       -0.1623
   9        0.3882
  10        0.3882
  11        0.5889
  12        0.5889
  13        1.3983
  14        1.3983
  15        1.7209
  16        1.7209
  17        2.0640
  18        2.0640
  19        2.7388
  20        2.7388
  21        3.0548
  22        3.0548
  23        6.9827
  24        6.9827
  25       10.4384
  26       10.4384
  27       13.6521
  28       13.6521
 
  0.3333333E+00  0.3333333E+00  0.8333333E-01  0.1388889E-01
   1       -2.1176
   2       -0.7921
   3       -0.7636
   4       -0.7636
   5       -0.1970
   6       -0.1970
   7       -0.0225
   8        0.1328
   9        0.3368
  10        0.3368
  11        0.7960
  12        0.7965
  13        1.0622
  14        1.6017
  15        1.7137
  16        1.8281
  17        1.8281
  18        2.5786
  19        2.5786
  20        2.6672
  21        2.7086
  22        4.8341
  23        4.8341
  24        7.4016
  25        9.8033
  26       12.3883
  27       12.3883
  28       13.1711
 
  0.4166667E+00  0.3333333E+00  0.8333333E-01  0.2777778E-01
   1       -1.6991
   2       -0.9395
   3       -0.6710
   4       -0.5736
   5       -0.0538
   6       -0.0096
   7        0.0454
   8        0.0933
   9        0.2064
  10        0.3083
  11        0.6345
  12        0.6842
  13        1.1565
  14        1.5694
  15        1.5802
  16        1.6861
  17        1.7176
  18        2.2932
  19        2.5078
  20        2.5510
  21        3.0767
  22        4.0855
  23        5.4330
  24        6.6879
  25       10.3520
  26       11.6124
  27       13.1997
  28       13.6304
 
  0.5000000E+00  0.3333333E+00  0.8333333E-01  0.1388889E-01
   1       -1.2814
   2       -1.2814
   3       -0.5470
   4       -0.5470
   5       -0.0238
   6       -0.0238
   7        0.0262
   8        0.0262
   9        0.4514
  10        0.4514
  11        0.4859
  12        0.4859
  13        1.3309
  14        1.3309
  15        1.5704
  16        1.5704
  17        1.9781
  18        1.9781
  19        2.4959
  20        2.4959
  21        3.5196
  22        3.5196
  23        6.0406
  24        6.0406
  25       10.9464
  26       10.9464
  27       14.0760
  28       14.0760
 
  0.4166667E+00  0.4166667E+00  0.8333333E-01  0.1388889E-01
   1       -1.3774
   2       -0.7888
   3       -0.7888
   4       -0.6850
   5        0.1237
   6        0.1537
   7        0.1537
   8        0.1628
   9        0.2747
  10        0.2747
  11        0.6225
  12        0.6346
  13        1.1496
  14        1.4276
  15        1.4604
  16        1.4604
  17        1.7647
  18        2.2296
  19        2.2296
  20        2.3674
  21        3.5163
  22        4.6479
  23        4.6479
  24        5.9120
  25       10.9187
  26       12.3224
  27       12.3224
  28       14.0219
 
  0.5000000E+00  0.4166667E+00  0.8333333E-01  0.1388889E-01
   1       -1.0659
   2       -1.0659
   3       -0.7103
   4       -0.7103
   5        0.1333
   6        0.1333
   7        0.1801
   8        0.1801
   9        0.4885
  10        0.4885
  11        0.5164
  12        0.5164
  13        1.2539
  14        1.2539
  15        1.3802
  16        1.3802
  17        1.9553
  18        1.9553
  19        2.2511
  20        2.2511
  21        4.0256
  22        4.0256
  23        5.2444
  24        5.2444
  25       11.5690
  26       11.5690
  27       13.1266
  28       13.1266
 
  0.5000000E+00  0.5000000E+00  0.8333333E-01  0.3472222E-02
   1       -0.8781
   2       -0.8781
   3       -0.8781
   4       -0.8781
   5        0.2090
   6        0.2090
   7        0.2090
   8        0.2090
   9        0.5471
  10        0.5471
  11        0.5471
  12        0.5471
  13        1.2442
  14        1.2442
  15        1.2442
  16        1.2442
  17        2.0507
  18        2.0507
  19        2.0507
  20        2.0507
  21        4.5870
  22        4.5870
  23        4.5870
  24        4.5870
  25       12.2937
  26       12.2937
  27       12.2937
  28       12.2937
 
  0.1666667E+00  0.1666667E+00  0.1666667E+00  0.4629630E-02
   1       -3.3755
   2       -1.2024
   3       -1.2024
   4       -1.2024
   5       -0.8127
   6       -0.8127
   7       -0.8127
   8        0.3578
   9        0.7665
  10        0.7665
  11        1.7186
  12        1.7186
  13        1.7186
  14        1.8593
  15        1.8593
  16        2.2654
  17        2.2654
  18        2.2654
  19        3.1033
  20        3.1033
  21        3.1033
  22        6.0351
  23        6.0351
  24        6.0351
  25       11.3217
  26       11.3217
  27       11.3217
  28       14.2915
 
  0.2500000E+00  0.1666667E+00  0.1666667E+00  0.1388889E-01