   4   4   0   0
  0.2015424E+02  0.4319918E-09  0.4319918E-09  0.4319918E-09  0.5000000E-15
  1.000000000000000E-004
  CAR 
 unknown system                          
     16.48610495     -4.72418928  301      6.09443614      1.00000000
     -4.724  0.0000E+00  0.0000E+00
     -4.653  0.0000E+00  0.0000E+00
     -4.583  0.0000E+00  0.0000E+00
     -4.512  0.0000E+00  0.0000E+00
     -4.441  0.0000E+00  0.0000E+00
     -4.371  0.0000E+00  0.0000E+00
     -4.300  0.0000E+00  0.0000E+00
     -4.229  0.0000E+00  0.0000E+00
     -4.159  0.0000E+00  0.0000E+00
     -4.088  0.0000E+00  0.0000E+00
     -4.017  0.0000E+00  0.0000E+00
     -3.946  0.0000E+00  0.0000E+00
     -3.876  0.0000E+00  0.0000E+00
     -3.805  0.1622E-11  0.1147E-12
     -3.734  0.1637E-01  0.1157E-02
     -3.664  0.1035E+00  0.8474E-02
     -3.593  0.2716E+00  0.2767E-01
     -3.522  0.1482E+00  0.3815E-01
     -3.452  0.3934E+00  0.6601E-01
     -3.381  0.3924E+00  0.9375E-01
     -3.310  0.1814E+00  0.1066E+00
     -3.239  0.4911E+00  0.1424E+00
     -3.169  0.4052E+00  0.1710E+00
     -3.098  0.4659E+00  0.2040E+00
     -3.027  0.4368E+00  0.2348E+00
     -2.957  0.7858E+00  0.2905E+00
     -2.886  0.2597E-01  0.2923E+00
     -2.815  0.8182E+00  0.3502E+00
     -2.745  0.5893E+00  0.3947E+00
     -2.674  0.4152E+00  0.4240E+00
     -2.603  0.9632E+00  0.4921E+00
     -2.532  0.5854E+00  0.5335E+00
     -2.462  0.2519E-02  0.5337E+00
     -2.391  0.5922E+00  0.5756E+00
     -2.320  0.1444E+01  0.6777E+00
     -2.250  0.5239E+00  0.7164E+00
     -2.179  0.1653E+00  0.7281E+00
     -2.108  0.1707E+01  0.8488E+00
     -2.038  0.9223E-01  0.8553E+00
     -1.967  0.2186E+00  0.8708E+00
     -1.896  0.1279E+01  0.9612E+00
     -1.825  0.1053E+01  0.1036E+01
     -1.755  0.4923E+00  0.1071E+01
     -1.684  0.8002E+00  0.1127E+01
     -1.613  0.7702E+00  0.1182E+01
     -1.543  0.3933E+00  0.1210E+01
     -1.472  0.1675E+01  0.1328E+01
     -1.401  0.1033E+01  0.1401E+01
     -1.331  0.4348E+00  0.1432E+01
     -1.260  0.1205E+01  0.1517E+01
     -1.189  0.7598E+00  0.1571E+01
     -1.118  0.1308E+00  0.1580E+01
     -1.048  0.8940E+00  0.1643E+01
     -0.977  0.1708E+01  0.1764E+01
     -0.906  0.8305E+00  0.1823E+01
     -0.836  0.1180E+01  0.1906E+01
     -0.765  0.1570E+01  0.2017E+01
     -0.694  0.7477E+00  0.2070E+01
     -0.624  0.7858E+00  0.2128E+01
     -0.553  0.5120E+00  0.2165E+01
     -0.482  0.1060E+01  0.2240E+01
     -0.411  0.1178E+01  0.2323E+01
     -0.341  0.1572E+01  0.2434E+01
     -0.270  0.6695E-01  0.2439E+01
     -0.199  0.1600E+01  0.2552E+01
     -0.129  0.1576E+01  0.2664E+01
     -0.058  0.8292E+00  0.2722E+01
      0.013  0.1905E+01  0.2857E+01
      0.083  0.7858E+00  0.2913E+01
      0.154  0.2115E+00  0.2928E+01
      0.225  0.1148E+01  0.3009E+01
      0.296  0.1966E+01  0.3149E+01
      0.366  0.1020E+01  0.3222E+01
      0.437  0.1808E+01  0.3349E+01
      0.508  0.7858E+00  0.3409E+01
      0.578  0.5405E-01  0.3412E+01
      0.649  0.1891E+01  0.3546E+01
      0.720  0.7859E+00  0.3610E+01
      0.790  0.1254E+01  0.3699E+01
      0.861  0.1386E+01  0.3797E+01
      0.932  0.2074E+01  0.3943E+01
      1.003  0.6540E-01  0.3948E+01
      1.073  0.2279E+01  0.4109E+01
      1.144  0.2370E+01  0.4277E+01
      1.215  0.7858E+00  0.4332E+01
      1.285  0.6085E+00  0.4375E+01
      1.356  0.1748E+01  0.4499E+01
      1.427  0.2625E-01  0.4501E+01
      1.497  0.1034E+01  0.4574E+01
      1.568  0.1881E+01  0.4707E+01
      1.639  0.1190E+01  0.4791E+01
      1.710  0.2643E+01  0.4978E+01
      1.780  0.1353E+01  0.5075E+01
      1.851  0.4602E-01  0.5078E+01
      1.922  0.2550E+01  0.5259E+01
      1.992  0.1367E+01  0.5358E+01
      2.063  0.1597E+01  0.5471E+01
      2.134  0.1431E+01  0.5572E+01
      2.205  0.1637E+01  0.5691E+01
      2.275  0.4559E+00  0.5723E+01
      2.346  0.1514E+01  0.5830E+01
      2.417  0.1607E+01  0.5945E+01
      2.487  0.8141E+00  0.6003E+01
      2.558  0.2352E+01  0.6169E+01
      2.629  0.1548E+01  0.6279E+01
      2.699  0.1172E+01  0.6362E+01
      2.770  0.1615E+01  0.6476E+01
      2.841  0.8800E+00  0.6543E+01
      2.912  0.9515E+00  0.6610E+01
      2.982  0.2432E+01  0.6783E+01
      3.053  0.2355E+01  0.6953E+01
      3.124  0.7040E-02  0.6953E+01
      3.194  0.2109E+01  0.7102E+01
      3.265  0.2362E+01  0.7270E+01
      3.336  0.1911E+01  0.7405E+01
      3.406  0.5041E+00  0.7441E+01
      3.477  0.2184E+01  0.7595E+01
      3.548  0.2754E+00  0.7614E+01
      3.619  0.2668E+01  0.7803E+01
      3.689  0.2794E+01  0.8001E+01
      3.760  0.1131E+01  0.8081E+01
      3.831  0.1249E+01  0.8169E+01
      3.901  0.2063E+01  0.8315E+01
      3.972  0.3696E+00  0.8343E+01
      4.043  0.1903E+01  0.8478E+01
      4.113  0.2387E+01  0.8648E+01
      4.184  0.1699E+01  0.8771E+01
      4.255  0.1423E+01  0.8872E+01
      4.326  0.1716E+01  0.8993E+01
      4.396  0.8939E+00  0.9056E+01
      4.467  0.2516E+01  0.9234E+01
      4.538  0.2422E+01  0.9410E+01
      4.608  0.1561E+01  0.9521E+01
      4.679  0.1039E+01  0.9594E+01
      4.750  0.1225E+01  0.9681E+01
      4.820  0.3401E+00  0.9705E+01
      4.891  0.2883E+01  0.9909E+01
      4.962  0.2312E+01  0.1008E+02
      5.033  0.1079E+01  0.1015E+02
      5.103  0.2504E+01  0.1033E+02
      5.174  0.2163E+01  0.1048E+02
      5.245  0.7173E+00  0.1053E+02
      5.315  0.8713E+00  0.1060E+02
      5.386  0.2680E+01  0.1079E+02
      5.457  0.1307E+01  0.1088E+02
      5.527  0.3307E+01  0.1112E+02
      5.598  0.1279E+01  0.1121E+02
      5.669  0.9844E+00  0.1128E+02
      5.740  0.1412E+01  0.1138E+02
      5.810  0.1784E+01  0.1151E+02
      5.881  0.2208E+01  0.1167E+02
      5.952  0.3984E+01  0.1195E+02
      6.022  0.3929E+00  0.1198E+02
      6.093  0.2755E+00  0.1200E+02
      6.164  0.4517E+01  0.1231E+02
      6.234  0.1062E+01  0.1239E+02
      6.305  0.1849E+01  0.1252E+02
      6.376  0.2823E+01  0.1272E+02
      6.447  0.7135E+00  0.1277E+02
      6.517  0.1293E+01  0.1287E+02
      6.588  0.1364E+01  0.1296E+02
      6.659  0.2422E+01  0.1313E+02
      6.729  0.1000E+01  0.1321E+02
      6.800  0.2559E+01  0.1339E+02
      6.871  0.1104E+01  0.1346E+02
      6.941  0.3252E+01  0.1369E+02
      7.012  0.1893E+01  0.1383E+02
      7.083  0.2279E+01  0.1399E+02
      7.154  0.1909E+01  0.1413E+02
      7.224  0.3437E+01  0.1437E+02
      7.295  0.9617E+00  0.1444E+02
      7.366  0.1934E+01  0.1457E+02
      7.436  0.2544E+01  0.1475E+02
      7.507  0.2729E+01  0.1495E+02
      7.578  0.1816E+01  0.1508E+02
      7.648  0.1060E+00  0.1509E+02
      7.719  0.1646E+01  0.1521E+02
      7.790  0.2972E+01  0.1542E+02
      7.861  0.2253E+01  0.1558E+02
      7.931  0.7141E+00  0.1563E+02
      8.002  0.2957E+01  0.1584E+02
      8.073  0.2393E+01  0.1601E+02
      8.143  0.2339E+01  0.1618E+02
      8.214  0.1141E+01  0.1626E+02
      8.285  0.3592E+01  0.1651E+02
      8.355  0.1690E+01  0.1663E+02
      8.426  0.1713E+01  0.1675E+02
      8.497  0.1512E+01  0.1686E+02
      8.568  0.1247E+01  0.1695E+02
      8.638  0.2692E+01  0.1714E+02
      8.709  0.2250E+01  0.1730E+02
      8.780  0.4441E+01  0.1761E+02
      8.850  0.2133E+01  0.1776E+02
      8.921  0.1637E+01  0.1788E+02
      8.992  0.2474E+01  0.1805E+02
      9.063  0.1303E+01  0.1815E+02
      9.133  0.2099E+01  0.1830E+02
      9.204  0.2075E+01  0.1844E+02
      9.275  0.2214E+01  0.1860E+02
      9.345  0.1975E+01  0.1874E+02
      9.416  0.1913E+01  0.1887E+02
      9.487  0.2669E+01  0.1906E+02
      9.557  0.2931E+01  0.1927E+02
      9.628  0.3236E+01  0.1950E+02
      9.699  0.1293E+01  0.1959E+02
      9.770  0.2049E+01  0.1974E+02
      9.840  0.1241E+01  0.1983E+02
      9.911  0.2811E+01  0.2002E+02
      9.982  0.1179E+01  0.2011E+02
     10.052  0.4009E+01  0.2039E+02
     10.123  0.3057E+01  0.2061E+02
     10.194  0.1318E+01  0.2071E+02
     10.264  0.2819E+01  0.2090E+02
     10.335  0.1994E+01  0.2105E+02
     10.406  0.1653E+01  0.2116E+02
     10.477  0.3230E+01  0.2139E+02
     10.547  0.2628E+01  0.2158E+02
     10.618  0.1671E+01  0.2170E+02
     10.689  0.9544E+00  0.2176E+02
     10.759  0.1503E+01  0.2187E+02
     10.830  0.2159E+01  0.2202E+02
     10.901  0.1577E+01  0.2214E+02
     10.971  0.1255E+01  0.2223E+02
     11.042  0.1067E+01  0.2230E+02
     11.113  0.1884E+01  0.2244E+02
     11.184  0.9985E+00  0.2251E+02
     11.254  0.1147E+01  0.2259E+02
     11.325  0.1267E+01  0.2268E+02
     11.396  0.1212E+01  0.2277E+02
     11.466  0.1757E+01  0.2289E+02
     11.537  0.3343E+00  0.2292E+02
     11.608  0.9821E-01  0.2293E+02
     11.678  0.1155E+01  0.2301E+02
     11.749  0.3907E+00  0.2304E+02
     11.820  0.6221E+00  0.2308E+02
     11.891  0.1656E+01  0.2320E+02
     11.961  0.7661E+00  0.2326E+02
     12.032  0.9671E-01  0.2327E+02
     12.103  0.7964E+00  0.2332E+02
     12.173  0.3214E+00  0.2335E+02
     12.244  0.1903E+00  0.2336E+02
     12.315  0.5452E+00  0.2340E+02
     12.385  0.2405E+00  0.2341E+02
     12.456  0.3202E-04  0.2341E+02
     12.527  0.1064E+01  0.2349E+02
     12.598  0.9984E+00  0.2356E+02
     12.668  0.0000E+00  0.2356E+02
     12.739  0.0000E+00  0.2356E+02
     12.810  0.6945E-01  0.2357E+02
     12.880  0.7163E+00  0.2362E+02
     12.951  0.1947E+00  0.2363E+02
     13.022  0.5911E+00  0.2367E+02
     13.092  0.1819E+00  0.2368E+02
     13.163  0.3420E+00  0.2371E+02
     13.234  0.8731E-11  0.2371E+02
     13.305  0.7855E+00  0.2376E+02
     13.375  0.3929E+00  0.2379E+02
     13.446  0.0000E+00  0.2379E+02
     13.517  0.2846E-06  0.2379E+02
     13.587  0.3929E+00  0.2382E+02
     13.658  0.0000E+00  0.2382E+02
     13.729  0.0000E+00  0.2382E+02
     13.799  0.1007E-10  0.2382E+02
     13.870  0.8385E+00  0.2388E+02
     13.941  0.3401E+00  0.2390E+02
     14.012  0.0000E+00  0.2390E+02
     14.082  0.0000E+00  0.2390E+02
     14.153  0.2084E-02  0.2390E+02
     14.224  0.3908E+00  0.2393E+02
     14.294  0.0000E+00  0.2393E+02
     14.365  0.1568E-04  0.2393E+02
     14.436  0.5230E+00  0.2397E+02
     14.506  0.0000E+00  0.2397E+02
     14.577  0.0000E+00  0.2397E+02
     14.648  0.0000E+00  0.2397E+02
     14.719  0.2304E+00  0.2398E+02
     14.789  0.1625E+00  0.2400E+02
     14.860  0.0000E+00  0.2400E+02
     14.931  0.0000E+00  0.2400E+02
     15.001  0.0000E+00  0.2400E+02
     15.072  0.0000E+00  0.2400E+02
     15.143  0.0000E+00  0.2400E+02
     15.213  0.0000E+00  0.2400E+02
     15.284  0.0000E+00  0.2400E+02
     15.355  0.0000E+00  0.2400E+02
     15.426  0.0000E+00  0.2400E+02
     15.496  0.9071E-05  0.2400E+02
     15.567  0.6547E-01  0.2400E+02
     15.638  0.0000E+00  0.2400E+02
     15.708  0.0000E+00  0.2400E+02
     15.779  0.0000E+00  0.2400E+02
     15.850  0.0000E+00  0.2400E+02
     15.920  0.0000E+00  0.2400E+02
     15.991  0.0000E+00  0.2400E+02
     16.062  0.0000E+00  0.2400E+02
     16.133  0.0000E+00  0.2400E+02
     16.203  0.0000E+00  0.2400E+02
     16.274  0.0000E+00  0.2400E+02
     16.345  0.0000E+00  0.2400E+02
     16.415  0.0000E+00  0.2400E+02
     16.486  0.0000E+00  0.2400E+02
