    4    4    1    1
  0.2015424E+02  0.4319918E-09  0.4319918E-09  0.4319918E-09  0.5000000E-15
  1.000000000000000E-004
  CAR 
 unknown system                          
   12   84   12
 
  0.0000000E+00  0.0000000E+00  0.0000000E+00  0.5787037E-03
   1       -3.7601
   2        3.6215
   3        3.6215
   4        3.6215
   5        4.4260
   6        4.4260
   7        4.4260
   8       10.8103
   9       10.8103
  10       10.8103
  11       10.8103
  12       10.8103
 
  0.8333333E-01  0.0000000E+00  0.0000000E+00  0.3472222E-02
   1       -3.7051
   2        2.7406
   3        3.6728
   4        3.6728
   5        4.4798
   6        4.4798
   7        5.4037
   8        9.8327
   9        9.8327
  10       10.3822
  11       10.3822
  12       10.8586
 
  0.1666667E+00  0.0000000E+00  0.0000000E+00  0.3472222E-02
   1       -3.5400
   2        1.6494
   3        3.8269
   4        3.8269
   5        4.6408
   6        4.6408
   7        6.7849
   8        8.7613
   9        8.7613
  10        9.5430
  11        9.5430
  12       11.0034
 
  0.2500000E+00  0.0000000E+00  0.0000000E+00  0.3472222E-02
   1       -3.2653
   2        0.6392
   3        4.0838
   4        4.0838
   5        4.9078
   6        4.9078
   7        7.7860
   8        7.7860
   9        8.2760
  10        8.6543
  11        8.6543
  12       11.2447
 
  0.3333333E+00  0.0000000E+00  0.0000000E+00  0.3472222E-02
   1       -2.8815
   2       -0.2734
   3        4.4436
   4        4.4436
   5        5.2781
   6        5.2781
   7        6.9120
   8        6.9120
   9        7.8149
  10        7.8149
  11        9.8556
  12       11.5825
 
  0.4166667E+00  0.0000000E+00  0.0000000E+00  0.3472222E-02
   1       -2.3893
   2       -1.0838
   3        4.9062
   4        4.9062
   5        5.7422
   6        5.7422
   7        6.1405
   8        6.1405
   9        7.0627
  10        7.0627
  11       11.5074
  12       12.0167
 
  0.5000000E+00  0.0000000E+00  0.0000000E+00  0.1736111E-02
   1       -1.7896
   2       -1.7896
   3        5.4719
   4        5.4719
   5        5.4719
   6        5.4719
   7        6.1532
   8        6.1532
   9        6.5548
  10        6.5548
  11       12.5470
  12       12.5470
 
  0.8333333E-01  0.8333333E-01  0.0000000E+00  0.6944444E-02
   1       -3.6500
   2        2.7932
   3        2.7932
   4        3.7242
   5        4.5334
   6        5.4562
   7        5.4562
   8        8.9741
   9        9.8835
  10        9.8835
  11       10.4314
  12       10.4314
 
  0.1666667E+00  0.8333333E-01  0.0000000E+00  0.1388889E-01
   1       -3.4851
   2        1.7025
   3        2.9509
   4        3.8783
   5        4.6940
   6        5.6133
   7        6.8365
   8        7.9340
   9        8.8125
  10        9.5935
  11       10.0359
  12       10.3995
 
  0.2500000E+00  0.8333333E-01  0.0000000E+00  0.1388889E-01
   1       -3.2105
   2        0.6927
   3        3.2135
   4        4.1352
   5        4.9595
   6        5.8739
   7        6.9687
   8        7.8372
   9        8.3263
  10        8.7062
  11        9.5491
  12       10.2895
 
  0.3333333E+00  0.8333333E-01  0.0000000E+00  0.1388889E-01
   1       -2.8268
   2       -0.2195
   3        3.5803
   4        4.4950
   5        5.3209
   6        6.1048
   7        6.2344
   8        6.9633
   9        7.8698
  10        8.7204
  11        9.9022
  12       10.6441
 
  0.4166667E+00  0.8333333E-01  0.0000000E+00  0.1388889E-01
   1       -2.3347
   2       -1.0297
   3        4.0505
   4        4.9576
   5        5.2800
   6        5.8425
   7        6.1918
   8        6.6607
   9        7.1477
  10        7.9682
  11       11.0991
  12       11.4681
 
  0.5000000E+00  0.8333333E-01  0.0000000E+00  0.6944444E-02
   1       -1.7353
   2       -1.7353
   3        4.6220
   4        4.6220
   5        5.5232
   6        5.5232
   7        6.3873
   8        6.3873
   9        7.3176
  10        7.3176
  11       11.6536
  12       11.6536
 
  0.1666667E+00  0.1666667E+00  0.0000000E+00  0.6944444E-02
   1       -3.3203
   2        1.8619
   3        1.8619
   4        4.0324
   5        4.8524
   6        6.8906
   7        6.9908
   8        6.9908
   9        8.9659
  10        8.9659
  11        9.7453
  12        9.7453
 
  0.2500000E+00  0.1666667E+00  0.0000000E+00  0.1388889E-01
   1       -3.0460
   2        0.8532
   3        2.1271
   4        4.2894
   5        5.1064
   6        5.9303
   7        7.2450
   8        7.9910
   9        8.4754
  10        8.8635
  11        9.2213
  12       10.0004
 
  0.3333333E+00  0.1666667E+00  0.0000000E+00  0.1388889E-01
   1       -2.6627
   2       -0.0581
   3        2.4976
   4        4.6491
   5        4.9876
   6        5.5403
   7        7.1173
   8        7.5720
   9        8.0574
  10        9.5787
  11       10.0084
  12       10.0313
 
  0.4166667E+00  0.1666667E+00  0.0000000E+00  0.1388889E-01
   1       -2.1711
   2       -0.8674
   3        2.9727
   4        4.2294
   5        5.1118
   6        5.9908
   7        6.3459
   8        7.2207
   9        8.1073
  10        9.3023
  11       10.0376
  12       10.7595
 
  0.5000000E+00  0.1666667E+00  0.0000000E+00  0.6944444E-02
   1       -1.5723
   2       -1.5723
   3        3.5510
   4        3.5510
   5        5.6774
   6        5.6774
   7        6.5614
   8        6.5614
   9        8.6535
  10        8.6535
  11       10.5975
  12       10.5975
 
  0.2500000E+00  0.2500000E+00  0.0000000E+00  0.6944444E-02
   1       -2.7721
   2        1.1203
   3        1.1203
   4        4.5463
   5        4.8861
   6        5.4373
   7        8.2472
   8        8.2472
   9        8.6957
  10        8.6957
  11        9.1532
  12        9.1532
 
  0.3333333E+00  0.2500000E+00  0.0000000E+00  0.1388889E-01
   1       -2.3895
   2        0.2106
   3        1.4936
   4        4.0251
   5        4.9061
   6        5.7828
   7        7.3739
   8        8.2430
   9        8.6058
  10        9.1245
  11        9.4346
  12       10.3439
 
  0.4166667E+00  0.2500000E+00  0.0000000E+00  0.1388889E-01
   1       -1.8988
   2       -0.5973
   3        1.9722
   4        3.2407
   5        5.3687
   6        6.2536
   7        6.6027
   8        7.4951
   9        9.0664
  10        9.5650
  11        9.8990
  12       10.2920
 
  0.5000000E+00  0.2500000E+00  0.0000000E+00  0.6944444E-02
   1       -1.3010
   2       -1.3010
   3        2.5552
   4        2.5552
   5        5.9343
   6        5.9343
   7        6.8268
   8        6.8268
   9        9.6287
  10        9.6287
  11       10.1077
  12       10.1077
 
  0.3333333E+00  0.3333333E+00  0.0000000E+00  0.6944444E-02
   1       -2.0078
   2        0.5861
   3        0.5861
   4        3.1364
   5        5.2658
   6        6.1496
   7        7.7330
   8        7.7330
   9        8.6146
  10        8.6146
  11       10.1898
  12       10.6792
 
  0.4166667E+00  0.3333333E+00  0.0000000E+00  0.1388889E-01
   1       -1.5183
   2       -0.2199
   3        1.0677
   4        2.3446
   5        5.7285
   6        6.6213
   7        6.9622
   8        7.8605
   9        8.1946
  10        9.0752
  11        9.4236
  12       10.2777
 
  0.5000000E+00  0.3333333E+00  0.0000000E+00  0.6944444E-02
   1       -0.9219
   2       -0.9219
   3        1.6543
   4        1.6543
   5        6.2940
   6        6.2940
   7        7.1933
   8        7.1933
   9        8.7583
  10        8.7583
  11        9.6305
  12        9.6305
 
  0.4166667E+00  0.4166667E+00  0.0000000E+00  0.6944444E-02
   1       -1.0303
   2        0.2642
   3        0.2642
   4        1.5480
   5        6.1910
   6        7.0913
   7        7.4243
   8        7.4243
   9        8.3242
  10        8.3242
  11        8.6555
  12        9.5382
 
  0.5000000E+00  0.4166667E+00  0.0000000E+00  0.6944444E-02
   1       -0.4357
   2       -0.4357
   3        0.8539
   4        0.8539
   5        6.7563
   6        6.7563
   7        7.6605
   8        7.6605
   9        7.9888
  10        7.9888
  11        8.8847
  12        8.8847
 
  0.5000000E+00  0.5000000E+00  0.0000000E+00  0.1736111E-02
   1        0.1567
   2        0.1567
   3        0.1567
   4        0.1567
   5        7.3214
   6        7.3214
   7        7.3214
   8        7.3214
   9        8.2257
  10        8.2257
  11        8.2257
  12        8.2257
 
  0.8333333E-01  0.8333333E-01  0.8333333E-01  0.4629630E-02
   1       -3.5950
   2        2.8458
   3        2.8458
   4        2.8458
   5        5.5085
   6        5.5085
   7        5.5085
   8        9.0252
   9        9.0252
  10        9.0252
  11       10.9551
  12       10.9551
 
  0.1666667E+00  0.8333333E-01  0.8333333E-01  0.1388889E-01
   1       -3.4301
   2        1.7557
   3        3.0034
   4        3.0034
   5        5.6651
   6        5.6651
   7        6.8878
   8        7.9858
   9        7.9858
  10        9.1786
  11       10.4492
  12       10.4492
 
  0.2500000E+00  0.8333333E-01  0.8333333E-01  0.1388889E-01
   1       -3.1556
   2        0.7462
   3        3.2657
   4        3.2657
   5        5.9229
   6        5.9229
   7        7.0226
   8        7.0226
   9        8.3752
  10        9.4357
  11        9.6000
  12        9.6000
 
  0.3333333E+00  0.8333333E-01  0.8333333E-01  0.1388889E-01
   1       -2.7721
   2       -0.1657
   3        3.6321
   4        3.6321
   5        6.0963
   6        6.0963
   7        6.3392
   8        6.3392
   9        8.7723
  10        8.7723
  11        9.7571
  12        9.9879
 
  0.4166667E+00  0.8333333E-01  0.8333333E-01  0.1388889E-01
   1       -2.2802
   2       -0.9756
   3        4.1007
   4        4.1007
   5        5.3584
   6        5.3584
   7        6.7648
   8        6.7648
   9        8.0233
  10        8.0233
  11       10.2369
  12       11.4467
 
  0.5000000E+00  0.8333333E-01  0.8333333E-01  0.6944444E-02
   1       -1.6809
   2       -1.6809
   3        4.6011
   4        4.6011
   5        4.7575
   6        4.7575
   7        7.2167
   8        7.2167
   9        7.4730
  10        7.4730
  11       10.7936
  12       10.7936
 
  0.1666667E+00  0.1666667E+00  0.8333333E-01  0.1388889E-01
   1       -3.2654
   2        1.9149
   3        1.9149
   4        3.1607
   5        5.8181
   6        6.9448
   7        7.0401
   8        7.0401
   9        8.1423
  10        8.1423
  11       10.5983
  12       10.5983
 
  0.2500000E+00  0.1666667E+00  0.8333333E-01  0.2777778E-01
   1       -2.9912
   2        0.9066
   3        2.1799
   4        3.4223
   5        5.9042
   6        6.1478
   7        7.1305
   8        7.3432
   9        8.3575
  10        8.5686
  11        9.7527
  12       10.8412
 
  0.3333333E+00  0.1666667E+00  0.8333333E-01  0.2777778E-01
   1       -2.6080
   2       -0.0044
   3        2.5502
   4        3.7862
   5        5.0753
   6        6.2903
   7        6.4633
   8        7.6654
   9        8.7460
  10        8.9302
  11       10.0820
  12       10.1109
 
  0.4166667E+00  0.1666667E+00  0.8333333E-01  0.2777778E-01
   1       -2.1167
   2       -0.8134
   3        3.0246
   4        4.1840
   5        4.3682
   6        5.5166
   7        6.9265
   8        8.0304
   9        8.2710
  10        9.2072
  11        9.3540
  12       10.4254
 
  0.5000000E+00  0.1666667E+00  0.8333333E-01  0.1388889E-01
   1       -1.5180
   2       -1.5180
   3        3.6005
   4        3.6005
   5        4.8443
   6        4.8443
   7        7.4881
   8        7.4881
   9        8.7082
  10        8.7082
  11        9.7672
  12        9.7672
 
  0.2500000E+00  0.2500000E+00  0.8333333E-01  0.1388889E-01
   1       -2.7175
   2        1.1736
   3        1.1736
   4        3.6812
   5        4.9763
   6        6.3604
   7        7.4228
   8        7.4228
   9        8.7887
  10        8.7887
  11       10.0098
  12       10.0098
 
  0.3333333E+00  0.2500000E+00  0.8333333E-01  0.2777778E-01
   1       -2.3350
   2        0.2642
   3        1.5466
   4        3.9726
   5        4.1675
   6        6.5516
   7        6.7219
   8        7.7851
   9        9.0447
  10        9.2828
  11       10.2332
  12       10.2398
 
  0.4166667E+00  0.2500000E+00  0.8333333E-01  0.2777778E-01
   1       -1.8444
   2       -0.5434
   3        2.0249
   4        3.2898
   5        4.5331
   6        5.7768
   7        7.1873
   8        8.2477
   9        8.4092
  10        9.4734
  11        9.6193
  12       10.7813
 
  0.5000000E+00  0.2500000E+00  0.8333333E-01  0.1388889E-01
   1       -1.2468
   2       -1.2468
   3        2.6071
   4        2.6071
   5        5.1028
   6        5.1028
   7        7.7521
   8        7.7521
   9        8.8109
  10        8.8109
  11       10.1591
  12       10.1591
 
  0.3333333E+00  0.3333333E+00  0.8333333E-01  0.1388889E-01
   1       -1.9534
   2        0.6395
   3        0.6395
   4        3.1854
   5        4.4291
   6        6.9141
   7        6.9141
   8        7.0850
   9        9.3743
  10        9.5155
  11        9.5155
  12       10.7330
 
  0.4166667E+00  0.3333333E+00  0.8333333E-01  0.2777778E-01
   1       -1.4641
   2       -0.1661
   3        1.1208
   4        2.3965
   5        4.8951
   6        6.1401
   7        7.3785
   8        7.5499
   9        8.6102
  10        8.7724
  11        9.9746
  12       11.1682
 
  0.5000000E+00  0.3333333E+00  0.8333333E-01  0.1388889E-01
   1       -0.8679
   2       -0.8679
   3        1.7070
   4        1.7070
   5        5.4664
   6        5.4664
   7        7.9443
   8        7.9443
   9        8.1139
  10        8.1139
  11       10.5266
  12       10.5266
 
  0.4166667E+00  0.4166667E+00  0.8333333E-01  0.1388889E-01
   1       -0.9762
   2        0.3177
   3        0.3177
   4        1.6007
   5        5.3627
   6        6.6061
   7        6.6061
   8        7.8427
   9        8.0133
  10        9.2316
  11        9.2316
  12       10.4358
 
  0.5000000E+00  0.4166667E+00  0.8333333E-01  0.1388889E-01
   1       -0.3819
   2       -0.3819
   3        0.9071
   4        0.9071
   5        5.9336
   6        5.9336
   7        7.1740
   8        7.1740
   9        8.5752
  10        8.5752
  11        9.7871
  12        9.7871
 
  0.5000000E+00  0.5000000E+00  0.8333333E-01  0.3472222E-02
   1        0.2102
   2        0.2102
   3        0.2102
   4        0.2102
   5        6.5032
   6        6.5032
   7        6.5032
   8        6.5032
   9        9.1342
  10        9.1342
  11        9.1342
  12        9.1342
 
  0.1666667E+00  0.1666667E+00  0.1666667E+00  0.4629630E-02
   1       -3.1008
   2        2.0738
   3        2.0738
   4        2.0738
   5        7.0415
   6        7.0415
   7        7.0415
   8        7.2521
   9        7.2521
  10        7.2521
  11       11.3892
  12       11.3892
 
  0.2500000E+00  0.1666667E+00  0.1666667E+00  0.1388889E-01
   1       -2.8269
   2        1.0668
   3        2.3383
   4        2.3383
   5        6.1119
   6        6.1119
   7        7.3435
   8        7.4676
   9        7.4676
  10        8.6938
  11       10.9858
  12       11.0051
 
  0.3333333E+00  0.1666667E+00  0.1666667E+00  0.1388889E-01
   1       -2.4442
   2        0.1568
   3        2.7074
   4        2.7074
   5        5.2351
   6        5.2351
   7        7.7065
   8        7.8245
   9        7.8245
  10       10.1552
  11       10.2342
  12       10.2344
 
  0.4166667E+00  0.1666667E+00  0.1666667E+00  0.1388889E-01
   1       -1.9533
   2       -0.6514
   3        3.1781
   4        3.1781
   5        4.4575
   6        4.4575
   7        8.1696
   8        8.2801
   9        8.2801
  10        9.3956
  11        9.5111
  12        9.5111
 
  0.5000000E+00  0.1666667E+00  0.1666667E+00  0.6944444E-02
   1       -1.3553
   2       -1.3553
   3        3.6581
   4        3.6581
   5        3.8751
   6        3.8751
   7        8.7330
   8        8.7330
   9        8.7353
  10        8.7353
  11        8.9639
  12        8.9639
 
  0.2500000E+00  0.2500000E+00  0.1666667E+00  0.1388889E-01
   1       -2.5535
   2        1.3333
   3        1.3333
   4        2.6015
   5        5.1364
   6        6.3745
   7        6.3745
   8        7.7236
   9        8.9457
  10        8.9457
  11       10.0607
  12       11.2341
 
  0.3333333E+00  0.2500000E+00  0.1666667E+00  0.2777778E-01
   1       -2.1714
   2        0.4250
   3        1.7056
   4        2.9664
   5        4.2556
   6        5.4964
   7        6.7380
   8        8.0826
   9        9.2015
  10        9.2951
  11       10.4906
  12       10.5094
 
  0.4166667E+00  0.2500000E+00  0.1666667E+00  0.2777778E-01
   1       -1.6814
   2       -0.3818
   3        2.1824
   4        3.3376
   5        3.5714
   6        4.7166
   7        7.2034
   8        8.4368
   9        8.5411
  10        9.6402
  11        9.8724
  12       10.9325
 
  0.5000000E+00  0.2500000E+00  0.1666667E+00  0.1388889E-01
   1       -1.0845
   2       -1.0845
   3        2.7601
   4        2.7601
   5        4.0410
   6        4.0410
   7        7.7701
   8        7.7701
   9        9.0932
  10        9.0932
  11       10.3153
  12       10.3153
 
  0.3333333E+00  0.3333333E+00  0.1666667E+00  0.1388889E-01
   1       -1.7903
   2        0.7997
   3        0.7997
   4        3.2304
   5        3.4695
   6        5.8610
   7        5.8610
   8        8.3370
   9        8.4414
  10       10.7270
  11       10.7270
  12       10.9712
 
  0.4166667E+00  0.3333333E+00  0.1666667E+00  0.2777778E-01
   1       -1.3015
   2       -0.0050
   3        1.2801
   4        2.5492
   5        3.8322
   6        5.0818
   7        6.3284
   8        7.5681
   9        8.8995
  10       10.0939
  11       11.2621
  12       11.3207
 
  0.5000000E+00  0.3333333E+00  0.1666667E+00  0.1388889E-01
   1       -0.7060
   2       -0.7060
   3        1.8646
   4        1.8646
   5        4.4040
   6        4.4040
   7        6.8979
   8        6.8979
   9        9.4533
  10        9.4533
  11       11.8083
  12       11.8222
 
  0.4166667E+00  0.4166667E+00  0.1666667E+00  0.1388889E-01
   1       -0.8142
   2        0.4781
   3        0.4781
   4        1.7583
   5        4.2995
   6        5.5508
   7        5.5508
   8        6.7956
   9        9.3563
  10       10.5496
  11       10.5496
  12       11.7312
 
  0.5000000E+00  0.4166667E+00  0.1666667E+00  0.1388889E-01
   1       -0.2206
   2       -0.2206
   3        1.0665
   4        1.0665
   5        4.8737
   6        4.8737
   7        6.1225
   8        6.1225
   9        9.9085
  10        9.9085
  11       11.0965
  12       11.0965
 
  0.5000000E+00  0.5000000E+00  0.1666667E+00  0.3472222E-02
   1        0.3707
   2        0.3707
   3        0.3707
   4        0.3707
   5        5.4471
   6        5.4471
   7        5.4471
   8        5.4471
   9       10.4582
  10       10.4582
  11       10.4582
  12       10.4582
 
  0.2500000E+00  0.2500000E+00  0.2500000E+00  0.4629630E-02
   1       -2.2806
   2        1.5990
   3        1.5990
   4        1.5990
   5        5.3980
   6        5.3980
   7        5.3980
   8        9.1061
   9        9.2003
  10        9.2003
  11        9.2003
  12       12.1120
 
  0.3333333E+00  0.2500000E+00  0.2500000E+00  0.1388889E-01
   1       -1.8992
   2        0.6925
   3        1.9695
   4        1.9695
   5        4.5149
   6        4.5149
   7        5.7629
   8        8.2409
   9        9.5532
  10        9.5532
  11       10.7623
  12       11.8243
 
  0.4166667E+00  0.2500000E+00  0.2500000E+00  0.1388889E-01
   1       -1.4100
   2       -0.1127
   3        2.4410
   4        2.4410
   5        3.7345
   6        3.7345
   7        6.2308
   8        7.4714
   9        9.9991
  10        9.9991
  11       11.1875
  12       11.1875
 
  0.5000000E+00  0.2500000E+00  0.2500000E+00  0.6944444E-02
   1       -0.8142
   2       -0.8142
   3        2.9078
   4        2.9078
   5        3.1646
   6        3.1646
   7        6.8007
   8        6.8007
   9       10.4347
  10       10.4347
  11       10.6748
  12       10.6748
 
  0.3333333E+00  0.3333333E+00  0.2500000E+00  0.1388889E-01
   1       -1.5187
   2        1.0661
   3        1.0661
   4        2.3345
   5        3.6314
   6        4.8806
   7        4.8806
   8        7.3708
   9        9.9067
  10       11.1028
  11       11.1028
  12       12.1731
 
  0.4166667E+00  0.3333333E+00  0.2500000E+00  0.2777778E-01
   1       -1.0308
   2        0.2631
   3        1.5443
   4        2.6917
   5        2.9600
   6        4.0978
   7        5.3504
   8        6.5972
   9       10.3551
  10       11.4108
  11       11.6652
  12       12.5297
 
  0.5000000E+00  0.3333333E+00  0.2500000E+00  0.1388889E-01
   1       -0.4365
   2       -0.4365
   3        2.1229
   4        2.1229
   5        3.4207
   6        3.4207
   7        5.9231
   8        5.9231
   9       10.8898
  10       10.8898
  11       12.0823
  12       12.0823
 
  0.4166667E+00  0.4166667E+00  0.2500000E+00  0.1388889E-01
   1       -0.5445
   2        0.7449
   3        0.7449
   4        2.0165
   5        3.3159
   6        4.5685
   7        4.5685
   8        5.8201
   9       10.8031
  10       11.9474
  11       11.9474
  12       13.0931
 
  0.5000000E+00  0.4166667E+00  0.2500000E+00  0.1388889E-01
   1        0.0478
   2        0.0478
   3        1.3309
   4        1.3309
   5        3.8886
   6        3.8886
   7        5.1432
   8        5.1432
   9       11.3396
  10       11.3396
  11       12.4840
  12       12.4840
 
  0.5000000E+00  0.5000000E+00  0.2500000E+00  0.3472222E-02
   1        0.6376
   2        0.6376
   3        0.6376
   4        0.6376
   5        4.4642
   6        4.4642
   7        4.4642
   8        4.4642
   9       11.8749
  10       11.8749
  11       11.8749
  12       11.8749
 
  0.3333333E+00  0.3333333E+00  0.3333333E+00  0.4629630E-02
   1       -1.1393
   2        1.4374
   3        1.4374
   4        1.4374
   5        3.9948
   6        3.9948
   7        3.9948
   8        6.4959
   9       11.4510
  10       11.4510
  11       11.4510
  12       13.1196
 
  0.4166667E+00  0.3333333E+00  0.3333333E+00  0.1388889E-01
   1       -0.6527
   2        0.6375
   3        1.9092
   4        1.9092
   5        3.2131
   6        3.2131
   7        4.4658
   8        5.7183
   9       11.8800
  10       11.8800
  11       12.9533
  12       12.9593
 
  0.5000000E+00  0.3333333E+00  0.3333333E+00  0.6944444E-02
   1       -0.0600
   2       -0.0600
   3        2.3664
   4        2.3664
   5        2.6524
   6        2.6524
   7        5.0409
   8        5.0409
   9       12.2744
  10       12.2744
  11       12.5415
  12       12.5415
 
  0.4166667E+00  0.4166667E+00  0.3333333E+00  0.1388889E-01
   1       -0.1678
   2        1.1166
   3        1.1166
   4        2.2576
   5        2.5496
   6        3.6811
   7        3.6811
   8        4.9373
   9       12.3168
  10       13.2812
  11       13.2812
  12       13.5507
 
  0.5000000E+00  0.4166667E+00  0.3333333E+00  0.1388889E-01
   1        0.4226
   2        0.4226
   3        1.6955
   4        1.6955
   5        3.0033
   6        3.0033
   7        4.2574
   8        4.2574
   9       12.8192
  10       12.8192
  11       13.8636
  12       13.8736
 
  0.5000000E+00  0.5000000E+00  0.3333333E+00  0.3472222E-02
   1        1.0094
   2        1.0094
   3        1.0094
   4        1.0094
   5        3.5764
   6        3.5764
   7        3.5764
   8        3.5764
   9       13.3309
  10       13.3309
  11       13.3309
  12       13.3309
 
  0.4166667E+00  0.4166667E+00  0.4166667E+00  0.4629630E-02
   1        0.3150
   2        1.5883
   3        1.5883
   4        1.5883
   5        2.8988
   6        2.8988
   7        2.8988
   8        4.1533
   9       13.8459
  10       13.8459
  11       13.8459
  12       14.3910
 
  0.5000000E+00  0.4166667E+00  0.4166667E+00  0.6944444E-02
   1        0.9021
   2        0.9021
   3        2.0395
   4        2.0395
   5        2.3439
   6        2.3439
   7        3.4719
   8        3.4719
   9       14.1710
  10       14.1710
  11       14.4156
  12       14.4156
 
  0.5000000E+00  0.5000000E+00  0.4166667E+00  0.3472222E-02
   1        1.4811
   2        1.4811
   3        1.4811
   4        1.4811
   5        2.7939
   6        2.7939
   7        2.7939
   8        2.7939
   9       14.7170
  10       14.7170
  11       14.7170
  12       14.7170
 
  0.5000000E+00  0.5000000E+00  0.5000000E+00  0.5787037E-03
   1        1.9303
   2        1.9303
   3        1.9303
   4        1.9303
   5        2.2409
   6        2.2409
   7        2.2409
   8        2.2409
   9       15.5220
  10       15.5220
  11       15.5220
  12       15.5220
