   4   4   0   0
  0.1458314E+02  0.3878261E-09  0.3878261E-09  0.3878261E-09  0.5000000E-15
  1.000000000000000E-004
  CAR 
 unknown system                          
     22.78860781     -3.87709077  301      9.36449176      1.00000000
     -3.877  0.0000E+00  0.0000E+00
     -3.788  0.0000E+00  0.0000E+00
     -3.699  0.0000E+00  0.0000E+00
     -3.610  0.0000E+00  0.0000E+00
     -3.522  0.0000E+00  0.0000E+00
     -3.433  0.0000E+00  0.0000E+00
     -3.344  0.0000E+00  0.0000E+00
     -3.255  0.0000E+00  0.0000E+00
     -3.166  0.0000E+00  0.0000E+00
     -3.077  0.0000E+00  0.0000E+00
     -2.988  0.0000E+00  0.0000E+00
     -2.899  0.0000E+00  0.0000E+00
     -2.810  0.0000E+00  0.0000E+00
     -2.722  0.2945E-18  0.2618E-19
     -2.633  0.1724E-01  0.1532E-02
     -2.544  0.9765E-01  0.1115E-01
     -2.455  0.1495E+00  0.2639E-01
     -2.366  0.1941E+00  0.4406E-01
     -2.277  0.2308E+00  0.6551E-01
     -2.188  0.2467E+00  0.8953E-01
     -2.099  0.2917E+00  0.1164E+00
     -2.010  0.2840E+00  0.1444E+00
     -1.922  0.3024E+00  0.1730E+00
     -1.833  0.3493E+00  0.2085E+00
     -1.744  0.3231E+00  0.2407E+00
     -1.655  0.3626E+00  0.2784E+00
     -1.566  0.3147E+00  0.3117E+00
     -1.477  0.4036E+00  0.3550E+00
     -1.388  0.3714E+00  0.3925E+00
     -1.299  0.4212E+00  0.4369E+00
     -1.211  0.3479E+00  0.4765E+00
     -1.122  0.5228E+00  0.5243E+00
     -1.033  0.4805E+00  0.5704E+00
     -0.944  0.4920E+00  0.6183E+00
     -0.855  0.4860E+00  0.6665E+00
     -0.766  0.5591E+00  0.7211E+00
     -0.677  0.4958E+00  0.7678E+00
     -0.588  0.5815E+00  0.8251E+00
     -0.499  0.4742E+00  0.8731E+00
     -0.411  0.6421E+00  0.9351E+00
     -0.322  0.5392E+00  0.9863E+00
     -0.233  0.6188E+00  0.1043E+01
     -0.144  0.6145E+00  0.1101E+01
     -0.055  0.6943E+00  0.1165E+01
      0.034  0.6042E+00  0.1220E+01
      0.123  0.6984E+00  0.1286E+01
      0.212  0.6472E+00  0.1348E+01
      0.301  0.7116E+00  0.1412E+01
      0.389  0.6781E+00  0.1478E+01
      0.478  0.7176E+00  0.1543E+01
      0.567  0.6729E+00  0.1609E+01
      0.656  0.7353E+00  0.1676E+01
      0.745  0.7457E+00  0.1744E+01
      0.834  0.7882E+00  0.1817E+01
      0.923  0.6448E+00  0.1880E+01
      1.012  0.9014E+00  0.1961E+01
      1.101  0.6905E+00  0.2029E+01
      1.189  0.7653E+00  0.2104E+01
      1.278  0.6834E+00  0.2175E+01
      1.367  0.7851E+00  0.2251E+01
      1.456  0.8594E+00  0.2333E+01
      1.545  0.7611E+00  0.2406E+01
      1.634  0.7409E+00  0.2478E+01
      1.723  0.9627E+00  0.2567E+01
      1.812  0.7997E+00  0.2644E+01
      1.900  0.7666E+00  0.2724E+01
      1.989  0.6285E+00  0.2799E+01
      2.078  0.8449E+00  0.2892E+01
      2.167  0.7758E+00  0.2971E+01
      2.256  0.8353E+00  0.3060E+01
      2.345  0.7250E+00  0.3133E+01
      2.434  0.8711E+00  0.3226E+01
      2.523  0.9214E+00  0.3315E+01
      2.612  0.8794E+00  0.3405E+01
      2.700  0.8076E+00  0.3483E+01
      2.789  0.1032E+01  0.3583E+01
      2.878  0.9595E+00  0.3673E+01
      2.967  0.9116E+00  0.3761E+01
      3.056  0.7988E+00  0.3850E+01
      3.145  0.9368E+00  0.3946E+01
      3.234  0.9459E+00  0.4038E+01
      3.323  0.9946E+00  0.4139E+01
      3.412  0.8477E+00  0.4233E+01
      3.500  0.9069E+00  0.4324E+01
      3.589  0.9806E+00  0.4423E+01
      3.678  0.1125E+01  0.4530E+01
      3.767  0.9884E+00  0.4624E+01
      3.856  0.1012E+01  0.4723E+01
      3.945  0.8891E+00  0.4815E+01
      4.034  0.1185E+01  0.4931E+01
      4.123  0.9690E+00  0.5030E+01
      4.212  0.1091E+01  0.5137E+01
      4.300  0.1106E+01  0.5244E+01
      4.389  0.1003E+01  0.5345E+01
      4.478  0.1242E+01  0.5463E+01
      4.567  0.1006E+01  0.5562E+01
      4.656  0.1087E+01  0.5674E+01
      4.745  0.8730E+00  0.5761E+01
      4.834  0.1040E+01  0.5867E+01
      4.923  0.1090E+01  0.5975E+01
      5.011  0.1165E+01  0.6094E+01
      5.100  0.9088E+00  0.6186E+01
      5.189  0.1178E+01  0.6301E+01
      5.278  0.1156E+01  0.6413E+01
      5.367  0.1078E+01  0.6518E+01
      5.456  0.1126E+01  0.6632E+01
      5.545  0.1198E+01  0.6745E+01
      5.634  0.1043E+01  0.6857E+01
      5.723  0.1181E+01  0.6972E+01
      5.811  0.1141E+01  0.7087E+01
      5.900  0.1309E+01  0.7215E+01
      5.989  0.1154E+01  0.7328E+01
      6.078  0.1132E+01  0.7449E+01
      6.167  0.1438E+01  0.7581E+01
      6.256  0.1320E+01  0.7709E+01
      6.345  0.1259E+01  0.7839E+01
      6.434  0.1232E+01  0.7962E+01
      6.523  0.1245E+01  0.8086E+01
      6.611  0.1203E+01  0.8208E+01
      6.700  0.1340E+01  0.8342E+01
      6.789  0.1014E+01  0.8445E+01
      6.878  0.1379E+01  0.8582E+01
      6.967  0.1133E+01  0.8689E+01
      7.056  0.1178E+01  0.8805E+01
      7.145  0.1217E+01  0.8930E+01
      7.234  0.1166E+01  0.9044E+01
      7.323  0.1124E+01  0.9158E+01
      7.411  0.1144E+01  0.9264E+01
      7.500  0.1380E+01  0.9393E+01
      7.589  0.1196E+01  0.9506E+01
      7.678  0.1081E+01  0.9615E+01
      7.767  0.1343E+01  0.9744E+01
      7.856  0.1215E+01  0.9861E+01
      7.945  0.1254E+01  0.9986E+01
      8.034  0.1256E+01  0.1011E+02
      8.122  0.1354E+01  0.1025E+02
      8.211  0.1154E+01  0.1036E+02
      8.300  0.1449E+01  0.1050E+02
      8.389  0.1408E+01  0.1065E+02
      8.478  0.1423E+01  0.1079E+02
      8.567  0.1326E+01  0.1092E+02
      8.656  0.1213E+01  0.1104E+02
      8.745  0.1395E+01  0.1117E+02
      8.834  0.1285E+01  0.1130E+02
      8.922  0.1213E+01  0.1142E+02
      9.011  0.1001E+01  0.1153E+02
      9.100  0.1128E+01  0.1165E+02
      9.189  0.1124E+01  0.1176E+02
      9.278  0.1150E+01  0.1187E+02
      9.367  0.1342E+01  0.1200E+02
      9.456  0.1403E+01  0.1214E+02
      9.545  0.1340E+01  0.1227E+02
      9.634  0.1437E+01  0.1242E+02
      9.722  0.1367E+01  0.1256E+02
      9.811  0.1354E+01  0.1269E+02
      9.900  0.1370E+01  0.1283E+02
      9.989  0.1472E+01  0.1297E+02
     10.078  0.1548E+01  0.1313E+02
     10.167  0.1481E+01  0.1327E+02
     10.256  0.1182E+01  0.1338E+02
     10.345  0.1476E+01  0.1353E+02
     10.434  0.1312E+01  0.1367E+02
     10.522  0.1605E+01  0.1383E+02
     10.611  0.1240E+01  0.1395E+02
     10.700  0.1444E+01  0.1409E+02
     10.789  0.1296E+01  0.1423E+02
     10.878  0.1494E+01  0.1437E+02
     10.967  0.1280E+01  0.1450E+02
     11.056  0.1321E+01  0.1463E+02
     11.145  0.1538E+01  0.1478E+02
     11.233  0.1436E+01  0.1493E+02
     11.322  0.1352E+01  0.1506E+02
     11.411  0.1235E+01  0.1519E+02
     11.500  0.1142E+01  0.1531E+02
     11.589  0.1703E+01  0.1547E+02
     11.678  0.1629E+01  0.1563E+02
     11.767  0.1510E+01  0.1579E+02
     11.856  0.1234E+01  0.1591E+02
     11.945  0.1564E+01  0.1606E+02
     12.033  0.1285E+01  0.1619E+02
     12.122  0.1712E+01  0.1636E+02
     12.211  0.1439E+01  0.1650E+02
     12.300  0.1530E+01  0.1666E+02
     12.389  0.1465E+01  0.1680E+02
     12.478  0.1491E+01  0.1695E+02
     12.567  0.1487E+01  0.1710E+02
     12.656  0.1329E+01  0.1723E+02
     12.745  0.1820E+01  0.1741E+02
     12.833  0.1704E+01  0.1757E+02
     12.922  0.1357E+01  0.1771E+02
     13.011  0.1552E+01  0.1786E+02
     13.100  0.1508E+01  0.1802E+02
     13.189  0.1517E+01  0.1817E+02
     13.278  0.1682E+01  0.1833E+02
     13.367  0.1540E+01  0.1848E+02
     13.456  0.1665E+01  0.1864E+02
     13.544  0.1615E+01  0.1881E+02
     13.633  0.1481E+01  0.1895E+02
     13.722  0.1674E+01  0.1912E+02
     13.811  0.1715E+01  0.1928E+02
     13.900  0.1559E+01  0.1944E+02
     13.989  0.1597E+01  0.1959E+02
     14.078  0.1875E+01  0.1978E+02
     14.167  0.1481E+01  0.1992E+02
     14.256  0.1586E+01  0.2009E+02
     14.344  0.1811E+01  0.2026E+02
     14.433  0.1615E+01  0.2043E+02
     14.522  0.1382E+01  0.2057E+02
     14.611  0.1861E+01  0.2075E+02
     14.700  0.1932E+01  0.2093E+02
     14.789  0.1603E+01  0.2109E+02
     14.878  0.1791E+01  0.2126E+02
     14.967  0.1745E+01  0.2143E+02
     15.056  0.1677E+01  0.2160E+02
     15.144  0.1871E+01  0.2178E+02
     15.233  0.1652E+01  0.2195E+02
     15.322  0.1757E+01  0.2213E+02
     15.411  0.1832E+01  0.2231E+02
     15.500  0.2091E+01  0.2252E+02
     15.589  0.1736E+01  0.2270E+02
     15.678  0.1745E+01  0.2287E+02
     15.767  0.2344E+01  0.2310E+02
     15.856  0.1974E+01  0.2330E+02
     15.944  0.1639E+01  0.2346E+02
     16.033  0.2077E+01  0.2366E+02
     16.122  0.1958E+01  0.2385E+02
     16.211  0.1943E+01  0.2405E+02
     16.300  0.1963E+01  0.2423E+02
     16.389  0.2012E+01  0.2444E+02
     16.478  0.1637E+01  0.2460E+02
     16.567  0.1884E+01  0.2479E+02
     16.655  0.1778E+01  0.2497E+02
     16.744  0.1867E+01  0.2515E+02
     16.833  0.1810E+01  0.2533E+02
     16.922  0.1923E+01  0.2552E+02
     17.011  0.1726E+01  0.2570E+02
     17.100  0.1624E+01  0.2586E+02
     17.189  0.1931E+01  0.2605E+02
     17.278  0.1758E+01  0.2622E+02
     17.367  0.2035E+01  0.2642E+02
     17.455  0.1762E+01  0.2660E+02
     17.544  0.1655E+01  0.2677E+02
     17.633  0.1680E+01  0.2694E+02
     17.722  0.1889E+01  0.2713E+02
     17.811  0.1804E+01  0.2730E+02
     17.900  0.1659E+01  0.2747E+02
     17.989  0.1981E+01  0.2766E+02
     18.078  0.1656E+01  0.2782E+02
     18.167  0.1849E+01  0.2800E+02
     18.255  0.1739E+01  0.2817E+02
     18.344  0.1613E+01  0.2834E+02
     18.433  0.1675E+01  0.2850E+02
     18.522  0.1890E+01  0.2869E+02
     18.611  0.1699E+01  0.2886E+02
     18.700  0.1563E+01  0.2902E+02
     18.789  0.1706E+01  0.2918E+02
     18.878  0.1420E+01  0.2932E+02
     18.967  0.1900E+01  0.2950E+02
     19.055  0.1548E+01  0.2966E+02
     19.144  0.1539E+01  0.2981E+02
     19.233  0.1516E+01  0.2995E+02
     19.322  0.1397E+01  0.3009E+02
     19.411  0.1438E+01  0.3023E+02
     19.500  0.1224E+01  0.3036E+02
     19.589  0.1375E+01  0.3049E+02
     19.678  0.1202E+01  0.3061E+02
     19.766  0.1198E+01  0.3073E+02
     19.855  0.9484E+00  0.3082E+02
     19.944  0.1249E+01  0.3095E+02
     20.033  0.1014E+01  0.3104E+02
     20.122  0.8265E+00  0.3113E+02
     20.211  0.8603E+00  0.3121E+02
     20.300  0.9445E+00  0.3131E+02
     20.389  0.8943E+00  0.3139E+02
     20.478  0.8420E+00  0.3147E+02
     20.566  0.7621E+00  0.3155E+02
     20.655  0.6028E+00  0.3161E+02
     20.744  0.6275E+00  0.3168E+02
     20.833  0.6427E+00  0.3174E+02
     20.922  0.6437E+00  0.3180E+02
     21.011  0.4270E+00  0.3185E+02
     21.100  0.4909E+00  0.3189E+02
     21.189  0.3151E+00  0.3192E+02
     21.278  0.2939E+00  0.3195E+02
     21.366  0.1419E+00  0.3197E+02
     21.455  0.1909E+00  0.3199E+02
     21.544  0.5774E-01  0.3199E+02
     21.633  0.6944E-01  0.3200E+02
     21.722  0.0000E+00  0.3200E+02
     21.811  0.0000E+00  0.3200E+02
     21.900  0.0000E+00  0.3200E+02
     21.989  0.0000E+00  0.3200E+02
     22.078  0.0000E+00  0.3200E+02
     22.166  0.0000E+00  0.3200E+02
     22.255  0.0000E+00  0.3200E+02
     22.344  0.0000E+00  0.3200E+02
     22.433  0.0000E+00  0.3200E+02
     22.522  0.0000E+00  0.3200E+02
     22.611  0.0000E+00  0.3200E+02
     22.700  0.0000E+00  0.3200E+02
     22.789  0.0000E+00  0.3200E+02
