    4    4    1    1
  0.1458314E+02  0.3878261E-09  0.3878261E-09  0.3878261E-09  0.5000000E-15
  1.000000000000000E-004
  CAR 
 unknown system                          
   12 1330   16
 
  0.0000000E+00  0.0000000E+00  0.0000000E+00  0.2143347E-04
   1       -2.6650
   2        6.1286
   3        6.1286
   4        6.1286
   5        7.6995
   6        7.6995
   7        7.6995
   8       14.6325
   9       14.6325
  10       14.6325
  11       15.5588
  12       15.5588
  13       15.5588
  14       15.5588
  15       15.5588
  16       15.5588
 
  0.2777778E-01  0.0000000E+00  0.0000000E+00  0.1286008E-03
   1       -2.6574
   2        5.9810
   3        6.1354
   4        6.1354
   5        7.7065
   6        7.7065
   7        7.8598
   8       14.4204
   9       14.4204
  10       14.6400
  11       15.5060
  12       15.5060
  13       15.5650
  14       15.5650
  15       15.7850
  16       15.7850
 
  0.5555556E-01  0.0000000E+00  0.0000000E+00  0.1286008E-03
   1       -2.6347
   2        5.6438
   3        6.1559
   4        6.1559
   5        7.7275
   6        7.7275
   7        8.2353
   8       14.0199
   9       14.0199
  10       14.6625
  11       15.3566
  12       15.3566
  13       15.5838
  14       15.5838
  15       16.2277
  16       16.2277
 
  0.8333333E-01  0.0000000E+00  0.0000000E+00  0.1286008E-03
   1       -2.5967
   2        5.2378
   3        6.1900
   4        6.1900
   5        7.7624
   6        7.7624
   7        8.7050
   8       13.5862
   9       13.5862
  10       14.7000
  11       15.1323
  12       15.1323
  13       15.6150
  14       15.6150
  15       16.7317
  16       16.7317
 
  0.1111111E+00  0.0000000E+00  0.0000000E+00  0.1286008E-03
   1       -2.5436
   2        4.8113
   3        6.2379
   4        6.2379
   5        7.8111
   6        7.8111
   7        9.2208
   8       13.1515
   9       13.1515
  10       14.7526
  11       14.8563
  12       14.8563
  13       15.6588
  14       15.6588
  15       17.2649
  16       17.2649
 
  0.1388889E+00  0.0000000E+00  0.0000000E+00  0.1286008E-03
   1       -2.4754
   2        4.3820
   3        6.2994
   4        6.2994
   5        7.8734
   6        7.8734
   7        9.7649
   8       12.7243
   9       12.7243
  10       14.5481
  11       14.5481
  12       14.8201
  13       15.7150
  14       15.7150
  15       17.8185
  16       17.8185
 
  0.1666667E+00  0.0000000E+00  0.0000000E+00  0.1286008E-03
   1       -2.3921
   2        3.9573
   3        6.3746
   4        6.3746
   5        7.9489
   6        7.9489
   7       10.3299
   8       12.3079
   9       12.3079
  10       14.2216
  11       14.2216
  12       14.9025
  13       15.7838
  14       15.7838
  15       18.3894
  16       18.3894
 
  0.1944444E+00  0.0000000E+00  0.0000000E+00  0.1286008E-03
   1       -2.2937
   2        3.5407
   3        6.4635
   4        6.4635
   5        8.0374
   6        8.0374
   7       10.9121
   8       11.9036
   9       11.9036
  10       13.8867
  11       13.8867
  12       15.0000
  13       15.8651
  14       15.8651
  15       18.9760
  16       18.9760
 
  0.2222222E+00  0.0000000E+00  0.0000000E+00  0.1286008E-03
   1       -2.1802
   2        3.1344
   3        6.5661
   4        6.5661
   5        8.1383
   6        8.1383
   7       11.5095
   8       11.5122
   9       11.5122
  10       13.5503
  11       13.5503
  12       15.1123
  13       15.9590
  14       15.9590
  15       19.5775
  16       19.5775
 
  0.2500000E+00  0.0000000E+00  0.0000000E+00  0.1286008E-03
   1       -2.0517
   2        2.7393
   3        6.6824
   4        6.6824
   5        8.2508
   6        8.2508
   7       11.1341
   8       11.1341
   9       12.1210
  10       13.2174
  11       13.2174
  12       15.2396
  13       16.0653
  14       16.0653
  15       19.9708
  16       20.0975
 
  0.2777778E+00  0.0000000E+00  0.0000000E+00  0.1286008E-03
   1       -1.9083
   2        2.3563
   3        6.8124
   4        6.8124
   5        8.3741
   6        8.3741
   7       10.7695
   8       10.7695
   9       12.7456
  10       12.8921
  11       12.8921
  12       15.3817
  13       16.1843
  14       16.1843
  15       19.5957
  16       19.7733
 
  0.3055556E+00  0.0000000E+00  0.0000000E+00  0.1286008E-03
   1       -1.7500
   2        1.9859
   3        6.9562
   4        6.9562
   5        8.5065
   6        8.5065
   7       10.4186
   8       10.4186
   9       12.5779
  10       12.5779
  11       13.3829
  12       15.5387
  13       16.3157
  14       16.3157
  15       19.2349
  16       19.4600
 
  0.3333333E+00  0.0000000E+00  0.0000000E+00  0.1286008E-03
   1       -1.5769
   2        1.6285
   3        7.1137
   4        7.1137
   5        8.6461
   6        8.6461
   7       10.0813
   8       10.0813
   9       12.2786
  10       12.2786
  11       14.0324
  12       15.7104
  13       16.4597
  14       16.4597
  15       18.8850
  16       19.1574
 
  0.3611111E+00  0.0000000E+00  0.0000000E+00  0.1286008E-03
   1       -1.3889
   2        1.2844
   3        7.2850
   4        7.2850
   5        8.7898
   6        8.7898
   7        9.7579
   8        9.7579
   9       11.9984
  10       11.9984
  11       14.6935
  12       15.8969
  13       16.6163
  14       16.6163
  15       18.5465
  16       18.8660
 
  0.3888889E+00  0.0000000E+00  0.0000000E+00  0.1286008E-03
   1       -1.1863
   2        0.9538
   3        7.4701
   4        7.4701
   5        8.9325
   6        8.9325
   7        9.4483
   8        9.4483
   9       11.7429
  10       11.7429
  11       15.3660
  12       16.0980
  13       16.7854
  14       16.7854
  15       18.2203
  16       18.5861
 
  0.4166667E+00  0.0000000E+00  0.0000000E+00  0.1286008E-03
   1       -0.9690
   2        0.6368
   3        7.6690
   4        7.6690
   5        9.0669
   6        9.0669
   7        9.1526
   8        9.1526
   9       11.5203
  10       11.5203
  11       16.0494
  12       16.3137
  13       16.9670
  14       16.9670
  15       17.9069
  16       18.3181
 
  0.4444444E+00  0.0000000E+00  0.0000000E+00  0.1286008E-03
   1       -0.7372
   2        0.3338
   3        7.8816
   4        7.8816
   5        8.8707
   6        8.8707
   7        9.1815
   8        9.1815
   9       11.3425
  10       11.3425
  11       16.5439
  12       16.7432
  13       17.1612
  14       17.1612
  15       17.6067
  16       18.0621
 
  0.4722222E+00  0.0000000E+00  0.0000000E+00  0.1286008E-03
   1       -0.4909
   2        0.0447
   3        8.1081
   4        8.1081
   5        8.6026
   6        8.6026
   7        9.2610
   8        9.2610
   9       11.2249
  10       11.2249
  11       16.7885
  12       17.3201
  13       17.3678
  14       17.3678
  15       17.4468
  16       17.8183
 
  0.5000000E+00  0.0000000E+00  0.0000000E+00  0.6430041E-04
   1       -0.2302
   2       -0.2302
   3        8.3485
   4        8.3485
   5        8.3485
   6        8.3485
   7        9.2898
   8        9.2898
   9       11.1834
  10       11.1834
  11       17.0472
  12       17.0472
  13       17.5869
  14       17.5869
  15       17.5869
  16       17.5869
 
  0.2777778E-01  0.2777778E-01  0.0000000E+00  0.2572016E-03
   1       -2.6498
   2        5.9879
   3        5.9879
   4        6.1422
   5        7.7135
   6        7.8668
   7        7.8668
   8       14.2416
   9       14.4277
  10       14.4277
  11       15.5123
  12       15.5123
  13       15.5714
  14       15.7914
  15       15.7914
  16       15.8586
 
  0.5555556E-01  0.2777778E-01  0.0000000E+00  0.5144033E-03
   1       -2.6271
   2        5.6508
   3        6.0085
   4        6.1627
   5        7.7345
   6        7.8876
   7        8.2421
   8       13.8723
   9       14.0271
  10       14.4496
  11       15.3630
  12       15.4725
  13       15.5311
  14       15.8108
  15       16.2172
  16       16.2343
 
  0.8333333E-01  0.2777778E-01  0.0000000E+00  0.5144033E-03
   1       -2.5891
   2        5.2448
   3        6.0429
   4        6.1969
   5        7.7693
   6        7.9223
   7        8.7118
   8       13.4550
   9       13.5933
  10       14.4861
  11       15.1388
  12       15.2551
  13       15.5626
  14       15.8430
  15       16.6948
  16       16.7384
 
  0.1111111E+00  0.2777778E-01  0.0000000E+00  0.5144033E-03
   1       -2.5361
   2        4.8184
   3        6.0910
   4        6.2447
   5        7.8179
   6        7.9706
   7        9.2275
   8       13.0296
   9       13.1585
  10       14.5372
  11       14.8630
  12       14.9796
  13       15.6066
  14       15.8882
  15       17.2150
  16       17.2716
 
  0.1388889E+00  0.2777778E-01  0.0000000E+00  0.5144033E-03
   1       -2.4678
   2        4.3891
   3        6.1529
   4        6.3062
   5        7.8800
   6        8.0324
   7        9.7714
   8       12.6084
   9       12.7313
  10       14.5550
  11       14.6029
  12       14.6703
  13       15.6632
  14       15.9463
  15       17.7609
  16       17.8252
 
  0.1666667E+00  0.2777778E-01  0.0000000E+00  0.5144033E-03
   1       -2.3845
   2        3.9644
   3        6.2285
   4        6.3814
   5        7.9553
   6        8.1074
   7       10.3362
   8       12.1962
   9       12.3149
  10       14.2288
  11       14.3425
  12       14.6831
  13       15.7324
  14       16.0173
  15       18.3266
  16       18.3961
 
  0.1944444E+00  0.2777778E-01  0.0000000E+00  0.5144033E-03
   1       -2.2861
   2        3.5479
   3        6.3178
   4        6.4703
   5        8.0434
   6        8.1953
   7       10.9182
   8       11.7953
   9       11.9106
  10       13.8941
  11       14.0061
  12       14.7778
  13       15.8142
  14       16.1014
  15       18.9093
  16       18.9827
 
  0.2222222E+00  0.2777778E-01  0.0000000E+00  0.5144033E-03
   1       -2.1726
   2        3.1416
   3        6.4209
   4        6.5729
   5        8.1437
   6        8.2954
   7       11.4068
   8       11.5154
   9       11.5192
  10       13.5580
  11       13.6683
  12       14.8869
  13       15.9087
  14       16.1984
  15       19.5077
  16       19.5842
 
  0.2500000E+00  0.2777778E-01  0.0000000E+00  0.5144033E-03
   1       -2.0442
   2        2.7466
   3        6.5377
   4        6.6892
   5        8.2554
   6        8.4071
   7       11.0316
   8       11.1411
   9       12.1265
  10       13.2255
  11       13.3340
  12       15.0105
  13       16.0158
  14       16.3084
  15       19.5528
  16       20.0503
 
  0.2777778E+00  0.2777778E-01  0.0000000E+00  0.5144033E-03
   1       -1.9008
   2        2.3636
   3        6.6682
   4        6.8193
   5        8.3771
   6        8.5294
   7       10.6704
   8       10.7765
   9       12.7507
  10       12.9008
  11       13.0071
  12       15.1484
  13       16.1356
  14       16.4315
  15       19.1985
  16       19.7210
 
  0.3055556E+00  0.2777778E-01  0.0000000E+00  0.5144033E-03
   1       -1.7425
   2        1.9932
   3        6.8123
   4        6.9631
   5        8.5070
   6        8.6608
   7       10.3244
   8       10.4255
   9       12.5874
  10       12.6910
  11       13.3874
  12       15.3006
  13       16.2682
  14       16.5677
  15       18.8536
  16       19.4076
 
  0.3333333E+00  0.2777778E-01  0.0000000E+00  0.5144033E-03
   1       -1.5693
   2        1.6359
   3        6.9700
   4        7.1206
   5        8.6413
   6        8.7991
   7        9.9952
   8       10.0882
   9       12.2893
  10       12.3891
  11       14.0359
  12       15.4670
  13       16.4137
  14       16.7170
  15       18.5190
  16       19.1046
 
  0.3611111E+00  0.2777778E-01  0.0000000E+00  0.5144033E-03
   1       -1.3814
   2        1.2918
   3        7.1413
   4        7.2919
   5        8.7724
   6        8.9409
   7        9.6879
   8        9.7648
   9       12.0108
  10       12.1054
  11       14.6955
  12       15.6475
  13       16.5723
  14       16.8795
  15       18.1953
  16       18.8126
 
  0.3888889E+00  0.2777778E-01  0.0000000E+00  0.5144033E-03
   1       -1.1788
   2        0.9612
   3        7.3261
   4        7.4770
   5        8.8767
   6        9.0812
   7        9.4219
   8        9.4552
   9       11.7582
  10       11.8449
  11       15.3653
  12       15.8421
  13       16.7447
  14       17.0551
  15       17.8831
  16       18.5317
 
  0.4166667E+00  0.2777778E-01  0.0000000E+00  0.5144033E-03
   1       -0.9615
   2        0.6442
   3        7.5241
   4        7.6758
   5        8.8644
   6        9.1595
   7        9.2118
   8        9.2801
   9       11.5403
  10       11.6151
  11       16.0428
  12       16.0505
  13       16.9328
  14       17.2440
  15       17.5829
  16       18.2622
 
  0.4444444E+00  0.2777778E-01  0.0000000E+00  0.5144033E-03
   1       -0.7297
   2        0.3412
   3        7.7352
   4        7.8885
   5        8.6768
   6        8.8776
   7        9.3109
   8        9.3204
   9       11.3700
  10       11.4268
  11       16.2726
  12       16.7165
  13       17.1478
  14       17.2950
  15       17.4461
  16       18.0039
 
  0.4722222E+00  0.2777778E-01  0.0000000E+00  0.5144033E-03
   1       -0.4834
   2        0.0521
   3        7.9587
   4        8.1150
   5        8.4364
   6        8.6095
   7        9.3768
   8        9.3913
   9       11.2640
  10       11.2953
  11       16.5083
  12       17.0198
  13       17.2478
  14       17.5276
  15       17.6615
  16       17.7560
 
  0.5000000E+00  0.2777778E-01  0.0000000E+00  0.2572016E-03
   1       -0.2227
   2       -0.2227
   3        8.1934
   4        8.1934
   5        8.3553
   6        8.3553
   7        9.4105
   8        9.4105
   9       11.2376
  10       11.2376
  11       16.7575
  12       16.7575
  13       17.5147
  14       17.5147
  15       17.8901
  16       17.8901
 
  0.5555556E-01  0.5555556E-01  0.0000000E+00  0.2572016E-03
   1       -2.6043
   2        5.6716
   3        5.6716
   4        6.1832
   5        7.7553
   6        8.2626
   7        8.2626
   8       13.5412
   9       14.0485
  10       14.0485
  11       15.3822
  12       15.3822
  13       15.6094
  14       16.2541
  15       16.2541
  16       16.2956
 
  0.8333333E-01  0.5555556E-01  0.0000000E+00  0.5144033E-03
   1       -2.5664
   2        5.2659
   3        5.7064
   4        6.2174
   5        7.7899
   6        8.2968
   7        8.7320
   8       13.1475
   9       13.6145
  10       14.0842
  11       15.1584
  12       15.4141
  13       15.5102
  14       16.2871
  15       16.6236
  16       16.7584
 
  0.1111111E+00  0.5555556E-01  0.0000000E+00  0.5144033E-03
   1       -2.5133
   2        4.8396
   3        5.7550
   4        6.2652
   5        7.8381
   6        8.3444
   7        9.2473
   8       12.7369
   9       13.1796
  10       14.1342
  11       14.8832
  12       15.2677
  13       15.4589
  14       16.3334
  15       17.0886
  16       17.2917
 
  0.1388889E+00  0.5555556E-01  0.0000000E+00  0.5144033E-03
   1       -2.4451
   2        4.4104
   3        5.8175
   4        6.3267
   5        7.8997
   6        8.4053
   7        9.7908
   8       12.3257
   9       12.7523
  10       14.1984
  11       14.5757
  12       14.9686
  13       15.5164
  14       16.3929
  15       17.6078
  16       17.8454
 
  0.1666667E+00  0.5555556E-01  0.0000000E+00  0.5144033E-03
   1       -2.3618
   2        3.9859
   3        5.8938
   4        6.4020
   5        7.9742
   6        8.4792
   7       10.3551
   8       11.9209
   9       12.3358
  10       14.2502
  11       14.2769
  12       14.6437
  13       15.5868
  14       16.4657
  15       18.1576
  16       18.4163
 
  0.1944444E+00  0.5555556E-01  0.0000000E+00  0.5144033E-03
   1       -2.2634
   2        3.5695
   3        5.9840
   4        6.4909
   5        8.0612
   6        8.5656
   7       10.9365
   8       11.5262
   9       11.9315
  10       13.9163
  11       14.3078
  12       14.3695
  13       15.6701
  14       16.5517
  15       18.7295
  16       19.0029
 
  0.2222222E+00  0.5555556E-01  0.0000000E+00  0.5144033E-03
   1       -2.1500
   2        3.1632
   3        6.0879
   4        6.5935
   5        8.1597
   6        8.6641
   7       11.1435
   8       11.5328
   9       11.5400
  10       13.5812
  11       13.9690
  12       14.4763
  13       15.7663
  14       16.6509
  15       19.3199
  16       19.4578
 
  0.2500000E+00  0.5555556E-01  0.0000000E+00  0.5144033E-03
   1       -2.0215
   2        2.7683
   3        6.2056
   4        6.7098
   5        8.2685
   6        8.7738
   7       10.7749
   8       11.1619
   9       12.1429
  10       13.2500
  11       13.6331
  12       14.5973
  13       15.8756
  14       16.7635
  15       19.0918
  16       19.8965
 
  0.2777778E+00  0.5555556E-01  0.0000000E+00  0.5144033E-03
   1       -1.8782
   2        2.3854
   3        6.3370
   4        6.8398
   5        8.3852
   6        8.8936
   7       10.4224
   8       10.7972
   9       12.7657
  10       12.9271
  11       13.3039
  12       14.7324
  13       15.9980
  14       16.8894
  15       18.7358
  16       19.5736
 
  0.3055556E+00  0.5555556E-01  0.0000000E+00  0.5144033E-03
   1       -1.7199
   2        2.0151
   3        6.4820
   4        6.9836
   5        8.5057
   6        9.0217
   7       10.0898
   8       10.4463
   9       12.6162
  10       12.9845
  11       13.4003
  12       14.8815
  13       16.1339
  14       17.0286
  15       18.3905
  16       19.2599
 
  0.3333333E+00  0.5555556E-01  0.0000000E+00  0.5144033E-03
   1       -1.5468
   2        1.6578
   3        6.6405
   4        7.1411
   5        8.6204
   6        9.1556
   7        9.7855
   8       10.1090
   9       12.3218
  10       12.6781
  11       14.0457
  12       15.0445
  13       16.2839
  14       17.1811
  15       18.0566
  16       18.9560
 
  0.3611111E+00  0.5555556E-01  0.0000000E+00  0.5144033E-03
   1       -1.3589
   2        1.3138
   3        6.8124
   4        7.3125
   5        8.7046
   6        9.2912
   7        9.5322
   8        9.7855
   9       12.0491
  10       12.3878
  11       14.7004
  12       15.2215
  13       16.4490
  14       17.3470
  15       17.7345
  16       18.6623
 
  0.3888889E+00  0.5555556E-01  0.0000000E+00  0.5144033E-03
   1       -1.1563
   2        0.9833
   3        6.9975
   4        7.4975
   5        8.6984
   6        9.3868
   7        9.4219
   8        9.4759
   9       11.8058
  10       12.1176
  11       15.3609
  12       15.4124
  13       16.6322
  14       17.4246
  15       17.5261
  16       18.3791
 
  0.4166667E+00  0.5555556E-01  0.0000000E+00  0.5144033E-03
   1       -0.9391
   2        0.6664
   3        7.1955
   4        7.6964
   5        8.5568
   6        9.1801
   7        9.3891
   8        9.5373
   9       11.6030
  10       11.8731
  11       15.6170
  12       16.0173
  13       16.8432
  14       17.1272
  15       17.7186
  16       18.1063
 
  0.4444444E+00  0.5555556E-01  0.0000000E+00  0.5144033E-03
   1       -0.7073
   2        0.3634
   3        7.4060
   4        7.9091
   5        8.3387
   6        8.8982
   7        9.4724
   8        9.6222
   9       11.4571
  10       11.6630
  11       15.8352
  12       16.6252
  13       16.8426
  14       17.1257
  15       17.8432
  16       17.9243
 
  0.4722222E+00  0.5555556E-01  0.0000000E+00  0.5144033E-03
   1       -0.4610
   2        0.0744
   3        7.6281
   4        8.0997
   5        8.1356
   6        8.6302
   7        9.5682
   8        9.6593
   9       11.3864
  10       11.5003
  11       16.0670
  12       16.5709
  13       17.0510
  14       17.5876
  15       17.6129
  16       18.1433
 
  0.5000000E+00  0.5555556E-01  0.0000000E+00  0.2572016E-03
   1       -0.2004
   2       -0.2004
   3        7.8603
   4        7.8603
   5        8.3760
   6        8.3760
   7        9.6386
   8        9.6386
   9       11.4025
  10       11.4025
  11       16.3123
  12       16.3123
  13       17.3330
  14       17.3330
  15       18.2658
  16       18.2658
 
  0.8333333E-01  0.8333333E-01  0.0000000E+00  0.2572016E-03
   1       -2.5285
   2        5.3009
   3        5.3009
   4        6.2516
   5        7.8241
   6        8.7656
   7        8.7656
   8       12.7703
   9       13.6498
  10       13.6498
  11       15.1911
  12       15.1911
  13       15.6726
  14       16.6643
  15       16.7918
  16       16.7918
 
  0.1111111E+00  0.8333333E-01  0.0000000E+00  0.5144033E-03
   1       -2.4754
   2        4.8749
   3        5.3500
   4        6.2994
   5        7.8717
   6        8.8124
   7        9.2803
   8       12.3707
   9       13.2147
  10       13.6993
  11       14.9167
  12       15.2369
  13       15.5827
  14       16.8386
  15       16.9571
  16       17.3253
 
  0.1388889E+00  0.8333333E-01  0.0000000E+00  0.5144033E-03
   1       -2.4072
   2        4.4460
   3        5.4130
   4        6.3609
   5        7.9323
   6        8.8722
   7        9.8231
   8       11.9675
   9       12.7873
  10       13.7628
  11       14.6103
  12       15.2958
  13       15.3370
  14       16.8987
  15       17.4078
  16       17.8791
 
  0.1666667E+00  0.8333333E-01  0.0000000E+00  0.5144033E-03
   1       -2.3239
   2        4.0216
   3        5.4900
   4        6.4361
   5        8.0054
   6        8.9447
   7       10.3864
   8       11.5693
   9       12.3707
  10       13.8405
  11       14.2859
  12       15.0323
  13       15.3679
  14       16.9722
  15       17.9256
  16       18.4500
 
  0.1944444E+00  0.8333333E-01  0.0000000E+00  0.5144033E-03
   1       -2.2256
   2        3.6054
   3        5.5809
   4        6.5251
   5        8.0901
   6        9.0294
   7       10.9667
   8       11.1805
   9       11.9663
  10       13.9322
  11       13.9535
  12       14.7049
  13       15.4534
  14       17.0591
  15       18.4793
  16       19.0366
 
  0.2222222E+00  0.8333333E-01  0.0000000E+00  0.5144033E-03
   1       -2.1122
   2        3.1993
   3        5.6857
   4        6.6277
   5        8.1851
   6        9.1256
   7       10.8046
   8       11.5616
   9       11.5748
  10       13.6201
  11       14.0380
  12       14.3698
  13       15.5522
  14       17.1593
  15       19.0090
  16       19.0577
 
  0.2500000E+00  0.8333333E-01  0.0000000E+00  0.5144033E-03
   1       -1.9838
   2        2.8045
   3        5.8044
   4        6.7440
   5        8.2879
   6        9.2323
   7       10.4447
   8       11.1966
   9       12.1697
  10       13.2913
  11       14.0351
  12       14.1577
  13       15.6648
  14       17.2729
  15       18.6400
  16       19.6673
 
  0.2777778E+00  0.8333333E-01  0.0000000E+00  0.5144033E-03
   1       -1.8405
   2        2.4218
   3        5.9368
   4        6.8741
   5        8.3939
   6        9.3482
   7       10.1060
   8       10.8319
   9       12.7898
  10       12.9715
  11       13.7056
  12       14.2915
  13       15.7915
  14       17.4000
  15       18.2819
  16       19.3530
 
  0.3055556E+00  0.8333333E-01  0.0000000E+00  0.5144033E-03
   1       -1.6822
   2        2.0516
   3        6.0828
   4        7.0179
   5        8.4930
   6        9.4708
   7        9.7983
   8       10.4809
   9       12.6653
  10       13.3846
  11       13.4205
  12       14.4393
  13       15.9330
  14       17.5403
  15       17.9353
  16       19.0389
 
  0.3333333E+00  0.8333333E-01  0.0000000E+00  0.5144033E-03
   1       -1.5092
   2        1.6944
   3        6.2424
   4        7.1754
   5        8.5608
   6        9.5453
   7        9.5968
   8       10.1436
   9       12.3779
  10       13.0750
  11       14.0599
  12       14.6009
  13       16.0908
  14       17.6007
  15       17.6941
  16       18.7338
 
  0.3611111E+00  0.8333333E-01  0.0000000E+00  0.5144033E-03
   1       -1.3213
   2        1.3505
   3        6.4155
   4        7.3468
   5        8.5469
   6        9.3961
   7        9.7202
   8        9.8201
   9       12.1164
  10       12.7794
  11       14.7042
  12       14.7764
  13       16.2682
  14       17.2784
  15       17.8612
  16       18.4383
 
  0.3888889E+00  0.8333333E-01  0.0000000E+00  0.5144033E-03
   1       -1.1188
   2        1.0201
   3        6.6017
   4        7.5319
   5        8.4139
   6        9.3864
   7        9.5104
   8        9.8317
   9       11.8913
  10       12.5010
  11       14.9658
  12       15.3444
  13       16.4738
  14       16.9687
  15       18.0415
  16       18.1526
 
  0.4166667E+00  0.8333333E-01  0.0000000E+00  0.5144033E-03
   1       -0.9016
   2        0.7033
   3        6.8008
   4        7.7308
   5        8.2012
   6        9.2146
   7        9.4731
   8        9.9165
   9       11.7182
  10       12.2437
  11       15.1689
  12       15.9536
  13       16.6719
  14       16.7342
  15       17.8764
  16       18.2352
 
  0.4444444E+00  0.8333333E-01  0.0000000E+00  0.5144033E-03
   1       -0.6699
   2        0.4004
   3        7.0125
   4        7.9435
   5        7.9595
   6        8.9327
   7        9.6004
   8        9.9554
   9       11.6171
  10       12.0135
  11       15.3857
  12       16.3880
  13       16.4573
  14       17.1231
  15       17.6088
  16       18.4420
 
  0.4722222E+00  0.8333333E-01  0.0000000E+00  0.5144033E-03
   1       -0.4238
   2        0.1115
   3        7.2359
   4        7.7126
   5        8.1700
   6        8.6646
   7        9.7354
   8        9.9339
   9       11.6036
  10       11.8197
  11       15.6161
  12       16.1174
  13       16.8088
  14       17.3476
  15       17.6871
  16       18.6618
 
  0.5000000E+00  0.8333333E-01  0.0000000E+00  0.2572016E-03
   1       -0.1632
   2       -0.1632
   3        7.4700
   4        7.4700
   5        8.4104
   6        8.4104
   7        9.8543
   8        9.8543
   9       11.6766
  10       11.6766
  11       15.8600
  12       15.8600
  13       17.0869
  14       17.0869
  15       18.3466
  16       18.3466
 
  0.1111111E+00  0.1111111E+00  0.0000000E+00  0.2572016E-03
   1       -2.4224
   2        4.9243
   3        4.9243
   4        6.3473
   5        7.9182
   6        9.3262
   7        9.3262
   8       11.9790
   9       13.2639
  10       13.2639
  11       14.9638
  12       14.9638
  13       15.7612
  14       16.9660
  15       17.3723
  16       17.3723
 
  0.1388889E+00  0.1111111E+00  0.0000000E+00  0.5144033E-03
   1       -2.3542
   2        4.4957
   3        4.9878
   4        6.4088
   5        7.9773
   6        9.3847
   7        9.8679
   8       11.5820
   9       12.8363
  10       13.3270
  11       14.6588
  12       15.0244
  13       15.6835
  14       17.2369
  15       17.4327
  16       17.9262
 
  0.1666667E+00  0.1111111E+00  0.0000000E+00  0.5144033E-03
   1       -2.2710
   2        4.0716
   3        5.0654
   4        6.4840
   5        8.0480
   6        9.4555
   7       10.4299
   8       11.1894
   9       12.4195
  10       13.4042
  11       14.3362
  12       15.0987
  13       15.4439
  14       17.5066
  15       17.6804
  16       18.4972
 
  0.1944444E+00  0.1111111E+00  0.0000000E+00  0.5144033E-03
   1       -2.1727
   2        3.6556
   3        5.1570
   4        6.5730
   5        8.1289
   6        9.5380
   7       10.8069
   8       11.0084
   9       12.0150
  10       13.4954
  11       14.0059
  12       15.1428
  13       15.1869
  14       17.5939
  15       18.2003
  16       18.9535
 
  0.2222222E+00  0.1111111E+00  0.0000000E+00  0.5144033E-03
   1       -2.0593
   2        3.2498
   3        5.2625
   4        6.6756
   5        8.2175
   6        9.6312
   7       10.4393
   8       11.6010
   9       11.6234
  10       13.6006
  11       13.6752
  12       14.8200
  13       15.2893
  14       17.6946
  15       18.5708
  16       18.7603
 
  0.2500000E+00  0.1111111E+00  0.0000000E+00  0.5144033E-03
   1       -1.9310
   2        2.8552
   3        5.3820
   4        6.7919
   5        8.3090
   6        9.7339
   7       10.0927
   8       11.2452
   9       12.2061
  10       13.3500
  11       13.7198
  12       14.4913
  13       15.4063
  14       17.8087
  15       18.1992
  16       19.3468
 
  0.2777778E+00  0.1111111E+00  0.0000000E+00  0.5144033E-03
   1       -1.7877
   2        2.4727
   3        5.5153
   4        6.9220
   5        8.3929
   6        9.7780
   7        9.8440
   8       10.8804
   9       12.8218
  10       13.0354
  11       13.8529
  12       14.1646
  13       15.5390
  14       17.8393
  15       17.9362
  16       19.0827
 
  0.3055556E+00  0.1111111E+00  0.0000000E+00  0.5144033E-03
   1       -1.6295
   2        2.1027
   3        5.6624
   4        7.0658
   5        8.4455
   6        9.5191
   7        9.9583
   8       10.5293
   9       12.7369
  10       13.4458
  11       13.8444
  12       13.9999
  13       15.6889
  14       17.4914
  15       18.0770
  16       18.7680
 
  0.3333333E+00  0.1111111E+00  0.0000000E+00  0.5144033E-03
   1       -1.4565
   2        1.7457
   3        5.8232
   4        7.2234
   5        8.4209
   6        9.3615
   7       10.0714
   8       10.1920
   9       12.4615
  10       13.5338
  11       14.0742
  12       14.1608
  13       15.8596
  14       17.1560
  15       18.2312
  16       18.4618
 
  0.3611111E+00  0.1111111E+00  0.0000000E+00  0.5144033E-03
   1       -1.2688
   2        1.4019
   3        5.9974
   4        7.3948
   5        8.2848
   6        9.3388
   7        9.8684
   8       10.1744
   9       12.2194
  10       13.2354
  11       14.3355
  12       14.6986
  13       16.0588
  14       16.8332
  15       18.1646
  16       18.3987
 
  0.3888889E+00  0.1111111E+00  0.0000000E+00  0.5144033E-03
   1       -1.0663
   2        1.0716
   3        6.1850
   4        7.5799
   5        8.0688
   6        9.4182
   7        9.5588
   8       10.2528
   9       12.0261
  10       12.9517
  11       14.5241
  12       15.2983
  13       16.3071
  14       16.5233
  15       17.8767
  16       18.5795
 
  0.4166667E+00  0.1111111E+00  0.0000000E+00  0.5144033E-03
   1       -0.8493