 vasp.4.6.28 25Jul05 complex 
 executed on             LinuxIFC date 2016.09.01  17:30:05
 running on    4 nodes
 distr:  one band on    1 nodes,    4 groups


--------------------------------------------------------------------------------------------------------


 INCAR:
 POTCAR:   PAW_PBE Cu 05Jan2001                   
 POTCAR:   PAW_PBE Cu 05Jan2001                   
   VRHFIN =Cu: d10 p1                                                           
   LEXCH  = PE                                                                  
   EATOM  =  1390.9800 eV,  102.2341 Ry                                         
                                                                                
   TITEL  = PAW_PBE Cu 05Jan2001                                                
   LULTRA =        F    use ultrasoft PP ?                                      
   IUNSCR =        1    unscreen: 0-lin 1-nonlin 2-no                           
   RPACOR =    2.000    partial core radius                                     
   POMASS =   63.546; ZVAL   =   11.000    mass and valenz                      
   RCORE  =    2.300    outmost cutoff radius                                   
   RWIGS  =    2.480; RWIGS  =    1.312    wigner-seitz radius (au A)           
   ENMAX  =  273.214; ENMIN  =  204.910 eV                                      
   RCLOC  =    1.712    cutoff for local pot                                    
   LCOR   =        T    correct aug charges                                     
   LPAW   =        T    paw PP                                                  
   EAUG   =  516.456                                                            
   DEXC   =    -.008                                                            
   RMAX   =    2.789    core radius for proj-oper                               
   RAUG   =    1.300    factor for augmentation sphere                          
   RDEP   =    2.302    radius for radial grids                                 
   QCUT   =   -4.481; QGAM   =    8.962    optimization parameters              
                                                                                
   Description                                                                  
     l     E      TYP  RCUT    TYP  RCUT                                        
     2   .000     23  2.300                                                     
     2   .000     23  2.300                                                     
     0   .000     23  2.300                                                     
     0   .000     23  2.300                                                     
     1  -.200     23  2.300                                                     
     1   .000     23  2.300                                                     
     3   .000      7   .000                                                     
  local pseudopotential read in
  partial core-charges read in
  atomic valenz-charges read in
  non local Contribution for L=           2  read in
    real space projection operators read in
  non local Contribution for L=           2  read in
    real space projection operators read in
  non local Contribution for L=           0  read in
    real space projection operators read in
  non local Contribution for L=           0  read in
    real space projection operators read in
  non local Contribution for L=           1  read in
    real space projection operators read in
  non local Contribution for L=           1  read in
    real space projection operators read in
    PAW grid and wavefunctions read in
 
   number of l-projection  operators is LMAX  =           6
   number of lm-projection operators is LMMAX =          18
 

 ----------------------------------------------------------------------------- 
|                                                                             |
|  ADVICE TO THIS USER RUNNING 'VASP/VAMP'   (HEAR YOUR MASTER'S VOICE ...):  |
|                                                                             |
|      You have a (more or less) 'large supercell' and for larger cells       |
|      it might be more efficient to use real space projection operators      |
|      So try LREAL= Auto  in the INCAR   file.                               |
|      Mind: If you want to do an extremely accurate calculations keep the    |
|      reciprocal projection scheme          (i.e. LREAL=.FALSE.)             |
|                                                                             |
 ----------------------------------------------------------------------------- 

 PAW_PBE Cu 05Jan2001                   :
 energy of atom  1       EATOM=-1390.9800
 kinetic energy error for atom=    0.0395 (will be added to EATOM!!)
 
 EXHCAR: internal setup
 exchange correlation table for  LEXCH =        8
   RHO(1)=    0.500       N(1)  =     2000
   RHO(2)=  100.500       N(2)  =     4000
 
 POSCAR: No title                                
  positions in direct lattice
  No initial velocities read in
 


--------------------------------------------------------------------------------------------------------


 ion  position               nearest neighbor table
   1  0.667  0.667  0.333-   5 2.70   8 2.70   9 2.70  43 2.70  60 2.70  59 2.70   3 2.70  38 2.70
                             2 2.70  19 2.70  34 2.70 101 2.70
   2  0.667  0.833  0.500-   3 2.70   9 2.70  14 2.70  10 2.70  34 2.70  39 2.70   1 2.70   6 2.70
                            61 2.70  97 2.70  60 2.70  35 2.70
   3  0.833  0.667  0.500-   2 2.70   9 2.70  14 2.70  19 2.70   1 2.70  12 2.70  39 2.70  11 2.70
                            49 2.70  87 2.70  44 2.70  43 2.70
   4  0.667  0.667  0.000-  21 2.70  20 2.70  15 2.70  66 2.70  83 2.70   8 2.70   5 2.70  38 2.70
                            59 2.70 107 2.70  82 2.70  63 2.70
   5  0.667  0.833  0.167-   1 2.70   8 2.70   9 2.70  21 2.70  60 2.70  22 2.70  59 2.70   4 2.70
                             6 2.70  16 2.70  84 2.70  83 2.70
   6  0.667  0.000  0.333-  22 2.70  17 2.70   9 2.70  23 2.70  10 2.70  84 2.70   5 2.70  61 2.70
                             2 2.70  85 2.70  60 2.70   7 2.70
   7  0.667  0.167  0.500-  24 2.70  18 2.70  23 2.70  10 2.70  86 2.70  64 2.70  62 2.70  35 2.70
                           105 2.70  61 2.70  85 2.70   6 2.70
   8  0.833  0.667  0.167-   5 2.70   1 2.70   9 2.70  21 2.70  43 2.70  38 2.70  26 2.70  11 2.70
                             4 2.70  25 2.70  70 2.70  66 2.70
   9  0.833  0.833  0.333-   1 2.70   5 2.70   8 2.70   2 2.70   6 2.70   3 2.70  11 2.70  22 2.70
                            26 2.70  27 2.70  12 2.70  10 2.70
  10  0.833  0.000  0.500-   7 2.70  35 2.70   2 2.70   6 2.70  23 2.70  27 2.70  12 2.70  39 2.70
                            28 2.70  67 2.70  64 2.70   9 2.70
  11  0.000  0.667  0.333-  26 2.70   9 2.70  29 2.70   8 2.70  30 2.70  12 2.70  70 2.70  49 2.70
                             3 2.70  75 2.70  43 2.70  13 2.70
  12  0.000  0.833  0.500-  13 2.70  44 2.70   3 2.70  11 2.70  27 2.70  30 2.70  39 2.70  10 2.70
                            31 2.70   9 2.70  71 2.70  67 2.70
  13  0.167  0.667  0.500-  33 2.70  30 2.70  32 2.70  12 2.70  81 2.70  76 2.70  71 2.70  44 2.70
                           102 2.70  49 2.70  11 2.70  75 2.70
  14  0.667  0.667  0.667-  39 2.70  20 2.70  15 2.70   3 2.70   2 2.70  63 2.70  82 2.70  87 2.70
                            97 2.70 108 2.70  34 2.70  19 2.70
  15  0.667  0.833  0.833-  20 2.70  39 2.70  14 2.70  35 2.70   4 2.70  40 2.70  21 2.70  82 2.70
                            97 2.70  83 2.70  98 2.70  16 2.70
  16  0.667  0.000  0.000-  21 2.70  40 2.70  41 2.70  22 2.70   5 2.70  36 2.70  84 2.70  99 2.70
                            83 2.70  98 2.70  17 2.70  15 2.70
  17  0.667  0.167  0.167-  42 2.70  23 2.70  18 2.70   6 2.70  37 2.70  41 2.70  22 2.70  85 2.70
                           100 2.70  84 2.70  99 2.70  16 2.70
  18  0.667  0.333  0.333-  23 2.70  42 2.70  17 2.70  38 2.70   7 2.70  43 2.70  24 2.70  85 2.70
                           100 2.70  86 2.70 101 2.70  19 2.70
  19  0.667  0.500  0.500-  24 2.70  43 2.70   3 2.70  87 2.70   1 2.70  62 2.70  34 2.70 108 2.70
                            86 2.70 101 2.70  14 2.70  18 2.70
  20  0.833  0.667  0.833-  15 2.70  39 2.70  14 2.70   4 2.70  44 2.70  63 2.70  45 2.70  21 2.70
                            87 2.70  66 2.70  89 2.70  25 2.70
  21  0.833  0.833  0.000-  46 2.69   4 2.70   8 2.70  16 2.70  25 2.70   5 2.70  15 2.70  20 2.70
                            45 2.70  40 2.70  26 2.70  22 2.70
  22  0.833  0.000  0.167-  46 2.69   6 2.70  17 2.70   9 2.70   5 2.70  27 2.70  16 2.70  23 2.70
                            41 2.70  26 2.70  47 2.70  21 2.70
  23  0.833  0.167  0.333-  18 2.70  42 2.70  17 2.70   7 2.70  47 2.70   6 2.70  48 2.70  24 2.70
                            22 2.70  27 2.70  10 2.70  28 2.70
  24  0.833  0.333  0.500-   7 2.70  19 2.70  28 2.70  62 2.70  64 2.70  18 2.70  23 2.70  43 2.70
                            48 2.70  49 2.70  88 2.70  87 2.70
  25  0.000  0.667  0.000-  21 2.70  45 2.70  51 2.70  26 2.70  50 2.70   8 2.70  70 2.70  92 2.70
                            66 2.70  20 2.70  29 2.70  89 2.70
  26  0.000  0.833  0.167-  11 2.70   9 2.70  29 2.70   8 2.70  30 2.70  25 2.70  27 2.70  22 2.70
                            51 2.70  52 2.70  21 2.70  46 2.70
  27  0.000  0.000  0.333-  47 2.70  52 2.70  22 2.70  26 2.70  12 2.70  30 2.70  10 2.70  23 2.70
                             9 2.70  53 2.70  31 2.70  28 2.70
  28  0.000  0.167  0.500-  24 2.70  48 2.70  54 2.70  88 2.70  31 2.70  64 2.70  67 2.70  53 2.70
                            10 2.70  23 2.70  90 2.70  27 2.70
  29  0.167  0.667  0.167-  56 2.70  32 2.70  30 2.70  26 2.70  51 2.70  55 2.70  11 2.70  75 2.70
                            96 2.70  70 2.70  25 2.70  92 2.70
  30  0.167  0.833  0.333-  32 2.70  56 2.70  29 2.70  52 2.70  13 2.70  57 2.70  11 2.70  26 2.70
                            33 2.70  12 2.70  27 2.70  31 2.70
  31  0.167  0.000  0.500-  33 2.70  57 2.70  58 2.70  93 2.70  53 2.70  67 2.70  71 2.70  28 2.70
                            12 2.70  27 2.70  90 2.70  30 2.70
  32  0.333  0.667  0.333-  30 2.70  56 2.70  29 2.70  13 2.70  59 2.70  75 2.70  60 2.70  33 2.70
                            96 2.70  81 2.70 101 2.70  34 2.70
  33  0.333  0.833  0.500-  13 2.70  31 2.70  34 2.70  71 2.70  76 2.70  30 2.70  32 2.70  57 2.70
                            60 2.70  61 2.70  97 2.70  93 2.70
  34  0.500  0.667  0.500-  33 2.70  60 2.70   2 2.70  97 2.70  19 2.70  76 2.70   1 2.70 108 2.70
                            81 2.70  14 2.70  32 2.70 101 2.70
  35  0.667  0.000  0.667-  40 2.70  15 2.70  39 2.70  10 2.70  98 2.70  64 2.70  36 2.70   7 2.70
                           105 2.70  97 2.70  61 2.70   2 2.70
  36  0.667  0.167  0.833-  62 2.70  64 2.70  65 2.70  40 2.70 106 2.70 105 2.70  41 2.70  37 2.70
                            35 2.70  16 2.70  99 2.70  98 2.70
  37  0.667  0.333  0.000-  41 2.70  17 2.70  65 2.70  66 2.70  42 2.70  99 2.70  36 2.70  63 2.70
                           100 2.70 107 2.70 106 2.70  38 2.70
  38  0.667  0.500  0.167-  43 2.70  42 2.70  18 2.70  66 2.70 101 2.70   8 2.70   1 2.70   4 2.70
                            59 2.70 100 2.70 107 2.70  37 2.70
  39  0.833  0.833  0.667-  20 2.70  15 2.70  14 2.70  35 2.70  44 2.70   2 2.70  45 2.70   3 2.70
                            40 2.70  12 2.70  10 2.70  67 2.70
  40  0.833  0.000  0.833-  46 2.69  35 2.70  36 2.70  16 2.70  64 2.70  67 2.70  15 2.70  39 2.70
                            45 2.70  21 2.70  68 2.70  41 2.70
  41  0.833  0.167  0.000-  46 2.69  37 2.70  17 2.70  65 2.70  16 2.70  36 2.70  69 2.70  42 2.70
                            68 2.70  22 2.70  47 2.70  40 2.70
  42  0.833  0.333  0.167-  23 2.70  18 2.70  17 2.70  38 2.70  47 2.70  37 2.70  48 2.70  41 2.70
                            43 2.70  66 2.70  69 2.70  70 2.70
  43  0.833  0.500  0.333-  38 2.70   8 2.70  19 2.70   1 2.70  70 2.70  18 2.70  42 2.70  48 2.70
                            24 2.70  11 2.70  49 2.70   3 2.70
  44  0.000  0.667  0.667-  45 2.70  20 2.70  39 2.70  12 2.70  89 2.70  71 2.70  50 2.70  13 2.70
                           102 2.70  87 2.70   3 2.70  49 2.70
  45  0.000  0.833  0.833-  44 2.70  25 2.70  50 2.70  67 2.70  71 2.70  20 2.70  39 2.70  21 2.70
                            40 2.70  72 2.70  51 2.70  46 2.70
  46  0.998  0.000  0.000-  41 2.69  22 2.69  40 2.69  21 2.69  26 2.70  68 2.70  45 2.70  47 2.70
                            51 2.71  72 2.71  52 2.71  73 2.71
  47  0.000  0.167  0.167-  48 2.70  27 2.70  42 2.70  23 2.70  69 2.70  53 2.70  74 2.70  73 2.70
                            52 2.70  22 2.70  41 2.70  46 2.70
  48  0.000  0.333  0.333-  47 2.70  28 2.70  53 2.70  70 2.70  74 2.70  23 2.70  42 2.70  24 2.70
                            43 2.70  75 2.70  54 2.70  49 2.70
  49  0.000  0.500  0.500-   3 2.70  11 2.70  54 2.70  75 2.70  87 2.70  88 2.70  13 2.70  24 2.70
                            43 2.70 102 2.70  48 2.70  44 2.70
  50  0.167  0.667  0.833-  71 2.70  76 2.70  77 2.70  45 2.70 104 2.70  44 2.70  55 2.70 102 2.70
                            51 2.70  25 2.70  92 2.70  89 2.70
  51  0.167  0.833  0.000-  55 2.70  29 2.70  77 2.70  78 2.70  25 2.70  56 2.70  50 2.70  26 2.70
                            72 2.70  45 2.70  52 2.70  46 2.71
  52  0.167  0.000  0.167-  57 2.70  30 2.70  56 2.70  27 2.70  78 2.70  79 2.70  53 2.70  47 2.70
                            73 2.70  26 2.70  51 2.70  46 2.71
  53  0.167  0.167  0.333-  74 2.70  79 2.70  80 2.70  57 2.70  48 2.70  58 2.70  47 2.70  54 2.70
                            52 2.70  31 2.70  28 2.70  27 2.70
  54  0.167  0.333  0.500-  58 2.70  80 2.70  90 2.70  81 2.70  28 2.70 103 2.70  53 2.70  88 2.70
                            49 2.70  75 2.70  48 2.70 102 2.70
  55  0.333  0.667  0.000-  51 2.70  29 2.70  77 2.70  92 2.70  83 2.70  50 2.70  56 2.70  82 2.70
                            96 2.70 107 2.70  59 2.70 104 2.70
  56  0.333  0.833  0.167-  32 2.70  30 2.70  29 2.70  52 2.70  59 2.70  51 2.70  60 2.70  55 2.70
                            57 2.70  78 2.70  83 2.70  84 2.70
  57  0.333  0.000  0.333-  52 2.70  31 2.70  53 2.70  79 2.70  84 2.70  30 2.70  56 2.70  33 2.70
                            60 2.70  85 2.70  61 2.70  58 2.70
  58  0.333  0.167  0.500-  54 2.70  80 2.70  90 2.70  31 2.70  86 2.70  53 2.70 103 2.70  85 2.70
                            93 2.70  61 2.70 105 2.70  57 2.70
  59  0.500  0.667  0.167-  60 2.70  56 2.70  32 2.70  83 2.70 101 2.70   5 2.70   1 2.70   4 2.70
                            38 2.70  96 2.70  55 2.70 107 2.70
  60  0.500  0.833  0.333-  59 2.70   5 2.70  34 2.70   1 2.70  84 2.70  32 2.70  56 2.70  33 2.70
                            57 2.70   6 2.70   2 2.70  61 2.70
  61  0.500  0.000  0.500-   2 2.70   6 2.70  58 2.70  85 2.70  93 2.70  97 2.70   7 2.70  33 2.70
                            35 2.70  57 2.70  60 2.70 105 2.70
  62  0.667  0.333  0.667-  36 2.70  64 2.70  65 2.70  24 2.70 106 2.70  87 2.70 105 2.70  63 2.70
                             7 2.70  19 2.70 108 2.70  86 2.70
  63  0.667  0.500  0.833-  87 2.70  65 2.70  14 2.70  20 2.70  66 2.70 108 2.70  62 2.70  37 2.70
                           107 2.70  82 2.70 106 2.70   4 2.70
  64  0.833  0.167  0.667-  62 2.70  36 2.70  65 2.70  24 2.70  40 2.70  35 2.70   7 2.70  68 2.70
                            88 2.70  28 2.70  67 2.70  10 2.70
  65  0.833  0.333  0.833-  36 2.70  62 2.70  64 2.70  37 2.70  63 2.70  41 2.70  68 2.70  87 2.70
                            88 2.70  89 2.70  69 2.70  66 2.70
  66  0.833  0.500  0.000-   4 2.70  38 2.70  37 2.70  63 2.70  42 2.70  20 2.70  69 2.70  89 2.70
                            25 2.70  70 2.70  65 2.70   8 2.70
  67  0.000  0.000  0.667-  40 2.70  45 2.70  72 2.70  68 2.70  64 2.70  28 2.70  71 2.70  31 2.70
                            39 2.70  90 2.70  10 2.70  12 2.70
  68  0.000  0.167  0.833-  88 2.70  65 2.70  90 2.70  64 2.70  91 2.70  69 2.70  67 2.70  72 2.70
                            41 2.70  40 2.70  73 2.70  46 2.70
  69  0.000  0.333  0.000-  47 2.70  73 2.70  41 2.70  68 2.70  42 2.70  66 2.70  89 2.70  91 2.70
                            92 2.70  74 2.70  65 2.70  70 2.70
  70  0.000  0.500  0.167-  43 2.70  48 2.70  75 2.70  11 2.70  25 2.70  74 2.70   8 2.70  92 2.70
                            42 2.70  29 2.70  66 2.70  69 2.70
  71  0.167  0.833  0.667-  50 2.70  76 2.70  77 2.70  45 2.70  33 2.70  93 2.70  44 2.70  72 2.70
                            13 2.70  31 2.70  67 2.70  12 2.70
  72  0.167  0.000  0.833-  93 2.70  90 2.70  77 2.70  94 2.70  78 2.70  67 2.70  71 2.70  51 2.70
                            68 2.70  45 2.70  73 2.70  46 2.71
  73  0.167  0.167  0.000-  95 2.70  78 2.70  91 2.70  94 2.70  69 2.70  79 2.70  74 2.70  52 2.70
                            47 2.70  68 2.70  72 2.70  46 2.71
  74  0.167  0.333  0.167-  53 2.70  79 2.70  80 2.70  48 2.70  95 2.70  96 2.70  47 2.70  73 2.70
                            75 2.70  70 2.70  92 2.70  69 2.70
  75  0.167  0.500  0.333-  96 2.70  80 2.70  29 2.70  32 2.70  81 2.70  70 2.70  74 2.70  54 2.70
                            11 2.70  49 2.70  48 2.70  13 2.70
  76  0.333  0.667  0.667-  71 2.70  50 2.70  77 2.70  33 2.70 104 2.70 102 2.70  97 2.70  13 2.70
                            82 2.70  34 2.70 108 2.70  81 2.70
  77  0.333  0.833  0.833-  50 2.70  71 2.70  76 2.70  51 2.70  72 2.70  55 2.70  82 2.70  93 2.70
                            97 2.70  98 2.70  83 2.70  78 2.70
  78  0.333  0.000  0.000-  52 2.70  73 2.70  51 2.70  72 2.70  56 2.70  83 2.70  94 2.70  98 2.70
                            99 2.70  84 2.70  79 2.70  77 2.70
  79  0.333  0.167  0.167-  74 2.70  53 2.70  80 2.70  57 2.70  95 2.70  52 2.70  85 2.70  73 2.70
                           100 2.70  99 2.70  84 2.70  78 2.70
  80  0.333  0.333  0.333-  53 2.70  74 2.70  79 2.70  54 2.70  75 2.70  58 2.70  85 2.70  96 2.70
                           100 2.70 101 2.70  86 2.70  81 2.70
  81  0.333  0.500  0.500-  13 2.70 102 2.70  54 2.70  75 2.70  86 2.70 101 2.70  32 2.70 103 2.70
                            34 2.70 108 2.70  80 2.70  76 2.70
  82  0.500  0.667  0.833-  97 2.70  77 2.70  14 2.70  15 2.70  76 2.70  83 2.70 108 2.70  63 2.70
                           107 2.70  55 2.70 104 2.70   4 2.70
  83  0.500  0.833  0.000-   4 2.70  59 2.70  55 2.70  82 2.70  15 2.70  78 2.70  56 2.70  98 2.70
                            16 2.70  77 2.70   5 2.70  84 2.70
  84  0.500  0.000  0.167-  57 2.70  60 2.70   6 2.70  85 2.70  16 2.70  79 2.70   5 2.70  99 2.70
                            56 2.70  17 2.70  78 2.70  83 2.70
  85  0.500  0.167  0.333- 100 2.70  80 2.70  17 2.70  18 2.70  79 2.70  86 2.70  84 2.70  61 2.70
                             6 2.70  58 2.70  57 2.70   7 2.70
  86  0.500  0.333  0.500-   7 2.70 105 2.70  58 2.70  85 2.70  18 2.70 101 2.70 103 2.70  81 2.70
                            19 2.70  80 2.70  62 2.70 108 2.70
  87  0.833  0.500  0.667-  63 2.70  14 2.70  65 2.70  62 2.70  19 2.70  89 2.70  20 2.70   3 2.70
                            88 2.70  49 2.70  44 2.70  24 2.70
  88  0.000  0.333  0.667-  68 2.70  65 2.70  90 2.70  64 2.70  91 2.70  28 2.70  89 2.70  54 2.70
                            49 2.70  87 2.70 102 2.70  24 2.70
  89  0.000  0.500  0.833-  44 2.70 102 2.70  87 2.70  88 2.70  20 2.70  66 2.70  91 2.70  69 2.70
                            50 2.70  65 2.70  92 2.70  25 2.70
  90  0.167  0.167  0.667- 103 2.70  94 2.70  91 2.70  72 2.70  88 2.70  54 2.70  93 2.70  58 2.70
                            68 2.70  67 2.70  28 2.70  31 2.70
  91  0.167  0.333  0.833-  94 2.70 103 2.70  90 2.70 102 2.70  73 2.70 104 2.70  68 2.70  88 2.70
                            95 2.70  69 2.70  89 2.70  92 2.70
  92  0.167  0.500  0.000-  95 2.70 104 2.70  55 2.70  96 2.70  74 2.70  50 2.70  25 2.70  70 2.70
                            69 2.70  89 2.70  91 2.70  29 2.70
  93  0.333  0.000  0.667-  72 2.70  77 2.70  90 2.70  71 2.70  31 2.70  98 2.70  94 2.70  58 2.70
                            97 2.70  61 2.70 105 2.70  33 2.70
  94  0.333  0.167  0.833-  91 2.70 103 2.70  90 2.70  73 2.70 105 2.70  72 2.70 106 2.70  95 2.70
                            93 2.70  98 2.70  78 2.70  99 2.70
  95  0.333  0.333  0.000-  73 2.70  74 2.70  79 2.70  92 2.70  99 2.70  91 2.70  94 2.70 104 2.70
                           106 2.70 107 2.70 100 2.70  96 2.70
  96  0.333  0.500  0.167-  75 2.70  29 2.70  80 2.70  74 2.70  92 2.70 101 2.70  32 2.70 100 2.70
                            55 2.70 107 2.70  59 2.70  95 2.70
  97  0.500  0.833  0.667-  82 2.70  77 2.70  14 2.70  15 2.70  76 2.70  34 2.70  98 2.70   2 2.70
                            93 2.70  61 2.70  35 2.70  33 2.70
  98  0.500  0.000  0.833-  35 2.70 105 2.70  93 2.70  97 2.70  15 2.70  94 2.70  78 2.70  83 2.70
                            36 2.70  77 2.70  16 2.70  99 2.70
  99  0.500  0.167  0.000-  95 2.70 106 2.70  37 2.70 100 2.70  84 2.70  36 2.70  16 2.70  79 2.70
                            78 2.70  94 2.70  17 2.70  98 2.70
 100  0.500  0.333  0.167-  85 2.70  80 2.70  17 2.70  18 2.70  79 2.70  99 2.70 101 2.70  37 2.70
                            96 2.70 107 2.70  38 2.70  95 2.70
 101  0.500  0.500  0.333-  38 2.70  59 2.70  96 2.70 100 2.70  81 2.70  86 2.70  18 2.70  32 2.70
                             1 2.70  80 2.70  19 2.70  34 2.70
 102  0.167  0.500  0.667- 104 2.70  89 2.70  91 2.70 103 2.70  81 2.70  76 2.70  50 2.70  44 2.70
                            13 2.70  88 2.70  49 2.70  54 2.70
 103  0.333  0.333  0.667-  94 2.70  91 2.70  90 2.70 102 2.70 105 2.70  54 2.70 106 2.70  58 2.70
                           104 2.70  86 2.70  81 2.70 108 2.70
 104  0.333  0.500  0.833- 102 2.70  76 2.70  92 2.70  50 2.70 108 2.70  91 2.70 103 2.70 106 2.70
                            95 2.70  82 2.70 107 2.70  55 2.70
 105  0.500  0.167  0.667- 106 2.70  94 2.70  98 2.70 103 2.70  86 2.70  62 2.70  36 2.70  35 2.70
                             7 2.70  93 2.70  58 2.70  61 2.70
 106  0.500  0.333  0.833- 105 2.70  62 2.70  99 2.70  36 2.70 108 2.70  94 2.70 103 2.70  95 2.70
                           104 2.70  63 2.70  37 2.70 107 2.70
 107  0.500  0.500  0.000-  37 2.70  55 2.70  63 2.70  82 2.70  96 2.70 100 2.70   4 2.70  95 2.70
                            38 2.70 104 2.70  59 2.70 106 2.70
 108  0.500  0.500  0.667- 104 2.70 106 2.70  63 2.70  82 2.70  76 2.70  34 2.70  62 2.70  19 2.70
                            14 2.70 103 2.70  81 2.70  86 2.70
 
  LATTYP: Found a simple cubic cell.
 ALAT       =    11.4556630600
  
  Lattice vectors:
  
 A1 = (  11.4556630600,   0.0000000000,   0.0000000000)
 A2 = (   0.0000002100,  11.4556630600,   0.0000000000)
 A3 = (   0.0000002100,   0.0000002100,  11.4556630600)
 Subroutine PRICEL returns:
 Original cell was already a primitive cell.
 

Analysis of symmetry for initial positions (statically):

 Routine SETGRP: Setting up the symmetry group for a 
 simple cubic supercell.


 Subroutine GETGRP returns: Found  8 space group operations
 (whereof  8 operations were pure point group operations)
 out of a pool of 48 trial point group operations.


The static configuration has the point symmetry C_4v.

Analysis of symmetry for dynamics (positions and initial velocities):

 Subroutine DYNSYM returns: Found  8 space group operations
 (whereof  8 operations were pure point group operations)
 out of a pool of  8 trial space group operations
 (whereof  8 operations were pure point group operations)
 and found also     1 'primitive' translations


The dynamic configuration has the point symmetry C_4v.
 
 
 KPOINTS: Automatic mesh                          

Automatic generation of k-mesh.
 
 Subroutine IBZKPT returns following result:
 ===========================================
 
 Found      1 irreducible k-points:
 
 Following reciprocal coordinates:
            Coordinates               Weight
  0.250000  0.250000  0.250000      8.000000
 
 Following cartesian coordinates:
            Coordinates               Weight
  0.021823  0.021823  0.021823      8.000000
 


--------------------------------------------------------------------------------------------------------




 Dimension of arrays:
   k-Points           NKPTS =      1   number of bands    NBANDS=    712
   number of dos      NEDOS =    301   number of ions     NIONS =    108
   non local maximal  LDIM  =      6   non local SUM 2l+1 LMDIM =     18
   total plane-waves  NPLWV = 110592
   max r-space proj   IRMAX =      1   max aug-charges    IRDMAX=   2781
   dimension x,y,z NGX =    48 NGY =   48 NGZ =   48
   dimension x,y,z NGXF=    96 NGYF=   96 NGZF=   96
   support grid    NGXF=    96 NGYF=   96 NGZF=   96
   ions per type =             108
 NGX,Y,Z   is equivalent  to a cutoff of   6.97,  6.97,  6.97 a.u.
 NGXF,Y,Z  is equivalent  to a cutoff of  13.93, 13.93, 13.93 a.u.


 I would recommend the setting:
   dimension x,y,z NGX =    46 NGY =   46 NGZ =   46
 SYSTEM =  No title                                
 POSCAR =  No title                                

 Startparameter for this run:
   NWRITE =      2    write-flag & timer
   PREC   = normal    medium, high low
   ISTART =      1    job   : 0-new  1-cont  2-samecut
   ICHARG =      0    charge: 1-file 2-atom 10-const
   ISPIN  =      1    spin polarized calculation?
   LNONCOLLINEAR =      F non collinear calculations
   LSORBIT =      F    spin-orbit coupling
   INIWAV =      1    electr: 0-lowe 1-rand  2-diag
   LASPH  =      F    aspherical Exc in radial PAW
   METAGGA=      F    non-selfconsistent MetaGGA calc.

 Electronic Relaxation 1
   ENCUT  =  273.2 eV  20.08 Ry    4.48 a.u.  15.44 15.44 15.44*2*pi/ulx,y,z
   ENINI  =  273.2     initial cutoff
   ENAUG  =  516.5 eV  augmentation charge cutoff
   NELM   =     60;   NELMIN=  2; NELMDL=  0     # of ELM steps 
   EDIFF  = 0.1E-04   stopping-criterion for ELM
   LREAL  =      F    real-space projection
   LCOMPAT=      F    compatible to vasp.4.4
   LREAL_COMPAT= F    compatible to vasp.4.5.1-3
   GGA_COMPAT  = T    GGA compatible to vasp.4.4-vasp.4.6
   LMAXPAW     = -100 max onsite density
   LMAXMIX     =    2 max onsite mixed and CHGCAR
   VOSKOWN=      1    Vosko Wilk Nusair interpolation
   ROPT   =    0.00000
 Ionic relaxation
   EDIFFG = -.2E-01   stopping-criterion for IOM
   NSW    =      0    number of steps for IOM
   NBLOCK =      1;   KBLOCK =      1    inner block; outer block 
   IBRION =     -1    ionic relax: 0-MD 1-quasi-New 2-CG
   NFREE  =      0    steps in history (QN), initial steepest desc. (CG)
   ISIF   =      2    stress and relaxation
   IWAVPR =     10    prediction:  0-non 1-charg 2-wave 3-comb
   ISYM   =      2    0-nonsym 1-usesym 2-fastsym
   LCORR  =      T    Harris-Foulkes like correction to forces

   POTIM  =   0.50    time-step for ionic-motion
   TEIN   =    0.0    initial temperature
   TEBEG  =    0.0;   TEEND  =   0.0 temperature during run
   SMASS  =  -3.00    Nose mass-parameter (am)
   estimated Nose-frequenzy (Omega)   =  0.10E-29 period in steps =****** mass=  -0.300E-26a.u.
   NPACO  =    256;   APACO  = 16.0  distance and # of slots for P.C.
   PSTRESS=    0.0 pullay stress

  Mass of Ions in am
   POMASS =  63.55
  Ionic Valenz
   ZVAL   =  11.00
  Atomic Wigner-Seitz radii
   RWIGS  =   1.17
   NELECT =    1188.0000    total number of electrons
   NUPDOWN=      -1.0000    fix difference up-down

 DOS related values:
   EMIN   =  10.00;   EMAX   =-10.00  energy-range for DOS
   ISMEAR =     1;   SIGMA  =   0.20  broadening in eV -4-tet -1-fermi 0-gaus

 Electronic relaxation 2 (details)
   IALGO  =     38    algorithm
   LDIAG  =      T    sub-space diagonalisation
   IMIX   =      4    mixing-type and parameters
     AMIX     =   0.40;   BMIX     =  1.00
     AMIX_MAG =   1.60;   BMIX_MAG =  1.00
     AMIN     =   0.10
     WC   =   100.;   INIMIX=   1;  MIXPRE=   1

 Intra band minimization:
   WEIMIN = 0.0000     energy-eigenvalue tresh-hold
   EBREAK =  0.35E-08  absolut break condition
   DEPER  =   0.30     relativ break condition  

   TIME   =   0.10     timestep for ELM

  volume/ion in A,a.u.               =      13.92        93.94
  Fermi-wavevector in a.u.,eV,Ry     =   1.513538 31.168201  2.290798

 Second variation
   LSECVAR=     F    do a second variation
 
 Write flags
   LWAVE  =      F    write WAVECAR
   LCHARG =      F    write CHGCAR
   LVTOT  =      F    write LOCPOT, local potential
   LELF   =      F    write electronic localiz. function (ELF)
   LORBIT =      0    0 simple, 1 ext, 2 COOP (PROOUT)


 Dipole corrections
   IDIPOL =      0    1-x, 2-y, 3-z
   LDIPOL =      F    correct potential



--------------------------------------------------------------------------------------------------------


 Static calculation
 charge density will be updated during run
 non-spin polarized calculation
 Variant of blocked Davidson
 Davidson routine will perform the subspace rotation
 performe sub-space diagonalisation
    after iterative eigenvector-optimisation
 modified Broyden-mixing scheme, WC =      100.0
 initial mixing is a Kerker type mixing with AMIX =  0.4000 and BMIX =      1.0000
 Hartree-type preconditioning will be used
 using additional bands          118
 reciprocal scheme for non local part
 use partial core corrections
 calculate Harris-corrections to forces 
   (improved forces if not selfconsistent)
 use gradient corrections 
 use of overlap-Matrix (Vanderbilt PP)
 Methfessel and Paxton  Order N= 1 SIGMA  =   0.20


--------------------------------------------------------------------------------------------------------


  energy-cutoff  :      273.21
  volume of cell :     1503.35
      direct lattice vectors                 reciprocal lattice vectors
    11.455663060  0.000000000  0.000000000     0.087293070 -0.000000002 -0.000000002
     0.000000210 11.455663060  0.000000000     0.000000000  0.087293070 -0.000000002
     0.000000210  0.000000210 11.455663060     0.000000000  0.000000000  0.087293070

  length of vectors
    11.455663060 11.455663060 11.455663060     0.087293070  0.087293070  0.087293070


 
 old parameters found on file WAVECAR:
  energy-cutoff  :      273.21
  volume of cell :     1503.35
      direct lattice vectors                 reciprocal lattice vectors
    11.455663060  0.000000000  0.000000000     0.087293070 -0.000000002 -0.000000002
     0.000000210 11.455663060  0.000000000     0.000000000  0.087293070 -0.000000002
     0.000000210  0.000000210 11.455663060     0.000000000  0.000000000  0.087293070

  length of vectors

 
 k-points in units of 2pi/SCALE and weight: Automatic mesh                          
   0.02182327  0.02182327  0.02182327       1.000
 
 k-points in reciprocal lattice and weights: Automatic mesh                          
   0.25000000  0.25000000  0.25000000       1.000
 
 position of ions in fractional coordinates (direct lattice) 
   0.66666667  0.66666667  0.33333333
   0.66666667  0.83333333  0.50000000
   0.83333333  0.66666667  0.50000000
   0.66666667  0.66666667  0.00000000
   0.66666667  0.83333333  0.16666667
   0.66666667  0.00000000  0.33333333
   0.66666667  0.16666667  0.50000000
   0.83333333  0.66666667  0.16666667
   0.83333333  0.83333333  0.33333333
   0.83333333  0.00000000  0.50000000
   0.00000000  0.66666667  0.33333333
   0.00000000  0.83333333  0.50000000
   0.16666667  0.66666667  0.50000000
   0.66666667  0.66666667  0.66666667
   0.66666667  0.83333333  0.83333333
   0.66666667  0.00000000  0.00000000
   0.66666667  0.16666667  0.16666667
   0.66666667  0.33333333  0.33333333
   0.66666667  0.50000000  0.50000000
   0.83333333  0.66666667  0.83333333
   0.83333333  0.83333333  0.00000000
   0.83333333  0.00000000  0.16666667
   0.83333333  0.16666667  0.33333333
   0.83333333  0.33333333  0.50000000
   0.00000000  0.66666667  0.00000000
   0.00000000  0.83333333  0.16666667
   0.00000000  0.00000000  0.33333333
   0.00000000  0.16666667  0.50000000
   0.16666667  0.66666667  0.16666667
   0.16666667  0.83333333  0.33333333
   0.16666667  0.00000000  0.50000000
   0.33333333  0.66666667  0.33333333
   0.33333333  0.83333333  0.50000000
   0.50000000  0.66666667  0.50000000
   0.66666667  0.00000000  0.66666667
   0.66666667  0.16666667  0.83333333
   0.66666667  0.33333333  0.00000000
   0.66666667  0.50000000  0.16666667
   0.83333333  0.83333333  0.66666667
   0.83333333  0.00000000  0.83333333
   0.83333333  0.16666667  0.00000000
   0.83333333  0.33333333  0.16666667
   0.83333333  0.50000000  0.33333333
   0.00000000  0.66666667  0.66666667
   0.00000000  0.83333333  0.83333333
   0.99825400  0.00000000  0.00000000
   0.00000000  0.16666667  0.16666667
   0.00000000  0.33333333  0.33333333
   0.00000000  0.50000000  0.50000000
   0.16666667  0.66666667  0.83333333
   0.16666667  0.83333333  0.00000000
   0.16666667  0.00000000  0.16666667
   0.16666667  0.16666667  0.33333333
   0.16666667  0.33333333  0.50000000
   0.33333333  0.66666667  0.00000000
   0.33333333  0.83333333  0.16666667
   0.33333333  0.00000000  0.33333333
   0.33333333  0.16666667  0.50000000
   0.50000000  0.66666667  0.16666667
   0.50000000  0.83333333  0.33333333
   0.50000000  0.00000000  0.50000000
   0.66666667  0.33333333  0.66666667
   0.66666667  0.50000000  0.83333333
   0.83333333  0.16666667  0.66666667
   0.83333333  0.33333333  0.83333333
   0.83333333  0.50000000  0.00000000
   0.00000000  0.00000000  0.66666667
   0.00000000  0.16666667  0.83333333
   0.00000000  0.33333333  0.00000000
   0.00000000  0.50000000  0.16666667
   0.16666667  0.83333333  0.66666667
   0.16666667  0.00000000  0.83333333
   0.16666667  0.16666667  0.00000000
   0.16666667  0.33333333  0.16666667
   0.16666667  0.50000000  0.33333333
   0.33333333  0.66666667  0.66666667
   0.33333333  0.83333333  0.83333333
   0.33333333  0.00000000  0.00000000
   0.33333333  0.16666667  0.16666667
   0.33333333  0.33333333  0.33333333
   0.33333333  0.50000000  0.50000000
   0.50000000  0.66666667  0.83333333
   0.50000000  0.83333333  0.00000000
   0.50000000  0.00000000  0.16666667
   0.50000000  0.16666667  0.33333333
   0.50000000  0.33333333  0.50000000
   0.83333333  0.50000000  0.66666667
   0.00000000  0.33333333  0.66666667
   0.00000000  0.50000000  0.83333333
   0.16666667  0.16666667  0.66666667
   0.16666667  0.33333333  0.83333333
   0.16666667  0.50000000  0.00000000
   0.33333333  0.00000000  0.66666667
   0.33333333  0.16666667  0.83333333
   0.33333333  0.33333333  0.00000000
   0.33333333  0.50000000  0.16666667
   0.50000000  0.83333333  0.66666667
   0.50000000  0.00000000  0.83333333
   0.50000000  0.16666667  0.00000000
   0.50000000  0.33333333  0.16666667
   0.50000000  0.50000000  0.33333333
   0.16666667  0.50000000  0.66666667
   0.33333333  0.33333333  0.66666667
   0.33333333  0.50000000  0.83333333
   0.50000000  0.16666667  0.66666667
   0.50000000  0.33333333  0.83333333
   0.50000000  0.50000000  0.00000000
   0.50000000  0.50000000  0.66666667
 
 position of ions in cartesian coordinates  (Angst):
   7.63710895  7.63710881  3.81855432
   7.63710902  9.54638595  5.72783153
   9.54638609  7.63710885  5.72783153
   7.63710888  7.63710874  0.00000000
   7.63710895  9.54638588  1.90927721
   7.63710881  0.00000007  3.81855432
   7.63710888  1.90927732  5.72783153
   9.54638602  7.63710878  1.90927721
   9.54638609  9.54638592  3.81855432
   9.54638595  0.00000011  5.72783153
   0.00000021  7.63710881  3.81855432
   0.00000028  9.54638595  5.72783153
   1.90927746  7.63710885  5.72783153
   7.63710902  7.63710888  7.63710874
   7.63710909  9.54638602  9.54638585
   7.63710874  0.00000000  0.00000000
   7.63710881  1.90927725  1.90927721
   7.63710888  3.81855439  3.81855432
   7.63710895  5.72783163  5.72783153
   9.54638616  7.63710892  9.54638585
   9.54638602  9.54638585  0.00000000
   9.54638588  0.00000004  1.90927721
   9.54638595  1.90927728  3.81855432
   9.54638602  3.81855442  5.72783153
   0.00000014  7.63710874  0.00000000
   0.00000021  9.54638588  1.90927721
   0.00000007  0.00000007  3.81855432
   0.00000014  1.90927732  5.72783153
   1.90927739  7.63710878  1.90927721
   1.90927746  9.54638592  3.81855432
   1.90927732  0.00000011  5.72783153
   3.81855453  7.63710881  3.81855432
   3.81855460  9.54638595  5.72783153
   5.72783178  7.63710885  5.72783153
   7.63710888  0.00000014  7.63710874
   7.63710895  1.90927739  9.54638585
   7.63710881  3.81855432  0.00000000
   7.63710888  5.72783157  1.90927721
   9.54638616  9.54638599  7.63710874
   9.54638602  0.00000017  9.54638585
   9.54638588  1.90927721  0.00000000
   9.54638595  3.81855435  1.90927721
   9.54638602  5.72783160  3.81855432
   0.00000028  7.63710888  7.63710874
   0.00000035  9.54638602  9.54638585
  11.43566147  0.00000000  0.00000000
   0.00000007  1.90927725  1.90927721
   0.00000014  3.81855439  3.81855432
   0.00000021  5.72783163  5.72783153
   1.90927753  7.63710892  9.54638585
   1.90927739  9.54638585  0.00000000
   1.90927725  0.00000004  1.90927721
   1.90927732  1.90927728  3.81855432
   1.90927739  3.81855442  5.72783153
   3.81855446  7.63710874  0.00000000
   3.81855453  9.54638588  1.90927721
   3.81855439  0.00000007  3.81855432
   3.81855446  1.90927732  5.72783153
   5.72783171  7.63710878  1.90927721
   5.72783177  9.54638592  3.81855432
   5.72783163  0.00000011  5.72783153
   7.63710895  3.81855446  7.63710874
   7.63710902  5.72783170  9.54638585
   9.54638602  1.90927735  7.63710874
   9.54638609  3.81855449  9.54638585
   9.54638595  5.72783153  0.00000000
   0.00000014  0.00000014  7.63710874
   0.00000021  1.90927739  9.54638585
   0.00000007  3.81855432  0.00000000
   0.00000014  5.72783157  1.90927721
   1.90927753  9.54638599  7.63710874
   1.90927739  0.00000017  9.54638585
   1.90927725  1.90927721  0.00000000
   1.90927732  3.81855435  1.90927721
   1.90927739  5.72783160  3.81855432
   3.81855460  7.63710888  7.63710874
   3.81855467  9.54638602  9.54638585
   3.81855432  0.00000000  0.00000000
   3.81855439  1.90927725  1.90927721
   3.81855446  3.81855439  3.81855432
   3.81855453  5.72783163  5.72783153
   5.72783184  7.63710892  9.54638585
   5.72783170  9.54638585  0.00000000
   5.72783157  0.00000004  1.90927721
   5.72783164  1.90927728  3.81855432
   5.72783170  3.81855442  5.72783153
   9.54638609  5.72783167  7.63710874
   0.00000021  3.81855446  7.63710874
   0.00000028  5.72783170  9.54638585
   1.90927739  1.90927735  7.63710874
   1.90927746  3.81855449  9.54638585
   1.90927732  5.72783153  0.00000000
   3.81855446  0.00000014  7.63710874
   3.81855453  1.90927739  9.54638585
   3.81855439  3.81855432  0.00000000
   3.81855446  5.72783157  1.90927721
   5.72783184  9.54638599  7.63710874
   5.72783170  0.00000017  9.54638585
   5.72783157  1.90927721  0.00000000
   5.72783164  3.81855435  1.90927721
   5.72783170  5.72783160  3.81855432
   1.90927746  5.72783167  7.63710874
   3.81855453  3.81855446  7.63710874
   3.81855460  5.72783170  9.54638585
   5.72783171  1.90927735  7.63710874
   5.72783177  3.81855449  9.54638585
   5.72783163  5.72783153  0.00000000
   5.72783178  5.72783167  7.63710874
 


--------------------------------------------------------------------------------------------------------


 k-point  1 :  0.25000.25000.2500  plane waves:  15420

 maximum and minimum number of plane-waves per node :  15420 15420

 maximum number of plane-waves:  15420
 maximal index in each direction: 
   IXMAX= 15   IYMAX= 15   IZMAX= 15
   IXMIN=-15   IYMIN=-15   IZMIN=-15

 WARNING: wrap around error must be expected set NGX to  62
 WARNING: wrap around error must be expected set NGY to  62
 WARNING: wrap around error must be expected set NGZ to  62

 parallel 3dFFT wavefunction:
    minimum data exchange during FFTs selected (reduces bandwidth)
 parallel 3dFFT charge:
    minimum data exchange during FFTs selected (reduces bandwidth)

 For storing wavefunctions  175.66 MBYTES are necessary
 For predicting wavefunctions  398.57 MBYTES are necessary
Broyden mixing: mesh for mixing (old mesh)
   NGX = 31   NGY = 31   NGZ = 31
  (NGX  = 96   NGY  = 96   NGZ  = 96)
 gives a total of  29791 points
 charge density for first step will be calculated from the start-wavefunctions


--------------------------------------------------------------------------------------------------------


 Maximum index for augmentation-charges          617 (set IRDMAX)


--------------------------------------------------------------------------------------------------------


 initial charge from wavefunction
 First call to EWALD:  gamma=   0.155
 Maximum number of real-space cells 3x 3x 3
 Maximum number of reciprocal cells 3x 3x 3

    FEWALD:  VPU time    0.06: CPU time    0.06


----------------------------------------- Iteration    1(   1)  ---------------------------------------


    POTLOK:  VPU time    0.17: CPU time    0.17
    SETDIJ:  VPU time    0.06: CPU time    0.06
    EDDAV :  VPU time   44.12: CPU time   44.16
    DOS   :  VPU time    0.00: CPU time   -0.00
    CHARGE:  VPU time    0.34: CPU time    0.34
    MIXING:  VPU time    0.00: CPU time    0.00
    ------------------------------------------
      LOOP:  VPU time   44.72: CPU time   44.76

 eigenvalue-minimisations  :  1472
 total energy-change (2. order) :-0.3902504E+03  (-0.2207264E+00)
 number of electron 1188.0004630 magnetization 
 augmentation part   780.4647620 magnetization 

 Broyden mixing:
  rms(total) = 0.70988E-01    rms(broyden)= 0.70882E-01
  rms(prec ) = 0.15217E+00
  weight for this iteration     100.00

 Free energy of the ion-electron system (eV)
  ---------------------------------------------------
  alpha Z        PSCENC =      9912.66040601
  Ewald energy   TEWEN  =   -112969.75755704
  -1/2 Hartree   DENC   =    -36465.89774834
  -V(xc)+E(xc)   XCENC  =      4589.85509293
  PAW double counting   =    116496.42024636  -132057.59429021
  entropy T*S    EENTRO =        -0.12295716
  eigenvalues    EBANDS =      -117.38866143
  atomic energy  EATOM  =    150221.57506482
  ---------------------------------------------------
  free energy    TOTEN  =      -390.25040406 eV

  energy without entropy =     -390.12744690  energy(sigma->0) =     -390.20941834


--------------------------------------------------------------------------------------------------------




----------------------------------------- Iteration    1(   2)  ---------------------------------------


    POTLOK:  VPU time    0.19: CPU time    0.19
    SETDIJ:  VPU time    0.06: CPU time    0.06
    EDDAV :  VPU time   46.81: CPU time   46.83
    DOS   :  VPU time    0.00: CPU time   -0.00
    CHARGE:  VPU time    0.34: CPU time    0.34
    MIXING:  VPU time    0.00: CPU time    0.00
    ------------------------------------------
      LOOP:  VPU time   47.43: CPU time   47.45

 eigenvalue-minimisations  :  1584
 total energy-change (2. order) :-0.4485803E-02  (-0.1174528E-01)
 number of electron 1188.0004629 magnetization 
 augmentation part   780.4422503 magnetization 

 Broyden mixing:
  rms(total) = 0.11633E+00    rms(broyden)= 0.11630E+00
  rms(prec ) = 0.19237E+00
  weight for this iteration     100.00

 eigenvalues of (default mixing * dielectric matrix)
  average eigenvalue GAMMA=   0.3275
  0.3275

 Free energy of the ion-electron system (eV)
  ---------------------------------------------------
  alpha Z        PSCENC =      9912.66040601
  Ewald energy   TEWEN  =   -112969.75755704
  -1/2 Hartree   DENC   =    -36466.60338620
  -V(xc)+E(xc)   XCENC  =      4589.88869229
  PAW double counting   =    116497.74487559  -132059.27399262
  entropy T*S    EENTRO =        -0.12393252
  eigenvalues    EBANDS =      -116.36506019
  atomic energy  EATOM  =    150221.57506482
  ---------------------------------------------------
  free energy    TOTEN  =      -390.25488986 eV

  energy without entropy =     -390.13095734  energy(sigma->0) =     -390.21357902


--------------------------------------------------------------------------------------------------------




----------------------------------------- Iteration    1(   3)  ---------------------------------------


    POTLOK:  VPU time    0.16: CPU time    0.16
    SETDIJ:  VPU time    0.06: CPU time    0.06
    EDDAV :  VPU time   46.88: CPU time   46.90
    DOS   :  VPU time    0.00: CPU time   -0.00
    CHARGE:  VPU time    0.34: CPU time    0.34
    MIXING:  VPU time    0.00: CPU time    0.00
    ------------------------------------------
      LOOP:  VPU time   47.48: CPU time   47.50

 eigenvalue-minimisations  :  1584
 total energy-change (2. order) : 0.3066041E-01  (-0.6399100E-02)
 number of electron 1188.0004630 magnetization 
 augmentation part   780.4583287 magnetization 

 Broyden mixing:
  rms(total) = 0.30111E-01    rms(broyden)= 0.30070E-01
  rms(prec ) = 0.48733E-01
  weight for this iteration     100.00

 eigenvalues of (default mixing * dielectric matrix)
  average eigenvalue GAMMA=   0.7021
  1.0306  0.3737

 Free energy of the ion-electron system (eV)
  ---------------------------------------------------
  alpha Z        PSCENC =      9912.66040601
  Ewald energy   TEWEN  =   -112969.75755704
  -1/2 Hartree   DENC   =    -36466.43604114
  -V(xc)+E(xc)   XCENC  =      4589.88045900
  PAW double counting   =    116497.36683049  -132058.84439378
  entropy T*S    EENTRO =        -0.12514950
  eigenvalues    EBANDS =      -116.54384831
  atomic energy  EATOM  =    150221.57506482
  ---------------------------------------------------
  free energy    TOTEN  =      -390.22422945 eV

  energy without entropy =     -390.09907995  energy(sigma->0) =     -390.18251295


--------------------------------------------------------------------------------------------------------




----------------------------------------- Iteration    1(   4)  ---------------------------------------


    POTLOK:  VPU time    0.16: CPU time    0.16
    SETDIJ:  VPU time    0.06: CPU time    0.06
    EDDAV :  VPU time   58.47: CPU time   58.49
    DOS   :  VPU time    0.00: CPU time   -0.00
    CHARGE:  VPU time    0.34: CPU time    0.34
    MIXING:  VPU time    0.01: CPU time    0.01
    ------------------------------------------
      LOOP:  VPU time   59.06: CPU time   59.08

 eigenvalue-minimisations  :  2080
 total energy-change (2. order) :-0.2938200E-04  (-0.2395870E-02)
 number of electron 1188.0004630 magnetization 
 augmentation part   780.4505600 magnetization 

 Broyden mixing:
  rms(total) = 0.23851E-01    rms(broyden)= 0.23843E-01
  rms(prec ) = 0.34669E-01
  weight for this iteration     100.00

 eigenvalues of (default mixing * dielectric matrix)
  average eigenvalue GAMMA=   0.8775
  1.8455  0.3935  0.3935

 Free energy of the ion-electron system (eV)
  ---------------------------------------------------
  alpha Z        PSCENC =      9912.66040601
  Ewald energy   TEWEN  =   -112969.75755704
  -1/2 Hartree   DENC   =    -36466.65980298
  -V(xc)+E(xc)   XCENC  =      4589.89125164
  PAW double counting   =    116497.72356698  -132059.30432744
  entropy T*S    EENTRO =        -0.12552017
  eigenvalues    EBANDS =      -116.22734065
  atomic energy  EATOM  =    150221.57506482
  ---------------------------------------------------
  free energy    TOTEN  =      -390.22425883 eV

  energy without entropy =     -390.09873866  energy(sigma->0) =     -390.18241877


--------------------------------------------------------------------------------------------------------




----------------------------------------- Iteration    1(   5)  ---------------------------------------


    POTLOK:  VPU time    0.16: CPU time    0.16
    SETDIJ:  VPU time    0.06: CPU time    0.06
    EDDAV :  VPU time   47.21: CPU time   47.25
    DOS   :  VPU time    0.00: CPU time   -0.00
    CHARGE:  VPU time    0.34: CPU time    0.35
    MIXING:  VPU time    0.01: CPU time    0.01
    ------------------------------------------
      LOOP:  VPU time   47.81: CPU time   47.85

 eigenvalue-minimisations  :  1592
 total energy-change (2. order) : 0.6698077E-03  (-0.6324980E-03)
 number of electron 1188.0004630 magnetization 
 augmentation part   780.4501772 magnetization 

 Broyden mixing:
  rms(total) = 0.67030E-02    rms(broyden)= 0.66942E-02
  rms(prec ) = 0.87354E-02
  weight for this iteration     100.00

 eigenvalues of (default mixing * dielectric matrix)
  average eigenvalue GAMMA=   0.9036
  1.8546  0.9619  0.3477  0.4504

 Free energy of the ion-electron system (eV)
  ---------------------------------------------------
  alpha Z        PSCENC =      9912.66040601
  Ewald energy   TEWEN  =   -112969.75755704
  -1/2 Hartree   DENC   =    -36466.65648283
  -V(xc)+E(xc)   XCENC  =      4589.89091809
  PAW double counting   =    116497.69240597  -132059.26694281
  entropy T*S    EENTRO =        -0.12552586
  eigenvalues    EBANDS =      -116.23587537
  atomic energy  EATOM  =    150221.57506482
  ---------------------------------------------------
  free energy    TOTEN  =      -390.22358902 eV

  energy without entropy =     -390.09806317  energy(sigma->0) =     -390.18174707


--------------------------------------------------------------------------------------------------------




----------------------------------------- Iteration    1(   6)  ---------------------------------------


    POTLOK:  VPU time    0.16: CPU time    0.17
    SETDIJ:  VPU time    0.06: CPU time    0.06
    EDDAV :  VPU time   45.25: CPU time   45.29
    DOS   :  VPU time    0.00: CPU time   -0.00
    CHARGE:  VPU time    0.34: CPU time    0.34
    MIXING:  VPU time    0.01: CPU time    0.01
    ------------------------------------------
      LOOP:  VPU time   45.84: CPU time   45.88

 eigenvalue-minimisations  :  1512
 total energy-change (2. order) :-0.9660120E-04  (-0.1595863E-03)
 number of electron 1188.0004630 magnetization 
 augmentation part   780.4528602 magnetization 

 Broyden mixing:
  rms(total) = 0.53406E-02    rms(broyden)= 0.53395E-02
  rms(prec ) = 0.67075E-02
  weight for this iteration     100.00

 eigenvalues of (default mixing * dielectric matrix)
  average eigenvalue GAMMA=   0.9691
  1.7905  1.7905  0.5072  0.4203  0.3371

 Free energy of the ion-electron system (eV)
  ---------------------------------------------------
  alpha Z        PSCENC =      9912.66040601
  Ewald energy   TEWEN  =   -112969.75755704
  -1/2 Hartree   DENC   =    -36466.55048516
  -V(xc)+E(xc)   XCENC  =      4589.88557402
  PAW double counting   =    116497.48950793  -132059.00448257
  entropy T*S    EENTRO =        -0.12538044
  eigenvalues    EBANDS =      -116.39633320
  atomic energy  EATOM  =    150221.57506482
  ---------------------------------------------------
  free energy    TOTEN  =      -390.22368563 eV

  energy without entropy =     -390.09830519  energy(sigma->0) =     -390.18189215


--------------------------------------------------------------------------------------------------------




----------------------------------------- Iteration    1(   7)  ---------------------------------------


    POTLOK:  VPU time    0.16: CPU time    0.16
    SETDIJ:  VPU time    0.06: CPU time    0.06
    EDDAV :  VPU time   45.78: CPU time   45.80
    DOS   :  VPU time   -0.00: CPU time   -0.00
    CHARGE:  VPU time    0.34: CPU time    0.34
    MIXING:  VPU time    0.01: CPU time    0.01
    ------------------------------------------
      LOOP:  VPU time   46.37: CPU time   46.40

 eigenvalue-minimisations  :  1536
 total energy-change (2. order) :-0.1502497E-04  (-0.5860710E-04)
 number of electron 1188.0004630 magnetization 
 augmentation part   780.4524706 magnetization 

 Broyden mixing:
  rms(total) = 0.42275E-02    rms(broyden)= 0.42262E-02
  rms(prec ) = 0.55880E-02
  weight for this iteration     100.00

 eigenvalues of (default mixing * dielectric matrix)
  average eigenvalue GAMMA=   0.9841
  2.4232  1.1811  1.1811  0.4305  0.3563  0.3324

 Free energy of the ion-electron system (eV)
  ---------------------------------------------------
  alpha Z        PSCENC =      9912.66040601
  Ewald energy   TEWEN  =   -112969.75755704
  -1/2 Hartree   DENC   =    -36466.55879225
  -V(xc)+E(xc)   XCENC  =      4589.88600970
  PAW double counting   =    116497.51159572  -132059.02829642
  entropy T*S    EENTRO =        -0.12539012
  eigenvalues    EBANDS =      -116.38674107
  atomic energy  EATOM  =    150221.57506482
  ---------------------------------------------------
  free energy    TOTEN  =      -390.22370065 eV

  energy without entropy =     -390.09831053  energy(sigma->0) =     -390.18190394


--------------------------------------------------------------------------------------------------------




----------------------------------------- Iteration    1(   8)  ---------------------------------------


    POTLOK:  VPU time    0.16: CPU time    0.16
    SETDIJ:  VPU time    0.06: CPU time    0.06
    EDDAV :  VPU time   45.95: CPU time   45.97
    DOS   :  VPU time    0.00: CPU time   -0.00
    CHARGE:  VPU time    0.34: CPU time    0.34
    MIXING:  VPU time    0.01: CPU time    0.01
    ------------------------------------------
      LOOP:  VPU time   46.54: CPU time   46.57

 eigenvalue-minimisations  :  1544
 total energy-change (2. order) : 0.1175536E-04  (-0.1597467E-04)
 number of electron 1188.0004630 magnetization 
 augmentation part   780.4515610 magnetization 

 Broyden mixing:
  rms(total) = 0.16768E-02    rms(broyden)= 0.16761E-02
  rms(prec ) = 0.23175E-02
  weight for this iteration     100.00

 eigenvalues of (default mixing * dielectric matrix)
  average eigenvalue GAMMA=   0.9260
  2.5037  1.1942  1.1942  0.4595  0.3559  0.3872  0.3872

 Free energy of the ion-electron system (eV)
  ---------------------------------------------------
  alpha Z        PSCENC =      9912.66040601
  Ewald energy   TEWEN  =   -112969.75755704
  -1/2 Hartree   DENC   =    -36466.58729665
  -V(xc)+E(xc)   XCENC  =      4589.88746033
  PAW double counting   =    116497.57561550  -132059.10417442
  entropy T*S    EENTRO =        -0.12542604
  eigenvalues    EBANDS =      -116.34778140
  atomic energy  EATOM  =    150221.57506482
  ---------------------------------------------------
  free energy    TOTEN  =      -390.22368890 eV

  energy without entropy =     -390.09826285  energy(sigma->0) =     -390.18188022


--------------------------------------------------------------------------------------------------------




----------------------------------------- Iteration    1(   9)  ---------------------------------------


    POTLOK:  VPU time    0.16: CPU time    0.17
    SETDIJ:  VPU time    0.06: CPU time    0.06
    EDDAV :  VPU time   41.46: CPU time   41.47
    DOS   :  VPU time    0.00: CPU time   -0.00
    ------------------------------------------
      LOOP:  VPU time   41.71: CPU time   41.73

 eigenvalue-minimisations  :  1352
 total energy-change (2. order) : 0.2366578E-05  (-0.4225904E-05)
 number of electron 1188.0004630 magnetization 
 augmentation part   780.4515610 magnetization 

 Free energy of the ion-electron system (eV)
  ---------------------------------------------------
  alpha Z        PSCENC =      9912.66040601
  Ewald energy   TEWEN  =   -112969.75755704
  -1/2 Hartree   DENC   =    -36466.57948669
  -V(xc)+E(xc)   XCENC  =      4589.88705199
  PAW double counting   =    116497.56318455  -132059.08738548
  entropy T*S    EENTRO =        -0.12541549
  eigenvalues    EBANDS =      -116.35954919
  atomic energy  EATOM  =    150221.57506482
  ---------------------------------------------------
  free energy    TOTEN  =      -390.22368653 eV

  energy without entropy =     -390.09827104  energy(sigma->0) =     -390.18188137


--------------------------------------------------------------------------------------------------------




 average (electrostatic) potential at core
  the test charge radii are     1.0053
  (the norm of the test charge is              1.0000)
       1 -40.8727       2 -40.8727       3 -40.8726       4 -40.8730       5 -40.8729
       6 -40.8730       7 -40.8727       8 -40.8729       9 -40.8729      10 -40.8729
      11 -40.8730      12 -40.8730      13 -40.8731      14 -40.8727      15 -40.8729
      16 -40.8732      17 -40.8729      18 -40.8727      19 -40.8725      20 -40.8729
      21 -40.8750      22 -40.8750      23 -40.8729      24 -40.8726      25 -40.8731
      26 -40.8732      27 -40.8731      28 -40.8730      29 -40.8731      30 -40.8731
      31 -40.8731      32 -40.8731      33 -40.8731      34 -40.8728      35 -40.8730
      36 -40.8729      37 -40.8730      38 -40.8727      39 -40.8729      40 -40.8750
      41 -40.8750      42 -40.8729      43 -40.8726      44 -40.8730      45 -40.8732
      46 -40.8728      47 -40.8732      48 -40.8730      49 -40.8729      50 -40.8731
      51 -40.8716      52 -40.8716      53 -40.8731      54 -40.8731      55 -40.8730
      56 -40.8732      57 -40.8730      58 -40.8731      59 -40.8729      60 -40.8729
      61 -40.8730      62 -40.8727      63 -40.8727      64 -40.8729      65 -40.8729
      66 -40.8729      67 -40.8731      68 -40.8732      69 -40.8731      70 -40.8730
      71 -40.8731      72 -40.8716      73 -40.8716      74 -40.8731      75 -40.8731
      76 -40.8731      77 -40.8732      78 -40.8732      79 -40.8732      80 -40.8731
      81 -40.8731      82 -40.8729      83 -40.8731      84 -40.8731      85 -40.8729
      86 -40.8728      87 -40.8726      88 -40.8730      89 -40.8730      90 -40.8731
      91 -40.8731      92 -40.8731      93 -40.8730      94 -40.8732      95 -40.8730
      96 -40.8731      97 -40.8729      98 -40.8731      99 -40.8731     100 -40.8729
     101 -40.8728     102 -40.8731     103 -40.8731     104 -40.8731     105 -40.8729
     106 -40.8729     107 -40.8730     108 -40.8728
 
 
 
 E-fermi :   2.3559     XC(G=0): -11.8632     alpha+bet : -8.1712
   add alpha+bet to get absolut eigen values

 k-point   1 :       0.2500    0.2500    0.2500
  band No.  band energies     occupation 
      1      -5.4441      2.00000
      2      -4.8570      2.00000
      3      -4.8562      2.00000
      4      -4.8554      2.00000
      5      -4.2913      2.00000
      6      -4.2905      2.00000
      7      -4.2897      2.00000
      8      -3.7629      2.00000
      9      -3.7435      2.00000
     10      -3.7427      2.00000
     11      -3.7418      2.00000
     12      -3.2358      2.00000
     13      -3.2345      2.00000
     14      -3.2341      2.00000
     15      -3.2341      2.00000
     16      -3.2337      2.00000
     17      -3.2324      2.00000
     18      -2.8134      2.00000
     19      -2.8128      2.00000
     20      -2.8121      2.00000
     21      -2.3686      2.00000
     22      -2.3679      2.00000
     23      -2.3673      2.00000
     24      -2.3402      2.00000
     25      -2.3395      2.00000
     26      -2.3387      2.00000
     27      -2.1506      2.00000
     28      -2.1502      2.00000
     29      -2.1497      2.00000
     30      -1.9792      2.00000
     31      -1.9782      2.00000
     32      -1.9778      2.00000
     33      -1.9778      2.00000
     34      -1.9775      2.00000
     35      -1.9765      2.00000
     36      -1.9061      2.00000
     37      -1.7764      2.00000
     38      -1.7757      2.00000
     39      -1.7750      2.00000
     40      -1.6455      2.00000
     41      -1.6455      2.00000
     42      -1.6454      2.00000
     43      -1.5681      2.00000
     44      -1.5677      2.00000
     45      -1.5674      2.00000
     46      -1.5468      2.00000
     47      -1.5468      2.00000
     48      -1.5462      2.00000
     49      -1.5462      2.00000
     50      -1.5456      2.00000
     51      -1.5456      2.00000
     52      -1.4575      2.00000
     53      -1.4574      2.00000
     54      -1.4574      2.00000
     55      -1.4148      2.00000
     56      -1.4144      2.00000
     57      -1.4140      2.00000
     58      -1.4140      2.00000
     59      -1.4135      2.00000
     60      -1.4131      2.00000
     61      -1.3407      2.00000
     62      -1.3402      2.00000
     63      -1.3396      2.00000
     64      -1.2920      2.00000
     65      -1.2915      2.00000
     66      -1.2912      2.00000
     67      -1.2912      2.00000
     68      -1.2909      2.00000
     69      -1.2906      2.00000
     70      -1.2291      2.00000
     71      -1.2286      2.00000
     72      -1.2284      2.00000
     73      -1.2284      2.00000
     74      -1.2282      2.00000
     75      -1.2277      2.00000
     76      -1.1884      2.00000
     77      -1.1884      2.00000
     78      -1.1884      2.00000
     79      -1.1128      2.00000
     80      -1.1127      2.00000
     81      -1.1124      2.00000
     82      -1.1124      2.00000
     83      -1.1120      2.00000
     84      -1.1119      2.00000
     85      -1.1092      2.00000
     86      -1.1091      2.00000
     87      -1.1090      2.00000
     88      -1.0636      2.00000
     89      -1.0632      2.00000
     90      -1.0628      2.00000
     91      -1.0259      2.00000
     92      -1.0257      2.00000
     93      -1.0254      2.00000
     94      -0.9793      2.00000
     95      -0.9791      2.00000
     96      -0.9788      2.00000
     97      -0.9658      2.00000
     98      -0.9657      2.00000
     99      -0.9654      2.00000
    100      -0.9654      2.00000
    101      -0.9651      2.00000
    102      -0.9650      2.00000
    103      -0.9292      2.00000
    104      -0.9284      2.00000
    105      -0.9283      2.00000
    106      -0.9283      2.00000
    107      -0.9282      2.00000
    108      -0.9276      2.00000
    109      -0.9204      2.00000
    110      -0.9198      2.00000
    111      -0.9195      2.00000
    112      -0.9195      2.00000
    113      -0.9192      2.00000
    114      -0.9185      2.00000
    115      -0.8573      2.00000
    116      -0.8571      2.00000
    117      -0.8570      2.00000
    118      -0.8530      2.00000
    119      -0.8528      2.00000
    120      -0.8525      2.00000
    121      -0.8525      2.00000
    122      -0.8522      2.00000
    123      -0.8521      2.00000
    124      -0.8420      2.00000
    125      -0.8418      2.00000
    126      -0.8415      2.00000
    127      -0.8415      2.00000
    128      -0.8412      2.00000
    129      -0.8410      2.00000
    130      -0.7521      2.00000
    131      -0.7518      2.00000
    132      -0.7515      2.00000
    133      -0.7123      2.00000
    134      -0.7116      2.00000
    135      -0.7116      2.00000
    136      -0.7116      2.00000
    137      -0.7115      2.00000
    138      -0.7109      2.00000
    139      -0.7075      2.00000
    140      -0.7073      2.00000
    141      -0.7072      2.00000
    142      -0.6897      2.00000
    143      -0.6897      2.00000
    144      -0.6894      2.00000
    145      -0.6893      2.00000
    146      -0.6890      2.00000
    147      -0.6890      2.00000
    148      -0.6581      2.00000
    149      -0.6576      2.00000
    150      -0.6574      2.00000
    151      -0.6574      2.00000
    152      -0.6572      2.00000
    153      -0.6567      2.00000
    154      -0.6399      2.00000
    155      -0.6394      2.00000
    156      -0.6392      2.00000
    157      -0.6392      2.00000
    158      -0.6390      2.00000
    159      -0.6386      2.00000
    160      -0.5296      2.00000
    161      -0.5290      2.00000
    162      -0.5289      2.00000
    163      -0.5289      2.00000
    164      -0.5288      2.00000
    165      -0.5282      2.00000
    166      -0.4858      2.00000
    167      -0.4855      2.00000
    168      -0.4852      2.00000
    169      -0.4805      2.00000
    170      -0.4802      2.00000
    171      -0.4799      2.00000
    172      -0.4696      2.00000
    173      -0.4691      2.00000
    174      -0.4688      2.00000
    175      -0.4688      2.00000
    176      -0.4686      2.00000
    177      -0.4682      2.00000
    178      -0.4598      2.00000
    179      -0.4595      2.00000
    180      -0.4593      2.00000
    181      -0.4497      2.00000
    182      -0.4492      2.00000
    183      -0.4490      2.00000
    184      -0.4490      2.00000
    185      -0.4488      2.00000
    186      -0.4482      2.00000
    187      -0.4237      2.00000
    188      -0.4234      2.00000
    189      -0.4231      2.00000
    190      -0.3745      2.00000
    191      -0.3740      2.00000
    192      -0.3737      2.00000
    193      -0.3737      2.00000
    194      -0.3734      2.00000
    195      -0.3729      2.00000
    196      -0.3356      2.00000
    197      -0.3353      2.00000
    198      -0.3351      2.00000
    199      -0.3203      2.00000
    200      -0.3201      2.00000
    201      -0.3198      2.00000
    202      -0.3198      2.00000
    203      -0.3195      2.00000
    204      -0.3193      2.00000
    205      -0.2977      2.00000
    206      -0.2972      2.00000
    207      -0.2969      2.00000
    208      -0.2966      2.00000
    209      -0.2965      2.00000
    210      -0.2961      2.00000
    211      -0.2853      2.00000
    212      -0.2851      2.00000
    213      -0.2848      2.00000
    214      -0.2675      2.00000
    215      -0.2596      2.00000
    216      -0.2593      2.00000
    217      -0.2591      2.00000
    218      -0.2591      2.00000
    219      -0.2590      2.00000
    220      -0.2586      2.00000
    221      -0.2534      2.00000
    222      -0.2532      2.00000
    223      -0.2530      2.00000
    224      -0.2348      2.00000
    225      -0.2346      2.00000
    226      -0.2344      2.00000
    227      -0.2344      2.00000
    228      -0.2342      2.00000
    229      -0.2341      2.00000
    230      -0.2278      2.00000
    231      -0.2278      2.00000
    232      -0.2276      2.00000
    233      -0.2275      2.00000
    234      -0.2273      2.00000
    235      -0.2273      2.00000
    236      -0.1697      2.00000
    237      -0.1696      2.00000
    238      -0.1696      2.00000
    239      -0.1403      2.00000
    240      -0.1400      2.00000
    241      -0.1397      2.00000
    242      -0.1342      2.00000
    243      -0.1338      2.00000
    244      -0.1336      2.00000
    245      -0.1336      2.00000
    246      -0.1333      2.00000
    247      -0.1329      2.00000
    248      -0.1267      2.00000
    249      -0.1167      2.00000
    250      -0.1167      2.00000
    251      -0.1164      2.00000
    252      -0.1164      2.00000
    253      -0.1161      2.00000
    254      -0.1161      2.00000
    255      -0.1097      2.00000
    256      -0.1095      2.00000
    257      -0.1092      2.00000
    258      -0.0856      2.00000
    259      -0.0854      2.00000
    260      -0.0851      2.00000
    261      -0.0837      2.00000
    262      -0.0836      2.00000
    263      -0.0507      2.00000
    264      -0.0506      2.00000
    265      -0.0503      2.00000
    266      -0.0501      2.00000
    267      -0.0500      2.00000
    268      -0.0424      2.00000
    269      -0.0424      2.00000
    270      -0.0423      2.00000
    271      -0.0324      2.00000
    272      -0.0323      2.00000
    273      -0.0322      2.00000
    274      -0.0135      2.00000
    275      -0.0131      2.00000
    276      -0.0127      2.00000
    277      -0.0089      2.00000
    278      -0.0089      2.00000
    279      -0.0087      2.00000
    280      -0.0086      2.00000
    281      -0.0086      2.00000
    282      -0.0084      2.00000
    283      -0.0078      2.00000
    284      -0.0075      2.00000
    285      -0.0073      2.00000
    286      -0.0072      2.00000
    287      -0.0070      2.00000
    288      -0.0067      2.00000
    289       0.0067      2.00000
    290       0.0068      2.00000
    291       0.0068      2.00000
    292       0.0352      2.00000
    293       0.0352      2.00000
    294       0.0444      2.00000
    295       0.0444      2.00000
    296       0.0447      2.00000
    297       0.0447      2.00000
    298       0.0450      2.00000
    299       0.0451      2.00000
    300       0.0484      2.00000
    301       0.0488      2.00000
    302       0.0491      2.00000
    303       0.0492      2.00000
    304       0.0494      2.00000
    305       0.0497      2.00000
    306       0.0515      2.00000
    307       0.0518      2.00000
    308       0.0520      2.00000
    309       0.0657      2.00000
    310       0.0658      2.00000
    311       0.0659      2.00000
    312       0.0900      2.00000
    313       0.0902      2.00000
    314       0.0904      2.00000
    315       0.0964      2.00000
    316       0.0966      2.00000
    317       0.0968      2.00000
    318       0.1116      2.00000
    319       0.1116      2.00000
    320       0.1120      2.00000
    321       0.1120      2.00000
    322       0.1123      2.00000
    323       0.1124      2.00000
    324       0.1170      2.00000
    325       0.1175      2.00000
    326       0.1178      2.00000
    327       0.1186      2.00000
    328       0.1189      2.00000
    329       0.1191      2.00000
    330       0.1202      2.00000
    331       0.1205      2.00000
    332       0.1209      2.00000
    333       0.1346      2.00000
    334       0.1348      2.00000
    335       0.1350      2.00000
    336       0.2024      2.00000
    337       0.2029      2.00000
    338       0.2033      2.00000
    339       0.2047      2.00000
    340       0.2050      2.00000
    341       0.2054      2.00000
    342       0.2174      2.00000
    343       0.2177      2.00000
    344       0.2180      2.00000
    345       0.2180      2.00000
    346       0.2183      2.00000
    347       0.2187      2.00000
    348       0.2496      2.00000
    349       0.2500      2.00000
    350       0.2504      2.00000
    351       0.2897      2.00000
    352       0.2898      2.00000
    353       0.2900      2.00000
    354       0.2900      2.00000
    355       0.2902      2.00000
    356       0.2902      2.00000
    357       0.3305      2.00000
    358       0.3305      2.00000
    359       0.3306      2.00000
    360       0.3330      2.00000
    361       0.3331      2.00000
    362       0.3333      2.00000
    363       0.3333      2.00000
    364       0.3335      2.00000
    365       0.3337      2.00000
    366       0.3436      2.00000
    367       0.3436      2.00000
    368       0.3439      2.00000
    369       0.3439      2.00000
    370       0.3442      2.00000
    371       0.3443      2.00000
    372       0.4157      2.00000
    373       0.4157      2.00000
    374       0.4157      2.00000
    375       0.4293      2.00000
    376       0.4296      2.00000
    377       0.4298      2.00000
    378       0.4298      2.00000
    379       0.4299      2.00000
    380       0.4301      2.00000
    381       0.4306      2.00000
    382       0.4308      2.00000
    383       0.4310      2.00000
    384       0.4312      2.00000
    385       0.4313      2.00000
    386       0.4313      2.00000
    387       0.4314      2.00000
    388       0.4317      2.00000
    389       0.4317      2.00000
    390       0.4725      2.00000
    391       0.4728      2.00000
    392       0.4729      2.00000
    393       0.4729      2.00000
    394       0.4731      2.00000
    395       0.4733      2.00000
    396       0.4866      2.00000
    397       0.4867      2.00000
    398       0.4869      2.00000
    399       0.4869      2.00000
    400       0.4871      2.00000
    401       0.4873      2.00000
    402       0.4895      2.00000
    403       0.4896      2.00000
    404       0.4897      2.00000
    405       0.5098      2.00000
    406       0.5101      2.00000
    407       0.5101      2.00000
    408       0.5109      2.00000
    409       0.5112      2.00000
    410       0.5113      2.00000
    411       0.5113      2.00000
    412       0.5114      2.00000
    413       0.5119      2.00000
    414       0.5413      2.00000
    415       0.5413      2.00000
    416       0.5429      2.00000
    417       0.5431      2.00000
    418       0.5434      2.00000
    419       0.5644      2.00000
    420       0.5646      2.00000
    421       0.5648      2.00000
    422       0.5648      2.00000
    423       0.5649      2.00000
    424       0.5652      2.00000
    425       0.5796      2.00000
    426       0.5800      2.00000
    427       0.5804      2.00000
    428       0.6107      2.00000
    429       0.6109      2.00000
    430       0.6111      2.00000
    431       0.6174      2.00000
    432       0.6174      2.00000
    433       0.6237      2.00000
    434       0.6240      2.00000
    435       0.6243      2.00000
    436       0.6664      2.00000
    437       0.6664      2.00000
    438       0.6667      2.00000
    439       0.6667      2.00000
    440       0.6669      2.00000
    441       0.6669      2.00000
    442       0.6753      2.00000
    443       0.6754      2.00000
    444       0.6755      2.00000
    445       0.6853      2.00000
    446       0.6854      2.00000
    447       0.6857      2.00000
    448       0.6857      2.00000
    449       0.6860      2.00000
    450       0.6862      2.00000
    451       0.7289      2.00000
    452       0.7290      2.00000
    453       0.7291      2.00000
    454       0.7461      2.00000
    455       0.7464      2.00000
    456       0.7467      2.00000
    457       0.7498      2.00000
    458       0.7501      2.00000
    459       0.7504      2.00000
    460       0.7602      2.00000
    461       0.7606      2.00000
    462       0.7607      2.00000
    463       0.7607      2.00000
    464       0.7608      2.00000
    465       0.7612      2.00000
    466       0.7663      2.00000
    467       0.7666      2.00000
    468       0.7670      2.00000
    469       0.7712      2.00000
    470       0.7716      2.00000
    471       0.7719      2.00000
    472       0.7747      2.00000
    473       0.7749      2.00000
    474       0.7750      2.00000
    475       0.7750      2.00000
    476       0.7751      2.00000
    477       0.7753      2.00000
    478       0.8189      2.00000
    479       0.8193      2.00000
    480       0.8197      2.00000
    481       0.8265      2.00000
    482       0.8268      2.00000
    483       0.8271      2.00000
    484       0.8665      2.00000
    485       0.8667      2.00000
    486       0.8670      2.00000
    487       0.8817      2.00000
    488       0.8817      2.00000
    489       0.8818      2.00000
    490       0.9047      2.00000
    491       0.9048      2.00000
    492       0.9050      2.00000
    493       0.9050      2.00000
    494       0.9052      2.00000
    495       0.9052      2.00000
    496       0.9056      2.00000
    497       0.9058      2.00000
    498       0.9059      2.00000
    499       0.9059      2.00000
    500       0.9060      2.00000
    501       0.9063      2.00000
    502       0.9094      2.00000
    503       0.9095      2.00000
    504       0.9096      2.00000
    505       0.9096      2.00000
    506       0.9098      2.00000
    507       0.9099      2.00000
    508       0.9115      2.00000
    509       0.9117      2.00000
    510       0.9118      2.00000
    511       0.9118      2.00000
    512       0.9119      2.00000
    513       0.9122      2.00000
    514       0.9175      2.00000
    515       0.9176      2.00000
    516       0.9176      2.00000
    517       0.9188      2.00000
    518       0.9188      2.00000
    519       0.9189      2.00000
    520       0.9331      2.00000
    521       0.9331      2.00000
    522       0.9531      2.00000
    523       0.9549      2.00000
    524       0.9550      2.00000
    525       0.9551      2.00000
    526       0.9551      2.00000
    527       0.9551      2.00000
    528       0.9554      2.00000
    529       0.9650      2.00000
    530       0.9651      2.00000
    531       0.9652      2.00000
    532       0.9652      2.00000
    533       0.9653      2.00000
    534       0.9654      2.00000
    535       0.9719      2.00000
    536       0.9720      2.00000
    537       0.9721      2.00000
    538       0.9750      2.00000
    539       0.9750      2.00000
    540       0.9751      2.00000
    541       0.9890      2.00000
    542       0.9890      2.00000
    543       0.9890      2.00000
    544       0.9968      2.00000
    545       0.9968      2.00000
    546       0.9969      2.00000
    547       1.0228      2.00000
    548       1.0228      2.00000
    549       1.0228      2.00000
    550       1.0510      2.00000
    551       1.0510      2.00000
    552       1.0511      2.00000
    553       1.0511      2.00000
    554       1.0512      2.00000
    555       1.0513      2.00000
    556       1.0570      2.00000
    557       1.0571      2.00000
    558       1.0571      2.00000
    559       1.0571      2.00000
    560       1.0572      2.00000
    561       1.0573      2.00000
    562       1.0700      2.00000
    563       1.0700      2.00000
    564       1.0701      2.00000
    565       1.2044      2.00000
    566       1.2047      2.00000
    567       1.2050      2.00000
    568       1.3331      2.00000
    569       1.3333      2.00000
    570       1.3334      2.00000
    571       1.3866      2.00000
    572       1.3871      2.00000
    573       1.3872      2.00000
    574       1.3872      2.00000
    575       1.3874      2.00000
    576       1.3878      2.00000
    577       1.5758      2.00000
    578       1.5761      2.00000
    579       1.5763      2.00000
    580       1.8890      2.00470
    581       1.8895      2.00475
    582       1.8900      2.00480
    583       2.1833      2.00884
    584       2.1834      2.00865
    585       2.1838      2.00783
    586       2.1838      2.00782
    587       2.1842      2.00700
[...]
   -.170E+01 0.642E-02 0.642E-02   0.170E+01 -.138E-01 -.138E-01   -.111E-01 -.368E-03 -.368E-03   0.138E-01 0.780E-02 0.780E-02
   -.192E+00 -.534E-02 -.534E-02   0.200E+00 -.669E-03 -.669E-03   0.264E-02 -.222E-03 -.222E-03   -.111E-01 0.631E-02 0.631E-02
   -.923E-01 0.460E-08 0.460E-08   0.104E+00 -.485E-08 -.485E-08   0.288E-02 0.173E-21 -.678E-20   -.146E-01 -.590E-10 -.590E-10
   -.100E+00 -.292E+00 -.156E+00   0.102E+00 0.293E+00 0.160E+00   0.276E-02 -.310E-02 -.712E-03   -.464E-02 0.286E-02 -.380E-02
   0.101E+01 -.262E+01 0.298E-08   -.100E+01 0.261E+01 -.506E-09   -.184E-01 0.705E-02 -.271E-19   0.754E-02 0.985E-02 0.534E-09
   0.101E+01 0.397E-07 0.262E+01   -.100E+01 -.482E-07 -.261E+01   -.184E-01 -.129E-09 -.705E-02   0.754E-02 -.433E-09 -.985E-02
   -.100E+00 0.156E+00 0.292E+00   0.102E+00 -.160E+00 -.293E+00   0.276E-02 0.712E-03 0.310E-02   -.464E-02 0.380E-02 -.286E-02
   -.543E-01 0.394E-01 -.716E-09   0.587E-01 -.447E-01 0.747E-09   0.133E-02 0.921E-04 0.678E-20   -.557E-02 0.516E-02 -.117E-10
   0.246E+00 -.242E+00 -.118E-09   -.246E+00 0.237E+00 0.286E-09   -.534E-02 0.429E-02 0.000E+00   0.633E-02 0.414E-04 -.208E-09
   0.497E+00 -.290E+00 0.290E+00   -.499E+00 0.291E+00 -.291E+00   0.396E-02 -.292E-02 0.292E-02   -.262E-02 0.266E-02 -.266E-02
   0.246E+00 0.370E-08 0.242E+00   -.246E+00 -.390E-08 -.237E+00   -.534E-02 -.786E-10 -.429E-02   0.633E-02 -.583E-09 -.414E-04
   0.930E-01 0.397E-01 -.988E-08   -.102E+00 -.445E-01 0.102E-07   0.930E-03 -.324E-03 0.339E-20   0.852E-02 0.503E-02 0.336E-09
   0.234E+00 0.657E-02 -.647E-02   -.249E+00 -.867E-03 0.438E-03   0.149E-02 0.380E-03 -.178E-03   0.131E-01 -.618E-02 0.627E-02
   0.234E+00 0.647E-02 -.657E-02   -.249E+00 -.438E-03 0.867E-03   0.149E-02 0.178E-03 -.380E-03   0.131E-01 -.627E-02 0.618E-02
   0.187E+00 -.451E-09 -.114E-07   -.198E+00 0.671E-09 0.115E-07   -.490E-02 0.105E-20 0.271E-19   0.150E-01 -.666E-09 0.551E-09
   0.936E-01 -.792E-01 0.792E-01   -.965E-01 0.707E-01 -.707E-01   -.136E-03 -.248E-03 0.248E-03   0.344E-02 0.873E-02 -.873E-02
   0.956E-01 -.924E-08 0.521E-01   -.101E+00 0.932E-08 -.448E-01   0.138E-02 0.674E-12 0.368E-04   0.396E-02 0.602E-09 -.755E-02
   -.985E-01 -.168E+00 0.305E+00   0.106E+00 0.160E+00 -.293E+00   0.282E-02 -.783E-03 0.318E-02   -.111E-01 0.883E-02 -.159E-01
   -.985E-01 -.305E+00 0.168E+00   0.106E+00 0.293E+00 -.160E+00   0.282E-02 -.318E-02 0.783E-03   -.111E-01 0.159E-01 -.883E-02
   -.847E-01 0.485E-08 0.475E-10   0.969E-01 -.529E-08 -.340E-09   -.106E-02 -.641E-20 -.678E-20   -.111E-01 -.265E-10 0.351E-09
   -.576E+00 0.945E-09 0.246E-02   0.582E+00 -.653E-09 0.454E-02   -.268E-02 -.594E-11 -.324E-03   -.366E-02 0.524E-09 -.665E-02
   -.170E+01 0.642E-02 -.642E-02   0.170E+01 -.138E-01 0.138E-01   -.111E-01 -.368E-03 0.368E-03   0.138E-01 0.780E-02 -.780E-02
   -.576E+00 -.246E-02 0.105E-08   0.582E+00 -.454E-02 -.736E-09   -.268E-02 0.324E-03 -.678E-20   -.366E-02 0.665E-02 0.448E-09
   -.195E+00 0.133E-07 -.554E-02   0.207E+00 -.138E-07 -.439E-03   0.105E-03 -.405E-11 -.221E-03   -.122E-01 -.518E-09 0.628E-02
   -.100E+00 -.156E+00 -.292E+00   0.102E+00 0.160E+00 0.293E+00   0.276E-02 -.712E-03 -.310E-02   -.464E-02 -.380E-02 0.286E-02
   0.101E+01 -.451E-07 -.262E+01   -.100E+01 0.473E-07 0.261E+01   -.184E-01 0.129E-09 0.705E-02   0.754E-02 0.715E-09 0.985E-02
   0.101E+01 0.262E+01 -.809E-08   -.100E+01 -.261E+01 -.325E-09   -.184E-01 -.705E-02 0.000E+00   0.754E-02 -.985E-02 -.252E-09
   -.100E+00 0.292E+00 0.156E+00   0.102E+00 -.293E+00 -.160E+00   0.276E-02 0.310E-02 0.712E-03   -.464E-02 -.286E-02 0.380E-02
   -.543E-01 0.294E-11 0.394E-01   0.587E-01 -.715E-10 -.447E-01   0.133E-02 0.169E-11 0.921E-04   -.557E-02 0.828E-10 0.516E-02
   0.906E-01 -.668E-01 -.668E-01   -.977E-01 0.700E-01 0.700E-01   -.564E-03 0.367E-03 0.367E-03   0.814E-02 -.371E-02 -.371E-02
   0.497E+00 -.290E+00 -.290E+00   -.499E+00 0.291E+00 0.291E+00   0.396E-02 -.292E-02 -.292E-02   -.262E-02 0.266E-02 0.266E-02
   0.144E+01 -.155E-08 -.166E-08   -.145E+01 0.461E-09 0.462E-09   0.256E-01 -.455E-20 0.000E+00   -.212E-01 -.486E-09 -.486E-09
   0.497E+00 0.290E+00 0.290E+00   -.499E+00 -.291E+00 -.291E+00   0.396E-02 0.292E-02 0.292E-02   -.262E-02 -.266E-02 -.266E-02
   0.906E-01 0.668E-01 0.668E-01   -.977E-01 -.700E-01 -.700E-01   -.564E-03 -.367E-03 -.367E-03   0.814E-02 0.371E-02 0.371E-02
   0.429E-01 -.228E-08 -.239E-08   -.522E-01 0.243E-08 0.243E-08   0.227E-05 -.569E-22 0.339E-20   0.933E-02 0.164E-10 0.165E-10
   0.234E+00 0.657E-02 0.647E-02   -.249E+00 -.867E-03 -.438E-03   0.149E-02 0.380E-03 0.178E-03   0.131E-01 -.618E-02 -.627E-02
   0.597E+00 0.781E-02 -.114E-08   -.594E+00 -.166E-02 0.841E-09   -.370E-02 0.168E-03 -.136E-19   0.157E-02 -.639E-02 -.758E-09
   0.597E+00 -.961E-09 -.781E-02   -.594E+00 0.872E-09 0.166E-02   -.370E-02 -.308E-11 -.168E-03   0.157E-02 -.858E-09 0.639E-02
   0.234E+00 -.647E-02 -.657E-02   -.249E+00 0.438E-03 0.867E-03   0.149E-02 -.178E-03 -.380E-03   0.131E-01 0.627E-02 0.618E-02
   0.102E+00 -.591E-02 -.552E-08   -.120E+00 0.268E-03 0.581E-08   -.168E-03 -.304E-03 -.339E-20   0.176E-01 0.603E-02 0.449E-11
   -.495E-01 -.849E-10 0.509E-01   0.601E-01 -.160E-09 -.446E-01   0.155E-02 0.139E-10 0.759E-03   -.120E-01 0.291E-09 -.729E-02
   -.192E+00 -.534E-02 0.534E-02   0.200E+00 -.669E-03 0.669E-03   0.264E-02 -.222E-03 0.222E-03   -.111E-01 0.631E-02 -.631E-02
   -.195E+00 0.133E-07 0.554E-02   0.207E+00 -.139E-07 0.439E-03   0.105E-03 0.405E-11 0.221E-03   -.122E-01 -.447E-09 -.628E-02
   -.100E+00 0.156E+00 -.292E+00   0.102E+00 -.160E+00 0.293E+00   0.276E-02 0.712E-03 -.310E-02   -.464E-02 0.380E-02 0.286E-02
   -.100E+00 0.292E+00 -.156E+00   0.102E+00 -.293E+00 0.160E+00   0.276E-02 0.310E-02 -.712E-03   -.464E-02 -.286E-02 -.380E-02
   -.881E-01 0.479E-08 0.358E-09   0.942E-01 -.509E-08 -.331E-09   -.144E-02 0.288E-20 0.678E-20   -.453E-02 -.215E-09 0.246E-09
   0.246E+00 -.455E-08 -.242E+00   -.246E+00 0.464E-08 0.237E+00   -.534E-02 0.786E-10 0.429E-02   0.633E-02 -.207E-09 0.414E-04
   0.497E+00 0.290E+00 -.290E+00   -.499E+00 -.291E+00 0.291E+00   0.396E-02 0.292E-02 -.292E-02   -.262E-02 -.266E-02 0.266E-02
   0.246E+00 0.242E+00 -.949E-09   -.246E+00 -.237E+00 0.455E-09   -.534E-02 -.429E-02 0.000E+00   0.633E-02 -.414E-04 -.582E-09
   0.930E-01 -.915E-08 0.397E-01   -.102E+00 0.936E-08 -.445E-01   0.930E-03 -.594E-11 -.324E-03   0.852E-02 0.428E-09 0.503E-02
   0.234E+00 0.647E-02 0.657E-02   -.249E+00 -.438E-03 -.867E-03   0.149E-02 0.178E-03 0.380E-03   0.131E-01 -.627E-02 -.618E-02
   0.597E+00 -.904E-09 0.781E-02   -.594E+00 0.810E-09 -.166E-02   -.370E-02 0.308E-11 0.168E-03   0.157E-02 -.875E-09 -.639E-02
   0.597E+00 -.781E-02 -.714E-09   -.594E+00 0.166E-02 0.842E-09   -.370E-02 -.168E-03 0.000E+00   0.157E-02 0.639E-02 -.975E-09
   0.234E+00 -.657E-02 -.647E-02   -.249E+00 0.867E-03 0.438E-03   0.149E-02 -.380E-03 -.178E-03   0.131E-01 0.618E-02 0.627E-02
   0.102E+00 -.552E-08 -.591E-02   -.120E+00 0.582E-08 0.268E-03   -.168E-03 -.558E-11 -.304E-03   0.176E-01 0.115E-09 0.603E-02
   -.543E-01 0.536E-08 -.394E-01   0.587E-01 -.555E-08 0.447E-01   0.133E-02 -.169E-11 -.921E-04   -.557E-02 -.245E-09 -.516E-02
   0.906E-01 0.668E-01 -.668E-01   -.977E-01 -.700E-01 0.700E-01   -.564E-03 -.367E-03 0.367E-03   0.814E-02 0.371E-02 -.371E-02
   0.930E-01 -.386E-08 -.397E-01   -.102E+00 0.392E-08 0.445E-01   0.930E-03 0.594E-11 0.324E-03   0.852E-02 0.927E-10 -.503E-02
   0.234E+00 -.647E-02 0.657E-02   -.249E+00 0.438E-03 -.867E-03   0.149E-02 -.178E-03 0.380E-03   0.131E-01 0.627E-02 -.618E-02
   0.234E+00 -.657E-02 0.647E-02   -.249E+00 0.867E-03 -.438E-03   0.149E-02 -.380E-03 0.178E-03   0.131E-01 0.618E-02 -.627E-02
   0.187E+00 -.114E-07 -.452E-09   -.198E+00 0.115E-07 0.671E-09   -.490E-02 0.682E-20 0.000E+00   0.150E-01 0.552E-09 -.666E-09
   0.102E+00 -.557E-08 0.591E-02   -.120E+00 0.584E-08 -.268E-03   -.168E-03 0.558E-11 0.304E-03   0.176E-01 0.140E-09 -.603E-02
 -----------------------------------------------------------------------------------------------
   -.543E-02 0.493E-09 -.491E-04   0.146E-10 -.595E-11 -.190E-11   -.225E-02 -.486E-18 -.108E-18   0.106E-01 0.637E-10 0.675E-10
 
 
 POSITION                                       TOTAL-FORCE (eV/Angst)
 -----------------------------------------------------------------------------------
      7.63711      7.63711      3.81855         0.000354      0.000050     -0.000050
      7.63711      9.54639      5.72783        -0.000188     -0.000170     -0.000000
      9.54639      7.63711      5.72783         0.000115     -0.000194     -0.000000
      7.63711      7.63711      0.00000         0.000188      0.000144      0.000000
      7.63711      9.54639      1.90928        -0.000916     -0.000399      0.000399
      7.63711      0.00000      3.81855         0.000188     -0.000000     -0.000144
      7.63711      1.90928      5.72783        -0.000188      0.000170      0.000000
      9.54639      7.63711      1.90928        -0.000530     -0.000404      0.000029
      9.54639      9.54639      3.81855        -0.000530     -0.000029      0.000404
      9.54639      0.00000      5.72783         0.000066      0.000000      0.000000
      0.00000      7.63711      3.81855        -0.000137     -0.000078      0.000078
      0.00000      9.54639      5.72783         0.000152     -0.000078     -0.000000
      1.90928      7.63711      5.72783         0.000174     -0.000012     -0.000000
      7.63711      7.63711      7.63711         0.000354      0.000050      0.000050
      7.63711      9.54639      9.54639        -0.000916     -0.000399     -0.000399
      7.63711      0.00000      0.00000        -0.002481      0.000000     -0.000000
      7.63711      1.90928      1.90928        -0.000916      0.000399      0.000399
      7.63711      3.81855      3.81855         0.000354     -0.000050     -0.000050
      7.63711      5.72783      5.72783        -0.000107     -0.000000      0.000000
      9.54639      7.63711      9.54639        -0.000530     -0.000404     -0.000029
      9.54639      9.54639      0.00000        -0.006555     -0.007130      0.000000
      9.54639      0.00000      1.90928        -0.006555      0.000000      0.007130
      9.54639      1.90928      3.81855        -0.000530      0.000029      0.000404
      9.54639      3.81855      5.72783         0.000115      0.000194     -0.000000
      0.00000      7.63711      0.00000        -0.000109      0.000030      0.000000
      0.00000      9.54639      1.90928         0.000837     -0.000002      0.000002
      0.00000      0.00000      3.81855        -0.000109     -0.000000     -0.000030
      0.00000      1.90928      5.72783         0.000152      0.000078     -0.000000
      1.90928      7.63711      1.90928        -0.000496      0.000295      0.000069
      1.90928      9.54639      3.81855        -0.000496     -0.000069     -0.000295
      1.90928      0.00000      5.72783         0.000135      0.000000     -0.000000
      3.81855      7.63711      3.81855         0.000476     -0.000226      0.000226
      3.81855      9.54639      5.72783        -0.000036      0.000034      0.000000
      5.72783      7.63711      5.72783        -0.000093     -0.000085      0.000000
      7.63711      0.00000      7.63711         0.000188      0.000000      0.000144
      7.63711      1.90928      9.54639        -0.000916      0.000399     -0.000399
      7.63711      3.81855      0.00000         0.000188     -0.000144      0.000000
      7.63711      5.72783      1.90928        -0.000188      0.000000      0.000170
      9.54639      9.54639      7.63711        -0.000530     -0.000029     -0.000404
      9.54639      0.00000      9.54639        -0.006555     -0.000000     -0.007130
      9.54639      1.90928      0.00000        -0.006555      0.007130     -0.000000
      9.54639      3.81855      1.90928        -0.000530      0.000404      0.000029
      9.54639      5.72783      3.81855         0.000115      0.000000      0.000194
      0.00000      7.63711      7.63711        -0.000137     -0.000078     -0.000078
      0.00000      9.54639      9.54639         0.000837     -0.000002     -0.000002
     11.43566      0.00000      0.00000         0.059229     -0.000000      0.000000
      0.00000      1.90928      1.90928         0.000837      0.000002      0.000002
      0.00000      3.81855      3.81855        -0.000137      0.000078      0.000078
      0.00000      5.72783      5.72783        -0.000187     -0.000000      0.000000
      1.90928      7.63711      9.54639        -0.000496      0.000295     -0.000069
      1.90928      9.54639      0.00000        -0.006016      0.006286     -0.000000
      1.90928      0.00000      1.90928        -0.006016     -0.000000     -0.006286
      1.90928      1.90928      3.81855        -0.000496      0.000069     -0.000295
      1.90928      3.81855      5.72783         0.000174      0.000012      0.000000
      3.81855      7.63711      0.00000         0.000276     -0.000309      0.000000
      3.81855      9.54639      1.90928        -0.000870      0.000276     -0.000276
      3.81855      0.00000      3.81855         0.000276      0.000000      0.000309
      3.81855      1.90928      5.72783        -0.000036     -0.000034     -0.000000
      5.72783      7.63711      1.90928         0.000009     -0.000101      0.000064
      5.72783      9.54639      3.81855         0.000009     -0.000064      0.000101
      5.72783      0.00000      5.72783        -0.000246     -0.000000      0.000000
      7.63711      3.81855      7.63711         0.000354     -0.000050      0.000050
      7.63711      5.72783      9.54639        -0.000188     -0.000000     -0.000170
      9.54639      1.90928      7.63711        -0.000530      0.000029     -0.000404
      9.54639      3.81855      9.54639        -0.000530      0.000404     -0.000029
      9.54639      5.72783      0.00000         0.000066     -0.000000      0.000000
      0.00000      0.00000      7.63711        -0.000109      0.000000      0.000030
      0.00000      1.90928      9.54639         0.000837      0.000002     -0.000002
      0.00000      3.81855      0.00000        -0.000109     -0.000030     -0.000000
      0.00000      5.72783      1.90928         0.000152      0.000000      0.000078
      1.90928      9.54639      7.63711        -0.000496     -0.000069      0.000295
      1.90928      0.00000      9.54639        -0.006016      0.000000      0.006286
      1.90928      1.90928      0.00000        -0.006016     -0.006286     -0.000000
      1.90928      3.81855      1.90928        -0.000496     -0.000295      0.000069
      1.90928      5.72783      3.81855         0.000174      0.000000      0.000012
      3.81855      7.63711      7.63711         0.000476     -0.000226     -0.000226
      3.81855      9.54639      9.54639        -0.000870      0.000276      0.000276
      3.81855      0.00000      0.00000        -0.002457      0.000000     -0.000000
      3.81855      1.90928      1.90928        -0.000870     -0.000276     -0.000276
      3.81855      3.81855      3.81855         0.000476      0.000226      0.000226
      3.81855      5.72783      5.72783         0.000015     -0.000000      0.000000
      5.72783      7.63711      9.54639         0.000009     -0.000101     -0.000064
      5.72783      9.54639      0.00000         0.000903     -0.000067     -0.000000
      5.72783      0.00000      1.90928         0.000903      0.000000      0.000067
      5.72783      1.90928      3.81855         0.000009      0.000064      0.000101
      5.72783      3.81855      5.72783        -0.000093      0.000085     -0.000000
      9.54639      5.72783      7.63711         0.000115     -0.000000     -0.000194
      0.00000      3.81855      7.63711        -0.000137      0.000078     -0.000078
      0.00000      5.72783      9.54639         0.000152     -0.000000     -0.000078
      1.90928      1.90928      7.63711        -0.000496      0.000069      0.000295
      1.90928      3.81855      9.54639        -0.000496     -0.000295     -0.000069
      1.90928      5.72783      0.00000         0.000135     -0.000000      0.000000
      3.81855      0.00000      7.63711         0.000276     -0.000000     -0.000309
      3.81855      1.90928      9.54639        -0.000870     -0.000276      0.000276
      3.81855      3.81855      0.00000         0.000276      0.000309      0.000000
      3.81855      5.72783      1.90928        -0.000036     -0.000000     -0.000034
      5.72783      9.54639      7.63711         0.000009     -0.000064     -0.000101
      5.72783      0.00000      9.54639         0.000903     -0.000000     -0.000067
      5.72783      1.90928      0.00000         0.000903      0.000067      0.000000
      5.72783      3.81855      1.90928         0.000009      0.000101      0.000064
      5.72783      5.72783      3.81855        -0.000093      0.000000      0.000085
      1.90928      5.72783      7.63711         0.000174     -0.000000     -0.000012
      3.81855      3.81855      7.63711         0.000476      0.000226     -0.000226
      3.81855      5.72783      9.54639        -0.000036      0.000000      0.000034
      5.72783      1.90928      7.63711         0.000009      0.000064     -0.000101
      5.72783      3.81855      9.54639         0.000009      0.000101     -0.000064
      5.72783      5.72783      0.00000        -0.000246     -0.000000      0.000000
      5.72783      5.72783      7.63711        -0.000093     -0.000000     -0.000085
 -----------------------------------------------------------------------------------
    total drift:                                0.002916      0.000000     -0.000049


--------------------------------------------------------------------------------------------------------



 mean value of Nose-termostat <S>:     1.000 mean value of <T> :     0.000
 mean temperature <T/S>/<1/S>  :     0.000

     LOOP+:  VPU time  501.04: CPU time  501.35

 ----------------------------------------------------------------------------- 
|                                                                             |
|           W    W    AA    RRRRR   N    N  II  N    N   GGGG   !!!           |
|           W    W   A  A   R    R  NN   N  II  NN   N  G    G  !!!           |
|           W    W  A    A  R    R  N N  N  II  N N  N  G       !!!           |
|           W WW W  AAAAAA  RRRRR   N  N N  II  N  N N  G  GGG   !            |
|           WW  WW  A    A  R   R   N   NN  II  N   NN  G    G                |
|           W    W  A    A  R    R  N    N  II  N    N   GGGG   !!!           |
|                                                                             |
|      The partial DOS and the PROCAR file are not evaluated for NPAR/=1      |
|      please rerun with NPAR=1                                               |
|                                                                             |
 ----------------------------------------------------------------------------- 

  
  
 General timing and accounting informations for this job:
 ========================================================
  
                  Total CPU time used (sec):      510.142
                            User time (sec):      501.417
                          System time (sec):        8.726
                         Elapsed time (sec):      510.480
  
                   Maximum memory used (kb):      346104.
                   Average memory used (kb):           0.
  
                          Minor page faults:        72038
                          Major page faults:            0
                 Voluntary context switches:          834
