   4   4   0   0
  0.1548436E+02  0.3956560E-09  0.3956560E-09  0.3956560E-09  0.5000000E-15
  1.000000000000000E-004
  CAR 
 unknown system                          
     21.60439135     -4.06925690  301      8.68009902      1.00000000
     -4.069  0.0000E+00  0.0000E+00
     -3.984  0.0000E+00  0.0000E+00
     -3.898  0.0000E+00  0.0000E+00
     -3.813  0.0000E+00  0.0000E+00
     -3.727  0.0000E+00  0.0000E+00
     -3.641  0.0000E+00  0.0000E+00
     -3.556  0.0000E+00  0.0000E+00
     -3.470  0.0000E+00  0.0000E+00
     -3.385  0.0000E+00  0.0000E+00
     -3.299  0.0000E+00  0.0000E+00
     -3.213  0.0000E+00  0.0000E+00
     -3.128  0.0000E+00  0.0000E+00
     -3.042  0.0000E+00  0.0000E+00
     -2.957  0.9084E-16  0.7774E-17
     -2.871  0.1352E-01  0.1157E-02
     -2.786  0.8436E-01  0.8377E-02
     -2.700  0.2434E+00  0.2921E-01
     -2.614  0.8113E-01  0.3819E-01
     -2.529  0.3254E+00  0.6604E-01
     -2.443  0.3238E+00  0.9375E-01
     -2.358  0.1620E+00  0.1076E+00
     -2.272  0.4058E+00  0.1424E+00
     -2.187  0.4092E+00  0.1774E+00
     -2.101  0.1068E+00  0.2071E+00
     -2.015  0.3246E+00  0.2350E+00
     -1.930  0.6492E+00  0.2905E+00
     -1.844  0.7714E-01  0.2971E+00
     -1.759  0.6492E+00  0.3530E+00
     -1.673  0.4997E+00  0.3958E+00
     -1.587  0.5956E+00  0.4467E+00
     -1.502  0.6492E+00  0.5058E+00
     -1.416  0.3246E+00  0.5336E+00
     -1.331  0.2478E+00  0.5548E+00
     -1.245  0.4057E+00  0.5961E+00
     -1.160  0.9759E+00  0.6796E+00
     -1.074  0.4307E+00  0.7164E+00
     -0.988  0.9733E+00  0.7997E+00
     -0.903  0.6492E+00  0.8553E+00
     -0.817  0.8561E-01  0.8627E+00
     -0.732  0.6484E+00  0.9247E+00
     -0.646  0.6498E+00  0.9804E+00
     -0.561  0.8277E+00  0.1051E+01
     -0.475  0.3239E+00  0.1098E+01
     -0.389  0.9738E+00  0.1182E+01
     -0.304  0.1280E+00  0.1193E+01
     -0.218  0.1294E+01  0.1320E+01
     -0.133  0.6493E+00  0.1376E+01
     -0.047  0.4433E+00  0.1414E+01
      0.039  0.9699E+00  0.1515E+01
      0.124  0.6492E+00  0.1571E+01
      0.210  0.3781E-01  0.1574E+01
      0.295  0.7278E+00  0.1642E+01
      0.381  0.1136E+01  0.1740E+01
      0.466  0.7756E+00  0.1806E+01
      0.552  0.9713E+00  0.1906E+01
      0.638  0.1298E+01  0.2017E+01
      0.723  0.2865E+00  0.2042E+01
      0.809  0.6481E+00  0.2128E+01
      0.894  0.3261E+00  0.2156E+01
      0.980  0.9723E+00  0.2240E+01
      1.065  0.9730E+00  0.2323E+01
      1.151  0.1298E+01  0.2434E+01
      1.237  0.6078E-01  0.2439E+01
      1.322  0.1298E+01  0.2552E+01
      1.408  0.1302E+01  0.2663E+01
      1.493  0.8425E+00  0.2736E+01
      1.579  0.1298E+01  0.2858E+01
      1.665  0.6492E+00  0.2913E+01
      1.750  0.4437E+00  0.2951E+01
      1.836  0.6492E+00  0.3010E+01
      1.921  0.1679E+01  0.3154E+01
      2.007  0.1011E+01  0.3241E+01
      2.092  0.1298E+01  0.3353E+01
      2.178  0.6492E+00  0.3409E+01
      2.264  0.3228E+00  0.3436E+01
      2.349  0.1382E+01  0.3555E+01
      2.435  0.1166E+01  0.3654E+01
      2.520  0.6488E+00  0.3749E+01
      2.606  0.6755E+00  0.3807E+01
      2.691  0.1597E+01  0.3943E+01
      2.777  0.3246E+00  0.3971E+01
      2.863  0.2054E+01  0.4147E+01
      2.948  0.2157E+01  0.4331E+01
      3.034  0.1711E-04  0.4332E+01
      3.119  0.1074E+01  0.4424E+01
      3.205  0.5120E+00  0.4499E+01
      3.291  0.3320E+00  0.4527E+01
      3.376  0.1648E+01  0.4668E+01
      3.462  0.9738E+00  0.4791E+01
      3.547  0.8078E+00  0.4860E+01
      3.633  0.2385E+01  0.5072E+01
      3.718  0.1518E-01  0.5077E+01
      3.804  0.2026E+01  0.5250E+01
      3.890  0.1027E+01  0.5358E+01
      3.975  0.1403E+01  0.5478E+01
      4.061  0.9470E+00  0.5578E+01
      4.146  0.1298E+01  0.5691E+01
      4.232  0.3786E+00  0.5723E+01
      4.317  0.1514E+01  0.5853E+01
      4.403  0.1012E+01  0.5949E+01
      4.489  0.9295E+00  0.6028E+01
      4.574  0.1626E+01  0.6168E+01
      4.660  0.1306E+01  0.6280E+01
      4.745  0.1693E+01  0.6425E+01
      4.831  0.9789E+00  0.6509E+01
      4.917  0.8142E+00  0.6578E+01
      5.002  0.6770E+00  0.6649E+01
      5.088  0.2124E+01  0.6831E+01
      5.173  0.6375E+00  0.6953E+01
      5.259  0.7729E+00  0.7019E+01
      5.344  0.2066E+01  0.7227E+01
      5.430  0.1816E+01  0.7411E+01
      5.516  0.6711E+00  0.7468E+01
      5.601  0.6083E+00  0.7546E+01
      5.687  0.5226E+00  0.7598E+01
      5.772  0.2854E+01  0.7842E+01
      5.858  0.1456E+01  0.7983E+01
      5.943  0.1589E+01  0.8120E+01
      6.029  0.6443E+00  0.8178E+01
      6.115  0.1375E+01  0.8296E+01
      6.200  0.1349E+01  0.8419E+01
      6.286  0.1008E+01  0.8515E+01
      6.371  0.2058E+01  0.8691E+01
      6.457  0.6708E+00  0.8769E+01
      6.543  0.9782E+00  0.8855E+01
      6.628  0.2093E+01  0.9034E+01
      6.714  0.3753E+00  0.9067E+01
      6.799  0.2035E+01  0.9259E+01
      6.885  0.2248E+01  0.9466E+01
      6.970  0.9661E+00  0.9549E+01
      7.056  0.1216E-01  0.9550E+01
      7.142  0.1466E+01  0.9678E+01
      7.227  0.1283E+01  0.9802E+01
      7.313  0.2263E+01  0.9996E+01
      7.398  0.1298E+01  0.1012E+02
      7.484  0.6516E+00  0.1018E+02
      7.569  0.1603E+01  0.1035E+02
      7.655  0.1909E+01  0.1051E+02
      7.741  0.9812E+00  0.1061E+02
      7.826  0.1446E+01  0.1073E+02
      7.912  0.1108E+01  0.1083E+02
      7.997  0.2437E+01  0.1104E+02
      8.083  0.1205E+01  0.1117E+02
      8.169  0.4997E+00  0.1121E+02
      8.254  0.5255E-03  0.1123E+02
      8.340  0.2297E+01  0.1142E+02
      8.425  0.1331E+01  0.1157E+02
      8.511  0.1477E+01  0.1173E+02
      8.596  0.2175E+01  0.1192E+02
      8.682  0.9368E+00  0.1201E+02
      8.768  0.2380E+01  0.1226E+02
      8.853  0.5539E+00  0.1234E+02
      8.939  0.3260E+00  0.1240E+02
      9.024  0.1909E+01  0.1256E+02
      9.110  0.9697E+00  0.1265E+02
      9.195  0.1185E+01  0.1275E+02
      9.281  0.2288E+01  0.1295E+02
      9.367  0.1457E+01  0.1308E+02
      9.452  0.6554E+00  0.1317E+02
      9.538  0.1015E+01  0.1327E+02
      9.623  0.1607E+01  0.1343E+02
      9.709  0.2444E+01  0.1365E+02
      9.795  0.1970E+01  0.1382E+02
      9.880  0.1527E+01  0.1395E+02
      9.966  0.1523E+01  0.1414E+02
     10.051  0.1233E+01  0.1425E+02
     10.137  0.9799E+00  0.1433E+02
     10.222  0.2577E+01  0.1455E+02
     10.308  0.1622E+00  0.1458E+02
     10.394  0.1855E+01  0.1473E+02
     10.479  0.1431E+01  0.1489E+02
     10.565  0.1281E+01  0.1500E+02
     10.650  0.1829E+01  0.1518E+02
     10.736  0.2587E+01  0.1541E+02
     10.821  0.7844E+00  0.1548E+02
     10.907  0.2587E+01  0.1574E+02
     10.993  0.1116E+01  0.1584E+02
     11.078  0.1309E-02  0.1585E+02
     11.164  0.1141E+01  0.1595E+02
     11.249  0.2746E+01  0.1619E+02
     11.335  0.1265E+01  0.1629E+02
     11.421  0.2210E+01  0.1650E+02
     11.506  0.1435E+01  0.1664E+02
     11.592  0.1503E+01  0.1677E+02
     11.677  0.1431E+01  0.1692E+02
     11.763  0.2597E+01  0.1714E+02
     11.848  0.2158E+01  0.1732E+02
     11.934  0.1380E+01  0.1744E+02
     12.020  0.1264E+01  0.1755E+02
     12.105  0.1944E+01  0.1773E+02
     12.191  0.2225E+01  0.1793E+02
     12.276  0.1254E+01  0.1806E+02
     12.362  0.2235E+01  0.1826E+02
     12.447  0.1245E+01  0.1836E+02
     12.533  0.1252E+01  0.1848E+02
     12.619  0.2921E+01  0.1873E+02
     12.704  0.3266E+00  0.1884E+02
     12.790  0.7085E+00  0.1890E+02
     12.875  0.2509E+01  0.1912E+02
     12.961  0.2328E+01  0.1934E+02
     13.047  0.7821E+00  0.1942E+02
     13.132  0.1819E+01  0.1958E+02
     13.218  0.1491E+01  0.1971E+02
     13.303  0.2091E+01  0.1989E+02
     13.389  0.2133E+01  0.2009E+02
     13.474  0.1737E+01  0.2025E+02
     13.560  0.3809E+01  0.2060E+02
     13.646  0.9752E+00  0.2068E+02
     13.731  0.1878E+01  0.2084E+02
     13.817  0.1817E+01  0.2106E+02
     13.902  0.9738E+00  0.2115E+02
     13.988  0.7167E+00  0.2122E+02
     14.073  0.2270E+01  0.2141E+02
     14.159  0.2964E+01  0.2167E+02
     14.245  0.1055E+01  0.2177E+02
     14.330  0.8459E+00  0.2184E+02
     14.416  0.1365E+01  0.2197E+02
     14.501  0.1623E+01  0.2212E+02
     14.587  0.1078E+01  0.2221E+02
     14.673  0.6472E+00  0.2226E+02
     14.758  0.1186E+01  0.2237E+02
     14.844  0.6760E+00  0.2242E+02
     14.929  0.1210E+01  0.2253E+02
     15.015  0.2068E+01  0.2271E+02
     15.100  0.1268E+01  0.2282E+02
     15.186  0.1331E+01  0.2293E+02
     15.272  0.2164E+00  0.2295E+02
     15.357  0.0000E+00  0.2295E+02
     15.443  0.0000E+00  0.2295E+02
     15.528  0.1313E+00  0.2296E+02
     15.614  0.3273E+00  0.2301E+02
     15.699  0.1668E+01  0.2319E+02
     15.785  0.9202E+00  0.2327E+02
     15.871  0.0000E+00  0.2327E+02
     15.956  0.5510E-13  0.2327E+02
     16.042  0.8488E+00  0.2334E+02
     16.127  0.2861E+00  0.2337E+02
     16.213  0.3222E+00  0.2341E+02
     16.299  0.8115E-01  0.2342E+02
     16.384  0.2286E+00  0.2344E+02
     16.470  0.6491E+00  0.2353E+02
     16.555  0.0000E+00  0.2353E+02
     16.641  0.3245E+00  0.2356E+02
     16.726  0.0000E+00  0.2356E+02
     16.812  0.6449E+00  0.2362E+02
     16.898  0.0000E+00  0.2362E+02
     16.983  0.1791E-11  0.2362E+02
     17.069  0.6491E+00  0.2367E+02
     17.154  0.3200E+00  0.2370E+02
     17.240  0.2299E-01  0.2370E+02
     17.325  0.6180E+00  0.2375E+02
     17.411  0.1973E-01  0.2377E+02
     17.497  0.3049E+00  0.2379E+02
     17.582  0.0000E+00  0.2379E+02
     17.668  0.0000E+00  0.2379E+02
     17.753  0.2967E+00  0.2382E+02
     17.839  0.0000E+00  0.2382E+02
     17.925  0.0000E+00  0.2382E+02
     18.010  0.5129E-06  0.2382E+02
     18.096  0.9734E+00  0.2390E+02
     18.181  0.0000E+00  0.2390E+02
     18.267  0.0000E+00  0.2390E+02
     18.352  0.0000E+00  0.2390E+02
     18.438  0.1301E-01  0.2390E+02
     18.524  0.3116E+00  0.2393E+02
     18.609  0.0000E+00  0.2393E+02
     18.695  0.3844E-15  0.2393E+02
     18.780  0.4328E+00  0.2397E+02
     18.866  0.0000E+00  0.2397E+02
     18.951  0.0000E+00  0.2397E+02
     19.037  0.0000E+00  0.2397E+02
     19.123  0.5952E-03  0.2397E+02
     19.208  0.3240E+00  0.2400E+02
     19.294  0.0000E+00  0.2400E+02
     19.379  0.0000E+00  0.2400E+02
     19.465  0.0000E+00  0.2400E+02
     19.550  0.0000E+00  0.2400E+02
     19.636  0.0000E+00  0.2400E+02
     19.722  0.0000E+00  0.2400E+02
     19.807  0.0000E+00  0.2400E+02
     19.893  0.0000E+00  0.2400E+02
     19.978  0.0000E+00  0.2400E+02
     20.064  0.0000E+00  0.2400E+02
     20.150  0.0000E+00  0.2400E+02
     20.235  0.0000E+00  0.2400E+02
     20.321  0.0000E+00  0.2400E+02
     20.406  0.2919E-06  0.2400E+02
     20.492  0.5410E-01  0.2400E+02
     20.577  0.0000E+00  0.2400E+02
     20.663  0.0000E+00  0.2400E+02
     20.749  0.0000E+00  0.2400E+02
     20.834  0.0000E+00  0.2400E+02
     20.920  0.0000E+00  0.2400E+02
     21.005  0.0000E+00  0.2400E+02
     21.091  0.0000E+00  0.2400E+02
     21.176  0.0000E+00  0.2400E+02
     21.262  0.0000E+00  0.2400E+02
     21.348  0.0000E+00  0.2400E+02
     21.433  0.0000E+00  0.2400E+02
     21.519  0.0000E+00  0.2400E+02
     21.604  0.0000E+00  0.2400E+02
