    4    4    1    1
  0.1548436E+02  0.3956560E-09  0.3956560E-09  0.3956560E-09  0.5000000E-15
  1.000000000000000E-004
  CAR 
 unknown system                          
   12   84   12
 
  0.0000000E+00  0.0000000E+00  0.0000000E+00  0.5787037E-03
   1       -2.9023
   2        5.6008
   3        5.6008
   4        5.6008
   5        7.0597
   6        7.0597
   7        7.0597
   8       13.9499
   9       13.9499
  10       13.9499
  11       14.5793
  12       14.5793
 
  0.8333333E-01  0.0000000E+00  0.0000000E+00  0.3472222E-02
   1       -2.8366
   2        4.7238
   3        5.6604
   4        5.6604
   5        7.1218
   6        7.1218
   7        8.0488
   8       12.8412
   9       12.8412
  10       14.0147
  11       14.1468
  12       14.1468
 
  0.1666667E+00  0.0000000E+00  0.0000000E+00  0.3472222E-02
   1       -2.6399
   2        3.4814
   3        5.8393
   4        5.8393
   5        7.3066
   6        7.3066
   7        9.6275
   8       11.5904
   9       11.5904
  10       13.2394
  11       13.2394
  12       14.2091
 
  0.2500000E+00  0.0000000E+00  0.0000000E+00  0.3472222E-02
   1       -2.3126
   2        2.3040
   3        6.1376
   4        6.1376
   5        7.6086
   6        7.6086
   7       10.4508
   8       10.4508
   9       11.3647
  10       12.2459
  11       12.2459
  12       14.5327
 
  0.3333333E+00  0.0000000E+00  0.0000000E+00  0.3472222E-02
   1       -1.8559
   2        1.2319
   3        6.5555
   4        6.5555
   5        8.0126
   6        8.0126
   7        9.4304
   8        9.4304
   9       11.3102
  10       11.3102
  11       13.2189
  12       14.9847
 
  0.4166667E+00  0.0000000E+00  0.0000000E+00  0.3472222E-02
   1       -1.2709
   2        0.2757
   3        7.0935
   4        7.0935
   5        8.4664
   6        8.4664
   7        8.5306
   8        8.5306
   9       10.5272
  10       10.5272
  11       15.1774
  12       15.5638
 
  0.5000000E+00  0.0000000E+00  0.0000000E+00  0.1736111E-02
   1       -0.5596
   2       -0.5596
   3        7.7517
   4        7.7517
   5        7.7517
   6        7.7517
   7        8.7338
   8        8.7338
   9       10.1486
  10       10.1486
  11       16.2679
  12       16.2682
 
  0.8333333E-01  0.8333333E-01  0.0000000E+00  0.6944444E-02
   1       -2.7710
   2        4.7850
   3        4.7850
   4        5.7200
   5        7.1832
   6        8.1088
   7        8.1088
   8       12.0068
   9       12.9022
  10       12.9022
  11       14.2037
  12       14.2037
 
  0.1666667E+00  0.8333333E-01  0.0000000E+00  0.1388889E-01
   1       -2.5744
   2        3.5436
   3        4.9685
   4        5.8989
   5        7.3648
   6        8.2872
   7        9.6846
   8       10.8263
   9       11.6509
  10       13.0851
  11       13.3002
  12       14.0662
 
  0.2500000E+00  0.8333333E-01  0.0000000E+00  0.1388889E-01
   1       -2.2473
   2        2.3670
   3        5.2736
   4        6.1973
   5        7.6550
   6        8.5771
   7        9.7223
   8       10.5110
   9       11.4165
  10       12.3134
  11       13.0870
  12       13.3894
 
  0.3333333E+00  0.8333333E-01  0.0000000E+00  0.1388889E-01
   1       -1.7908
   2        1.2955
   3        5.6993
   4        6.6153
   5        7.9735
   6        8.8078
   7        8.9560
   8        9.4905
   9       11.3960
  10       12.1405
  11       13.2563
  12       13.8145
 
  0.4166667E+00  0.8333333E-01  0.0000000E+00  0.1388889E-01
   1       -1.2061
   2        0.3398
   3        6.2433
   4        7.1533
   5        7.6306
   6        8.5906
   7        8.7609
   8        9.3148
   9       10.7024
  10       11.3048
  11       14.3596
  12       15.1088
 
  0.5000000E+00  0.8333333E-01  0.0000000E+00  0.6944444E-02
   1       -0.4952
   2       -0.4952
   3        6.8989
   4        6.8989
   5        7.8117
   6        7.8117
   7        9.2202
   8        9.2202
   9       10.6884
  10       10.6884
  11       15.0231
  12       15.0231
 
  0.1666667E+00  0.1666667E+00  0.0000000E+00  0.6944444E-02
   1       -2.3780
   2        3.7303
   3        3.7303
   4        6.0779
   5        7.5308
   6        9.6837
   7        9.8526
   8        9.8526
   9       11.8323
  10       11.8323
  11       13.4843
  12       13.4843
 
  0.2500000E+00  0.1666667E+00  0.0000000E+00  0.1388889E-01
   1       -2.0515
   2        2.5558
   3        4.0407
   4        6.3764
   5        7.7229
   6        8.6837
   7       10.1141
   8       10.6919
   9       11.5607
  10       12.1345
  11       12.5250
  12       13.8013
 
  0.3333333E+00  0.1666667E+00  0.0000000E+00  0.1388889E-01
   1       -1.5956
   2        1.4860
   3        4.4737
   4        6.7946
   5        7.3113
   6        8.5050
   7        9.6709
   8       10.3789
   9       11.7168
  10       12.5572
  11       13.2974
  12       13.6023
 
  0.4166667E+00  0.1666667E+00  0.0000000E+00  0.1388889E-01
   1       -1.0118
   2        0.5318
   3        5.0275
   4        6.4761
   5        7.3329
   6        8.7708
   7        8.9726
   8       10.2082
   9       11.5439
  10       12.7601
  11       13.1001
  12       14.4810
 
  0.5000000E+00  0.1666667E+00  0.0000000E+00  0.6944444E-02
   1       -0.3019
   2       -0.3019
   3        5.6983
   4        5.6983
   5        7.9915
   6        7.9915
   7        9.5886
   8        9.5886
   9       12.0384
  10       12.0384
  11       13.7625
  12       13.7625
 
  0.2500000E+00  0.2500000E+00  0.0000000E+00  0.6944444E-02
   1       -1.7257
   2        2.8699
   3        2.8699
   4        6.6751
   5        7.1977
   6        8.3994
   7       10.9932
   8       10.9932
   9       11.7141
  10       11.7141
  11       12.9528
  12       12.9528
 
  0.3333333E+00  0.2500000E+00  0.0000000E+00  0.1388889E-01
   1       -1.2709
   2        1.8031
   3        3.3083
   4        6.2474
   5        7.0936
   6        8.7571
   7        9.9717
   8       11.4150
   9       11.4305
  10       12.6913
  11       12.8703
  12       14.0582
 
  0.4166667E+00  0.2500000E+00  0.0000000E+00  0.1388889E-01
   1       -0.6886
   2        0.8512
   3        3.8693
   4        5.3470
   5        7.6322
   6        9.0710
   7        9.2921
   8       10.6926
   9       11.9572
  10       13.0783
  11       13.4013
  12       13.5438
 
  0.5000000E+00  0.2500000E+00  0.0000000E+00  0.6944444E-02
   1        0.0196
   2        0.0196
   3        4.5504
   4        4.5504
   5        8.2913
   6        8.2913
   7        9.9475
   8        9.9475
   9       12.6194
  10       12.6194
  11       13.6825
  12       13.6825
 
  0.3333333E+00  0.3333333E+00  0.0000000E+00  0.6944444E-02
   1       -0.8177
   2        2.2456
   3        2.2456
   4        5.2279
   5        7.5125
   6        9.1795
   7       10.3929
   8       10.3929
   9       12.0212
  10       12.0212
  11       13.2807
  12       14.3605
 
  0.4166667E+00  0.3333333E+00  0.0000000E+00  0.1388889E-01
   1       -0.2374
   2        1.2971
   3        2.8121
   4        4.3078
   5        8.0516
   6        9.4916
   7        9.7308
   8       10.9344
   9       11.1696
  10       12.3786
  11       12.6055
  12       14.0412
 
  0.5000000E+00  0.3333333E+00  0.0000000E+00  0.6944444E-02
   1        0.4684
   2        0.4684
   3        3.5006
   4        3.5006
   5        8.7112
   6        8.7112
   7       10.3983
   8       10.3983
   9       11.5964
  10       11.5964
  11       13.2750
  12       13.2750
 
  0.4166667E+00  0.4166667E+00  0.0000000E+00  0.6944444E-02
   1        0.3405
   2        1.8682
   3        1.8682
   4        3.3770
   5        8.5913
   6       10.0325
   7       10.0325
   8       10.2876
   9       11.4760
  10       11.7351
  11       11.7351
  12       13.1754
 
  0.5000000E+00  0.4166667E+00  0.0000000E+00  0.6944444E-02
   1        1.0431
   2        1.0431
   3        2.5624
   4        2.5624
   5        9.2515
   6        9.2515
   7       10.6940
   8       10.6940
   9       10.9582
  10       10.9582
  11       12.4040
  12       12.4040
 
  0.5000000E+00  0.5000000E+00  0.0000000E+00  0.1736111E-02
   1        1.7419
   2        1.7419
   3        1.7419
   4        1.7419
   5        9.9124
   6        9.9124
   7        9.9124
   8        9.9124
   9       11.6284
  10       11.6284
  11       11.6284
  12       11.6284
 
  0.8333333E-01  0.8333333E-01  0.8333333E-01  0.4629630E-02
   1       -2.7054
   2        4.8462
   3        4.8462
   4        4.8462
   5        8.1678
   6        8.1678
   7        8.1678
   8       12.0684
   9       12.0684
  10       12.0684
  11       14.7451
  12       14.7451
 
  0.1666667E+00  0.8333333E-01  0.8333333E-01  0.1388889E-01
   1       -2.5089
   2        3.6059
   3        5.0295
   4        5.0295
   5        8.3412
   6        8.3412
   7        9.7389
   8       10.8912
   9       10.8912
  10       12.2545
  11       14.1247
  12       14.1247
 
  0.2500000E+00  0.8333333E-01  0.8333333E-01  0.1388889E-01
   1       -2.1820
   2        2.4300
   3        5.3342
   4        5.3342
   5        8.6040
   6        8.6040
   7        9.8061
   8        9.8061
   9       11.4528
  10       12.5763
  11       13.1494
  12       13.1494
 
  0.3333333E+00  0.8333333E-01  0.8333333E-01  0.1388889E-01
   1       -1.7257
   2        1.3590
   3        5.7587
   4        5.7587
   5        8.5607
   6        8.5607
   7        9.2402
   8        9.2402
   9       12.2105
  10       12.2105
  11       12.8749
  12       13.4250
 
  0.4166667E+00  0.8333333E-01  0.8333333E-01  0.1388889E-01
   1       -1.1413
   2        0.4038
   3        6.2972
   4        6.2972
   5        7.7705
   6        7.7705
   7        9.6119
   8        9.6119
   9       11.4033
  10       11.4033
  11       13.4790
  12       14.9241
 
  0.5000000E+00  0.8333333E-01  0.8333333E-01  0.6944444E-02
   1       -0.4307
   2       -0.4307
   3        6.8176
   4        6.8176
   5        7.1421
   6        7.1421
   7        9.9132
   8        9.9132
   9       10.9791
  10       10.9791
  11       14.1466
  12       14.1466
 
  0.1666667E+00  0.1666667E+00  0.8333333E-01  0.1388889E-01
   1       -2.3127
   2        3.7924
   3        3.7924
   4        5.2121
   5        8.4812
   6        9.7716
   7        9.8854
   8        9.8854
   9       11.0985
  10       11.0985
  11       14.3004
  12       14.3004
 
  0.2500000E+00  0.1666667E+00  0.8333333E-01  0.2777778E-01
   1       -1.9862
   2        2.6187
   3        4.1025
   4        5.5150
   5        8.3478
   6        9.0925
   7        9.7672
   8       10.3802
   9       11.2143
  10       11.7969
  11       13.3391
  12       14.5552
 
  0.3333333E+00  0.1666667E+00  0.8333333E-01  0.2777778E-01
   1       -1.5306
   2        1.5495
   3        4.5350
   4        5.9324
   5        7.4779
   6        8.8558
   7        9.3709
   8       10.6399
   9       11.7351
  10       12.4374
  11       13.5230
  12       13.6642
 
  0.4166667E+00  0.1666667E+00  0.8333333E-01  0.2777778E-01
   1       -0.9471
   2        0.5957
   3        5.0871
   4        6.3464
   5        6.7222
   6        7.9685
   7        9.8768
   8       10.8714
   9       11.8547
  10       12.2911
  11       12.8289
  12       13.7362
 
  0.5000000E+00  0.1666667E+00  0.8333333E-01  0.1388889E-01
   1       -0.2375
   2       -0.2375
   3        5.7504
   4        5.7504
   5        7.1962
   6        7.1962
   7       10.4674
   8       10.4674
   9       12.1352
  10       12.1352
  11       12.9566
  12       12.9566
 
  0.2500000E+00  0.2500000E+00  0.8333333E-01  0.1388889E-01
   1       -1.6606
   2        2.9326
   3        2.9326
   4        5.8106
   5        7.3695
   6        9.2650
   7       10.1818
   8       10.1818
   9       11.9574
  10       11.9574
  11       13.6737
  12       13.6737
 
  0.3333333E+00  0.2500000E+00  0.8333333E-01  0.2777778E-01
   1       -1.2061
   2        1.8664
   3        3.3706
   4        6.1068
   5        6.4935
   6        9.1763
   7        9.6703
   8       10.6216
   9       12.0862
  10       12.9950
  11       13.5146
  12       13.5435
 
  0.4166667E+00  0.2500000E+00  0.8333333E-01  0.2777778E-01
   1       -0.6240
   2        0.9150
   3        3.9310
   4        5.3990
   5        6.8370
   6        8.2764
   7       10.2058
   8       11.1709
   9       11.5635
  10       12.6181
  11       13.1707
  12       14.4071
 
  0.5000000E+00  0.2500000E+00  0.8333333E-01  0.1388889E-01
   1        0.0838
   2        0.0838
   3        4.6104
   4        4.6104
   5        7.4933
   6        7.4933
   7       10.8501
   8       10.8501
   9       11.8363
  10       11.8363
  11       13.7497
  12       13.7497
 
  0.3333333E+00  0.3333333E+00  0.8333333E-01  0.1388889E-01
   1       -0.7531
   2        2.3086
   3        2.3086
   4        5.2800
   5        6.7163
   6        9.6065
   7        9.6065
   8       10.0967
   9       12.5031
  10       12.8852
  11       12.8852
  12       14.4445
 
  0.4166667E+00  0.3333333E+00  0.8333333E-01  0.2777778E-01
   1       -0.1730
   2        1.3607
   3        2.8748
   4        4.3679
   5        7.2525
   6        8.7034
   7       10.1540
   8       10.6423
   9       11.6036
  10       12.0596
  11       13.4845
  12       14.9148
 
  0.5000000E+00  0.3333333E+00  0.8333333E-01  0.1388889E-01
   1        0.5324
   2        0.5324
   3        3.5626
   4        3.5626
   5        7.9175
   6        7.9175
   7       10.8200
   8       10.8200
   9       11.3005
  10       11.3005
  11       14.1518
  12       14.1518
 
  0.4166667E+00  0.4166667E+00  0.8333333E-01  0.1388889E-01
   1        0.4045
   2        1.9314
   3        1.9314
   4        3.4390
   5        7.7971
   6        9.2503
   7        9.2503
   8       10.7019
   9       11.1925
  10       12.6230
  11       12.6230
  12       14.0527
 
  0.5000000E+00  0.4166667E+00  0.8333333E-01  0.1388889E-01
   1        1.1068
   2        1.1068
   3        2.6252
   4        2.6252
   5        8.4639
   6        8.4639
   7        9.9168
   8        9.9168
   9       11.8547
  10       11.8547
  11       13.2865
  12       13.2865
 
  0.5000000E+00  0.5000000E+00  0.8333333E-01  0.3472222E-02
   1        1.8053
   2        1.8053
   3        1.8053
   4        1.8053
   5        9.1308
   6        9.1308
   7        9.1308
   8        9.1308
   9       12.5178
  10       12.5178
  11       12.5178
  12       12.5178
 
  0.1666667E+00  0.1666667E+00  0.1666667E+00  0.4629630E-02
   1       -2.1167
   2        3.9784
   3        3.9784
   4        3.9784
   5        9.6707
   6        9.6707
   7        9.6707
   8       10.3329
   9       10.3329
  10       10.3329
  11       15.2435
  12       15.2435
 
  0.2500000E+00  0.1666667E+00  0.1666667E+00  0.1388889E-01
   1       -1.7908
   2        2.8071
   3        4.2875
   4        4.2875
   5        8.6841
   6        8.6841
   7       10.1196
   8       10.4991
   9       10.4991
  10       11.9150
  11       14.4651
  12       14.7295
 
  0.3333333E+00  0.1666667E+00  0.1666667E+00  0.1388889E-01
   1       -1.3358
   2        1.7397
   3        4.7175
   4        4.7175
   5        7.6844
   6        7.6844
   7       10.5656
   8       10.8867
   9       10.8867
  10       13.4613
  11       13.7346
  12       13.8525
 
  0.4166667E+00  0.1666667E+00  0.1666667E+00  0.1388889E-01
   1       -0.7532
   2        0.7874
   3        5.2601
   4        5.2601
   5        6.7913
   6        6.7913
   7       11.1174
   8       11.3677
   9       11.3677
  10       12.5660
  11       13.0523
  12       13.0523
 
  0.5000000E+00  0.1666667E+00  0.1666667E+00  0.6944444E-02
   1       -0.0446
   2       -0.0446
   3        5.7571
   4        5.7571
   5        6.1767
   6        6.1767
   7       11.7076
   8       11.7076
   9       11.7840
  10       11.7840
  11       12.6035
  12       12.6035
 
  0.2500000E+00  0.2500000E+00  0.1666667E+00  0.1388889E-01
   1       -1.4656
   2        3.1204
   3        3.1204
   4        4.5940
   5        7.5778
   6        9.0131
   7        9.0131
   8       10.7913
   9       12.1920
  10       12.1920
  11       13.3584
  12       15.0241
 
  0.3333333E+00  0.2500000E+00  0.1666667E+00  0.2777778E-01
   1       -1.0118
   2        2.0561
   3        3.5572
   4        5.0142
   5        6.5664
   6        7.9962
   7        9.4472
   8       11.2063
   9       12.3497
  10       12.5594
  11       14.0001
  12       14.1844
 
  0.4166667E+00  0.2500000E+00  0.1666667E+00  0.2777778E-01
   1       -0.4305
   2        1.1062
   3        4.1149
   4        5.3970
   5        5.8218
   6        7.0899
   7        9.9976
   8       11.4505
   9       11.7314
  10       12.7984
  11       13.6251
  12       14.6531
 
  0.5000000E+00  0.2500000E+00  0.1666667E+00  0.1388889E-01
   1        0.2763
   2        0.2763
   3        4.7844
   4        4.7844
   5        6.3086
   6        6.3086
   7       10.6657
   8       10.6657
   9       12.3371
  10       12.3371
  11       13.9663
  12       13.9663
 
  0.3333333E+00  0.3333333E+00  0.1666667E+00  0.1388889E-01
   1       -0.5594
   2        2.4975
   3        2.4975
   4        5.2766
   5        5.7010
   6        8.4266
   7        8.4266
   8       11.3368
   9       11.6336
  10       14.1306
  11       14.1306
  12       14.8531
 
  0.4166667E+00  0.3333333E+00  0.1666667E+00  0.2777778E-01
   1        0.0198
   2        1.5513
   3        3.0624
   4        4.5427
   5        6.0642
   6        7.5172
   7        8.9768
   8       10.4340
   9       12.1717
  10       13.5353
  11       14.9411
  12       15.1205
 
  0.5000000E+00  0.3333333E+00  0.1666667E+00  0.1388889E-01
   1        0.7242
   2        0.7242
   3        3.7474
   4        3.7474
   5        6.7263
   6        6.7263
   7        9.6465
   8        9.6465
   9       12.8142
  10       12.8142
  11       15.6161
  12       15.6162
 
  0.4166667E+00  0.4166667E+00  0.1666667E+00  0.1388889E-01
   1        0.5965
   2        2.1210
   3        2.1210
   4        3.6241
   5        6.6044
   6        8.0675
   7        8.0675
   8        9.5283
   9       12.7165
  10       14.1180
  11       14.1180
  12       15.5300
 
  0.5000000E+00  0.4166667E+00  0.1666667E+00  0.1388889E-01
   1        1.2978
   2        1.2978
   3        2.8133
   4        2.8133
   5        7.2752
   6        7.2752
   7        8.7385
   8        8.7385
   9       13.3679
  10       13.3679
  11       14.7767
  12       14.7767
 
  0.5000000E+00  0.5000000E+00  0.1666667E+00  0.3472222E-02
   1        1.9951
   2        1.9951
   3        1.9951
   4        1.9951
   5        7.9470
   6        7.9470
   7        7.9470
   8        7.9470
   9       14.0225
  10       14.0225
  11       14.0225
  12       14.0225
 
  0.2500000E+00  0.2500000E+00  0.2500000E+00  0.4629630E-02
   1       -1.1413
   2        3.4324
   3        3.4324
   4        3.4324
   5        7.8905
   6        7.8905
   7        7.8905
   8       12.2479
   9       12.5008
  10       12.5008
  11       12.5008
  12       16.0762
 
  0.3333333E+00  0.2500000E+00  0.2500000E+00  0.1388889E-01
   1       -0.6885
   2        2.3715
   3        3.8663
   4        3.8663
   5        6.8658
   6        6.8658
   7        8.3216
   8       11.2349
   9       12.9101
  10       12.9101
  11       14.3283
  12       15.7063
 
  0.4166667E+00  0.2500000E+00  0.2500000E+00  0.1388889E-01
   1       -0.1087
   2        1.4243
   3        4.4141
   4        4.4141
   5        5.9607
   6        5.9607
   7        8.8728
   8       10.3316
   9       13.4017
  10       13.4017
  11       14.9782
  12       14.9782
 
  0.5000000E+00  0.2500000E+00  0.2500000E+00  0.6944444E-02
   1        0.5964
   2        0.5964
   3        4.9161
   4        4.9161
   5        5.3391
   6        5.3391
   7        9.5433
   8        9.5433
   9       13.7635
  10       13.7635
  11       14.5238
  12       14.5238
 
  0.3333333E+00  0.3333333E+00  0.2500000E+00  0.1388889E-01
   1       -0.2373
   2        2.8115
   3        2.8115
   4        4.2904
   5        5.8421
   6        7.2944
   7        7.2944
   8       10.2175
   9       13.3385
  10       14.7142
  11       14.7142
  12       16.1265
 
  0.4166667E+00  0.3333333E+00  0.2500000E+00  0.2777778E-01
   1        0.3406
   2        1.8681
   3        3.3733
   4        4.6748
   5        5.0922
   6        6.3803
   7        7.8462
   8        9.3104
   9       13.8649
  10       14.9677
  11       15.6315
  12       16.3868
 
  0.5000000E+00  0.3333333E+00  0.2500000E+00  0.1388889E-01
   1        1.0432
   2        1.0432
   3        4.0484
   4        4.0484
   5        5.5919
   6        5.5919
   7        8.5189
   8        8.5189
   9       14.4722
  10       14.4722
  11       16.0083
  12       16.0083
 
  0.4166667E+00  0.4166667E+00  0.2500000E+00  0.1388889E-01
   1        0.9159
   2        2.4361
   3        2.4361
   4        3.9258
   5        5.4683
   6        6.9314
   7        6.9314
   8        8.3999
   9       14.4056
  10       15.7501
  11       15.7501
  12       17.1388
 
  0.5000000E+00  0.4166667E+00  0.2500000E+00  0.1388889E-01
   1        1.6153
   2        1.6153
   3        3.1250
   4        3.1250
   5        6.1354
   6        6.1354
   7        7.6057
   8        7.6057
   9       15.0402
  10       15.0402
  11       16.4098
  12       16.4098
 
  0.5000000E+00  0.5000000E+00  0.2500000E+00  0.3472222E-02
   1        2.3105
   2        2.3105
   3        2.3105
   4        2.3105
   5        6.8097
   6        6.8097
   7        6.8097
   8        6.8097
   9       15.6838
  10       15.6838
  11       15.6838
  12       15.6838
 
  0.3333333E+00  0.3333333E+00  0.3333333E+00  0.4629630E-02
   1        0.2124
   2        3.2483
   3        3.2483
   4        3.2483
   5        6.2623
   6        6.2623
   7        6.2623
   8        9.1956
   9       15.1540
  10       15.1540
  11       15.1540
  12       17.2455
 
  0.4166667E+00  0.3333333E+00  0.3333333E+00  0.1388889E-01
   1        0.7883
   2        2.3101
   3        3.8004
   4        3.8004
   5        5.3503
   6        5.3503
   7        6.8142
   8        8.2843
   9       15.6532
  10       15.6532
  11       17.0312
  12       17.0447
 
  0.5000000E+00  0.3333333E+00  0.3333333E+00  0.6944444E-02
   1        1.4885
   2        1.4885
   3        4.3127
   4        4.3127
   5        4.7177
   6        4.7177
   7        7.4893
   8        7.4893
   9       16.0397
  10       16.0397
  11       16.6156
  12       16.6156
 
  0.4166667E+00  0.4166667E+00  0.3333333E+00  0.1388889E-01
   1        1.3616
   2        2.8746
   3        2.8746
   4        4.1919
   5        4.5917
   6        5.8956
   7        5.8956
   8        7.3693
   9       16.1957
  10       17.3190
  11       17.3190
  12       17.7437
 
  0.5000000E+00  0.4166667E+00  0.3333333E+00  0.1388889E-01
   1        2.0583
   2        2.0583
   3        3.5538
   4        3.5538
   5        5.1025
   6        5.1025
   7        6.5716
   8        6.5716
   9       16.7944
  10       16.7944
  11       18.0714
  12       18.0731
 
  0.5000000E+00  0.5000000E+00  0.3333333E+00  0.3472222E-02
   1        2.7496
   2        2.7496
   3        2.7496
   4        2.7496
   5        5.7728
   6        5.7728
   7        5.7728
   8        5.7728
   9       17.4220
  10       17.4220
  11       17.4220
  12       17.4220
 
  0.4166667E+00  0.4166667E+00  0.4166667E+00  0.4629630E-02
   1        1.9320
   2        3.4295
   3        3.4295
   4        3.4295
   5        4.9796
   6        4.9796
   7        4.9796
   8        6.4506
   9       18.0430
  10       18.0430
  11       18.0430
  12       18.7522
 
  0.5000000E+00  0.4166667E+00  0.4166667E+00  0.6944444E-02
   1        2.6242
   2        2.6242
   3        3.9502
   4        3.9502
   5        4.3382
   6        4.3382
   7        5.6509
   8        5.6509
   9       18.4503
  10       18.4503
  11       18.7508
  12       18.7508
 
  0.5000000E+00  0.5000000E+00  0.4166667E+00  0.3472222E-02
   1        3.3055
   2        3.3055
   3        3.3055
   4        3.3055
   5        4.8554
   6        4.8554
   7        4.8554
   8        4.8554
   9       19.1431
  10       19.1432
  11       19.1432
  12       19.1432
 
  0.5000000E+00  0.5000000E+00  0.5000000E+00  0.5787037E-03
   1        3.8293
   2        3.8293
   3        3.8293
   4        3.8293
   5        4.2108
   6        4.2108
   7        4.2108
   8        4.2108
   9       20.4374
  10       20.4374
  11       20.4374
  12       20.4374
