<?xml version="1.0" encoding="ISO-8859-1"?>
<modeling>
 <generator>
  <i name="program" type="string">vasp</i>
  <i name="version" type="string">4.6.28 </i>
  <i name="subversion" type="string">25Jul05 complex  parallel</i>
  <i name="platform" type="string">LinuxIFC</i>
  <i name="date" type="string">2017 01 08</i>
  <i name="time" type="string">09:57:12</i>
 </generator>
 <incar>
  <i type="string" name="PREC">accurate</i>
  <i type="int" name="IALGO">    38</i>
  <i type="logical" name="ADDGRID"> T  </i>
  <i name="EDIFF">      0.00000001</i>
  <i type="int" name="IBRION">    -1</i>
  <i name="ENCUT">    750.00000000</i>
  <i type="logical" name="LREAL"> F  </i>
  <i type="int" name="ISMEAR">     0</i>
  <i name="SIGMA">      0.01000000</i>
  <i type="logical" name="LWAVE"> F  </i>
  <i type="logical" name="LCHARG"> F  </i>
 </incar>
 <kpoints>
  <generation param="Gamma">
   <v type="int" name="divisions">      12      12      12</v>
   <v name="usershift">      0.00000000      0.00000000      0.00000000</v>
   <v name="genvec1">      0.08333333      0.00000000      0.00000000</v>
   <v name="genvec2">      0.00000000      0.08333333      0.00000000</v>
   <v name="genvec3">      0.00000000      0.00000000      0.08333333</v>
   <v name="shift">      0.00000000      0.00000000      0.00000000</v>
  </generation>
  <varray name="kpointlist" >
   <v>       0.00000000      0.00000000      0.00000000</v>
   <v>       0.08333333      0.00000000      0.00000000</v>
   <v>       0.16666667      0.00000000      0.00000000</v>
   <v>       0.25000000      0.00000000      0.00000000</v>
   <v>       0.33333333      0.00000000      0.00000000</v>
   <v>       0.41666667      0.00000000      0.00000000</v>
   <v>       0.50000000      0.00000000      0.00000000</v>
   <v>       0.08333333      0.08333333      0.00000000</v>
   <v>       0.16666667      0.08333333      0.00000000</v>
   <v>       0.25000000      0.08333333      0.00000000</v>
   <v>       0.33333333      0.08333333      0.00000000</v>
   <v>       0.41666667      0.08333333      0.00000000</v>
   <v>       0.50000000      0.08333333      0.00000000</v>
   <v>       0.16666667      0.16666667      0.00000000</v>
   <v>       0.25000000      0.16666667      0.00000000</v>
   <v>       0.33333333      0.16666667      0.00000000</v>
   <v>       0.41666667      0.16666667      0.00000000</v>
   <v>       0.50000000      0.16666667      0.00000000</v>
   <v>       0.25000000      0.25000000      0.00000000</v>
   <v>       0.33333333      0.25000000      0.00000000</v>
   <v>       0.41666667      0.25000000      0.00000000</v>
   <v>       0.50000000      0.25000000      0.00000000</v>
   <v>       0.33333333      0.33333333      0.00000000</v>
   <v>       0.41666667      0.33333333      0.00000000</v>
   <v>       0.50000000      0.33333333      0.00000000</v>
   <v>       0.41666667      0.41666667      0.00000000</v>
   <v>       0.50000000      0.41666667      0.00000000</v>
   <v>       0.50000000      0.50000000      0.00000000</v>
   <v>       0.08333333      0.08333333      0.08333333</v>
   <v>       0.16666667      0.08333333      0.08333333</v>
   <v>       0.25000000      0.08333333      0.08333333</v>
   <v>       0.33333333      0.08333333      0.08333333</v>
   <v>       0.41666667      0.08333333      0.08333333</v>
   <v>       0.50000000      0.08333333      0.08333333</v>
   <v>       0.16666667      0.16666667      0.08333333</v>
   <v>       0.25000000      0.16666667      0.08333333</v>
   <v>       0.33333333      0.16666667      0.08333333</v>
   <v>       0.41666667      0.16666667      0.08333333</v>
   <v>       0.50000000      0.16666667      0.08333333</v>
   <v>       0.25000000      0.25000000      0.08333333</v>
   <v>       0.33333333      0.25000000      0.08333333</v>
   <v>       0.41666667      0.25000000      0.08333333</v>
   <v>       0.50000000      0.25000000      0.08333333</v>
   <v>       0.33333333      0.33333333      0.08333333</v>
   <v>       0.41666667      0.33333333      0.08333333</v>
   <v>       0.50000000      0.33333333      0.08333333</v>
   <v>       0.41666667      0.41666667      0.08333333</v>
   <v>       0.50000000      0.41666667      0.08333333</v>
   <v>       0.50000000      0.50000000      0.08333333</v>
   <v>       0.16666667      0.16666667      0.16666667</v>
   <v>       0.25000000      0.16666667      0.16666667</v>
   <v>       0.33333333      0.16666667      0.16666667</v>
   <v>       0.41666667      0.16666667      0.16666667</v>
   <v>       0.50000000      0.16666667      0.16666667</v>
   <v>       0.25000000      0.25000000      0.16666667</v>
   <v>       0.33333333      0.25000000      0.16666667</v>
   <v>       0.41666667      0.25000000      0.16666667</v>
   <v>       0.50000000      0.25000000      0.16666667</v>
   <v>       0.33333333      0.33333333      0.16666667</v>
   <v>       0.41666667      0.33333333      0.16666667</v>
   <v>       0.50000000      0.33333333      0.16666667</v>
   <v>       0.41666667      0.41666667      0.16666667</v>
   <v>       0.50000000      0.41666667      0.16666667</v>
   <v>       0.50000000      0.50000000      0.16666667</v>
   <v>       0.25000000      0.25000000      0.25000000</v>
   <v>       0.33333333      0.25000000      0.25000000</v>
   <v>       0.41666667      0.25000000      0.25000000</v>
   <v>       0.50000000      0.25000000      0.25000000</v>
   <v>       0.33333333      0.33333333      0.25000000</v>
   <v>       0.41666667      0.33333333      0.25000000</v>
   <v>       0.50000000      0.33333333      0.25000000</v>
   <v>       0.41666667      0.41666667      0.25000000</v>
   <v>       0.50000000      0.41666667      0.25000000</v>
   <v>       0.50000000      0.50000000      0.25000000</v>
   <v>       0.33333333      0.33333333      0.33333333</v>
   <v>       0.41666667      0.33333333      0.33333333</v>
   <v>       0.50000000      0.33333333      0.33333333</v>
   <v>       0.41666667      0.41666667      0.33333333</v>
   <v>       0.50000000      0.41666667      0.33333333</v>
   <v>       0.50000000      0.50000000      0.33333333</v>
   <v>       0.41666667      0.41666667      0.41666667</v>
   <v>       0.50000000      0.41666667      0.41666667</v>
   <v>       0.50000000      0.50000000      0.41666667</v>
   <v>       0.50000000      0.50000000      0.50000000</v>
  </varray>
  <varray name="weights" >
   <v>       0.00057870</v>
   <v>       0.00347222</v>
   <v>       0.00347222</v>
   <v>       0.00347222</v>
   <v>       0.00347222</v>
   <v>       0.00347222</v>
   <v>       0.00173611</v>
   <v>       0.00694444</v>
   <v>       0.01388889</v>
   <v>       0.01388889</v>
   <v>       0.01388889</v>
   <v>       0.01388889</v>
   <v>       0.00694444</v>
   <v>       0.00694444</v>
   <v>       0.01388889</v>
   <v>       0.01388889</v>
   <v>       0.01388889</v>
   <v>       0.00694444</v>
   <v>       0.00694444</v>
   <v>       0.01388889</v>
   <v>       0.01388889</v>
   <v>       0.00694444</v>
   <v>       0.00694444</v>
   <v>       0.01388889</v>
   <v>       0.00694444</v>
   <v>       0.00694444</v>
   <v>       0.00694444</v>
   <v>       0.00173611</v>
   <v>       0.00462963</v>
   <v>       0.01388889</v>
   <v>       0.01388889</v>
   <v>       0.01388889</v>
   <v>       0.01388889</v>
   <v>       0.00694444</v>
   <v>       0.01388889</v>
   <v>       0.02777778</v>
   <v>       0.02777778</v>
   <v>       0.02777778</v>
   <v>       0.01388889</v>
   <v>       0.01388889</v>
   <v>       0.02777778</v>
   <v>       0.02777778</v>
   <v>       0.01388889</v>
   <v>       0.01388889</v>
   <v>       0.02777778</v>
   <v>       0.01388889</v>
   <v>       0.01388889</v>
   <v>       0.01388889</v>
   <v>       0.00347222</v>
   <v>       0.00462963</v>
   <v>       0.01388889</v>
   <v>       0.01388889</v>
   <v>       0.01388889</v>
   <v>       0.00694444</v>
   <v>       0.01388889</v>
   <v>       0.02777778</v>
   <v>       0.02777778</v>
   <v>       0.01388889</v>
   <v>       0.01388889</v>
   <v>       0.02777778</v>
   <v>       0.01388889</v>
   <v>       0.01388889</v>
   <v>       0.01388889</v>
   <v>       0.00347222</v>
   <v>       0.00462963</v>
   <v>       0.01388889</v>
   <v>       0.01388889</v>
   <v>       0.00694444</v>
   <v>       0.01388889</v>
   <v>       0.02777778</v>
   <v>       0.01388889</v>
   <v>       0.01388889</v>
   <v>       0.01388889</v>
   <v>       0.00347222</v>
   <v>       0.00462963</v>
   <v>       0.01388889</v>
   <v>       0.00694444</v>
   <v>       0.01388889</v>
   <v>       0.01388889</v>
   <v>       0.00347222</v>
   <v>       0.00462963</v>
   <v>       0.00694444</v>
   <v>       0.00347222</v>
   <v>       0.00057870</v>
  </varray>
 </kpoints>
 <parameters>
  <separator name="general" >
   <i type="string" name="SYSTEM">unknown system</i>
   <i type="logical" name="LCOMPAT"> F  </i>
  </separator>
  <separator name="electronic" >
   <i type="string" name="PREC">accura</i>
   <i name="ENMAX">    750.00000000</i>
   <i name="ENAUG">    291.05200000</i>
   <i name="EDIFF">      0.00000001</i>
   <i type="int" name="IALGO">    38</i>
   <i type="int" name="IWAVPR">    10</i>
   <i type="int" name="NBANDS">    10</i>
   <i name="NELECT">     12.00000000</i>
   <separator name="electronic smearing" >
    <i type="int" name="ISMEAR">     0</i>
    <i name="SIGMA">      0.01000000</i>
   </separator>
   <separator name="electronic projectors" >
    <i type="logical" name="LREAL"> F  </i>
    <v name="ROPT">      0.00000000</v>
    <i type="int" name="LMAXPAW">  -100</i>
    <i type="int" name="LMAXMIX">     2</i>
   </separator>
   <separator name="electronic startup" >
    <i type="int" name="ISTART">     0</i>
    <i type="int" name="ICHARG">     2</i>
    <i type="int" name="INIWAV">     1</i>
   </separator>
   <separator name="electronic spin" >
    <i type="int" name="ISPIN">     1</i>
    <i type="logical" name="LNONCOLLINEAR"> F  </i>
    <v name="MAGMOM">      1.00000000      1.00000000      1.00000000      1.00000000</v>
    <i name="NUPDOWN">     -1.00000000</i>
    <i type="logical" name="LSORBIT"> F  </i>
    <v name="SAXIS">      0.00000000      0.00000000      1.00000000</v>
    <i type="logical" name="LSPIRAL"> F  </i>
    <v name="QSPIRAL">      0.00000000      0.00000000      0.00000000</v>
    <i type="logical" name="LZEROZ"> F  </i>
   </separator>
   <separator name="electronic exchange-correlation" >
    <i type="string" name="GGA">--</i>
    <i type="int" name="VOSKOWN">     0</i>
    <i type="logical" name="LASPH"> F  </i>
    <i type="logical" name="LMETAGGA"> F  </i>
    <i type="string" name="GGA2">--</i>
   </separator>
   <separator name="electronic convergence" >
    <i type="int" name="NELM">    60</i>
    <i type="int" name="NELMDL">     0</i>
    <i type="int" name="NELMIN">     2</i>
    <i name="ENINI">    750.00000000</i>
    <separator name="electronic convergence detail" >
     <i type="logical" name="LDIAG"> T  </i>
     <i name="WEIMIN">      0.00000000</i>
     <i name="EBREAK">      0.00000000</i>
     <i name="DEPER">      0.30000000</i>
     <i type="int" name="NRMM">     4</i>
     <i name="TIME">      0.10000000</i>
    </separator>
   </separator>
   <separator name="electronic mixer" >
    <i name="AMIX">      0.40000000</i>
    <i name="BMIX">      1.00000000</i>
    <i name="AMIN">      0.10000000</i>
    <i name="AMIX_MAG">      1.60000000</i>
    <i name="BMIX_MAG">      1.00000000</i>
    <separator name="electronic mixer details" >
     <i type="int" name="IMIX">     4</i>
     <i type="int" name="MAXMIX">   -45</i>
     <i name="WC">    100.00000000</i>
     <i type="int" name="INIMIX">     1</i>
     <i type="int" name="MIXPRE">     1</i>
     <i type="int" name="MREMOVE">     5</i>
    </separator>
   </separator>
   <separator name="electronic dipolcorrection" >
    <i type="int" name="IDIPOL">     0</i>
    <i type="logical" name="LDIPOL"> F  </i>
    <v name="DIPOL">   -100.00000000</v>
    <i name="EFIELD">      0.00000000</i>
   </separator>
  </separator>
  <separator name="grids" >
   <i type="int" name="NGX">    36</i>
   <i type="int" name="NGY">    36</i>
   <i type="int" name="NGZ">    36</i>
   <i type="int" name="NGXF">    72</i>
   <i type="int" name="NGYF">    72</i>
   <i type="int" name="NGZF">    72</i>
   <i type="logical" name="ADDGRID"> T  </i>
  </separator>
  <separator name="ionic" >
   <i type="int" name="NSW">     0</i>
   <i type="int" name="IBRION">    -1</i>
   <i type="int" name="ISIF">     2</i>
   <i name="PSTRESS">      0.00000000</i>
   <i name="EDIFFG">      0.00000010</i>
   <i type="int" name="NFREE">     0</i>
   <i name="POTIM">      0.50000000</i>
   <i name="SMASS">     -3.00000000</i>
  </separator>
  <separator name="ionic md" >
   <i name="TEBEG">      0.00010000</i>
   <i name="TEEND">      0.00010000</i>
   <i type="int" name="NBLOCK">     1</i>
   <i type="int" name="KBLOCK">     1</i>
   <i type="int" name="NPACO">   256</i>
   <i name="APACO">     16.00000000</i>
  </separator>
  <separator name="symmetry" >
   <i type="int" name="ISYM">     2</i>
   <i name="SYMPREC">      0.00001000</i>
  </separator>
  <separator name="dos" >
   <i type="logical" name="LORBIT"> F  </i>
   <v name="RWIGS">     -1.00000000</v>
   <i type="int" name="NEDOS">   301</i>
   <i name="EMIN">     10.00000000</i>
   <i name="EMAX">    -10.00000000</i>
  </separator>
  <separator name="writing" >
   <i type="int" name="NWRITE">     2</i>
   <i type="logical" name="LWAVE"> F  </i>
   <i type="logical" name="LCHARG"> F  </i>
   <i type="logical" name="LPARD"> F  </i>
   <i type="logical" name="LVTOT"> F  </i>
   <i type="logical" name="LELF"> F  </i>
   <i type="logical" name="LOPTICS"> F  </i>
   <i name="STM">      0.00000000</i>
  </separator>
  <separator name="performance" >
   <i type="int" name="NPAR">     4</i>
   <i type="int" name="NSIM">     4</i>
   <i type="int" name="NBLK">   256</i>
   <i type="logical" name="LPLANE"> T  </i>
   <i type="logical" name="LCRITICAL_MEM"> F  </i>
   <i type="logical" name="LSCALAPACK"> F  </i>
   <i type="logical" name="LSCALU"> F  </i>
   <i type="logical" name="LASYNC"> F  </i>
  </separator>
  <separator name="miscellaneous" >
   <i type="int" name="IDIOT">     3</i>
   <i type="logical" name="LMUSIC"> F  </i>
   <v name="POMASS">     26.98200000</v>
   <i type="logical" name="LCORR"> T  </i>
  </separator>
  <i type="logical" name="LREAL_COMPAT"> F  </i>
  <i type="logical" name="GGA_COMPAT"> T  </i>
  <i type="logical" name="LBERRY"> F  </i>
  <i type="int" name="ICORELEVEL">     0</i>
  <i type="logical" name="LDAU"> F  </i>
  <i type="int" name="I_CONSTRAINED_M">     0</i>
 </parameters>
 <atominfo>
  <atoms>       4</atoms>
  <types>       1</types>
  <array name="atoms" >
   <dimension dim="1">ion</dimension>
   <field type="string">element</field>
   <field type="int">atomtype</field>
   <set>
    <rc><c>Al</c><c>   1</c></rc>
    <rc><c>Al</c><c>   1</c></rc>
    <rc><c>Al</c><c>   1</c></rc>
    <rc><c>Al</c><c>   1</c></rc>
   </set>
  </array>
  <array name="atomtypes" >
   <dimension dim="1">type</dimension>
   <field type="int">atomspertype</field>
   <field type="string">element</field>
   <field>mass</field>
   <field>valence</field>
   <field type="string">pseudopotential</field>
   <set>
    <rc><c>   4</c><c>Al</c><c>     26.98200000</c><c>      3.00000000</c><c> PAW_PBE Al 04Jan2001                   </c></rc>
   </set>
  </array>
 </atominfo>
 <structure name="initialpos" >
  <crystal>
   <varray name="basis" >
    <v>       3.95656024      0.00000000      0.00000000</v>
    <v>       0.00000000      3.95656024      0.00000000</v>
    <v>       0.00000000      0.00000000      3.95656024</v>
   </varray>
   <i name="volume">     61.93745381</i>
   <varray name="rec_basis" >
    <v>       0.25274479      0.00000000      0.00000000</v>
    <v>       0.00000000      0.25274479      0.00000000</v>
    <v>       0.00000000      0.00000000      0.25274479</v>
   </varray>
  </crystal>
  <varray name="positions" >
   <v>       0.50000000      0.50000000      0.00000000</v>
   <v>       0.50000000      0.00000000      0.50000000</v>
   <v>       0.00000000      0.50000000      0.50000000</v>
   <v>       0.00000000      0.00000000      0.00000000</v>
  </varray>
 </structure>
 <calculation>
  <scstep>
   <time name="dav">    2.40    2.40</time>
   <time name="total">    2.64    2.64</time>
   <energy>
    <i name="alphaZ">     -0.86766550</i>
    <i name="ewald">   -300.35652811</i>
    <i name="hartreedc">     -0.32679810</i>
    <i name="XCdc">   -104.49609010</i>
    <i name="pawpsdc">    142.21701965</i>
    <i name="pawaedc">    -14.39593217</i>
    <i name="eentropy">     -0.00007516</i>
    <i name="bandstr">     78.12776528</i>
    <i name="atom">    214.15438658</i>
    <i name="e_fr_energy">     14.05608238</i>
    <i name="e_wo_entrp">     14.05615754</i>
    <i name="e_0_energy">     14.05611996</i>
   </energy>
  </scstep>
  <scstep>
   <time name="dav">    2.97    2.97</time>
   <time name="total">    2.97    2.98</time>
   <energy>
    <i name="e_fr_energy">    -14.04727638</i>
    <i name="e_wo_entrp">    -14.04705730</i>
    <i name="e_0_energy">    -14.04716684</i>
   </energy>
  </scstep>
  <scstep>
   <time name="dav">    2.85    2.85</time>
   <time name="total">    2.86    2.86</time>
   <energy>
    <i name="e_fr_energy">    -14.99632616</i>
    <i name="e_wo_entrp">    -14.99617372</i>
    <i name="e_0_energy">    -14.99624994</i>
   </energy>
  </scstep>
  <scstep>
   <time name="dav">    2.58    2.58</time>
   <time name="total">    2.59    2.59</time>
   <energy>
    <i name="e_fr_energy">    -15.00354649</i>
    <i name="e_wo_entrp">    -15.00339013</i>
    <i name="e_0_energy">    -15.00346831</i>
   </energy>
  </scstep>
  <scstep>
   <time name="dav">    2.74    2.74</time>
   <time name="total">    3.02    3.03</time>
   <energy>
    <i name="e_fr_energy">    -15.00361149</i>
    <i name="e_wo_entrp">    -15.00345514</i>
    <i name="e_0_energy">    -15.00353332</i>
   </energy>
  </scstep>
  <scstep>
   <time name="dav">    2.87    2.87</time>
   <time name="total">    3.45    3.46</time>
   <energy>
    <i name="e_fr_energy">    -14.94773884</i>
    <i name="e_wo_entrp">    -14.94757801</i>
    <i name="e_0_energy">    -14.94765842</i>
   </energy>
  </scstep>
  <scstep>
   <time name="dav">    5.14    5.14</time>
   <time name="total">    5.86    5.86</time>
   <energy>
    <i name="e_fr_energy">    -14.90717192</i>
    <i name="e_wo_entrp">    -14.90696912</i>
    <i name="e_0_energy">    -14.90707052</i>
   </energy>
  </scstep>
  <scstep>
   <time name="dav">    5.53    5.53</time>
   <time name="total">    6.32    6.32</time>
   <energy>
    <i name="e_fr_energy">    -14.90720738</i>
    <i name="e_wo_entrp">    -14.90700456</i>
    <i name="e_0_energy">    -14.90710597</i>
   </energy>
  </scstep>
  <scstep>
   <time name="dav">    5.29    5.29</time>
   <time name="total">    6.07    6.07</time>
   <energy>
    <i name="e_fr_energy">    -14.90720903</i>
    <i name="e_wo_entrp">    -14.90700626</i>
    <i name="e_0_energy">    -14.90710765</i>
   </energy>
  </scstep>
  <scstep>
   <time name="dav">    5.60    5.60</time>
   <time name="total">    6.38    6.38</time>
   <energy>
    <i name="e_fr_energy">    -14.90720809</i>
    <i name="e_wo_entrp">    -14.90700532</i>
    <i name="e_0_energy">    -14.90710671</i>
   </energy>
  </scstep>
  <scstep>
   <time name="dav">    3.91    3.91</time>
   <time name="total">    4.75    4.75</time>
   <energy>
    <i name="e_fr_energy">    -14.90720794</i>
    <i name="e_wo_entrp">    -14.90700517</i>
    <i name="e_0_energy">    -14.90710655</i>
   </energy>
  </scstep>
  <scstep>
   <time name="dav">    3.69    3.69</time>
   <time name="total">    4.54    4.54</time>
   <energy>
    <i name="e_fr_energy">    -14.90720796</i>
    <i name="e_wo_entrp">    -14.90700519</i>
    <i name="e_0_energy">    -14.90710657</i>
   </energy>
  </scstep>
  <scstep>
   <time name="dav">    3.68    3.68</time>
   <time name="total">    4.07    4.07</time>
   <energy>
    <i name="alphaZ">     -0.86766550</i>
    <i name="ewald">   -300.35652811</i>
    <i name="hartreedc">     -0.46104820</i>
    <i name="XCdc">   -104.00096061</i>
    <i name="pawpsdc">    143.49729880</i>
    <i name="pawaedc">    -15.77028576</i>
    <i name="eentropy">     -0.00020277</i>
    <i name="bandstr">     48.89779761</i>
    <i name="atom">    214.15438658</i>
    <i name="e_fr_energy">    -14.90720796</i>
    <i name="e_wo_entrp">    -14.90700519</i>
    <i name="e_0_energy">    -14.90710657</i>
   </energy>
  </scstep>
  <structure>
   <crystal>
    <varray name="basis" >
     <v>       3.95656024      0.00000000      0.00000000</v>
     <v>       0.00000000      3.95656024      0.00000000</v>
     <v>       0.00000000      0.00000000      3.95656024</v>
    </varray>
    <i name="volume">     61.93745381</i>
    <varray name="rec_basis" >
     <v>       0.25274479      0.00000000      0.00000000</v>
     <v>       0.00000000      0.25274479      0.00000000</v>
     <v>       0.00000000      0.00000000      0.25274479</v>
    </varray>
   </crystal>
   <varray name="positions" >
    <v>       0.50000000      0.50000000      0.00000000</v>
    <v>       0.50000000      0.00000000      0.50000000</v>
    <v>       0.00000000      0.50000000      0.50000000</v>
    <v>       0.00000000      0.00000000      0.00000000</v>
   </varray>
  </structure>
  <varray name="forces" >
   <v>       0.00000000      0.00000000      0.00000000</v>
   <v>       0.00000000      0.00000000      0.00000000</v>
   <v>      -0.00000000     -0.00000000     -0.00000000</v>
   <v>       0.00000000      0.00000000      0.00000000</v>
  </varray>
  <varray name="stress" >
   <v>      55.04883173     -0.00000000     -0.00000000</v>
   <v>       0.00000000     55.04883173      0.00000000</v>
   <v>       0.00000000     -0.00000000     55.04883173</v>
  </varray>
  <energy>
   <i name="e_fr_energy">    -14.90720796</i>
   <i name="e_wo_entrp">    -14.90710657</i>
   <i name="e_0_energy">     -0.00020277</i>
  </energy>
  <eigenvalues>
   <array>
    <dimension dim="1">band</dimension>
    <dimension dim="2">kpoint</dimension>
    <dimension dim="3">spin</dimension>
    <field>eigene</field>
    <field>occ</field>
    <set>
     <set comment="spin 1">
      <set comment="kpoint 1">
       <r>  -2.9023  1.0000</r>
       <r>   5.6008  1.0000</r>
       <r>   5.6008  1.0000</r>
       <r>   5.6008  1.0000</r>
       <r>   7.0597  1.0000</r>
       <r>   7.0597  1.0000</r>
       <r>   7.0597  1.0000</r>
       <r>  13.9499  0.0000</r>
       <r>  13.9499  0.0000</r>
       <r>  13.9499  0.0000</r>
       <r>  14.5793  0.0000</r>
       <r>  14.5793  0.0000</r>
      </set>
      <set comment="kpoint 2">
       <r>  -2.8366  1.0000</r>
       <r>   4.7238  1.0000</r>
       <r>   5.6604  1.0000</r>
       <r>   5.6604  1.0000</r>
       <r>   7.1218  1.0000</r>
       <r>   7.1218  1.0000</r>
       <r>   8.0488  1.0000</r>
       <r>  12.8412  0.0000</r>
       <r>  12.8412  0.0000</r>
       <r>  14.0147  0.0000</r>
       <r>  14.1468  0.0000</r>
       <r>  14.1468  0.0000</r>
      </set>
      <set comment="kpoint 3">
       <r>  -2.6399  1.0000</r>
       <r>   3.4814  1.0000</r>
       <r>   5.8393  1.0000</r>
       <r>   5.8393  1.0000</r>
       <r>   7.3066  1.0000</r>
       <r>   7.3066  1.0000</r>
       <r>   9.6275  0.0000</r>
       <r>  11.5904  0.0000</r>
       <r>  11.5904  0.0000</r>
       <r>  13.2394  0.0000</r>
       <r>  13.2394  0.0000</r>
       <r>  14.2091  0.0000</r>
      </set>
      <set comment="kpoint 4">
       <r>  -2.3126  1.0000</r>
       <r>   2.3040  1.0000</r>
       <r>   6.1376  1.0000</r>
       <r>   6.1376  1.0000</r>
       <r>   7.6086  1.0000</r>
       <r>   7.6086  1.0000</r>
       <r>  10.4508  0.0000</r>
       <r>  10.4508  0.0000</r>
       <r>  11.3647  0.0000</r>
       <r>  12.2459  0.0000</r>
       <r>  12.2459  0.0000</r>
       <r>  14.5327  0.0000</r>
      </set>
      <set comment="kpoint 5">
       <r>  -1.8559  1.0000</r>
       <r>   1.2319  1.0000</r>
       <r>   6.5555  1.0000</r>
       <r>   6.5555  1.0000</r>
       <r>   8.0126  1.0000</r>
       <r>   8.0126  1.0000</r>
       <r>   9.4304  0.0000</r>
       <r>   9.4304  0.0000</r>
       <r>  11.3102  0.0000</r>
       <r>  11.3102  0.0000</r>
       <r>  13.2189  0.0000</r>
       <r>  14.9847  0.0000</r>
      </set>
      <set comment="kpoint 6">
       <r>  -1.2709  1.0000</r>
       <r>   0.2757  1.0000</r>
       <r>   7.0935  1.0000</r>
       <r>   7.0935  1.0000</r>
       <r>   8.4664  1.0000</r>
       <r>   8.4664  1.0000</r>
       <r>   8.5306  1.0000</r>
       <r>   8.5306  1.0000</r>
       <r>  10.5272  0.0000</r>
       <r>  10.5272  0.0000</r>
       <r>  15.1774  0.0000</r>
       <r>  15.5638  0.0000</r>
      </set>
      <set comment="kpoint 7">
       <r>  -0.5596  1.0000</r>
       <r>  -0.5596  1.0000</r>
       <r>   7.7517  1.0000</r>
       <r>   7.7517  1.0000</r>
       <r>   7.7517  1.0000</r>
       <r>   7.7517  1.0000</r>
       <r>   8.7338  0.0000</r>
       <r>   8.7338  0.0000</r>
       <r>  10.1486  0.0000</r>
       <r>  10.1486  0.0000</r>
       <r>  16.2679  0.0000</r>
       <r>  16.2682  0.0000</r>
      </set>
      <set comment="kpoint 8">
       <r>  -2.7710  1.0000</r>
       <r>   4.7850  1.0000</r>
       <r>   4.7850  1.0000</r>
       <r>   5.7200  1.0000</r>
       <r>   7.1832  1.0000</r>
       <r>   8.1088  1.0000</r>
       <r>   8.1088  1.0000</r>
       <r>  12.0068  0.0000</r>
       <r>  12.9022  0.0000</r>
       <r>  12.9022  0.0000</r>
       <r>  14.2037  0.0000</r>
       <r>  14.2037  0.0000</r>
      </set>
      <set comment="kpoint 9">
       <r>  -2.5744  1.0000</r>
       <r>   3.5436  1.0000</r>
       <r>   4.9685  1.0000</r>
       <r>   5.8989  1.0000</r>
       <r>   7.3648  1.0000</r>
       <r>   8.2872  1.0000</r>
       <r>   9.6846  0.0000</r>
       <r>  10.8263  0.0000</r>
       <r>  11.6509  0.0000</r>
       <r>  13.0851  0.0000</r>
       <r>  13.3002  0.0000</r>
       <r>  14.0662  0.0000</r>
      </set>
      <set comment="kpoint 10">
       <r>  -2.2473  1.0000</r>
       <r>   2.3670  1.0000</r>
       <r>   5.2736  1.0000</r>
       <r>   6.1973  1.0000</r>
       <r>   7.6550  1.0000</r>
       <r>   8.5771  1.0000</r>
       <r>   9.7223  0.0000</r>
       <r>  10.5110  0.0000</r>
       <r>  11.4165  0.0000</r>
       <r>  12.3134  0.0000</r>
       <r>  13.0870  0.0000</r>
       <r>  13.3894  0.0000</r>
      </set>
      <set comment="kpoint 11">
       <r>  -1.7908  1.0000</r>
       <r>   1.2955  1.0000</r>
       <r>   5.6993  1.0000</r>
       <r>   6.6153  1.0000</r>
       <r>   7.9735  1.0000</r>
       <r>   8.8078  0.0000</r>
       <r>   8.9560  0.0000</r>
       <r>   9.4905  0.0000</r>
       <r>  11.3960  0.0000</r>
       <r>  12.1405  0.0000</r>
       <r>  13.2563  0.0000</r>
       <r>  13.8145  0.0000</r>
      </set>
      <set comment="kpoint 12">
       <r>  -1.2061  1.0000</r>
       <r>   0.3398  1.0000</r>
       <r>   6.2433  1.0000</r>
       <r>   7.1533  1.0000</r>
       <r>   7.6306  1.0000</r>
       <r>   8.5906  1.0000</r>
       <r>   8.7609  0.0000</r>
       <r>   9.3148  0.0000</r>
       <r>  10.7024  0.0000</r>
       <r>  11.3048  0.0000</r>
       <r>  14.3596  0.0000</r>
       <r>  15.1088  0.0000</r>
      </set>
      <set comment="kpoint 13">
       <r>  -0.4952  1.0000</r>
       <r>  -0.4952  1.0000</r>
       <r>   6.8989  1.0000</r>
       <r>   6.8989  1.0000</r>
       <r>   7.8117  1.0000</r>
       <r>   7.8117  1.0000</r>
       <r>   9.2202  0.0000</r>
       <r>   9.2202  0.0000</r>
       <r>  10.6884  0.0000</r>
       <r>  10.6884  0.0000</r>
       <r>  15.0231  0.0000</r>
       <r>  15.0231  0.0000</r>
      </set>
      <set comment="kpoint 14">
       <r>  -2.3780  1.0000</r>
       <r>   3.7303  1.0000</r>
       <r>   3.7303  1.0000</r>
       <r>   6.0779  1.0000</r>
       <r>   7.5308  1.0000</r>
       <r>   9.6837  0.0000</r>
       <r>   9.8526  0.0000</r>
       <r>   9.8526  0.0000</r>
       <r>  11.8323  0.0000</r>
       <r>  11.8323  0.0000</r>
       <r>  13.4843  0.0000</r>
       <r>  13.4843  0.0000</r>
      </set>
      <set comment="kpoint 15">
       <r>  -2.0515  1.0000</r>
       <r>   2.5558  1.0000</r>
       <r>   4.0407  1.0000</r>
       <r>   6.3764  1.0000</r>
       <r>   7.7229  1.0000</r>
       <r>   8.6837  0.3043</r>
       <r>  10.1141  0.0000</r>
       <r>  10.6919  0.0000</r>
       <r>  11.5607  0.0000</r>
       <r>  12.1345  0.0000</r>
       <r>  12.5250  0.0000</r>
       <r>  13.8013  0.0000</r>
      </set>
      <set comment="kpoint 16">
       <r>  -1.5956  1.0000</r>
       <r>   1.4860  1.0000</r>
       <r>   4.4737  1.0000</r>
       <r>   6.7946  1.0000</r>
       <r>   7.3113  1.0000</r>
       <r>   8.5050  1.0000</r>
       <r>   9.6709  0.0000</r>
       <r>  10.3789  0.0000</r>
       <r>  11.7168  0.0000</r>
       <r>  12.5572  0.0000</r>
       <r>  13.2974  0.0000</r>
       <r>  13.6023  0.0000</r>
      </set>
      <set comment="kpoint 17">
       <r>  -1.0118  1.0000</r>
       <r>   0.5318  1.0000</r>
       <r>   5.0275  1.0000</r>
       <r>   6.4761  1.0000</r>
       <r>   7.3329  1.0000</r>
       <r>   8.7708  0.0000</r>
       <r>   8.9726  0.0000</r>
       <r>  10.2082  0.0000</r>
       <r>  11.5439  0.0000</r>
       <r>  12.7601  0.0000</r>
       <r>  13.1001  0.0000</r>
       <r>  14.4810  0.0000</r>
      </set>
      <set comment="kpoint 18">
       <r>  -0.3019  1.0000</r>
       <r>  -0.3019  1.0000</r>
       <r>   5.6983  1.0000</r>
       <r>   5.6983  1.0000</r>
       <r>   7.9915  1.0000</r>
       <r>   7.9915  1.0000</r>
       <r>   9.5886  0.0000</r>
       <r>   9.5886  0.0000</r>
       <r>  12.0384  0.0000</r>
       <r>  12.0384  0.0000</r>
       <r>  13.7625  0.0000</r>
       <r>  13.7625  0.0000</r>
      </set>
      <set comment="kpoint 19">
       <r>  -1.7257  1.0000</r>
       <r>   2.8699  1.0000</r>
       <r>   2.8699  1.0000</r>
       <r>   6.6751  1.0000</r>
       <r>   7.1977  1.0000</r>
       <r>   8.3994  1.0000</r>
       <r>  10.9932  0.0000</r>
       <r>  10.9932  0.0000</r>
       <r>  11.7141  0.0000</r>
       <r>  11.7141  0.0000</r>
       <r>  12.9528  0.0000</r>
       <r>  12.9528  0.0000</r>
      </set>
      <set comment="kpoint 20">
       <r>  -1.2709  1.0000</r>
       <r>   1.8031  1.0000</r>
       <r>   3.3083  1.0000</r>
       <r>   6.2474  1.0000</r>
       <r>   7.0936  1.0000</r>
       <r>   8.7571  0.0000</r>
       <r>   9.9717  0.0000</r>
       <r>  11.4150  0.0000</r>
       <r>  11.4305  0.0000</r>
       <r>  12.6913  0.0000</r>
       <r>  12.8703  0.0000</r>
       <r>  14.0582  0.0000</r>
      </set>
      <set comment="kpoint 21">
       <r>  -0.6886  1.0000</r>
       <r>   0.8512  1.0000</r>
       <r>   3.8693  1.0000</r>
       <r>   5.3470  1.0000</r>
       <r>   7.6322  1.0000</r>
       <r>   9.0710  0.0000</r>
       <r>   9.2921  0.0000</r>
       <r>  10.6926  0.0000</r>
       <r>  11.9572  0.0000</r>
       <r>  13.0783  0.0000</r>
       <r>  13.4013  0.0000</r>
       <r>  13.5438  0.0000</r>
      </set>
      <set comment="kpoint 22">
       <r>   0.0196  1.0000</r>
       <r>   0.0196  1.0000</r>
       <r>   4.5504  1.0000</r>
       <r>   4.5504  1.0000</r>
       <r>   8.2913  1.0000</r>
       <r>   8.2913  1.0000</r>
       <r>   9.9475  0.0000</r>
       <r>   9.9475  0.0000</r>
       <r>  12.6194  0.0000</r>
       <r>  12.6194  0.0000</r>
       <r>  13.6825  0.0000</r>
       <r>  13.6825  0.0000</r>
      </set>
      <set comment="kpoint 23">
       <r>  -0.8177  1.0000</r>
       <r>   2.2456  1.0000</r>
       <r>   2.2456  1.0000</r>
       <r>   5.2279  1.0000</r>
       <r>   7.5125  1.0000</r>
       <r>   9.1795  0.0000</r>
       <r>  10.3929  0.0000</r>
       <r>  10.3929  0.0000</r>
       <r>  12.0212  0.0000</r>
       <r>  12.0212  0.0000</r>
       <r>  13.2807  0.0000</r>
       <r>  14.3605  0.0000</r>
      </set>
      <set comment="kpoint 24">
       <r>  -0.2374  1.0000</r>
       <r>   1.2971  1.0000</r>
       <r>   2.8121  1.0000</r>
       <r>   4.3078  1.0000</r>
       <r>   8.0516  1.0000</r>
       <r>   9.4916  0.0000</r>
       <r>   9.7308  0.0000</r>
       <r>  10.9344  0.0000</r>
       <r>  11.1696  0.0000</r>
       <r>  12.3786  0.0000</r>
       <r>  12.6055  0.0000</r>
       <r>  14.0412  0.0000</r>
      </set>
      <set comment="kpoint 25">
       <r>   0.4684  1.0000</r>
       <r>   0.4684  1.0000</r>
       <r>   3.5006  1.0000</r>
       <r>   3.5006  1.0000</r>
       <r>   8.7112  0.0000</r>
       <r>   8.7112  0.0000</r>
       <r>  10.3983  0.0000</r>
       <r>  10.3983  0.0000</r>
       <r>  11.5964  0.0000</r>
       <r>  11.5964  0.0000</r>
       <r>  13.2750  0.0000</r>
       <r>  13.2750  0.0000</r>
      </set>
      <set comment="kpoint 26">
       <r>   0.3405  1.0000</r>
       <r>   1.8682  1.0000</r>
       <r>   1.8682  1.0000</r>
       <r>   3.3770  1.0000</r>
       <r>   8.5913  1.0000</r>
       <r>  10.0325  0.0000</r>
       <r>  10.0325  0.0000</r>
       <r>  10.2876  0.0000</r>
       <r>  11.4760  0.0000</r>
       <r>  11.7351  0.0000</r>
       <r>  11.7351  0.0000</r>
       <r>  13.1754  0.0000</r>
      </set>
      <set comment="kpoint 27">
       <r>   1.0431  1.0000</r>
       <r>   1.0431  1.0000</r>
       <r>   2.5624  1.0000</r>
       <r>   2.5624  1.0000</r>
       <r>   9.2515  0.0000</r>
       <r>   9.2515  0.0000</r>
       <r>  10.6940  0.0000</r>
       <r>  10.6940  0.0000</r>
       <r>  10.9582  0.0000</r>
       <r>  10.9582  0.0000</r>
       <r>  12.4040  0.0000</r>
       <r>  12.4040  0.0000</r>
      </set>
      <set comment="kpoint 28">
       <r>   1.7419  1.0000</r>
       <r>   1.7419  1.0000</r>
       <r>   1.7419  1.0000</r>
       <r>   1.7419  1.0000</r>
       <r>   9.9124  0.0000</r>
       <r>   9.9124  0.0000</r>
       <r>   9.9124  0.0000</r>
       <r>   9.9124  0.0000</r>
       <r>  11.6284  0.0000</r>
       <r>  11.6284  0.0000</r>
       <r>  11.6284  0.0000</r>
       <r>  11.6284  0.0000</r>
      </set>
      <set comment="kpoint 29">
       <r>  -2.7054  1.0000</r>
       <r>   4.8462  1.0000</r>
       <r>   4.8462  1.0000</r>
       <r>   4.8462  1.0000</r>
       <r>   8.1678  1.0000</r>
       <r>   8.1678  1.0000</r>
       <r>   8.1678  1.0000</r>
       <r>  12.0684  0.0000</r>
       <r>  12.0684  0.0000</r>
       <r>  12.0684  0.0000</r>
       <r>  14.7451  0.0000</r>
       <r>  14.7451  0.0000</r>
      </set>
      <set comment="kpoint 30">
       <r>  -2.5089  1.0000</r>
       <r>   3.6059  1.0000</r>
       <r>   5.0295  1.0000</r>
       <r>   5.0295  1.0000</r>
       <r>   8.3412  1.0000</r>
       <r>   8.3412  1.0000</r>
       <r>   9.7389  0.0000</r>
       <r>  10.8912  0.0000</r>
       <r>  10.8912  0.0000</r>
       <r>  12.2545  0.0000</r>
       <r>  14.1247  0.0000</r>
       <r>  14.1247  0.0000</r>
      </set>
      <set comment="kpoint 31">
       <r>  -2.1820  1.0000</r>
       <r>   2.4300  1.0000</r>
       <r>   5.3342  1.0000</r>
       <r>   5.3342  1.0000</r>
       <r>   8.6040  1.0000</r>
       <r>   8.6040  1.0000</r>
       <r>   9.8061  0.0000</r>
       <r>   9.8061  0.0000</r>
       <r>  11.4528  0.0000</r>
       <r>  12.5763  0.0000</r>
       <r>  13.1494  0.0000</r>
       <r>  13.1494  0.0000</r>
      </set>
      <set comment="kpoint 32">
       <r>  -1.7257  1.0000</r>
       <r>   1.3590  1.0000</r>
       <r>   5.7587  1.0000</r>
       <r>   5.7587  1.0000</r>
       <r>   8.5607  1.0000</r>
       <r>   8.5607  1.0000</r>
       <r>   9.2402  0.0000</r>
       <r>   9.2402  0.0000</r>
       <r>  12.2105  0.0000</r>
       <r>  12.2105  0.0000</r>
       <r>  12.8749  0.0000</r>
       <r>  13.4250  0.0000</r>
      </set>
      <set comment="kpoint 33">
       <r>  -1.1413  1.0000</r>
       <r>   0.4038  1.0000</r>
       <r>   6.2972  1.0000</r>
       <r>   6.2972  1.0000</r>
       <r>   7.7705  1.0000</r>
       <r>   7.7705  1.0000</r>
       <r>   9.6119  0.0000</r>
       <r>   9.6119  0.0000</r>
       <r>  11.4033  0.0000</r>
       <r>  11.4033  0.0000</r>
       <r>  13.4790  0.0000</r>
       <r>  14.9241  0.0000</r>
      </set>
      <set comment="kpoint 34">
       <r>  -0.4307  1.0000</r>
       <r>  -0.4307  1.0000</r>
       <r>   6.8176  1.0000</r>
       <r>   6.8176  1.0000</r>
       <r>   7.1421  1.0000</r>
       <r>   7.1421  1.0000</r>
       <r>   9.9132  0.0000</r>
       <r>   9.9132  0.0000</r>
       <r>  10.9791  0.0000</r>
       <r>  10.9791  0.0000</r>
       <r>  14.1466  0.0000</r>
       <r>  14.1466  0.0000</r>
      </set>
      <set comment="kpoint 35">
       <r>  -2.3127  1.0000</r>
       <r>   3.7924  1.0000</r>
       <r>   3.7924  1.0000</r>
       <r>   5.2121  1.0000</r>
       <r>   8.4812  1.0000</r>
       <r>   9.7716  0.0000</r>
       <r>   9.8854  0.0000</r>
       <r>   9.8854  0.0000</r>
       <r>  11.0985  0.0000</r>
       <r>  11.0985  0.0000</r>
       <r>  14.3004  0.0000</r>
       <r>  14.3004  0.0000</r>
      </set>
      <set comment="kpoint 36">
       <r>  -1.9862  1.0000</r>
       <r>   2.6187  1.0000</r>
       <r>   4.1025  1.0000</r>
       <r>   5.5150  1.0000</r>
       <r>   8.3478  1.0000</r>
       <r>   9.0925  0.0000</r>
       <r>   9.7672  0.0000</r>
       <r>  10.3802  0.0000</r>
       <r>  11.2143  0.0000</r>
       <r>  11.7969  0.0000</r>
       <r>  13.3391  0.0000</r>
       <r>  14.5552  0.0000</r>
      </set>
      <set comment="kpoint 37">
       <r>  -1.5306  1.0000</r>
       <r>   1.5495  1.0000</r>
       <r>   4.5350  1.0000</r>
       <r>   5.9324  1.0000</r>
       <r>   7.4779  1.0000</r>
       <r>   8.8558  0.0000</r>
       <r>   9.3709  0.0000</r>
       <r>  10.6399  0.0000</r>
       <r>  11.7351  0.0000</r>
       <r>  12.4374  0.0000</r>
       <r>  13.5230  0.0000</r>
       <r>  13.6642  0.0000</r>
      </set>
      <set comment="kpoint 38">
       <r>  -0.9471  1.0000</r>
       <r>   0.5957  1.0000</r>
       <r>   5.0871  1.0000</r>
       <r>   6.3464  1.0000</r>
       <r>   6.7222  1.0000</r>
       <r>   7.9685  1.0000</r>
       <r>   9.8768  0.0000</r>
       <r>  10.8714  0.0000</r>
       <r>  11.8547  0.0000</r>
       <r>  12.2911  0.0000</r>
       <r>  12.8289  0.0000</r>
       <r>  13.7362  0.0000</r>
      </set>
      <set comment="kpoint 39">
       <r>  -0.2375  1.0000</r>
       <r>  -0.2375  1.0000</r>
       <r>   5.7504  1.0000</r>
       <r>   5.7504  1.0000</r>
       <r>   7.1962  1.0000</r>
       <r>   7.1962  1.0000</r>
       <r>  10.4674  0.0000</r>
       <r>  10.4674  0.0000</r>
       <r>  12.1352  0.0000</r>
       <r>  12.1352  0.0000</r>
       <r>  12.9566  0.0000</r>
       <r>  12.9566  0.0000</r>
      </set>
      <set comment="kpoint 40">
       <r>  -1.6606  1.0000</r>
       <r>   2.9326  1.0000</r>
       <r>   2.9326  1.0000</r>
       <r>   5.8106  1.0000</r>
       <r>   7.3695  1.0000</r>
       <r>   9.2650  0.0000</r>
       <r>  10.1818  0.0000</r>
       <r>  10.1818  0.0000</r>
       <r>  11.9574  0.0000</r>
       <r>  11.9574  0.0000</r>
       <r>  13.6737  0.0000</r>
       <r>  13.6737  0.0000</r>
      </set>
      <set comment="kpoint 41">
       <r>  -1.2061  1.0000</r>
       <r>   1.8664  1.0000</r>
       <r>   3.3706  1.0000</r>
       <r>   6.1068  1.0000</r>
       <r>   6.4935  1.0000</r>
       <r>   9.1763  0.0000</r>
       <r>   9.6703  0.0000</r>
       <r>  10.6216  0.0000</r>
       <r>  12.0862  0.0000</r>
       <r>  12.9950  0.0000</r>
       <r>  13.5146  0.0000</r>
       <r>  13.5435  0.0000</r>
      </set>
      <set comment="kpoint 42">
       <r>  -0.6240  1.0000</r>
       <r>   0.9150  1.0000</r>
       <r>   3.9310  1.0000</r>
       <r>   5.3990  1.0000</r>
       <r>   6.8370  1.0000</r>
       <r>   8.2764  1.0000</r>
       <r>  10.2058  0.0000</r>
       <r>  11.1709  0.0000</r>
       <r>  11.5635  0.0000</r>
       <r>  12.6181  0.0000</r>
       <r>  13.1707  0.0000</r>
       <r>  14.4071  0.0000</r>
      </set>
      <set comment="kpoint 43">
       <r>   0.0838  1.0000</r>
       <r>   0.0838  1.0000</r>
       <r>   4.6104  1.0000</r>
       <r>   4.6104  1.0000</r>
       <r>   7.4933  1.0000</r>
       <r>   7.4933  1.0000</r>
       <r>  10.8501  0.0000</r>
       <r>  10.8501  0.0000</r>
       <r>  11.8363  0.0000</r>
       <r>  11.8363  0.0000</r>
       <r>  13.7497  0.0000</r>
       <r>  13.7497  0.0000</r>
      </set>
      <set comment="kpoint 44">
       <r>  -0.7531  1.0000</r>
       <r>   2.3086  1.0000</r>
       <r>   2.3086  1.0000</r>
       <r>   5.2800  1.0000</r>
       <r>   6.7163  1.0000</r>
       <r>   9.6065  0.0000</r>
       <r>   9.6065  0.0000</r>
       <r>  10.0967  0.0000</r>
       <r>  12.5031  0.0000</r>
       <r>  12.8852  0.0000</r>
       <r>  12.8852  0.0000</r>
       <r>  14.4445  0.0000</r>
      </set>
      <set comment="kpoint 45">
       <r>  -0.1730  1.0000</r>
       <r>   1.3607  1.0000</r>
       <r>   2.8748  1.0000</r>
       <r>   4.3679  1.0000</r>
       <r>   7.2525  1.0000</r>
       <r>   8.7034  0.0005</r>
       <r>  10.1540  0.0000</r>
       <r>  10.6423  0.0000</r>
       <r>  11.6036  0.0000</r>
       <r>  12.0596  0.0000</r>
       <r>  13.4845  0.0000</r>
       <r>  14.9148  0.0000</r>
      </set>
      <set comment="kpoint 46">
       <r>   0.5324  1.0000</r>
       <r>   0.5324  1.0000</r>
       <r>   3.5626  1.0000</r>
       <r>   3.5626  1.0000</r>
       <r>   7.9175  1.0000</r>
       <r>   7.9175  1.0000</r>
       <r>  10.8200  0.0000</r>
       <r>  10.8200  0.0000</r>
       <r>  11.3005  0.0000</r>
       <r>  11.3005  0.0000</r>
       <r>  14.1518  0.0000</r>
       <r>  14.1518  0.0000</r>
      </set>
      <set comment="kpoint 47">
       <r>   0.4045  1.0000</r>
       <r>   1.9314  1.0000</r>
       <r>   1.9314  1.0000</r>
       <r>   3.4390  1.0000</r>
       <r>   7.7971  1.0000</r>
       <r>   9.2503  0.0000</r>
       <r>   9.2503  0.0000</r>
       <r>  10.7019  0.0000</r>
       <r>  11.1925  0.0000</r>
       <r>  12.6230  0.0000</r>
       <r>  12.6230  0.0000</r>
       <r>  14.0527  0.0000</r>
      </set>
      <set comment="kpoint 48">
       <r>   1.1068  1.0000</r>
       <r>   1.1068  1.0000</r>
       <r>   2.6252  1.0000</r>
       <r>   2.6252  1.0000</r>
       <r>   8.4639  1.0000</r>
       <r>   8.4639  1.0000</r>
       <r>   9.9168  0.0000</r>
       <r>   9.9168  0.0000</r>
       <r>  11.8547  0.0000</r>
       <r>  11.8547  0.0000</r>
       <r>  13.2865  0.0000</r>
       <r>  13.2865  0.0000</r>
      </set>
      <set comment="kpoint 49">
       <r>   1.8053  1.0000</r>
       <r>   1.8053  1.0000</r>
       <r>   1.8053  1.0000</r>
       <r>   1.8053  1.0000</r>
       <r>   9.1308  0.0000</r>
       <r>   9.1308  0.0000</r>
       <r>   9.1308  0.0000</r>
       <r>   9.1308  0.0000</r>
       <r>  12.5178  0.0000</r>
       <r>  12.5178  0.0000</r>
       <r>  12.5178  0.0000</r>
       <r>  12.5178  0.0000</r>
      </set>
      <set comment="kpoint 50">
       <r>  -2.1167  1.0000</r>
       <r>   3.9784  1.0000</r>
       <r>   3.9784  1.0000</r>
       <r>   3.9784  1.0000</r>
       <r>   9.6707  0.0000</r>
       <r>   9.6707  0.0000</r>
       <r>   9.6707  0.0000</r>
       <r>  10.3329  0.0000</r>
       <r>  10.3329  0.0000</r>
       <r>  10.3329  0.0000</r>
       <r>  15.2435  0.0000</r>
       <r>  15.2435  0.0000</r>
      </set>
      <set comment="kpoint 51">
       <r>  -1.7908  1.0000</r>
       <r>   2.8071  1.0000</r>
       <r>   4.2875  1.0000</r>
       <r>   4.2875  1.0000</r>
       <r>   8.6841  0.2848</r>
       <r>   8.6841  0.2848</r>
       <r>  10.1196  0.0000</r>
       <r>  10.4991  0.0000</r>
       <r>  10.4991  0.0000</r>
       <r>  11.9150  0.0000</r>
       <r>  14.4651  0.0000</r>
       <r>  14.7295  0.0000</r>
      </set>
      <set comment="kpoint 52">
       <r>  -1.3358  1.0000</r>
       <r>   1.7397  1.0000</r>
       <r>   4.7175  1.0000</r>
       <r>   4.7175  1.0000</r>
       <r>   7.6844  1.0000</r>
       <r>   7.6844  1.0000</r>
       <r>  10.5656  0.0000</r>
       <r>  10.8867  0.0000</r>
       <r>  10.8867  0.0000</r>
       <r>  13.4613  0.0000</r>
       <r>  13.7346  0.0000</r>
       <r>  13.8525  0.0000</r>
      </set>
      <set comment="kpoint 53">
       <r>  -0.7532  1.0000</r>
       <r>   0.7874  1.0000</r>
       <r>   5.2601  1.0000</r>
       <r>   5.2601  1.0000</r>
       <r>   6.7913  1.0000</r>
       <r>   6.7913  1.0000</r>
       <r>  11.1174  0.0000</r>
       <r>  11.3677  0.0000</r>
       <r>  11.3677  0.0000</r>
       <r>  12.5660  0.0000</r>
       <r>  13.0523  0.0000</r>
       <r>  13.0523  0.0000</r>
      </set>
      <set comment="kpoint 54">
       <r>  -0.0446  1.0000</r>
       <r>  -0.0446  1.0000</r>
       <r>   5.7571  1.0000</r>
       <r>   5.7571  1.0000</r>
       <r>   6.1767  1.0000</r>
       <r>   6.1767  1.0000</r>
       <r>  11.7076  0.0000</r>
       <r>  11.7076  0.0000</r>
       <r>  11.7840  0.0000</r>
       <r>  11.7840  0.0000</r>
       <r>  12.6035  0.0000</r>
       <r>  12.6035  0.0000</r>
      </set>
      <set comment="kpoint 55">
       <r>  -1.4656  1.0000</r>
       <r>   3.1204  1.0000</r>
       <r>   3.1204  1.0000</r>
       <r>   4.5940  1.0000</r>
       <r>   7.5778  1.0000</r>
       <r>   9.0131  0.0000</r>
       <r>   9.0131  0.0000</r>
       <r>  10.7913  0.0000</r>
       <r>  12.1920  0.0000</r>
       <r>  12.1920  0.0000</r>
       <r>  13.3584  0.0000</r>
       <r>  15.0241  0.0000</r>
      </set>
      <set comment="kpoint 56">
       <r>  -1.0118  1.0000</r>
       <r>   2.0561  1.0000</r>
       <r>   3.5572  1.0000</r>
       <r>   5.0142  1.0000</r>
       <r>   6.5664  1.0000</r>
       <r>   7.9962  1.0000</r>
       <r>   9.4472  0.0000</r>
       <r>  11.2063  0.0000</r>
       <r>  12.3497  0.0000</r>
       <r>  12.5594  0.0000</r>
       <r>  14.0001  0.0000</r>
       <r>  14.1844  0.0000</r>
      </set>
      <set comment="kpoint 57">
       <r>  -0.4305  1.0000</r>
       <r>   1.1062  1.0000</r>
       <r>   4.1149  1.0000</r>
       <r>   5.3970  1.0000</r>
       <r>   5.8218  1.0000</r>
       <r>   7.0899  1.0000</r>
       <r>   9.9976  0.0000</r>
       <r>  11.4505  0.0000</r>
       <r>  11.7314  0.0000</r>
       <r>  12.7984  0.0000</r>
       <r>  13.6251  0.0000</r>
       <r>  14.6531  0.0000</r>
      </set>
      <set comment="kpoint 58">
       <r>   0.2763  1.0000</r>
       <r>   0.2763  1.0000</r>
       <r>   4.7844  1.0000</r>
       <r>   4.7844  1.0000</r>
       <r>   6.3086  1.0000</r>
       <r>   6.3086  1.0000</r>
       <r>  10.6657  0.0000</r>
       <r>  10.6657  0.0000</r>
       <r>  12.3371  0.0000</r>
       <r>  12.3371  0.0000</r>
       <r>  13.9663  0.0000</r>
       <r>  13.9663  0.0000</r>
      </set>
      <set comment="kpoint 59">
       <r>  -0.5594  1.0000</r>
       <r>   2.4975  1.0000</r>
       <r>   2.4975  1.0000</r>
       <r>   5.2766  1.0000</r>
       <r>   5.7010  1.0000</r>
       <r>   8.4266  1.0000</r>
       <r>   8.4266  1.0000</r>
       <r>  11.3368  0.0000</r>
       <r>  11.6336  0.0000</r>
       <r>  14.1306  0.0000</r>
       <r>  14.1306  0.0000</r>
       <r>  14.8531  0.0000</r>
      </set>
      <set comment="kpoint 60">
       <r>   0.0198  1.0000</r>
       <r>   1.5513  1.0000</r>
       <r>   3.0624  1.0000</r>
       <r>   4.5427  1.0000</r>
       <r>   6.0642  1.0000</r>
       <r>   7.5172  1.0000</r>
       <r>   8.9768  0.0000</r>
       <r>  10.4340  0.0000</r>
       <r>  12.1717  0.0000</r>
       <r>  13.5353  0.0000</r>
       <r>  14.9411  0.0000</r>
       <r>  15.1205  0.0000</r>
      </set>
      <set comment="kpoint 61">
       <r>   0.7242  1.0000</r>
       <r>   0.7242  1.0000</r>
       <r>   3.7474  1.0000</r>
       <r>   3.7474  1.0000</r>
       <r>   6.7263  1.0000</r>
       <r>   6.7263  1.0000</r>
       <r>   9.6465  0.0000</r>
       <r>   9.6465  0.0000</r>
       <r>  12.8142  0.0000</r>
       <r>  12.8142  0.0000</r>
       <r>  15.6161  0.0000</r>
       <r>  15.6162  0.0000</r>
      </set>
      <set comment="kpoint 62">
       <r>   0.5965  1.0000</r>
       <r>   2.1210  1.0000</r>
       <r>   2.1210  1.0000</r>
       <r>   3.6241  1.0000</r>
       <r>   6.6044  1.0000</r>
       <r>   8.0675  1.0000</r>
       <r>   8.0675  1.0000</r>
       <r>   9.5283  0.0000</r>
       <r>  12.7165  0.0000</r>
       <r>  14.1180  0.0000</r>
       <r>  14.1180  0.0000</r>
       <r>  15.5300  0.0000</r>
      </set>
      <set comment="kpoint 63">
       <r>   1.2978  1.0000</r>
       <r>   1.2978  1.0000</r>
       <r>   2.8133  1.0000</r>
       <r>   2.8133  1.0000</r>
       <r>   7.2752  1.0000</r>
       <r>   7.2752  1.0000</r>
       <r>   8.7385  0.0000</r>
       <r>   8.7385  0.0000</r>
       <r>  13.3679  0.0000</r>
       <r>  13.3679  0.0000</r>
       <r>  14.7767  0.0000</r>
       <r>  14.7767  0.0000</r>
      </set>
      <set comment="kpoint 64">
       <r>   1.9951  1.0000</r>
       <r>   1.9951  1.0000</r>
       <r>   1.9951  1.0000</r>
       <r>   1.9951  1.0000</r>
       <r>   7.9470  1.0000</r>
       <r>   7.9470  1.0000</r>
       <r>   7.9470  1.0000</r>
       <r>   7.9470  1.0000</r>
       <r>  14.0225  0.0000</r>
       <r>  14.0225  0.0000</r>
       <r>  14.0225  0.0000</r>
       <r>  14.0225  0.0000</r>
      </set>
      <set comment="kpoint 65">
       <r>  -1.1413  1.0000</r>
       <r>   3.4324  1.0000</r>
       <r>   3.4324  1.0000</r>
       <r>   3.4324  1.0000</r>
       <r>   7.8905  1.0000</r>
       <r>   7.8905  1.0000</r>
       <r>   7.8905  1.0000</r>
       <r>  12.2479  0.0000</r>
       <r>  12.5008  0.0000</r>
       <r>  12.5008  0.0000</r>
       <r>  12.5008  0.0000</r>
       <r>  16.0762  0.0000</r>
      </set>
      <set comment="kpoint 66">
       <r>  -0.6885  1.0000</r>
       <r>   2.3715  1.0000</r>
       <r>   3.8663  1.0000</r>
       <r>   3.8663  1.0000</r>
       <r>   6.8658  1.0000</r>
       <r>   6.8658  1.0000</r>
       <r>   8.3216  1.0000</r>
       <r>  11.2349  0.0000</r>
       <r>  12.9101  0.0000</r>
       <r>  12.9101  0.0000</r>
       <r>  14.3283  0.0000</r>
       <r>  15.7063  0.0000</r>
      </set>
      <set comment="kpoint 67">
       <r>  -0.1087  1.0000</r>
       <r>   1.4243  1.0000</r>
       <r>   4.4141  1.0000</r>
       <r>   4.4141  1.0000</r>
       <r>   5.9607  1.0000</r>
       <r>   5.9607  1.0000</r>
       <r>   8.8728  0.0000</r>
       <r>  10.3316  0.0000</r>
       <r>  13.4017  0.0000</r>
       <r>  13.4017  0.0000</r>
       <r>  14.9782  0.0000</r>
       <r>  14.9782  0.0000</r>
      </set>
      <set comment="kpoint 68">
       <r>   0.5964  1.0000</r>
       <r>   0.5964  1.0000</r>
       <r>   4.9161  1.0000</r>
       <r>   4.9161  1.0000</r>
       <r>   5.3391  1.0000</r>
       <r>   5.3391  1.0000</r>
       <r>   9.5433  0.0000</r>
       <r>   9.5433  0.0000</r>
       <r>  13.7635  0.0000</r>
       <r>  13.7635  0.0000</r>
       <r>  14.5238  0.0000</r>
       <r>  14.5238  0.0000</r>
      </set>
      <set comment="kpoint 69">
       <r>  -0.2373  1.0000</r>
       <r>   2.8115  1.0000</r>
       <r>   2.8115  1.0000</r>
       <r>   4.2904  1.0000</r>
       <r>   5.8421  1.0000</r>
       <r>   7.2944  1.0000</r>
       <r>   7.2944  1.0000</r>
       <r>  10.2175  0.0000</r>
       <r>  13.3385  0.0000</r>
       <r>  14.7142  0.0000</r>
       <r>  14.7142  0.0000</r>
       <r>  16.1265  0.0000</r>
      </set>
      <set comment="kpoint 70">
       <r>   0.3406  1.0000</r>
       <r>   1.8681  1.0000</r>
       <r>   3.3733  1.0000</r>
       <r>   4.6748  1.0000</r>
       <r>   5.0922  1.0000</r>
       <r>   6.3803  1.0000</r>
       <r>   7.8462  1.0000</r>
       <r>   9.3104  0.0000</r>
       <r>  13.8649  0.0000</r>
       <r>  14.9677  0.0000</r>
       <r>  15.6315  0.0000</r>
       <r>  16.3868  0.0000</r>
      </set>
      <set comment="kpoint 71">
       <r>   1.0432  1.0000</r>
       <r>   1.0432  1.0000</r>
       <r>   4.0484  1.0000</r>
       <r>   4.0484  1.0000</r>
       <r>   5.5919  1.0000</r>
       <r>   5.5919  1.0000</r>
       <r>   8.5189  1.0000</r>
       <r>   8.5189  1.0000</r>
       <r>  14.4722  0.0000</r>
       <r>  14.4722  0.0000</r>
       <r>  16.0083  0.0000</r>
       <r>  16.0083  0.0000</r>
      </set>
      <set comment="kpoint 72">
       <r>   0.9159  1.0000</r>
       <r>   2.4361  1.0000</r>
       <r>   2.4361  1.0000</r>
       <r>   3.9258  1.0000</r>
       <r>   5.4683  1.0000</r>
       <r>   6.9314  1.0000</r>
       <r>   6.9314  1.0000</r>
       <r>   8.3999  1.0000</r>
       <r>  14.4056  0.0000</r>
       <r>  15.7501  0.0000</r>
       <r>  15.7501  0.0000</r>
       <r>  17.1388  0.0000</r>
      </set>
      <set comment="kpoint 73">
       <r>   1.6153  1.0000</r>
       <r>   1.6153  1.0000</r>
       <r>   3.1250  1.0000</r>
       <r>   3.1250  1.0000</r>
       <r>   6.1354  1.0000</r>
       <r>   6.1354  1.0000</r>
       <r>   7.6057  1.0000</r>
       <r>   7.6057  1.0000</r>
       <r>  15.0402  0.0000</r>
       <r>  15.0402  0.0000</r>
       <r>  16.4098  0.0000</r>
       <r>  16.4098  0.0000</r>
      </set>
      <set comment="kpoint 74">
       <r>   2.3105  1.0000</r>
       <r>   2.3105  1.0000</r>
       <r>   2.3105  1.0000</r>
       <r>   2.3105  1.0000</r>
       <r>   6.8097  1.0000</r>
       <r>   6.8097  1.0000</r>
       <r>   6.8097  1.0000</r>
       <r>   6.8097  1.0000</r>
       <r>  15.6838  0.0000</r>
       <r>  15.6838  0.0000</r>
       <r>  15.6838  0.0000</r>
       <r>  15.6838  0.0000</r>
      </set>
      <set comment="kpoint 75">
       <r>   0.2124  1.0000</r>
       <r>   3.2483  1.0000</r>
       <r>   3.2483  1.0000</r>
       <r>   3.2483  1.0000</r>
       <r>   6.2623  1.0000</r>
       <r>   6.2623  1.0000</r>
       <r>   6.2623  1.0000</r>
       <r>   9.1956  0.0000</r>
       <r>  15.1540  0.0000</r>
       <r>  15.1540  0.0000</r>
       <r>  15.1540  0.0000</r>
       <r>  17.2455  0.0000</r>
      </set>
      <set comment="kpoint 76">
       <r>   0.7883  1.0000</r>
       <r>   2.3101  1.0000</r>
       <r>   3.8004  1.0000</r>
       <r>   3.8004  1.0000</r>
       <r>   5.3503  1.0000</r>
       <r>   5.3503  1.0000</r>
       <r>   6.8142  1.0000</r>
       <r>   8.2843  1.0000</r>
       <r>  15.6532  0.0000</r>
       <r>  15.6532  0.0000</r>
       <r>  17.0312  0.0000</r>
       <r>  17.0447  0.0000</r>
      </set>
      <set comment="kpoint 77">
       <r>   1.4885  1.0000</r>
       <r>   1.4885  1.0000</r>
       <r>   4.3127  1.0000</r>
       <r>   4.3127  1.0000</r>
       <r>   4.7177  1.0000</r>
       <r>   4.7177  1.0000</r>
       <r>   7.4893  1.0000</r>
       <r>   7.4893  1.0000</r>
       <r>  16.0397  0.0000</r>
       <r>  16.0397  0.0000</r>
       <r>  16.6156  0.0000</r>
       <r>  16.6156  0.0000</r>
      </set>
      <set comment="kpoint 78">
       <r>   1.3616  1.0000</r>
       <r>   2.8746  1.0000</r>
       <r>   2.8746  1.0000</r>
       <r>   4.1919  1.0000</r>
       <r>   4.5917  1.0000</r>
       <r>   5.8956  1.0000</r>
       <r>   5.8956  1.0000</r>
       <r>   7.3693  1.0000</r>
       <r>  16.1957  0.0000</r>
       <r>  17.3190  0.0000</r>
       <r>  17.3190  0.0000</r>
       <r>  17.7437  0.0000</r>
      </set>
      <set comment="kpoint 79">
       <r>   2.0583  1.0000</r>
       <r>   2.0583  1.0000</r>
       <r>   3.5538  1.0000</r>
       <r>   3.5538  1.0000</r>
       <r>   5.1025  1.0000</r>
       <r>   5.1025  1.0000</r>
       <r>   6.5716  1.0000</r>
       <r>   6.5716  1.0000</r>
       <r>  16.7944  0.0000</r>
       <r>  16.7944  0.0000</r>
       <r>  18.0714  0.0000</r>
       <r>  18.0731  0.0000</r>
      </set>
      <set comment="kpoint 80">
       <r>   2.7496  1.0000</r>
       <r>   2.7496  1.0000</r>
       <r>   2.7496  1.0000</r>
       <r>   2.7496  1.0000</r>
       <r>   5.7728  1.0000</r>
       <r>   5.7728  1.0000</r>
       <r>   5.7728  1.0000</r>
       <r>   5.7728  1.0000</r>
       <r>  17.4220  0.0000</r>
       <r>  17.4220  0.0000</r>
       <r>  17.4220  0.0000</r>
       <r>  17.4220  0.0000</r>
      </set>
      <set comment="kpoint 81">
       <r>   1.9320  1.0000</r>
       <r>   3.4295  1.0000</r>
       <r>   3.4295  1.0000</r>
       <r>   3.4295  1.0000</r>
       <r>   4.9796  1.0000</r>
       <r>   4.9796  1.0000</r>
       <r>   4.9796  1.0000</r>
       <r>   6.4506  1.0000</r>
       <r>  18.0430  0.0000</r>
       <r>  18.0430  0.0000</r>
       <r>  18.0430  0.0000</r>
       <r>  18.7522  0.0000</r>
      </set>
      <set comment="kpoint 82">
       <r>   2.6242  1.0000</r>
       <r>   2.6242  1.0000</r>
       <r>   3.9502  1.0000</r>
       <r>   3.9502  1.0000</r>
       <r>   4.3382  1.0000</r>
       <r>   4.3382  1.0000</r>
       <r>   5.6509  1.0000</r>
       <r>   5.6509  1.0000</r>
       <r>  18.4503  0.0000</r>
       <r>  18.4503  0.0000</r>
       <r>  18.7508  0.0000</r>
       <r>  18.7508  0.0000</r>
      </set>
      <set comment="kpoint 83">
       <r>   3.3055  1.0000</r>
       <r>   3.3055  1.0000</r>
       <r>   3.3055  1.0000</r>
       <r>   3.3055  1.0000</r>
       <r>   4.8554  1.0000</r>
       <r>   4.8554  1.0000</r>
       <r>   4.8554  1.0000</r>
       <r>   4.8554  1.0000</r>
       <r>  19.1431  0.0000</r>
       <r>  19.1432  0.0000</r>
       <r>  19.1432  0.0000</r>
       <r>  19.1432  0.0000</r>
      </set>
      <set comment="kpoint 84">
       <r>   3.8293  1.0000</r>
       <r>   3.8293  1.0000</r>
       <r>   3.8293  1.0000</r>
       <r>   3.8293  1.0000</r>
       <r>   4.2108  1.0000</r>
       <r>   4.2108  1.0000</r>
       <r>   4.2108  1.0000</r>
       <r>   4.2108  1.0000</r>
       <r>  20.4374  0.0000</r>
       <r>  20.4374  0.0000</r>
       <r>  20.4374  0.0000</r>
       <r>  20.4374  0.0000</r>
      </set>
     </set>
    </set>
   </array>
  </eigenvalues>
 </calculation>
 <structure name="finalpos" >
  <crystal>
   <varray name="basis" >
    <v>       3.95656024      0.00000000      0.00000000</v>
    <v>       0.00000000      3.95656024      0.00000000</v>
    <v>       0.00000000      0.00000000      3.95656024</v>
   </varray>
   <i name="volume">     61.93745381</i>
   <varray name="rec_basis" >
    <v>       0.25274479      0.00000000      0.00000000</v>
    <v>       0.00000000      0.25274479      0.00000000</v>
    <v>       0.00000000      0.00000000      0.25274479</v>
   </varray>
  </crystal>
  <varray name="positions" >
   <v>       0.50000000      0.50000000      0.00000000</v>
   <v>       0.50000000      0.00000000      0.50000000</v>
   <v>       0.00000000      0.50000000      0.50000000</v>
   <v>       0.00000000      0.00000000      0.00000000</v>
  </varray>
 </structure>
</modeling>
