   4   4   0   0
  0.1504363E+02  0.3918659E-09  0.3918659E-09  0.3918659E-09  0.5000000E-15
  1.000000000000000E-004
  CAR 
 unknown system                          
     22.25900617     -3.98279860  301      9.01102723      1.00000000
     -3.983  0.0000E+00  0.0000E+00
     -3.895  0.0000E+00  0.0000E+00
     -3.808  0.0000E+00  0.0000E+00
     -3.720  0.0000E+00  0.0000E+00
     -3.633  0.0000E+00  0.0000E+00
     -3.545  0.0000E+00  0.0000E+00
     -3.458  0.0000E+00  0.0000E+00
     -3.370  0.0000E+00  0.0000E+00
     -3.283  0.0000E+00  0.0000E+00
     -3.196  0.0000E+00  0.0000E+00
     -3.108  0.0000E+00  0.0000E+00
     -3.021  0.0000E+00  0.0000E+00
     -2.933  0.0000E+00  0.0000E+00
     -2.846  0.8433E-18  0.7377E-19
     -2.758  0.1770E-01  0.1548E-02
     -2.671  0.9992E-01  0.1122E-01
     -2.583  0.1536E+00  0.2654E-01
     -2.496  0.1989E+00  0.4429E-01
     -2.408  0.2385E+00  0.6597E-01
     -2.321  0.2539E+00  0.8988E-01
     -2.233  0.3063E+00  0.1173E+00
     -2.146  0.2864E+00  0.1452E+00
     -2.058  0.3221E+00  0.1744E+00
     -1.971  0.3702E+00  0.2100E+00
     -1.883  0.3491E+00  0.2425E+00
     -1.796  0.3927E+00  0.2806E+00
     -1.709  0.3555E+00  0.3149E+00
     -1.621  0.4041E+00  0.3568E+00
     -1.534  0.4123E+00  0.3955E+00
     -1.446  0.4631E+00  0.4404E+00
     -1.359  0.3921E+00  0.4799E+00
     -1.271  0.4706E+00  0.5286E+00
     -1.184  0.4212E+00  0.5741E+00
     -1.096  0.4976E+00  0.6232E+00
     -1.009  0.4219E+00  0.6701E+00
     -0.921  0.5382E+00  0.7241E+00
     -0.834  0.4672E+00  0.7726E+00
     -0.746  0.5294E+00  0.8298E+00
     -0.659  0.4471E+00  0.8771E+00
     -0.571  0.5944E+00  0.9402E+00
     -0.484  0.5281E+00  0.9908E+00
     -0.396  0.6506E+00  0.1050E+01
     -0.309  0.5780E+00  0.1105E+01
     -0.221  0.7163E+00  0.1171E+01
     -0.134  0.5950E+00  0.1227E+01
     -0.047  0.7278E+00  0.1294E+01
      0.041  0.6078E+00  0.1352E+01
      0.128  0.6955E+00  0.1420E+01
      0.216  0.6186E+00  0.1485E+01
      0.303  0.6443E+00  0.1552E+01
      0.391  0.6468E+00  0.1616E+01
      0.478  0.6224E+00  0.1683E+01
      0.566  0.6237E+00  0.1752E+01
      0.653  0.7418E+00  0.1829E+01
      0.741  0.5602E+00  0.1889E+01
      0.828  0.8467E+00  0.1973E+01
      0.916  0.6413E+00  0.2041E+01
      1.003  0.7465E+00  0.2116E+01
      1.091  0.7553E+00  0.2188E+01
      1.178  0.7189E+00  0.2262E+01
      1.266  0.8726E+00  0.2345E+01
      1.353  0.7816E+00  0.2422E+01
      1.441  0.7192E+00  0.2490E+01
      1.528  0.9373E+00  0.2580E+01
      1.615  0.8965E+00  0.2662E+01
      1.703  0.8534E+00  0.2742E+01
      1.790  0.8224E+00  0.2819E+01
      1.878  0.8947E+00  0.2903E+01
      1.965  0.9927E+00  0.2991E+01
      2.053  0.9149E+00  0.3074E+01
      2.140  0.8100E+00  0.3154E+01
      2.228  0.8387E+00  0.3241E+01
      2.315  0.9108E+00  0.3335E+01
      2.403  0.8423E+00  0.3421E+01
      2.490  0.8050E+00  0.3504E+01
      2.578  0.9253E+00  0.3599E+01
      2.665  0.9955E+00  0.3696E+01
      2.753  0.9106E+00  0.3784E+01
      2.840  0.9546E+00  0.3874E+01
      2.928  0.9276E+00  0.3962E+01
      3.015  0.9712E+00  0.4055E+01
      3.102  0.1201E+01  0.4165E+01
      3.190  0.9036E+00  0.4253E+01
      3.277  0.8818E+00  0.4344E+01
      3.365  0.9998E+00  0.4443E+01
      3.452  0.1028E+01  0.4544E+01
      3.540  0.1082E+01  0.4645E+01
      3.627  0.9775E+00  0.4742E+01
      3.715  0.1015E+01  0.4836E+01
      3.802  0.1142E+01  0.4948E+01
      3.890  0.1099E+01  0.5047E+01
      3.977  0.1143E+01  0.5154E+01
      4.065  0.1110E+01  0.5262E+01
      4.152  0.9581E+00  0.5359E+01
      4.240  0.1210E+01  0.5479E+01
      4.327  0.1121E+01  0.5586E+01
      4.415  0.1053E+01  0.5689E+01
      4.502  0.9713E+00  0.5783E+01
      4.590  0.1135E+01  0.5891E+01
      4.677  0.1105E+01  0.5998E+01
      4.764  0.1223E+01  0.6116E+01
      4.852  0.1022E+01  0.6212E+01
      4.939  0.1188E+01  0.6325E+01
      5.027  0.1093E+01  0.6432E+01
      5.114  0.1213E+01  0.6548E+01
      5.202  0.1163E+01  0.6664E+01
      5.289  0.1101E+01  0.6771E+01
      5.377  0.1298E+01  0.6889E+01
      5.464  0.1150E+01  0.7002E+01
      5.552  0.1280E+01  0.7124E+01
      5.639  0.1262E+01  0.7249E+01
      5.727  0.1148E+01  0.7358E+01
      5.814  0.1369E+01  0.7487E+01
      5.902  0.1268E+01  0.7612E+01
      5.989  0.1442E+01  0.7751E+01
      6.077  0.1282E+01  0.7870E+01
      6.164  0.1305E+01  0.7997E+01
      6.252  0.1322E+01  0.8125E+01
      6.339  0.1209E+01  0.8244E+01
      6.426  0.1368E+01  0.8374E+01
      6.514  0.1264E+01  0.8490E+01
      6.601  0.1325E+01  0.8621E+01
      6.689  0.1087E+01  0.8725E+01
      6.776  0.1337E+01  0.8850E+01
      6.864  0.1183E+01  0.8968E+01
      6.951  0.1222E+01  0.9083E+01
      7.039  0.1111E+01  0.9196E+01
      7.126  0.1276E+01  0.9315E+01
      7.214  0.9944E+00  0.9420E+01
      7.301  0.1280E+01  0.9543E+01
      7.389  0.1211E+01  0.9660E+01
      7.476  0.1219E+01  0.9777E+01
      7.564  0.1304E+01  0.9899E+01
      7.651  0.1300E+01  0.1002E+02
      7.739  0.1409E+01  0.1016E+02
      7.826  0.1404E+01  0.1029E+02
      7.913  0.1203E+01  0.1040E+02
      8.001  0.1446E+01  0.1055E+02
      8.088  0.1408E+01  0.1069E+02
      8.176  0.1404E+01  0.1082E+02
      8.263  0.1255E+01  0.1095E+02
      8.351  0.1343E+01  0.1108E+02
      8.438  0.1377E+01  0.1120E+02
      8.526  0.1353E+01  0.1133E+02
      8.613  0.1267E+01  0.1145E+02
      8.701  0.1148E+01  0.1156E+02
      8.788  0.1131E+01  0.1168E+02
      8.876  0.1256E+01  0.1179E+02
      8.963  0.1371E+01  0.1192E+02
      9.051  0.1457E+01  0.1205E+02
      9.138  0.1579E+01  0.1220E+02
      9.226  0.1394E+01  0.1234E+02
      9.313  0.1395E+01  0.1248E+02
      9.401  0.1403E+01  0.1261E+02
      9.488  0.1556E+01  0.1276E+02
      9.575  0.1427E+01  0.1289E+02
      9.663  0.1467E+01  0.1303E+02
      9.750  0.1737E+01  0.1319E+02
      9.838  0.1273E+01  0.1331E+02
      9.925  0.1335E+01  0.1344E+02
     10.013  0.1684E+01  0.1360E+02
     10.100  0.1460E+01  0.1373E+02
     10.188  0.1468E+01  0.1387E+02
     10.275  0.1469E+01  0.1401E+02
     10.363  0.1414E+01  0.1415E+02
     10.450  0.1606E+01  0.1430E+02
     10.538  0.1288E+01  0.1443E+02
     10.625  0.1256E+01  0.1455E+02
     10.713  0.1470E+01  0.1469E+02
     10.800  0.1638E+01  0.1486E+02
     10.888  0.1506E+01  0.1500E+02
     10.975  0.1402E+01  0.1513E+02
     11.063  0.1252E+01  0.1525E+02
     11.150  0.1411E+01  0.1539E+02
     11.237  0.1747E+01  0.1556E+02
     11.325  0.1659E+01  0.1572E+02
     11.412  0.1466E+01  0.1587E+02
     11.500  0.1315E+01  0.1599E+02
     11.587  0.1571E+01  0.1614E+02
     11.675  0.1327E+01  0.1627E+02
     11.762  0.1972E+01  0.1645E+02
     11.850  0.1558E+01  0.1660E+02
     11.937  0.1525E+01  0.1675E+02
     12.025  0.1509E+01  0.1690E+02
     12.112  0.1634E+01  0.1705E+02
     12.200  0.1396E+01  0.1719E+02
     12.287  0.1520E+01  0.1734E+02
     12.375  0.1819E+01  0.1751E+02
     12.462  0.1679E+01  0.1767E+02
     12.550  0.1561E+01  0.1782E+02
     12.637  0.1506E+01  0.1796E+02
     12.724  0.1726E+01  0.1813E+02
     12.812  0.1629E+01  0.1828E+02
     12.899  0.1558E+01  0.1844E+02
     12.987  0.1615E+01  0.1859E+02
     13.074  0.1745E+01  0.1876E+02
     13.162  0.1471E+01  0.1890E+02
     13.249  0.1844E+01  0.1909E+02
     13.337  0.1657E+01  0.1924E+02
     13.424  0.1523E+01  0.1939E+02
     13.512  0.1878E+01  0.1957E+02
     13.599  0.1648E+01  0.1973E+02
     13.687  0.1648E+01  0.1989E+02
     13.774  0.1706E+01  0.2005E+02
     13.862  0.1716E+01  0.2022E+02
     13.949  0.1982E+01  0.2041E+02
     14.037  0.1476E+01  0.2055E+02
     14.124  0.1656E+01  0.2071E+02
     14.212  0.1949E+01  0.2090E+02
     14.299  0.1784E+01  0.2107E+02
     14.386  0.1817E+01  0.2124E+02
     14.474  0.1751E+01  0.2141E+02
     14.561  0.1910E+01  0.2159E+02
     14.649  0.1791E+01  0.2176E+02
     14.736  0.1945E+01  0.2194E+02
     14.824  0.1723E+01  0.2211E+02
     14.911  0.1934E+01  0.2229E+02
     14.999  0.2164E+01  0.2249E+02
     15.086  0.2001E+01  0.2269E+02
     15.174  0.2068E+01  0.2288E+02
     15.261  0.2064E+01  0.2308E+02
     15.349  0.1997E+01  0.2328E+02
     15.436  0.1752E+01  0.2345E+02
     15.524  0.2143E+01  0.2365E+02
     15.611  0.1842E+01  0.2383E+02
     15.699  0.2042E+01  0.2403E+02
     15.786  0.1936E+01  0.2422E+02
     15.874  0.2124E+01  0.2442E+02
     15.961  0.1858E+01  0.2459E+02
     16.048  0.1726E+01  0.2476E+02
     16.136  0.1986E+01  0.2495E+02
     16.223  0.1874E+01  0.2513E+02
     16.311  0.2031E+01  0.2532E+02
     16.398  0.1840E+01  0.2551E+02
     16.486  0.1883E+01  0.2569E+02
     16.573  0.1694E+01  0.2586E+02
     16.661  0.1963E+01  0.2604E+02
     16.748  0.1710E+01  0.2620E+02
     16.836  0.1932E+01  0.2639E+02
     16.923  0.2080E+01  0.2659E+02
     17.011  0.1688E+01  0.2675E+02
     17.098  0.1809E+01  0.2692E+02
     17.186  0.1946E+01  0.2710E+02
     17.273  0.1880E+01  0.2729E+02
     17.361  0.1711E+01  0.2745E+02
     17.448  0.1991E+01  0.2764E+02
     17.535  0.1735E+01  0.2780E+02
     17.623  0.1729E+01  0.2796E+02
     17.710  0.2010E+01  0.2815E+02
     17.798  0.1752E+01  0.2832E+02
     17.885  0.1549E+01  0.2847E+02
     17.973  0.2058E+01  0.2867E+02
     18.060  0.1617E+01  0.2883E+02
     18.148  0.1724E+01  0.2900E+02
     18.235  0.1552E+01  0.2915E+02
     18.323  0.1616E+01  0.2931E+02
     18.410  0.1878E+01  0.2948E+02
     18.498  0.1639E+01  0.2964E+02
     18.585  0.1645E+01  0.2979E+02
     18.673  0.1468E+01  0.2994E+02
     18.760  0.1372E+01  0.3007E+02
     18.848  0.1476E+01  0.3022E+02
     18.935  0.1278E+01  0.3035E+02
     19.023  0.1409E+01  0.3048E+02
     19.110  0.1214E+01  0.3060E+02
     19.197  0.1216E+01  0.3072E+02
     19.285  0.1069E+01  0.3082E+02
     19.372  0.1281E+01  0.3094E+02
     19.460  0.1059E+01  0.3104E+02
     19.547  0.8599E+00  0.3112E+02
     19.635  0.9168E+00  0.3121E+02
     19.722  0.9771E+00  0.3130E+02
     19.810  0.8787E+00  0.3138E+02
     19.897  0.9185E+00  0.3147E+02
     19.985  0.8221E+00  0.3154E+02
     20.072  0.6498E+00  0.3161E+02
     20.160  0.6996E+00  0.3167E+02
     20.247  0.7186E+00  0.3174E+02
     20.335  0.6357E+00  0.3180E+02
     20.422  0.3430E+00  0.3184E+02
     20.510  0.5226E+00  0.3189E+02
     20.597  0.2982E+00  0.3192E+02
     20.684  0.2301E+00  0.3194E+02
     20.772  0.2229E+00  0.3196E+02
     20.859  0.1555E+00  0.3198E+02
     20.947  0.1340E+00  0.3199E+02
     21.034  0.4655E-01  0.3200E+02
     21.122  0.3528E-01  0.3200E+02
     21.209  0.0000E+00  0.3200E+02
     21.297  0.0000E+00  0.3200E+02
     21.384  0.0000E+00  0.3200E+02
     21.472  0.0000E+00  0.3200E+02
     21.559  0.0000E+00  0.3200E+02
     21.647  0.0000E+00  0.3200E+02
     21.734  0.0000E+00  0.3200E+02
     21.822  0.0000E+00  0.3200E+02
     21.909  0.0000E+00  0.3200E+02
     21.997  0.0000E+00  0.3200E+02
     22.084  0.0000E+00  0.3200E+02
     22.172  0.0000E+00  0.3200E+02
     22.259  0.0000E+00  0.3200E+02
