    4    4    1    1
  0.1504363E+02  0.3918659E-09  0.3918659E-09  0.3918659E-09  0.5000000E-15
  1.000000000000000E-004
  CAR 
 unknown system                          
   12 1330   16
 
  0.0000000E+00  0.0000000E+00  0.0000000E+00  0.2143347E-04
   1       -2.7900
   2        5.8514
   3        5.8514
   4        5.8514
   5        7.3659
   6        7.3659
   7        7.3659
   8       14.2756
   9       14.2756
  10       14.2756
  11       15.0452
  12       15.0452
  13       15.0452
  14       15.0452
  15       15.0452
  16       15.0452
 
  0.2777778E-01  0.0000000E+00  0.0000000E+00  0.1286008E-03
   1       -2.7826
   2        5.7040
   3        5.8581
   4        5.8581
   5        7.3728
   6        7.3728
   7        7.5259
   8       14.0427
   9       14.0427
  10       14.2829
  11       14.9918
  12       14.9918
  13       15.0514
  14       15.0514
  15       15.2918
  16       15.2918
 
  0.5555556E-01  0.0000000E+00  0.0000000E+00  0.1286008E-03
   1       -2.7603
   2        5.3694
   3        5.8783
   4        5.8783
   5        7.3937
   6        7.3937
   7        7.8983
   8       13.6316
   9       13.6316
  10       14.3050
  11       14.8410
  12       14.8410
  13       15.0699
  14       15.0699
  15       15.7443
  16       15.7443
 
  0.8333333E-01  0.0000000E+00  0.0000000E+00  0.1286008E-03
   1       -2.7231
   2        4.9683
   3        5.9119
   4        5.9119
   5        7.4284
   6        7.4284
   7        8.3624
   8       13.1975
   9       13.1975
  10       14.3417
  11       14.6154
  12       14.6154
  13       15.1008
  14       15.1008
  15       16.2473
  16       16.2473
 
  0.1111111E+00  0.0000000E+00  0.0000000E+00  0.1286008E-03
   1       -2.6711
   2        4.5480
   3        5.9590
   4        5.9590
   5        7.4768
   6        7.4768
   7        8.8709
   8       12.7660
   9       12.7660
  10       14.3390
  11       14.3390
  12       14.3931
  13       15.1440
  14       15.1440
  15       16.7751
  16       16.7751
 
  0.1388889E+00  0.0000000E+00  0.0000000E+00  0.1286008E-03
   1       -2.6042
   2        4.1254
   3        6.0195
   4        6.0195
   5        7.5388
   6        7.5388
   7        9.4069
   8       12.3437
   9       12.3437
  10       14.0312
  11       14.0312
  12       14.4592
  13       15.1996
  14       15.1996
  15       17.3213
  16       17.3213
 
  0.1666667E+00  0.0000000E+00  0.0000000E+00  0.1286008E-03
   1       -2.5226
   2        3.7077
   3        6.0935
   4        6.0935
   5        7.6142
   6        7.6142
   7        9.9632
   8       11.9327
   9       11.9327
  10       13.7059
  11       13.7059
  12       14.5400
  13       15.2675
  14       15.2675
  15       17.8834
  16       17.8834
 
  0.1944444E+00  0.0000000E+00  0.0000000E+00  0.1286008E-03
   1       -2.4262
   2        3.2983
   3        6.1810
   4        6.1810
   5        7.7025
   6        7.7025
   7       10.5363
   8       11.5343
   9       11.5343
  10       13.3726
  11       13.3726
  12       14.6353
  13       15.3479
  14       15.3479
  15       18.4604
  16       18.4604
 
  0.2222222E+00  0.0000000E+00  0.0000000E+00  0.1286008E-03
   1       -2.3150
   2        2.8990
   3        6.2819
   4        6.2819
   5        7.8034
   6        7.8034
   7       11.1244
   8       11.1487
   9       11.1487
  10       13.0379
  11       13.0379
  12       14.7454
  13       15.4406
  14       15.4406
  15       19.0516
  16       19.0517
 
  0.2500000E+00  0.0000000E+00  0.0000000E+00  0.1286008E-03
   1       -2.1891
   2        2.5109
   3        6.3964
   4        6.3964
   5        7.9164
   6        7.9164
   7       10.7764
   8       10.7764
   9       11.7263
  10       12.7067
  11       12.7067
  12       14.8699
  13       15.5456
  14       15.5456
  15       19.4993
  16       19.5390
 
  0.2777778E+00  0.0000000E+00  0.0000000E+00  0.1286008E-03
   1       -2.0485
   2        2.1348
   3        6.5243
   4        6.5243
   5        8.0404
   6        8.0404
   7       10.4176
   8       10.4176
   9       12.3413
  10       12.3826
  11       12.3826
  12       15.0091
  13       15.6631
  14       15.6631
  15       19.1616
  16       19.2108
 
  0.3055556E+00  0.0000000E+00  0.0000000E+00  0.1286008E-03
   1       -1.8934
   2        1.7712
   3        6.6658
   4        6.6658
   5        8.1744
   6        8.1744
   7       10.0722
   8       10.0722
   9       12.0690
  10       12.0690
  11       12.9687
  12       15.1628
  13       15.7929
  14       15.7929
  15       18.7807
  16       18.9005
 
  0.3333333E+00  0.0000000E+00  0.0000000E+00  0.1286008E-03
   1       -1.7237
   2        1.4203
   3        6.8208
   4        6.8208
   5        8.3166
   6        8.3166
   7        9.7404
   8        9.7404
   9       11.7690
  10       11.7690
  11       13.6082
  12       15.3309
  13       15.9352
  14       15.9352
  15       18.4383
  16       18.6010
 
  0.3611111E+00  0.0000000E+00  0.0000000E+00  0.1286008E-03
   1       -1.5394
   2        1.0826
   3        6.9893
   4        6.9893
   5        8.4640
   6        8.4640
   7        9.4221
   8        9.4221
   9       11.4866
  10       11.4866
  11       14.2594
  12       15.5135
  13       16.0898
  14       16.0898
  15       18.1071
  16       18.3127
 
  0.3888889E+00  0.0000000E+00  0.0000000E+00  0.1286008E-03
   1       -1.3408
   2        0.7581
   3        7.1714
   4        7.1714
   5        8.6124
   6        8.6124
   7        9.1176
   8        9.1176
   9       11.2269
  10       11.2269
  11       14.9218
  12       15.7104
  13       16.2569
  14       16.2569
  15       17.7879
  16       18.0360
 
  0.4166667E+00  0.0000000E+00  0.0000000E+00  0.1286008E-03
   1       -1.1278
   2        0.4472
   3        7.3671
   4        7.3671
   5        8.7544
   6        8.7544
   7        8.8266
   8        8.8266
   9       10.9979
  10       10.9979
  11       15.5951
  12       15.9216
  13       16.4363
  14       16.4363
  15       17.4811
  16       17.7711
 
  0.4444444E+00  0.0000000E+00  0.0000000E+00  0.1286008E-03
   1       -0.9005
   2        0.1498
   3        7.5763
   4        7.5763
   5        8.5493
   6        8.5493
   7        8.8781
   8        8.8781
   9       10.8117
  10       10.8117
  11       16.1469
  12       16.2789
  13       16.6281
  14       16.6281
  15       17.1873
  16       17.5181
 
  0.4722222E+00  0.0000000E+00  0.0000000E+00  0.1286008E-03
   1       -0.6590
   2       -0.1337
   3        7.7991
   4        7.7991
   5        8.2856
   6        8.2856
   7        8.9660
   8        8.9660
   9       10.6863
  10       10.6863
  11       16.3863
  12       16.8322
  13       16.8322
  14       16.9067
  15       16.9728
  16       17.2773
 
  0.5000000E+00  0.0000000E+00  0.0000000E+00  0.6430041E-04
   1       -0.4033
   2       -0.4033
   3        8.0356
   4        8.0356
   5        8.0356
   6        8.0356
   7        8.9984
   8        8.9984
   9       10.6413
  10       10.6413
  11       16.6396
  12       16.6396
  13       17.0486
  14       17.0486
  15       17.0486
  16       17.0486
 
  0.2777778E-01  0.2777778E-01  0.0000000E+00  0.2572016E-03
   1       -2.7751
   2        5.7108
   3        5.7108
   4        5.8648
   5        7.3798
   6        7.5328
   7        7.5328
   8       13.8539
   9       14.0499
  10       14.0499
  11       14.9980
  12       14.9980
  13       15.0577
  14       15.2982
  15       15.2982
  16       15.3740
 
  0.5555556E-01  0.2777778E-01  0.0000000E+00  0.5144033E-03
   1       -2.7528
   2        5.3762
   3        5.7311
   4        5.8850
   5        7.4006
   6        7.5535
   7        7.9051
   8       13.4782
   9       13.6386
  10       14.0712
  11       14.8473
  12       14.9595
  13       15.0166
  14       15.3174
  15       15.7356
  16       15.7508
 
  0.8333333E-01  0.2777778E-01  0.0000000E+00  0.5144033E-03
   1       -2.7157
   2        4.9752
   3        5.7649
   4        5.9186
   5        7.4353
   6        7.5879
   7        8.3691
   8       13.0615
   9       13.2044
  10       14.1069
  11       14.6218
  12       14.7417
  13       15.0476
  14       15.3494
  15       16.2099
  16       16.2539
 
  0.1111111E+00  0.2777778E-01  0.0000000E+00  0.5144033E-03
   1       -2.6636
   2        4.5549
   3        5.8123
   4        5.9657
   5        7.4836
   6        7.6360
   7        8.8775
   8       12.6397
   9       12.7729
  10       14.1567
  11       14.3455
  12       14.4659
  13       15.0911
  14       15.3942
  15       16.7240
  16       16.7818
 
  0.1388889E+00  0.2777778E-01  0.0000000E+00  0.5144033E-03
   1       -2.5968
   2        4.1324
   3        5.8732
   4        6.0262
   5        7.5455
   6        7.6975
   7        9.4134
   8       12.2235
   9       12.3505
  10       14.0379
  11       14.1572
  12       14.2207
  13       15.1470
  14       15.4518
  15       17.2620
  16       17.3279
 
  0.1666667E+00  0.2777778E-01  0.0000000E+00  0.5144033E-03
   1       -2.5152
   2        3.7147
   3        5.9476
   4        6.1002
   5        7.6206
   6        7.7723
   7        9.9695
   8       11.8167
   9       11.9396
  10       13.7128
  11       13.8305
  12       14.2989
  13       15.2153
  14       15.5223
  15       17.8187
  16       17.8901
 
  0.1944444E+00  0.2777778E-01  0.0000000E+00  0.5144033E-03
   1       -2.4187
   2        3.3053
   3        6.0356
   4        6.1877
   5        7.7087
   6        7.8600
   7       10.5425
   8       11.4214
   9       11.5411
  10       13.3797
  11       13.4959
  12       14.3913
  13       15.2961
  14       15.6057
  15       18.3916
  16       18.4670
 
  0.2222222E+00  0.2777778E-01  0.0000000E+00  0.5144033E-03
   1       -2.3076
   2        2.9061
   3        6.1371
   4        6.2887
   5        7.8092
   6        7.9602
   7       11.0386
   8       11.1304
   9       11.1555
  10       13.0454
  11       13.1600
  12       14.4977
  13       15.3893
  14       15.7019
  15       18.9796
  16       19.0583
 
  0.2500000E+00  0.2777778E-01  0.0000000E+00  0.5144033E-03
   1       -2.1817
   2        2.5181
   3        6.2521
   4        6.4031
   5        7.9214
   6        8.0723
   7       10.6689
   8       10.7833
   9       11.7320
  10       12.7145
  11       12.8275
  12       14.6182
  13       15.4950
  14       15.8111
  15       19.0473
  16       19.4790
 
  0.2777778E+00  0.2777778E-01  0.0000000E+00  0.5144033E-03
   1       -2.0412
   2        2.1420
   3        6.3805
   4        6.5311
   5        8.0443
   6        8.1955
   7       10.3129
   8       10.4244
   9       12.3466
  10       12.3909
  11       12.5020
  12       14.7527
  13       15.6133
  14       15.9332
  15       18.7010
  16       19.1586
 
  0.3055556E+00  0.2777778E-01  0.0000000E+00  0.5144033E-03
   1       -1.8860
   2        1.7783
   3        6.5224
   4        6.6725
   5        8.1762
   6        8.3284
   7        9.9716
   8       10.0790
   9       12.0779
  10       12.1867
  11       12.9735
  12       14.9011
  13       15.7441
  14       16.0683
  15       18.3643
  16       18.8483
 
  0.3333333E+00  0.2777778E-01  0.0000000E+00  0.5144033E-03
   1       -1.7163
   2        1.4275
   3        6.6778
   4        6.8275
   5        8.3140
   6        8.4692
   7        9.6466
   8        9.7472
   9       11.7789
  10       11.8845
  11       13.6123
  12       15.0633
  13       15.8876
  14       16.2164
  15       18.0378
  16       18.5486
 
  0.3611111E+00  0.2777778E-01  0.0000000E+00  0.5144033E-03
   1       -1.5321
   2        1.0898
   3        6.8465
   4        6.9961
   5        8.4510
   6        8.6150
   7        9.3421
   8        9.4289
   9       11.4980
  10       11.5990
  11       14.2622
  12       15.2392
  13       16.0440
  14       16.3776
  15       17.7221
  16       18.2599
 
  0.3888889E+00  0.2777778E-01  0.0000000E+00  0.5144033E-03
   1       -1.3334
   2        0.7654
   3        7.0285
   4        7.1782
   5        8.5653
   6        8.7608
   7        9.0763
   8        9.1243
   9       11.2410
  10       11.3347
  11       14.9223
  12       15.4288
  13       16.2138
  14       16.5519
  15       17.4178
  16       17.9825
 
  0.4166667E+00  0.2777778E-01  0.0000000E+00  0.5144033E-03
   1       -1.1204
   2        0.4544
   3        7.2237
   4        7.3738
   5        8.5591
   6        8.8334
   7        8.8989
   8        8.9405
   9       11.0164
  10       11.0987
  11       15.5905
  12       15.6319
  13       16.3989
  14       16.7394
  15       17.1252
  16       17.7164
 
  0.4444444E+00  0.2777778E-01  0.0000000E+00  0.5144033E-03
   1       -0.8931
   2        0.1571
   3        7.4318
   4        7.5831
   5        8.3663
   6        8.5561
   7        8.9904
   8        9.0160
   9       10.8380
  10       10.9019
  11       15.8484
  12       16.2541
  13       16.6115
  14       16.8446
  15       16.9399
  16       17.4618
 
  0.4722222E+00  0.2777778E-01  0.0000000E+00  0.5144033E-03
   1       -0.6516
   2       -0.1264
   3        7.6524
   4        7.8059
   5        8.1254
   6        8.2924
   7        9.0707
   8        9.0934
   9       10.7252
  10       10.7613
  11       16.0781
  12       16.5764
  13       16.7365
  14       17.0277
  15       17.1537
  16       17.2179
 
  0.5000000E+00  0.2777778E-01  0.0000000E+00  0.2572016E-03
   1       -0.3960
   2       -0.3960
   3        7.8844
   4        7.8844
   5        8.0423
   6        8.0423
   7        9.1126
   8        9.1126
   9       10.6978
  10       10.6978
  11       16.3208
  12       16.3208
  13       16.9826
  14       16.9826
  15       17.3805
  16       17.3805
 
  0.5555556E-01  0.5555556E-01  0.0000000E+00  0.2572016E-03
   1       -2.7305
   2        5.3967
   3        5.3967
   4        5.9052
   5        7.4214
   6        7.9255
   7        7.9255
   8       13.1424
   9       13.6595
  10       13.6595
  11       14.8662
  12       14.8662
  13       15.0952
  14       15.7704
  15       15.7704
  16       15.8167
 
  0.8333333E-01  0.5555556E-01  0.0000000E+00  0.5144033E-03
   1       -2.6934
   2        4.9959
   3        5.4309
   4        5.9388
   5        7.4558
   6        7.9595
   7        8.3892
   8       12.7491
   9       13.2251
  10       13.6944
  11       14.6411
  12       14.8977
  13       14.9978
  14       15.8031
  15       16.1386
  16       16.2737
 
  0.1111111E+00  0.5555556E-01  0.0000000E+00  0.5144033E-03
   1       -2.6414
   2        4.5758
   3        5.4788
   4        5.9859
   5        7.5039
   6        8.0069
   7        8.8974
   8       12.3417
   9       12.7935
  10       13.7432
  11       14.3653
  12       14.7570
  13       14.9418
  14       15.8489
  15       16.5952
  16       16.8016
 
  0.1388889E+00  0.5555556E-01  0.0000000E+00  0.5144033E-03
   1       -2.5745
   2        4.1534
   3        5.5404
   4        6.0464
   5        7.5653
   6        8.0676
   7        9.4328
   8       11.9350
   9       12.3711
  10       13.8060
  11       14.0581
  12       14.4594
  13       14.9985
  14       15.9078
  15       17.1055
  16       17.3478
 
  0.1666667E+00  0.5555556E-01  0.0000000E+00  0.5144033E-03
   1       -2.4929
   2        3.7358
   3        5.6155
   4        6.1204
   5        7.6399
   6        8.1413
   7        9.9885
   8       11.5353
   9       11.9601
  10       13.7336
  11       13.8826
  12       14.1364
  13       15.0678
  14       15.9798
  15       17.6457
  16       17.9100
 
  0.1944444E+00  0.5555556E-01  0.0000000E+00  0.5144033E-03
   1       -2.3965
   2        3.3265
   3        5.7043
   4        6.2079
   5        7.7270
   6        8.2277
   7       10.5610
   8       11.1455
   9       11.5616
  10       13.4012
  11       13.8026
  12       13.9732
  13       15.1499
  14       16.0650
  15       18.2075
  16       18.4870
 
  0.2222222E+00  0.5555556E-01  0.0000000E+00  0.5144033E-03
   1       -2.2853
   2        2.9273
   3        5.8067
   4        6.3089
   5        7.8261
   6        8.3264
   7       10.7678
   8       11.1482
   9       11.1760
  10       13.0677
  11       13.4662
  12       14.0775
  13       15.2446
  14       16.1632
  15       18.7873
  16       18.9513
 
  0.2500000E+00  0.5555556E-01  0.0000000E+00  0.5144033E-03
   1       -2.1595
   2        2.5394
   3        5.9226
   4        6.4233
   5        7.9360
   6        8.4366
   7       10.4035
   8       10.8037
   9       11.7490
  10       12.7379
  11       13.1326
  12       14.1957
  13       15.3522
  14       16.2746
  15       18.5921
  16       19.3323
 
  0.2777778E+00  0.5555556E-01  0.0000000E+00  0.5144033E-03
   1       -2.0190
   2        2.1634
   3        6.0521
   4        6.5513
   5        8.0549
   6        8.5574
   7       10.0547
   8       10.4448
   9       12.3624
  10       12.4158
  11       12.8053
  12       14.3277
  13       15.4727
  14       16.3992
  15       18.2432
  16       19.0114
 
  0.3055556E+00  0.5555556E-01  0.0000000E+00  0.5144033E-03
   1       -1.8639
   2        1.7998
   3        6.1950
   4        6.6928
   5        8.1792
   6        8.6873
   7        9.7244
   8       10.0994
   9       12.1049
  10       12.4875
  11       12.9876
  12       14.4733
  13       15.6063
  14       16.5369
  15       17.9050
  16       18.7013
 
  0.3333333E+00  0.5555556E-01  0.0000000E+00  0.5144033E-03
   1       -1.6942
   2        1.4491
   3        6.3512
   4        6.8478
   5        8.3007
   6        8.8241
   7        9.4200
   8        9.7675
   9       11.8091
  10       12.1817
  11       13.6238
  12       14.6327
  13       15.7536
  14       16.6878
  15       17.5781
  16       18.4011
 
  0.3611111E+00  0.5555556E-01  0.0000000E+00  0.5144033E-03
   1       -1.5100
   2        1.1114
   3        6.5207
   4        7.0163
   5        8.3962
   6        8.9641
   7        9.1631
   8        9.4493
   9       11.5334
  10       11.8906
  11       14.2694
  12       14.8056
  13       15.9155
  14       16.8519
  15       17.2628
  16       18.1113
 
  0.3888889E+00  0.5555556E-01  0.0000000E+00  0.5144033E-03
   1       -1.3114
   2        0.7870
   3        6.7033
   4        7.1984
   5        8.4002
   6        9.0164
   7        9.1008
   8        9.1447
   9       11.2849
  10       11.6179
  11       14.9216
  12       14.9921
  13       16.0947
  14       16.9596
  15       17.0291
  16       17.8322
 
  0.4166667E+00  0.5555556E-01  0.0000000E+00  0.5144033E-03
   1       -1.0984
   2        0.4761
   3        6.8988
   4        7.3941
   5        8.2564
   6        8.8537
   7        9.0317
   8        9.2237
   9       11.0752
  10       11.3687
  11       15.1921
  12       15.5702
  13       16.3007
  14       16.6687
  15       17.2195
  16       17.5637
 
  0.4444444E+00  0.5555556E-01  0.0000000E+00  0.5144033E-03
   1       -0.8712
   2        0.1789
   3        7.1067
   4        7.6033
   5        8.0347
   6        8.5764
   7        9.1316
   8        9.3155
   9       10.9223
  10       11.1509
  11       15.4054
  12       16.1636
  13       16.3902
  14       16.5851
  15       17.3054
  16       17.4230
 
  0.4722222E+00  0.5555556E-01  0.0000000E+00  0.5144033E-03
   1       -0.6297
   2       -0.1046
   3        7.3264
   4        7.7950
   5        7.8262
   6        8.3127
   7        9.2431
   8        9.3543
   9       10.8491
  10       10.9780
  11       15.6320
  12       16.1246
  13       16.5492
  14       17.0558
  15       17.0996
  16       17.6395
 
  0.5000000E+00  0.5555556E-01  0.0000000E+00  0.2572016E-03
   1       -0.3741
   2       -0.3741
   3        7.5567
   4        7.5567
   5        8.0626
   6        8.0626
   7        9.3268
   8        9.3268
   9       10.8701
  10       10.8701
  11       15.8718
  12       15.8718
  13       16.8105
  14       16.8105
  15       17.7604
  16       17.7604
 
  0.8333333E-01  0.8333333E-01  0.0000000E+00  0.2572016E-03
   1       -2.6562
   2        5.0304
   3        5.0304
   4        5.9724
   5        7.4900
   6        8.4227
   7        8.4227
   8       12.3715
   9       13.2597
  10       13.2597
  11       14.6732
  12       14.6732
  13       15.1576
  14       16.1778
  15       16.3067
  16       16.3067
 
  0.1111111E+00  0.8333333E-01  0.0000000E+00  0.5144033E-03
   1       -2.6042
   2        4.6106
   3        5.0787
   4        6.0195
   5        7.5375
   6        8.4694
   7        8.9303
   8       11.9742
   9       12.8279
  10       13.3081
  11       14.3981
  12       14.7182
  13       15.0697
  14       16.3529
  15       16.4623
  16       16.8348
 
  0.1388889E+00  0.8333333E-01  0.0000000E+00  0.5144033E-03
   1       -2.5374
   2        4.1884
   3        5.1408
   4        6.0801
   5        7.5982
   6        8.5291
   7        9.4651
   8       11.5747
   9       12.4054
  10       13.3703
  11       14.0919
  12       14.7761
  13       14.8271
  14       16.4123
  15       16.9029
  16       17.3810
 
  0.1666667E+00  0.8333333E-01  0.0000000E+00  0.5144033E-03
   1       -2.4558
   2        3.7710
   3        5.2166
   4        6.1541
   5        7.6716
   6        8.6016
   7       10.0201
   8       11.1806
   9       11.9943
  10       13.4463
  11       13.7683
  12       14.5252
  13       14.8470
  14       16.4849
  15       17.4105
  16       17.9432
 
  0.1944444E+00  0.8333333E-01  0.0000000E+00  0.5144033E-03
   1       -2.3594
   2        3.3618
   3        5.3061
   4        6.2416
   5        7.7570
   6        8.6864
   7       10.5916
   8       10.7959
   9       11.5957
  10       13.4371
  11       13.5360
  12       14.2006
  13       14.9309
  14       16.5707
  15       17.9539
  16       18.5202
 
  0.2222222E+00  0.8333333E-01  0.0000000E+00  0.5144033E-03
   1       -2.2483
   2        2.9628
   3        5.4094
   4        6.3425
   5        7.8533
   6        8.7830
   7       10.4235
   8       11.1776
   9       11.2101
  10       13.1051
  11       13.6395
  12       13.8686
  13       15.0279
  14       16.6698
  15       18.5096
  16       18.5216
 
  0.2500000E+00  0.8333333E-01  0.0000000E+00  0.5144033E-03
   1       -2.1225
   2        2.5750
   3        5.5262
   4        6.4570
   5        7.9585
   6        8.8907
   7       10.0664
   8       10.8378
   9       11.7768
  10       12.7772
  11       13.5368
  12       13.7567
  13       15.1383
  14       16.7820
  15       18.1475
  16       19.1089
 
  0.2777778E+00  0.8333333E-01  0.0000000E+00  0.5144033E-03
   1       -1.9820
   2        2.1991
   3        5.6566
   4        6.5850
   5        8.0687
   6        9.0080
   7        9.7286
   8       10.4788
   9       12.3880
  10       12.4578
  11       13.2099
  12       13.8877
  13       15.2623
  14       16.9074
  15       17.7962
  16       18.7919
 
  0.3055556E+00  0.8333333E-01  0.0000000E+00  0.5144033E-03
   1       -1.8270
   2        1.8357
   3        5.8006
   4        6.7265
   5        8.1752
   6        9.1332
   7        9.4188
   8       10.1334
   9       12.1509
  10       12.8912
  11       13.0100
  12       14.0323
  13       15.4007
  14       17.0461
  15       17.4564
  16       18.4818
 
  0.3333333E+00  0.8333333E-01  0.0000000E+00  0.5144033E-03
   1       -1.6573
   2        1.4850
   3        5.9579
   4        6.8815
   5        8.2549
   6        9.1596
   7        9.2629
   8        9.8015
   9       11.8613
  10       12.5831
  11       13.6410
  12       14.1905
  13       15.5547
  14       17.1284
  15       17.1979
  16       18.1809
 
  0.3611111E+00  0.8333333E-01  0.0000000E+00  0.5144033E-03
   1       -1.4732
   2        1.1475
   3        6.1285
   4        7.0500
   5        8.2526
   6        9.0053
   7        9.3917
   8        9.4832
   9       11.5957
  10       12.2882
  11       14.2777
  12       14.3623
  13       15.7272
  14       16.8125
  15       17.3629
  16       17.8898
 
  0.3888889E+00  0.8333333E-01  0.0000000E+00  0.5144033E-03
   1       -1.2746
   2        0.8232
   3        6.3123
   4        7.2322
   5        8.1195
   6        9.0028
   7        9.1786
   8        9.5100
   9       11.3646
  10       12.0089
  11       14.5476
  12       14.9113
  13       15.9266
  14       16.5091
  15       17.5410
  16       17.6088
 
  0.4166667E+00  0.8333333E-01  0.0000000E+00  0.5144033E-03
   1       -1.0617
   2        0.5124
   3        6.5089
   4        7.4278
   5        7.9027
   6        8.8876
   7        9.1024
   8        9.6017
   9       11.1851
  10       11.7488
  11       14.7464
  12       15.5124
  13       16.1821
  14       16.2183
  15       17.3377
  16       17.7322
 
  0.4444444E+00  0.8333333E-01  0.0000000E+00  0.5144033E-03
   1       -0.8346
   2        0.2152
   3        6.7180
   4        7.6371
   5        7.6591
   6        8.6103
   7        9.2424
   8        9.6433
   9       11.0811
  10       11.5131
  11       14.9587
  12       15.9402
  13       15.9913
  14       16.5827
  15       17.0759
  16       17.9364
 
  0.4722222E+00  0.8333333E-01  0.0000000E+00  0.5144033E-03
   1       -0.5932
   2       -0.0682
   3        6.9391
   4        7.4124
   5        7.8600
   6        8.3465
   7        9.3907
   8        9.6161
   9       11.0725
  10       11.3108
  11       15.1843
  12       15.6751
  13       16.3110
  14       16.8219
  15       17.1652
  16       18.1535
 
  0.5000000E+00  0.8333333E-01  0.0000000E+00  0.2572016E-03
   1       -0.3377
   2       -0.3377
   3        7.1711
   4        7.1711
   5        8.0965
   6        8.0965
   7        9.5239
   8        9.5239
   9       11.1565
  10       11.1565
  11       15.4231
  12       15.4231
  13       16.5714
  14       16.5714
  15       17.8289
  16       17.8289
 
  0.1111111E+00  0.1111111E+00  0.0000000E+00  0.2572016E-03
   1       -2.5523
   2        4.6592
   3        4.6592
   4        6.0666
   5        7.5843
   6        8.9762
   7        8.9762
   8       11.5839
   9       12.8761
  10       12.8761
  11       14.4442
  12       14.4442
  13       15.2450
  14       16.4686
  15       16.8811
  16       16.8811
 
  0.1388889E+00  0.1111111E+00  0.0000000E+00  0.5144033E-03
   1       -2.4855
   2        4.2373
   3        4.7217
   4        6.1272
   5        7.6438
   6        9.0348
   7        9.5101
   8       11.1896
   9       12.4534
  10       12.9380
  11       14.1392
  12       14.5036
  13       15.1693
  14       16.7311
  15       16.9408
  16       17.4275
 
  0.1666667E+00  0.1111111E+00  0.0000000E+00  0.5144033E-03
   1       -2.4039
   2        3.8202
   3        4.7981
   4        6.2012
   5        7.7153
   6        9.1058
   7       10.0639
   8       10.8001
   9       12.0422
  10       13.0136
  11       13.8171
  12       14.5763
  13       14.9333
  14       17.0137
  15       17.1642
  16       17.9897
 
  0.1944444E+00  0.1111111E+00  0.0000000E+00  0.5144033E-03
   1       -2.3076
   2        3.4112
   3        4.8882
   4        6.2887
   5        7.7977
   6        9.1887
   7       10.4204
   8       10.6340
   9       11.6435
  10       13.1029
  11       13.4877
  12       14.6359
  13       14.6625
  14       17.0998
  15       17.6736
  16       18.4549
 
  0.2222222E+00  0.1111111E+00  0.0000000E+00  0.5144033E-03
   1       -2.1965
   2        3.0124
   3        4.9921
   4        6.3897
   5        7.8889
   6        9.2828
   7       10.0547
   8       11.2181
   9       11.2579
  10       13.1579
  11       13.2060
  12       14.3166
  13       14.7625
  14       17.1992
  15       18.0788
  16       18.2229
 
  0.2500000E+00  0.1111111E+00  0.0000000E+00  0.5144033E-03
   1       -2.0707
   2        2.6248
   3        5.1098
   4        6.5042
   5        7.9849
   6        9.3870
   7        9.7081
   8       10.8855
   9       11.8147
  10       12.8331
  11       13.3227
  12       13.9914
  13       14.8767
  14       17.3117
  15       17.7141
  16       18.8052
 
  0.2777778E+00  0.1111111E+00  0.0000000E+00  0.5144033E-03
   1       -1.9303
   2        2.2491
   3        5.2411
   4        6.6321
   5        8.0767
   6        9.3901
   7        9.4994
   8       10.5265
   9       12.4222
  10       12.5181
  11       13.4531
  12       13.6679
  13       15.0058
  14       17.3609
  15       17.4375
  16       18.5236
 
  0.3055556E+00  0.1111111E+00  0.0000000E+00  0.5144033E-03
   1       -1.7753
   2        1.8858
   3        5.3860
   4        6.7737
   5        8.1417
   6        9.1235
   7        9.6171
   8       10.1810
   9       12.2179
  10       13.0385
  11       13.3506
  12       13.5971
  13       15.1514
  14       17.0197
  15       17.5765
  16       18.2133
 
  0.3333333E+00  0.1111111E+00  0.0000000E+00  0.5144033E-03
   1       -1.6057
   2        1.5353
   3        5.5444
   4        6.9287
   5        8.1294
   6        8.9585
   7        9.7352
   8        9.8491
   9       11.9390
  10       13.0424
  11       13.6600
  12       13.7548
  13       15.3165
  14       16.6907
  15       17.7286
  16       17.9117
 
  0.3611111E+00  0.1111111E+00  0.0000000E+00  0.5144033E-03
   1       -1.4217
   2        1.1979
   3        5.7162
   4        7.0973
   5        7.9946
   6        8.9398
   7        9.5308
   8        9.8448
   9       11.6917
  10       12.7456
  11       13.9260
  12       14.2786
  13       15.5088
  14       16.3741
  15       17.6194
  16       17.8939
 
  0.3888889E+00  0.1111111E+00  0.0000000E+00  0.5144033E-03
   1       -1.2232
   2        0.8738
   3        5.9012
   4        7.2794
   5        7.7745
   6        9.0292
   7        9.2261
   8        9.9302
   9       11.4924
  10       12.4625
  11       14.1108
  12       14.8723
  13       15.7499
  14       16.0703
  15       17.3366
  16       18.0722
 
  0.4166667E+00  0.1111111E+00  0.0000000E+00  0.5144033E-03
   1       -1.0104