       N       E                     dE             d eps       ncg     rms          rms(c)
DAV:   1     0.163586976060E+02    0.16359E+02   -0.63619E+03 42560   0.101E+03
DAV:   2    -0.139360010695E+02   -0.30295E+02   -0.28463E+02 55304   0.118E+02
DAV:   3    -0.149284442651E+02   -0.99244E+00   -0.98350E+00 57064   0.157E+01
DAV:   4    -0.149353281864E+02   -0.68839E-02   -0.68831E-02 50824   0.153E+00
DAV:   5    -0.149354068813E+02   -0.78695E-04   -0.78694E-04 58032   0.169E-01    0.195E+00
DAV:   6    -0.148785955938E+02    0.56811E-01   -0.44839E-03 49784   0.351E-01    0.121E+00
DAV:   7    -0.148372980170E+02    0.41298E-01   -0.14413E-02 47968   0.590E-01    0.496E-02
DAV:   8    -0.148373350670E+02   -0.37050E-04   -0.12470E-04 58568   0.757E-02    0.128E-02
DAV:   9    -0.148373384472E+02   -0.33802E-05   -0.40377E-06 55256   0.927E-03    0.125E-03
DAV:  10    -0.148373378271E+02    0.62007E-06   -0.49096E-08 58608   0.183E-03    0.377E-04
DAV:  11    -0.148373377001E+02    0.12699E-06   -0.12917E-09 39864   0.209E-04    0.265E-05
DAV:  12    -0.148373377092E+02   -0.91232E-08   -0.12315E-10 33000   0.711E-05
   1 F= -.14837338E+02 E0= -.14837298E+02  d E =-.801554E-04
