 vasp.4.6.28 25Jul05 complex 
 executed on             LinuxIFC date 2017.01.25  10:49:40
 running on    4 nodes
 distr:  one band on    1 nodes,    4 groups


--------------------------------------------------------------------------------------------------------


 INCAR:
 POTCAR:   PAW_PBE Ag 06Sep2000                   
 POTCAR:   PAW_PBE Ag 06Sep2000                   
   VRHFIN =Ag : s1 d10                                                          
   LEXCH  = PE                                                                  
   EATOM  =  1037.4134 eV,   76.2477 Ry                                         
                                                                                
   TITEL  = PAW_PBE Ag 06Sep2000                                                
   LULTRA =        F    use ultrasoft PP ?                                      
   IUNSCR =        1    unscreen: 0-lin 1-nonlin 2-no                           
   RPACOR =    2.000    partial core radius                                     
   POMASS =  107.868; ZVAL   =   11.000    mass and valenz                      
   RCORE  =    2.400    outmost cutoff radius                                   
   RWIGS  =    2.840; RWIGS  =    1.503    wigner-seitz radius (au A)           
   ENMAX  =  249.846; ENMIN  =  187.385 eV                                      
   RCLOC  =    1.962    cutoff for local pot                                    
   LCOR   =        T    correct aug charges                                     
   LPAW   =        T    paw PP                                                  
   EAUG   =  412.496                                                            
   DEXC   =    -.047                                                            
   RMAX   =    2.917    core radius for proj-oper                               
   RAUG   =    1.300    factor for augmentation sphere                          
   RDEP   =    2.416    radius for radial grids                                 
   QCUT   =   -4.285; QGAM   =    8.570    optimization parameters              
                                                                                
   Description                                                                  
     l     E      TYP  RCUT    TYP  RCUT                                        
     2   .000     23  2.400                                                     
     2   .000     23  2.400                                                     
     0   .000     23  2.400                                                     
     0   .000     23  2.400                                                     
     1  -.200     23  2.400                                                     
     1  1.500     23  2.400                                                     
     3   .000      7   .000                                                     
  local pseudopotential read in
  partial core-charges read in
  atomic valenz-charges read in
  non local Contribution for L=           2  read in
    real space projection operators read in
  non local Contribution for L=           2  read in
    real space projection operators read in
  non local Contribution for L=           0  read in
    real space projection operators read in
  non local Contribution for L=           0  read in
    real space projection operators read in
  non local Contribution for L=           1  read in
    real space projection operators read in
  non local Contribution for L=           1  read in
    real space projection operators read in
    PAW grid and wavefunctions read in
 
   number of l-projection  operators is LMAX  =           6
   number of lm-projection operators is LMMAX =          18
 

 ----------------------------------------------------------------------------- 
|                                                                             |
|  ADVICE TO THIS USER RUNNING 'VASP/VAMP'   (HEAR YOUR MASTER'S VOICE ...):  |
|                                                                             |
|      You have a (more or less) 'large supercell' and for larger cells       |
|      it might be more efficient to use real space projection operators      |
|      So try LREAL= Auto  in the INCAR   file.                               |
|      Mind: If you want to do an extremely accurate calculations keep the    |
|      reciprocal projection scheme          (i.e. LREAL=.FALSE.)             |
|                                                                             |
 ----------------------------------------------------------------------------- 

 PAW_PBE Ag 06Sep2000                   :
 energy of atom  1       EATOM=-1037.4134
 kinetic energy error for atom=    0.0019 (will be added to EATOM!!)
 
 EXHCAR: internal setup
 exchange correlation table for  LEXCH =        8
   RHO(1)=    0.500       N(1)  =     2000
   RHO(2)=  100.500       N(2)  =     4000
 
 POSCAR: No title                                
  positions in direct lattice
  No initial velocities read in
 


--------------------------------------------------------------------------------------------------------


 ion  position               nearest neighbor table
   1  0.750  0.750  0.500-   3 3.10  20 3.10  14 3.10  19 3.10   5 3.10  26 3.10  11 3.10   6 3.10
                            18 3.10  29 3.10  10 3.10   8 3.10
   2  0.750  0.750  0.000-   8 3.10  10 3.10  11 3.10  18 3.10  22 3.10  27 3.10  26 3.10   5 3.10
                            32 3.10   3 3.10  20 3.10  12 3.12
   3  0.750  0.000  0.250-   1 3.10   9 3.10   5 3.10  19 3.10  28 3.10  18 3.10   6 3.10  27 3.10
                            13 3.10   2 3.10   4 3.10  12 3.12
   4  0.750  0.250  0.500-   8 3.10  10 3.10   6 3.10  13 3.10  29 3.10  31 3.10  21 3.10  28 3.10
                            14 3.10  19 3.10   3 3.10  20 3.10
   5  0.000  0.750  0.250-  14 3.10   3 3.10   1 3.10  15 3.10  25 3.10   2 3.10   7 3.10  16 3.10
                            10 3.10  22 3.10   6 3.10  12 3.10
   6  0.000  0.000  0.500-  11 3.10  13 3.10   8 3.10   4 3.10   7 3.10  16 3.10   1 3.10   3 3.10
                            17 3.10  23 3.10  21 3.10   5 3.10
   7  0.250  0.750  0.500-  16 3.10  30 3.10   6 3.10  18 3.10  29 3.10  11 3.10  19 3.10  26 3.10
                             5 3.10  14 3.10  25 3.10  23 3.10
   8  0.750  0.000  0.750-   2 3.10   4 3.10   6 3.10  11 3.10  27 3.10  31 3.10  26 3.10  19 3.10
                            21 3.10   1 3.10   9 3.10  12 3.12
   9  0.750  0.250  0.000-   3 3.10  20 3.10  21 3.10  28 3.10  32 3.10  27 3.10  13 3.10  31 3.10
                            22 3.10   8 3.10  10 3.10  12 3.12
  10  0.750  0.500  0.250-   2 3.10   4 3.10  13 3.10  18 3.10  22 3.10  29 3.10  14 3.10  28 3.10
                             5 3.10  32 3.10   9 3.10   1 3.10
  11  0.000  0.750  0.750-   6 3.10  22 3.10   7 3.10   8 3.10   2 3.10  30 3.10  20 3.10   1 3.10
                            23 3.10  15 3.10  14 3.10  12 3.10
  12  0.002  0.000  0.000-  15 3.09  23 3.09  16 3.09  24 3.09   5 3.10  21 3.10  13 3.10  11 3.10
                             9 3.12   3 3.12   2 3.12   8 3.12
  13  0.000  0.250  0.250-   6 3.10  22 3.10  10 3.10  16 3.10   4 3.10  24 3.10  17 3.10   3 3.10
                             9 3.10  25 3.10  14 3.10  12 3.10
  14  0.000  0.500  0.500-   5 3.10  21 3.10  17 3.10  20 3.10   1 3.10  25 3.10   7 3.10  10 3.10
                             4 3.10  30 3.10  13 3.10  11 3.10
  15  0.250  0.750  0.000-  12 3.09  23 3.10  25 3.10   5 3.10  26 3.10  32 3.10  18 3.10  22 3.10
                            27 3.10  11 3.10  30 3.10  16 3.10
  16  0.250  0.000  0.250-  12 3.09   7 3.10  24 3.10  13 3.10  18 3.10   6 3.10  27 3.10   5 3.10
                            19 3.10  28 3.10  17 3.10  15 3.10
  17  0.250  0.250  0.500-  23 3.10  25 3.10  21 3.10  14 3.10  19 3.10  28 3.10   6 3.10  13 3.10
                            29 3.10  31 3.10  30 3.10  16 3.10
  18  0.500  0.750  0.250-  27 3.10  29 3.10  10 3.10  16 3.10   2 3.10   7 3.10   1 3.10  25 3.10
                             3 3.10  15 3.10  19 3.10  32 3.10
  19  0.500  0.000  0.500-  26 3.10  28 3.10  17 3.10  23 3.10   1 3.10   3 3.10   4 3.10   7 3.10
                             8 3.10  16 3.10  18 3.10  31 3.10
  20  0.750  0.500  0.750-   1 3.10   9 3.10  14 3.10  21 3.10  26 3.10  32 3.10  11 3.10  29 3.10
                            31 3.10  22 3.10   4 3.10   2 3.10
  21  0.000  0.250  0.750-  14 3.10   9 3.10  17 3.10  20 3.10  23 3.10   8 3.10   4 3.10  24 3.10
                            30 3.10  22 3.10   6 3.10  12 3.10
  22  0.000  0.500  0.000-  11 3.10  13 3.10   2 3.10  10 3.10  24 3.10  30 3.10  20 3.10   9 3.10
                            25 3.10  15 3.10  21 3.10   5 3.10
  23  0.250  0.000  0.750-  12 3.09  15 3.10  17 3.10  19 3.10  21 3.10  26 3.10   6 3.10  11 3.10
                            27 3.10  31 3.10  24 3.10   7 3.10
  24  0.250  0.250  0.000-  12 3.09  16 3.10  30 3.10  22 3.10  27 3.10  13 3.10  31 3.10  21 3.10
                            28 3.10  32 3.10  25 3.10  23 3.10
  25  0.250  0.500  0.250-  15 3.10  17 3.10   5 3.10  14 3.10  28 3.10  32 3.10  22 3.10  13 3.10
                            29 3.10  18 3.10  24 3.10   7 3.10
  26  0.500  0.750  0.750-  19 3.10  32 3.10   1 3.10  20 3.10  23 3.10  15 3.10   8 3.10   2 3.10
                            30 3.10   7 3.10  27 3.10  29 3.10
  27  0.500  0.000  0.000-  18 3.10  31 3.10  16 3.10   2 3.10  24 3.10   8 3.10   9 3.10  23 3.10
                            15 3.10   3 3.10  28 3.10  26 3.10
  28  0.500  0.250  0.250-  19 3.10  32 3.10  17 3.10   3 3.10  25 3.10   9 3.10  10 3.10  24 3.10
                            16 3.10   4 3.10  29 3.10  27 3.10
  29  0.500  0.500  0.500-  18 3.10  31 3.10  10 3.10   4 3.10  30 3.10   7 3.10  20 3.10  25 3.10
                            17 3.10   1 3.10  26 3.10  28 3.10
  30  0.250  0.500  0.750-   7 3.10  24 3.10  22 3.10  11 3.10  29 3.10  31 3.10  26 3.10  14 3.10
                            21 3.10  32 3.10  17 3.10  15 3.10
  31  0.500  0.250  0.750-  27 3.10  29 3.10  24 3.10   4 3.10   8 3.10  30 3.10   9 3.10  17 3.10
                            20 3.10  23 3.10  19 3.10  32 3.10
  32  0.500  0.500  0.000-  26 3.10  28 3.10  20 3.10  25 3.10   9 3.10  15 3.10   2 3.10  10 3.10
                            24 3.10  30 3.10  18 3.10  31 3.10
 
  LATTYP: Found a simple cubic cell.
 ALAT       =     8.7789371900
  
  Lattice vectors:
  
 A1 = (   8.7789371900,   0.0000000000,   0.0000000000)
 A2 = (   0.0000001600,   8.7789371900,   0.0000000000)
 A3 = (   0.0000001600,   0.0000001600,   8.7789371900)
 Subroutine PRICEL returns:
 Original cell was already a primitive cell.
 

Analysis of symmetry for initial positions (statically):

 Routine SETGRP: Setting up the symmetry group for a 
 simple cubic supercell.


 Subroutine GETGRP returns: Found  8 space group operations
 (whereof  8 operations were pure point group operations)
 out of a pool of 48 trial point group operations.


The static configuration has the point symmetry C_4v.

Analysis of symmetry for dynamics (positions and initial velocities):

 Subroutine DYNSYM returns: Found  8 space group operations
 (whereof  8 operations were pure point group operations)
 out of a pool of  8 trial space group operations
 (whereof  8 operations were pure point group operations)
 and found also     1 'primitive' translations


The dynamic configuration has the point symmetry C_4v.
 
 
 KPOINTS: Automatic mesh                          

Automatic generation of k-mesh.
 
 Subroutine IBZKPT returns following result:
 ===========================================
 
 Found     40 irreducible k-points:
 
 Following reciprocal coordinates:
            Coordinates               Weight
  0.062500  0.062500  0.062500      8.000000
  0.187500  0.062500  0.062500      8.000000
  0.312500  0.062500  0.062500      8.000000
  0.437500  0.062500  0.062500      8.000000
  0.062500  0.187500  0.062500     16.000000
  0.187500  0.187500  0.062500     16.000000
  0.312500  0.187500  0.062500     16.000000
  0.437500  0.187500  0.062500     16.000000
  0.062500  0.312500  0.062500     16.000000
  0.187500  0.312500  0.062500     16.000000
  0.312500  0.312500  0.062500     16.000000
  0.437500  0.312500  0.062500     16.000000
  0.062500  0.437500  0.062500     16.000000
  0.187500  0.437500  0.062500     16.000000
  0.312500  0.437500  0.062500     16.000000
  0.437500  0.437500  0.062500     16.000000
  0.062500  0.187500  0.187500      8.000000
  0.187500  0.187500  0.187500      8.000000
  0.312500  0.187500  0.187500      8.000000
  0.437500  0.187500  0.187500      8.000000
  0.062500  0.312500  0.187500     16.000000
  0.187500  0.312500  0.187500     16.000000
  0.312500  0.312500  0.187500     16.000000
  0.437500  0.312500  0.187500     16.000000
  0.062500  0.437500  0.187500     16.000000
  0.187500  0.437500  0.187500     16.000000
  0.312500  0.437500  0.187500     16.000000
  0.437500  0.437500  0.187500     16.000000
  0.062500  0.312500  0.312500      8.000000
  0.187500  0.312500  0.312500      8.000000
  0.312500  0.312500  0.312500      8.000000
  0.437500  0.312500  0.312500      8.000000
  0.062500  0.437500  0.312500     16.000000
  0.187500  0.437500  0.312500     16.000000
  0.312500  0.437500  0.312500     16.000000
  0.437500  0.437500  0.312500     16.000000
  0.062500  0.437500  0.437500      8.000000
  0.187500  0.437500  0.437500      8.000000
  0.312500  0.437500  0.437500      8.000000
  0.437500  0.437500  0.437500      8.000000
 
 Following cartesian coordinates:
            Coordinates               Weight
  0.007119  0.007119  0.007119      8.000000
  0.021358  0.007119  0.007119      8.000000
  0.035597  0.007119  0.007119      8.000000
  0.049835  0.007119  0.007119      8.000000
  0.007119  0.021358  0.007119     16.000000
  0.021358  0.021358  0.007119     16.000000
  0.035597  0.021358  0.007119     16.000000
  0.049835  0.021358  0.007119     16.000000
  0.007119  0.035597  0.007119     16.000000
  0.021358  0.035597  0.007119     16.000000
  0.035597  0.035597  0.007119     16.000000
  0.049835  0.035597  0.007119     16.000000
  0.007119  0.049835  0.007119     16.000000
  0.021358  0.049835  0.007119     16.000000
  0.035597  0.049835  0.007119     16.000000
  0.049835  0.049835  0.007119     16.000000
  0.007119  0.021358  0.021358      8.000000
  0.021358  0.021358  0.021358      8.000000
  0.035597  0.021358  0.021358      8.000000
  0.049835  0.021358  0.021358      8.000000
  0.007119  0.035597  0.021358     16.000000
  0.021358  0.035597  0.021358     16.000000
  0.035597  0.035597  0.021358     16.000000
  0.049835  0.035597  0.021358     16.000000
  0.007119  0.049835  0.021358     16.000000
  0.021358  0.049835  0.021358     16.000000
  0.035597  0.049835  0.021358     16.000000
  0.049835  0.049835  0.021358     16.000000
  0.007119  0.035597  0.035597      8.000000
  0.021358  0.035597  0.035597      8.000000
  0.035597  0.035597  0.035597      8.000000
  0.049835  0.035597  0.035597      8.000000
  0.007119  0.049835  0.035597     16.000000
  0.021358  0.049835  0.035597     16.000000
  0.035597  0.049835  0.035597     16.000000
  0.049835  0.049835  0.035597     16.000000
  0.007119  0.049835  0.049835      8.000000
  0.021358  0.049835  0.049835      8.000000
  0.035597  0.049835  0.049835      8.000000
  0.049835  0.049835  0.049835      8.000000
 


--------------------------------------------------------------------------------------------------------




 Dimension of arrays:
   k-Points           NKPTS =     40   number of bands    NBANDS=    212
   number of dos      NEDOS =    301   number of ions     NIONS =     32
   non local maximal  LDIM  =      6   non local SUM 2l+1 LMDIM =     18
   total plane-waves  NPLWV = 343000
   max r-space proj   IRMAX =      1   max aug-charges    IRDMAX= 199586
   dimension x,y,z NGX =    70 NGY =   70 NGZ =   70
   dimension x,y,z NGXF=   140 NGYF=  140 NGZF=  140
   support grid    NGXF=   280 NGYF=  280 NGZF=  280
   ions per type =              32
 NGX,Y,Z   is equivalent  to a cutoff of  13.26, 13.26, 13.26 a.u.
 NGXF,Y,Z  is equivalent  to a cutoff of  26.51, 26.51, 26.51 a.u.


 I would recommend the setting:
   dimension x,y,z NGX =    70 NGY =   70 NGZ =   70
 SYSTEM =  No title                                
 POSCAR =  No title                                

 Startparameter for this run:
   NWRITE =      2    write-flag & timer
   PREC   = accura    medium, high low
   ISTART =      1    job   : 0-new  1-cont  2-samecut
   ICHARG =      0    charge: 1-file 2-atom 10-const
   ISPIN  =      1    spin polarized calculation?
   LNONCOLLINEAR =      F non collinear calculations
   LSORBIT =      F    spin-orbit coupling
   INIWAV =      1    electr: 0-lowe 1-rand  2-diag
   LASPH  =      F    aspherical Exc in radial PAW
   METAGGA=      F    non-selfconsistent MetaGGA calc.

 Electronic Relaxation 1
   ENCUT  =  600.0 eV  44.10 Ry    6.64 a.u.  17.53 17.53 17.53*2*pi/ulx,y,z
   ENINI  =  600.0     initial cutoff
   ENAUG  =  412.5 eV  augmentation charge cutoff
   NELM   =     60;   NELMIN=  2; NELMDL=  0     # of ELM steps 
   EDIFF  = 0.1E-04   stopping-criterion for ELM
   LREAL  =      F    real-space projection
   LCOMPAT=      F    compatible to vasp.4.4
   LREAL_COMPAT= F    compatible to vasp.4.5.1-3
   GGA_COMPAT  = T    GGA compatible to vasp.4.4-vasp.4.6
   LMAXPAW     = -100 max onsite density
   LMAXMIX     =    2 max onsite mixed and CHGCAR
   VOSKOWN=      1    Vosko Wilk Nusair interpolation
   ROPT   =    0.00000
 Ionic relaxation
   EDIFFG = -.2E-01   stopping-criterion for IOM
   NSW    =      0    number of steps for IOM
   NBLOCK =      1;   KBLOCK =      1    inner block; outer block 
   IBRION =     -1    ionic relax: 0-MD 1-quasi-New 2-CG
   NFREE  =      0    steps in history (QN), initial steepest desc. (CG)
   ISIF   =      2    stress and relaxation
   IWAVPR =     10    prediction:  0-non 1-charg 2-wave 3-comb
   ISYM   =      2    0-nonsym 1-usesym 2-fastsym
   LCORR  =      T    Harris-Foulkes like correction to forces

   POTIM  =   0.50    time-step for ionic-motion
   TEIN   =    0.0    initial temperature
   TEBEG  =    0.0;   TEEND  =   0.0 temperature during run
   SMASS  =  -3.00    Nose mass-parameter (am)
   estimated Nose-frequenzy (Omega)   =  0.10E-29 period in steps =****** mass=  -0.176E-26a.u.
   NPACO  =    256;   APACO  = 16.0  distance and # of slots for P.C.
   PSTRESS=    0.0 pullay stress

  Mass of Ions in am
   POMASS = 107.87
  Ionic Valenz
   ZVAL   =  11.00
  Atomic Wigner-Seitz radii
   RWIGS  =   1.34
   NELECT =     352.0000    total number of electrons
   NUPDOWN=      -1.0000    fix difference up-down

 DOS related values:
   EMIN   =  10.00;   EMAX   =-10.00  energy-range for DOS
   ISMEAR =     1;   SIGMA  =   0.20  broadening in eV -4-tet -1-fermi 0-gaus

 Electronic relaxation 2 (details)
   IALGO  =     48    algorithm
   LDIAG  =      T    sub-space diagonalisation
   IMIX   =      4    mixing-type and parameters
     AMIX     =   0.40;   BMIX     =  1.00
     AMIX_MAG =   1.60;   BMIX_MAG =  1.00
     AMIN     =   0.10
     WC   =   100.;   INIMIX=   1;  MIXPRE=   1

 Intra band minimization:
   WEIMIN = 0.0000     energy-eigenvalue tresh-hold
   EBREAK =  0.12E-07  absolut break condition
   DEPER  =   0.30     relativ break condition  

   TIME   =   0.10     timestep for ELM

  volume/ion in A,a.u.               =      21.14       142.68
  Fermi-wavevector in a.u.,eV,Ry     =   1.316681 23.587711  1.733648

 Second variation
   LSECVAR=     F    do a second variation
 
 Write flags
   LWAVE  =      F    write WAVECAR
   LCHARG =      F    write CHGCAR
   LVTOT  =      F    write LOCPOT, local potential
   LELF   =      F    write electronic localiz. function (ELF)
   LORBIT =      0    0 simple, 1 ext, 2 COOP (PROOUT)


 Dipole corrections
   IDIPOL =      0    1-x, 2-y, 3-z
   LDIPOL =      F    correct potential



--------------------------------------------------------------------------------------------------------


 Static calculation
 charge density will be updated during run
 non-spin polarized calculation
 RMM-DIIS sequential band-by-band
 performe sub-space diagonalisation
    before iterative eigenvector-optimisation
 modified Broyden-mixing scheme, WC =      100.0
 initial mixing is a Kerker type mixing with AMIX =  0.4000 and BMIX =      1.0000
 Hartree-type preconditioning will be used
 using additional bands           36
 reciprocal scheme for non local part
 use partial core corrections
 calculate Harris-corrections to forces 
   (improved forces if not selfconsistent)
 use gradient corrections 
 use of overlap-Matrix (Vanderbilt PP)
 Methfessel and Paxton  Order N= 1 SIGMA  =   0.20


--------------------------------------------------------------------------------------------------------


  energy-cutoff  :      600.00
  volume of cell :      676.59
      direct lattice vectors                 reciprocal lattice vectors
     8.778937190  0.000000000  0.000000000     0.113909005 -0.000000002 -0.000000002
     0.000000160  8.778937190  0.000000000     0.000000000  0.113909005 -0.000000002
     0.000000160  0.000000160  8.778937190     0.000000000  0.000000000  0.113909005

  length of vectors
     8.778937190  8.778937190  8.778937190     0.113909005  0.113909005  0.113909005


 
 old parameters found on file WAVECAR:
  energy-cutoff  :      600.00
  volume of cell :      676.59
      direct lattice vectors                 reciprocal lattice vectors
     8.778937190  0.000000000  0.000000000     0.113909005 -0.000000002 -0.000000002
     0.000000160  8.778937190  0.000000000     0.000000000  0.113909005 -0.000000002
     0.000000160  0.000000160  8.778937190     0.000000000  0.000000000  0.113909005

  length of vectors

 
 k-points in units of 2pi/SCALE and weight: Automatic mesh                          
   0.00711931  0.00711931  0.00711931       0.016
   0.02135794  0.00711931  0.00711931       0.016
   0.03559656  0.00711931  0.00711931       0.016
   0.04983519  0.00711931  0.00711931       0.016
   0.00711931  0.02135794  0.00711931       0.031
   0.02135794  0.02135794  0.00711931       0.031
   0.03559656  0.02135794  0.00711931       0.031
   0.04983519  0.02135794  0.00711931       0.031
   0.00711931  0.03559656  0.00711931       0.031
   0.02135794  0.03559656  0.00711931       0.031
   0.03559656  0.03559656  0.00711931       0.031
   0.04983519  0.03559656  0.00711931       0.031
   0.00711931  0.04983519  0.00711931       0.031
   0.02135794  0.04983519  0.00711931       0.031
   0.03559656  0.04983519  0.00711931       0.031
   0.04983519  0.04983519  0.00711931       0.031
   0.00711931  0.02135794  0.02135794       0.016
   0.02135794  0.02135794  0.02135794       0.016
   0.03559656  0.02135794  0.02135794       0.016
   0.04983519  0.02135794  0.02135794       0.016
   0.00711931  0.03559656  0.02135794       0.031
   0.02135794  0.03559656  0.02135794       0.031
   0.03559656  0.03559656  0.02135794       0.031
   0.04983519  0.03559656  0.02135794       0.031
   0.00711931  0.04983519  0.02135794       0.031
   0.02135794  0.04983519  0.02135794       0.031
   0.03559656  0.04983519  0.02135794       0.031
   0.04983519  0.04983519  0.02135794       0.031
   0.00711931  0.03559656  0.03559656       0.016
   0.02135794  0.03559656  0.03559656       0.016
   0.03559656  0.03559656  0.03559656       0.016
   0.04983519  0.03559656  0.03559656       0.016
   0.00711931  0.04983519  0.03559656       0.031
   0.02135794  0.04983519  0.03559656       0.031
   0.03559656  0.04983519  0.03559656       0.031
   0.04983519  0.04983519  0.03559656       0.031
   0.00711931  0.04983519  0.04983519       0.016
   0.02135794  0.04983519  0.04983519       0.016
   0.03559656  0.04983519  0.04983519       0.016
   0.04983519  0.04983519  0.04983519       0.016
 
 k-points in reciprocal lattice and weights: Automatic mesh                          
   0.06250000  0.06250000  0.06250000       0.016
   0.18750000  0.06250000  0.06250000       0.016
   0.31250000  0.06250000  0.06250000       0.016
   0.43750000  0.06250000  0.06250000       0.016
   0.06250000  0.18750000  0.06250000       0.031
   0.18750000  0.18750000  0.06250000       0.031
   0.31250000  0.18750000  0.06250000       0.031
   0.43750000  0.18750000  0.06250000       0.031
   0.06250000  0.31250000  0.06250000       0.031
   0.18750000  0.31250000  0.06250000       0.031
   0.31250000  0.31250000  0.06250000       0.031
   0.43750000  0.31250000  0.06250000       0.031
   0.06250000  0.43750000  0.06250000       0.031
   0.18750000  0.43750000  0.06250000       0.031
   0.31250000  0.43750000  0.06250000       0.031
   0.43750000  0.43750000  0.06250000       0.031
   0.06250000  0.18750000  0.18750000       0.016
   0.18750000  0.18750000  0.18750000       0.016
   0.31250000  0.18750000  0.18750000       0.016
   0.43750000  0.18750000  0.18750000       0.016
   0.06250000  0.31250000  0.18750000       0.031
   0.18750000  0.31250000  0.18750000       0.031
   0.31250000  0.31250000  0.18750000       0.031
   0.43750000  0.31250000  0.18750000       0.031
   0.06250000  0.43750000  0.18750000       0.031
   0.18750000  0.43750000  0.18750000       0.031
   0.31250000  0.43750000  0.18750000       0.031
   0.43750000  0.43750000  0.18750000       0.031
   0.06250000  0.31250000  0.31250000       0.016
   0.18750000  0.31250000  0.31250000       0.016
   0.31250000  0.31250000  0.31250000       0.016
   0.43750000  0.31250000  0.31250000       0.016
   0.06250000  0.43750000  0.31250000       0.031
   0.18750000  0.43750000  0.31250000       0.031
   0.31250000  0.43750000  0.31250000       0.031
   0.43750000  0.43750000  0.31250000       0.031
   0.06250000  0.43750000  0.43750000       0.016
   0.18750000  0.43750000  0.43750000       0.016
   0.31250000  0.43750000  0.43750000       0.016
   0.43750000  0.43750000  0.43750000       0.016
 
 position of ions in fractional coordinates (direct lattice) 
   0.75000000  0.75000000  0.50000000
   0.75000000  0.75000000  0.00000000
   0.75000000  0.00000000  0.25000000
   0.75000000  0.25000000  0.50000000
   0.00000000  0.75000000  0.25000000
   0.00000000  0.00000000  0.50000000
   0.25000000  0.75000000  0.50000000
   0.75000000  0.00000000  0.75000000
   0.75000000  0.25000000  0.00000000
   0.75000000  0.50000000  0.25000000
   0.00000000  0.75000000  0.75000000
   0.00227800  0.00000000  0.00000000
   0.00000000  0.25000000  0.25000000
   0.00000000  0.50000000  0.50000000
   0.25000000  0.75000000  0.00000000
   0.25000000  0.00000000  0.25000000
   0.25000000  0.25000000  0.50000000
   0.50000000  0.75000000  0.25000000
   0.50000000  0.00000000  0.50000000
   0.75000000  0.50000000  0.75000000
   0.00000000  0.25000000  0.75000000
   0.00000000  0.50000000  0.00000000
   0.25000000  0.00000000  0.75000000
   0.25000000  0.25000000  0.00000000
   0.25000000  0.50000000  0.25000000
   0.50000000  0.75000000  0.75000000
   0.50000000  0.00000000  0.00000000
   0.50000000  0.25000000  0.25000000
   0.50000000  0.50000000  0.50000000
   0.25000000  0.50000000  0.75000000
   0.50000000  0.25000000  0.75000000
   0.50000000  0.50000000  0.00000000
 
 position of ions in cartesian coordinates  (Angst):
   6.58420309  6.58420297  4.38946860
   6.58420301  6.58420289  0.00000000
   6.58420293  0.00000004  2.19473430
   6.58420301  2.19473438  4.38946860
   0.00000016  6.58420293  2.19473430
   0.00000008  0.00000008  4.38946860
   2.19473450  6.58420297  4.38946860
   6.58420301  0.00000012  6.58420289
   6.58420293  2.19473430  0.00000000
   6.58420301  4.38946864  2.19473430
   0.00000024  6.58420301  6.58420289
   0.01999842  0.00000000  0.00000000
   0.00000008  2.19473434  2.19473430
   0.00000016  4.38946868  4.38946860
   2.19473442  6.58420289  0.00000000
   2.19473434  0.00000004  2.19473430
   2.19473442  2.19473438  4.38946860
   4.38946876  6.58420293  2.19473430
   4.38946868  0.00000008  4.38946860
   6.58420309  4.38946872  6.58420289
   0.00000016  2.19473442  6.58420289
   0.00000008  4.38946860  0.00000000
   2.19473442  0.00000012  6.58420289
   2.19473434  2.19473430  0.00000000
   2.19473442  4.38946864  2.19473430
   4.38946884  6.58420301  6.58420289
   4.38946860  0.00000000  0.00000000
   4.38946867  2.19473434  2.19473430
   4.38946876  4.38946868  4.38946860
   2.19473450  4.38946872  6.58420289
   4.38946876  2.19473442  6.58420289
   4.38946868  4.38946860  0.00000000
 


--------------------------------------------------------------------------------------------------------


 k-point  1 :  0.06250.06250.0625  plane waves:  22608
 k-point  2 :  0.18750.06250.0625  plane waves:  22583
 k-point  3 :  0.31250.06250.0625  plane waves:  22602
 k-point  4 :  0.43750.06250.0625  plane waves:  22574
 k-point  5 :  0.06250.18750.0625  plane waves:  22583
 k-point  6 :  0.18750.18750.0625  plane waves:  22595
 k-point  7 :  0.31250.18750.0625  plane waves:  22598
 k-point  8 :  0.43750.18750.0625  plane waves:  22584
 k-point  9 :  0.06250.31250.0625  plane waves:  22602
 k-point 10 :  0.18750.31250.0625  plane waves:  22598
 k-point 11 :  0.31250.31250.0625  plane waves:  22586
 k-point 12 :  0.43750.31250.0625  plane waves:  22582
 k-point 13 :  0.06250.43750.0625  plane waves:  22574
 k-point 14 :  0.18750.43750.0625  plane waves:  22584
 k-point 15 :  0.31250.43750.0625  plane waves:  22582
 k-point 16 :  0.43750.43750.0625  plane waves:  22586
 k-point 17 :  0.06250.18750.1875  plane waves:  22595
 k-point 18 :  0.18750.18750.1875  plane waves:  22613
 k-point 19 :  0.31250.18750.1875  plane waves:  22591
 k-point 20 :  0.43750.18750.1875  plane waves:  22560
 k-point 21 :  0.06250.31250.1875  plane waves:  22598
 k-point 22 :  0.18750.31250.1875  plane waves:  22591
 k-point 23 :  0.31250.31250.1875  plane waves:  22590
 k-point 24 :  0.43750.31250.1875  plane waves:  22567
 k-point 25 :  0.06250.43750.1875  plane waves:  22584
 k-point 26 :  0.18750.43750.1875  plane waves:  22560
 k-point 27 :  0.31250.43750.1875  plane waves:  22567
 k-point 28 :  0.43750.43750.1875  plane waves:  22579
 k-point 29 :  0.06250.31250.3125  plane waves:  22586
 k-point 30 :  0.18750.31250.3125  plane waves:  22590
 k-point 31 :  0.31250.31250.3125  plane waves:  22598
 k-point 32 :  0.43750.31250.3125  plane waves:  22556
 k-point 33 :  0.06250.43750.3125  plane waves:  22582
 k-point 34 :  0.18750.43750.3125  plane waves:  22567
 k-point 35 :  0.31250.43750.3125  plane waves:  22556
 k-point 36 :  0.43750.43750.3125  plane waves:  22542
 k-point 37 :  0.06250.43750.4375  plane waves:  22586
 k-point 38 :  0.18750.43750.4375  plane waves:  22579
 k-point 39 :  0.31250.43750.4375  plane waves:  22542
 k-point 40 :  0.43750.43750.4375  plane waves:  22547

 maximum and minimum number of plane-waves per node :  22613 22542

 maximum number of plane-waves:  22613
 maximal index in each direction: 
   IXMAX= 17   IYMAX= 17   IZMAX= 17
   IXMIN=-17   IYMIN=-17   IZMIN=-17

 NGX is ok and might be reduce to  70
 NGY is ok and might be reduce to  70
 NGZ is ok and might be reduce to  70

 parallel 3dFFT wavefunction:
    minimum data exchange during FFTs selected (reduces bandwidth)
 parallel 3dFFT charge:
    minimum data exchange during FFTs selected (reduces bandwidth)

 For storing wavefunctions 3063.81 MBYTES are necessary
 For predicting wavefunctions  164.37 MBYTES are necessary
Broyden mixing: mesh for mixing (old mesh)
   NGX = 35   NGY = 35   NGZ = 35
  (NGX  =140   NGY  =140   NGZ  =140)
 gives a total of  42875 points
 charge density for first step will be calculated from the start-wavefunctions


--------------------------------------------------------------------------------------------------------


 Maximum index for augmentation-charges        48434 (set IRDMAX)


--------------------------------------------------------------------------------------------------------


 initial charge from wavefunction
 First call to EWALD:  gamma=   0.202
 Maximum number of real-space cells 3x 3x 3
 Maximum number of reciprocal cells 3x 3x 3

    FEWALD:  VPU time    0.00: CPU time    0.00


----------------------------------------- Iteration    1(   1)  ---------------------------------------


    POTLOK:  VPU time    0.37: CPU time    0.37
    SETDIJ:  VPU time    0.42: CPU time    0.42
    EDDIAG:  VPU time   27.41: CPU time   27.45
  RMM-DIIS:  VPU time  149.35: CPU time  149.58
    ORTHCH:  VPU time    3.51: CPU time    3.51
    DOS   :  VPU time    0.00: CPU time   -0.00
    CHARGE:  VPU time   12.39: CPU time   12.41
    MIXING:  VPU time    0.01: CPU time    0.01
    ------------------------------------------
      LOOP:  VPU time  193.51: CPU time  193.81

 eigenvalue-minimisations  : 17548
 total energy-change (2. order) :-0.8842757E+02  (-0.5620875E+02)
 number of electron  352.0000003 magnetization 
 augmentation part   172.4003260 magnetization 

 Broyden mixing:
  rms(total) = 0.67095E+00    rms(broyden)= 0.60814E+00
  rms(prec ) = 0.88102E+00
  weight for this iteration     100.00

 Free energy of the ion-electron system (eV)
  ---------------------------------------------------
  alpha Z        PSCENC =      2687.58728278
  Ewald energy   TEWEN  =    -29118.88956108
  -1/2 Hartree   DENC   =     -7134.29881674
  -V(xc)+E(xc)   XCENC  =      -398.79180782
  PAW double counting   =     26776.02475742   -25329.45202122
  entropy T*S    EENTRO =        -0.01201329
  eigenvalues    EBANDS =      -767.76327823
  atomic energy  EATOM  =     33197.16788402
  ---------------------------------------------------
  free energy    TOTEN  =       -88.42757415 eV

  energy without entropy =      -88.41556086  energy(sigma->0) =      -88.42356972


--------------------------------------------------------------------------------------------------------




----------------------------------------- Iteration    1(   2)  ---------------------------------------


    POTLOK:  VPU time    0.36: CPU time    0.36
    SETDIJ:  VPU time    0.42: CPU time    0.42
    EDDIAG:  VPU time   27.61: CPU time   27.65
  RMM-DIIS:  VPU time  152.20: CPU time  152.42
    ORTHCH:  VPU time    3.51: CPU time    3.51
    DOS   :  VPU time    0.00: CPU time   -0.00
    CHARGE:  VPU time   12.38: CPU time   12.40
    MIXING:  VPU time    0.01: CPU time    0.01
    ------------------------------------------
      LOOP:  VPU time  196.55: CPU time  196.83

 eigenvalue-minimisations  : 17868
 total energy-change (2. order) : 0.1233567E+01  (-0.1176489E+01)
 number of electron  352.0000003 magnetization 
 augmentation part   169.5374201 magnetization 

 Broyden mixing:
  rms(total) = 0.12318E+00    rms(broyden)= 0.12316E+00
  rms(prec ) = 0.15262E+00
  weight for this iteration     100.00

 eigenvalues of (default mixing * dielectric matrix)
  average eigenvalue GAMMA=   0.8582
  0.8582

 Free energy of the ion-electron system (eV)
  ---------------------------------------------------
  alpha Z        PSCENC =      2687.58728278
  Ewald energy   TEWEN  =    -29118.88956108
  -1/2 Hartree   DENC   =     -7246.38018358
  -V(xc)+E(xc)   XCENC  =      -371.16161820
  PAW double counting   =     27219.92824350   -25779.34062529
  entropy T*S    EENTRO =        -0.01471945
  eigenvalues    EBANDS =      -676.09071016
  atomic energy  EATOM  =     33197.16788402
  ---------------------------------------------------
  free energy    TOTEN  =       -87.19400746 eV

  energy without entropy =      -87.17928801  energy(sigma->0) =      -87.18910098


--------------------------------------------------------------------------------------------------------




----------------------------------------- Iteration    1(   3)  ---------------------------------------


    POTLOK:  VPU time    0.37: CPU time    0.37
    SETDIJ:  VPU time    0.42: CPU time    0.42
    EDDIAG:  VPU time   27.64: CPU time   27.68
  RMM-DIIS:  VPU time  155.46: CPU time  155.68
    ORTHCH:  VPU time    3.51: CPU time    3.51
    DOS   :  VPU time    0.00: CPU time   -0.00
    CHARGE:  VPU time   12.44: CPU time   12.46
    MIXING:  VPU time    0.01: CPU time    0.01
    ------------------------------------------
      LOOP:  VPU time  199.89: CPU time  200.19

 eigenvalue-minimisations  : 18314
 total energy-change (2. order) : 0.5453889E-02  (-0.1757590E-01)
 number of electron  352.0000003 magnetization 
 augmentation part   169.6657166 magnetization 

 Broyden mixing:
  rms(total) = 0.65293E-01    rms(broyden)= 0.65292E-01
  rms(prec ) = 0.75988E-01
  weight for this iteration     100.00

 eigenvalues of (default mixing * dielectric matrix)
  average eigenvalue GAMMA=   1.6224
  0.9626  2.2822

 Free energy of the ion-electron system (eV)
  ---------------------------------------------------
  alpha Z        PSCENC =      2687.58728278
  Ewald energy   TEWEN  =    -29118.88956108
  -1/2 Hartree   DENC   =     -7235.03766064
  -V(xc)+E(xc)   XCENC  =      -371.54873861
  PAW double counting   =     27311.31544458   -25870.75480107
  entropy T*S    EENTRO =        -0.01455495
  eigenvalues    EBANDS =      -687.01384860
  atomic energy  EATOM  =     33197.16788402
  ---------------------------------------------------
  free energy    TOTEN  =       -87.18855358 eV

  energy without entropy =      -87.17399863  energy(sigma->0) =      -87.18370193


--------------------------------------------------------------------------------------------------------




----------------------------------------- Iteration    1(   4)  ---------------------------------------


    POTLOK:  VPU time    0.37: CPU time    0.37
    SETDIJ:  VPU time    0.42: CPU time    0.42
    EDDIAG:  VPU time   27.64: CPU time   27.68
  RMM-DIIS:  VPU time  154.19: CPU time  154.41
    ORTHCH:  VPU time    3.51: CPU time    3.51
    DOS   :  VPU time    0.00: CPU time   -0.00
    CHARGE:  VPU time   12.40: CPU time   12.42
    MIXING:  VPU time    0.01: CPU time    0.01
    ------------------------------------------
      LOOP:  VPU time  198.59: CPU time  199.07

 eigenvalue-minimisations  : 18171
 total energy-change (2. order) : 0.1557186E-04  (-0.4113272E-02)
 number of electron  352.0000003 magnetization 
 augmentation part   169.8520641 magnetization 

 Broyden mixing:
  rms(total) = 0.19985E-01    rms(broyden)= 0.19984E-01
  rms(prec ) = 0.28665E-01
  weight for this iteration     100.00

 eigenvalues of (default mixing * dielectric matrix)
  average eigenvalue GAMMA=   1.5406
  2.4759  1.0730  1.0730

 Free energy of the ion-electron system (eV)
  ---------------------------------------------------
  alpha Z        PSCENC =      2687.58728278
  Ewald energy   TEWEN  =    -29118.88956108
  -1/2 Hartree   DENC   =     -7226.37197534
  -V(xc)+E(xc)   XCENC  =      -371.83518746
  PAW double counting   =     27447.54207588   -26007.18391276
  entropy T*S    EENTRO =        -0.01440693
  eigenvalues    EBANDS =      -695.19073709
  atomic energy  EATOM  =     33197.16788402
  ---------------------------------------------------
  free energy    TOTEN  =       -87.18853800 eV

  energy without entropy =      -87.17413107  energy(sigma->0) =      -87.18373569


--------------------------------------------------------------------------------------------------------




----------------------------------------- Iteration    1(   5)  ---------------------------------------


    POTLOK:  VPU time    0.37: CPU time    0.37
    SETDIJ:  VPU time    0.42: CPU time    0.42
    EDDIAG:  VPU time   27.63: CPU time   27.67
  RMM-DIIS:  VPU time  154.78: CPU time  155.00
    ORTHCH:  VPU time    3.51: CPU time    3.52
    DOS   :  VPU time    0.00: CPU time   -0.00
    CHARGE:  VPU time   12.50: CPU time   12.52
    MIXING:  VPU time    0.01: CPU time    0.01
    ------------------------------------------
      LOOP:  VPU time  199.26: CPU time  199.55

 eigenvalue-minimisations  : 18189
 total energy-change (2. order) : 0.7787050E-03  (-0.9381978E-03)
 number of electron  352.0000003 magnetization 
 augmentation part   169.7587815 magnetization 

 Broyden mixing:
  rms(total) = 0.58118E-02    rms(broyden)= 0.58115E-02
  rms(prec ) = 0.81399E-02
  weight for this iteration     100.00

 eigenvalues of (default mixing * dielectric matrix)
  average eigenvalue GAMMA=   1.4184
  2.5247  1.2759  0.9365  0.9365

 Free energy of the ion-electron system (eV)
  ---------------------------------------------------
  alpha Z        PSCENC =      2687.58728278
  Ewald energy   TEWEN  =    -29118.88956108
  -1/2 Hartree   DENC   =     -7231.19242383
  -V(xc)+E(xc)   XCENC  =      -371.65676002
  PAW double counting   =     27513.81675304   -26073.81285071
  entropy T*S    EENTRO =        -0.01448237
  eigenvalues    EBANDS =      -690.19360113
  atomic energy  EATOM  =     33197.16788402
  ---------------------------------------------------
  free energy    TOTEN  =       -87.18775930 eV

  energy without entropy =      -87.17327693  energy(sigma->0) =      -87.18293184


--------------------------------------------------------------------------------------------------------




----------------------------------------- Iteration    1(   6)  ---------------------------------------


    POTLOK:  VPU time    0.37: CPU time    0.37
    SETDIJ:  VPU time    0.42: CPU time    0.42
    EDDIAG:  VPU time   27.56: CPU time   27.60
  RMM-DIIS:  VPU time  156.94: CPU time  157.15
    ORTHCH:  VPU time    3.51: CPU time    3.51
    DOS   :  VPU time    0.00: CPU time   -0.00
    CHARGE:  VPU time   12.41: CPU time   12.43
    MIXING:  VPU time    0.01: CPU time    0.01
    ------------------------------------------
      LOOP:  VPU time  201.27: CPU time  201.56

 eigenvalue-minimisations  : 18512
 total energy-change (2. order) : 0.4792082E-04  (-0.1347376E-04)
 number of electron  352.0000003 magnetization 
 augmentation part   169.7641497 magnetization 

 Broyden mixing:
  rms(total) = 0.35695E-02    rms(broyden)= 0.35695E-02
  rms(prec ) = 0.48882E-02
  weight for this iteration     100.00

 eigenvalues of (default mixing * dielectric matrix)
  average eigenvalue GAMMA=   1.4655
  2.5660  1.8284  1.0200  1.0200  0.8934

 Free energy of the ion-electron system (eV)
  ---------------------------------------------------
  alpha Z        PSCENC =      2687.58728278
  Ewald energy   TEWEN  =    -29118.88956108
  -1/2 Hartree   DENC   =     -7230.87753931
  -V(xc)+E(xc)   XCENC  =      -371.66678104
  PAW double counting   =     27515.59026433   -26075.56448198
  entropy T*S    EENTRO =        -0.01447631
  eigenvalues    EBANDS =      -690.52030278
  atomic energy  EATOM  =     33197.16788402
  ---------------------------------------------------
  free energy    TOTEN  =       -87.18771138 eV

  energy without entropy =      -87.17323507  energy(sigma->0) =      -87.18288594


--------------------------------------------------------------------------------------------------------




----------------------------------------- Iteration    1(   7)  ---------------------------------------


    POTLOK:  VPU time    0.36: CPU time    0.36
    SETDIJ:  VPU time    0.42: CPU time    0.42
    EDDIAG:  VPU time   29.91: CPU time   29.96
  RMM-DIIS:  VPU time  325.62: CPU time  326.33
    ORTHCH:  VPU time    3.95: CPU time    3.96
    DOS   :  VPU time    0.00: CPU time   -0.00
    CHARGE:  VPU time   18.93: CPU time   18.98
    MIXING:  VPU time    0.01: CPU time    0.01
    ------------------------------------------
      LOOP:  VPU time  379.26: CPU time  380.09

 eigenvalue-minimisations  : 18258
 total energy-change (2. order) : 0.3757889E-04  (-0.2102379E-04)
 number of electron  352.0000003 magnetization 
 augmentation part   169.7778458 magnetization 

 Broyden mixing:
  rms(total) = 0.48122E-03    rms(broyden)= 0.48114E-03
  rms(prec ) = 0.72586E-03
  weight for this iteration     100.00

 eigenvalues of (default mixing * dielectric matrix)
  average eigenvalue GAMMA=   1.4977
  2.6233  1.9588  1.5792  0.9738  0.9738  0.8776

 Free energy of the ion-electron system (eV)
  ---------------------------------------------------
  alpha Z        PSCENC =      2687.58728278
  Ewald energy   TEWEN  =    -29118.88956108
  -1/2 Hartree   DENC   =     -7230.24948723
  -V(xc)+E(xc)   XCENC  =      -371.68821492
  PAW double counting   =     27514.71749746   -26074.65560439
  entropy T*S    EENTRO =        -0.01446523
  eigenvalues    EBANDS =      -691.16300519
  atomic energy  EATOM  =     33197.16788402
  ---------------------------------------------------
  free energy    TOTEN  =       -87.18767380 eV

  energy without entropy =      -87.17320856  energy(sigma->0) =      -87.18285205


--------------------------------------------------------------------------------------------------------




----------------------------------------- Iteration    1(   8)  ---------------------------------------


    POTLOK:  VPU time    0.46: CPU time    0.46
    SETDIJ:  VPU time    0.62: CPU time    0.63
    EDDIAG:  VPU time   38.10: CPU time   38.16
  RMM-DIIS:  VPU time  166.96: CPU time  167.22
    ORTHCH:  VPU time    3.95: CPU time    3.96
    DOS   :  VPU time    0.00: CPU time   -0.00
    ------------------------------------------
      LOOP:  VPU time  210.15: CPU time  210.48

 eigenvalue-minimisations  : 10281
 total energy-change (2. order) : 0.3308167E-05  (-0.3115002E-06)
 number of electron  352.0000003 magnetization 
 augmentation part   169.7778458 magnetization 

 Free energy of the ion-electron system (eV)
  ---------------------------------------------------
  alpha Z        PSCENC =      2687.58728278
  Ewald energy   TEWEN  =    -29118.88956108
  -1/2 Hartree   DENC   =     -7230.25391126
  -V(xc)+E(xc)   XCENC  =      -371.68778030
  PAW double counting   =     27514.23096763   -26074.16196738
  entropy T*S    EENTRO =        -0.01446485
  eigenvalues    EBANDS =      -691.16612005
  atomic energy  EATOM  =     33197.16788402
  ---------------------------------------------------
  free energy    TOTEN  =       -87.18767049 eV

  energy without entropy =      -87.17320564  energy(sigma->0) =      -87.18284887


--------------------------------------------------------------------------------------------------------




 average (electrostatic) potential at core
  the test charge radii are     1.1249
  (the norm of the test charge is              1.0000)
       1 -42.5044       2 -42.5028       3 -42.5028       4 -42.5044       5 -42.5045
       6 -42.5045       7 -42.5045       8 -42.5028       9 -42.5028      10 -42.5044
      11 -42.5045      12 -42.5046      13 -42.5045      14 -42.5045      15 -42.5062
      16 -42.5062      17 -42.5045      18 -42.5045      19 -42.5045      20 -42.5044
      21 -42.5045      22 -42.5045      23 -42.5062      24 -42.5062      25 -42.5045
      26 -42.5045      27 -42.5045      28 -42.5045      29 -42.5045      30 -42.5045
      31 -42.5045      32 -42.5045
 
 
 
 E-fermi :   1.8693     XC(G=0): -10.9739     alpha+bet : -6.8867
   add alpha+bet to get absolut eigen values

 k-point   1 :       0.0625    0.0625    0.0625
  band No.  band energies     occupation 
      1      -4.4759      2.00000
      2      -3.4302      2.00000
      3      -3.4301      2.00000
      4      -3.4301      2.00000
      5      -3.4261      2.00000
      6      -3.4176      2.00000
      7      -3.4176      2.00000
      8      -3.4176      2.00000
      9      -3.3616      2.00000
     10      -3.3615      2.00000
     11      -3.3614      2.00000
     12      -3.0912      2.00000
     13      -3.0896      2.00000
     14      -3.0880      2.00000
     15      -3.0296      2.00000
     16      -3.0284      2.00000
     17      -3.0272      2.00000
     18      -2.9266      2.00000
     19      -2.9256      2.00000
     20      -2.9247      2.00000
     21      -2.9077      2.00000
     22      -2.9055      2.00000
     23      -2.9054      2.00000
     24      -2.9053      2.00000
     25      -2.9053      2.00000
     26      -2.9031      2.00000
     27      -2.8276      2.00000
     28      -2.8266      2.00000
     29      -2.8256      2.00000
     30      -2.7424      2.00000
     31      -2.7413      2.00000
     32      -2.7401      2.00000
     33      -2.7149      2.00000
     34      -2.7140      2.00000
     35      -2.7131      2.00000
     36      -2.7066      2.00000
     37      -2.7059      2.00000
     38      -2.7051      2.00000
     39      -2.7049      2.00000
     40      -2.7042      2.00000
     41      -2.7035      2.00000
     42      -2.5981      2.00000
     43      -2.5980      2.00000
     44      -2.5970      2.00000
     45      -2.5970      2.00000
     46      -2.5960      2.00000
     47      -2.5959      2.00000
     48      -2.5394      2.00000
     49      -2.5380      2.00000
     50      -2.5377      2.00000
     51      -2.5367      2.00000
     52      -2.5365      2.00000
     53      -2.5357      2.00000
     54      -2.5350      2.00000
     55      -2.5348      2.00000
     56      -2.5339      2.00000
     57      -2.4976      2.00000
     58      -2.4966      2.00000
     59      -2.4954      2.00000
     60      -2.3908      2.00000
     61      -2.3907      2.00000
     62      -2.3897      2.00000
     63      -2.3896      2.00000
     64      -2.3886      2.00000
     65      -2.3886      2.00000
     66      -2.3644      2.00000
     67      -2.3644      2.00000
     68      -2.3643      2.00000
     69      -2.3538      2.00000
     70      -2.3538      2.00000
     71      -2.3533      2.00000
     72      -2.3470      2.00000
     73      -2.3469      2.00000
     74      -2.3469      2.00000
     75      -2.3426      2.00000
     76      -2.3426      2.00000
     77      -2.2212      2.00000
     78      -2.2200      2.00000
     79      -2.2195      2.00000
     80      -2.2195      2.00000
     81      -2.2189      2.00000
     82      -2.2179      2.00000
     83      -2.1999      2.00000
     84      -2.1993      2.00000
     85      -2.1987      2.00000
     86      -2.1640      2.00000
     87      -2.1631      2.00000
     88      -2.1620      2.00000
     89      -1.9184      2.00000
     90      -1.9179      2.00000
     91      -1.9175      2.00000
     92      -1.8732      2.00000
     93      -1.8721      2.00000
     94      -1.8711      2.00000
     95      -1.8626      2.00000
     96      -1.8622      2.00000
     97      -1.8613      2.00000
     98      -1.8609      2.00000
     99      -1.8609      2.00000
    100      -1.8604      2.00000
    101      -1.8598      2.00000
    102      -1.8590      2.00000
    103      -1.8589      2.00000
    104      -1.8161      2.00000
    105      -1.8152      2.00000
    106      -1.8143      2.00000
    107      -1.7211      2.00000
    108      -1.7197      2.00000
    109      -1.7184      2.00000
    110      -1.6873      2.00000
    111      -1.6859      2.00000
    112      -1.6848      2.00000
    113      -1.6807      2.00000
    114      -1.6795      2.00000
    115      -1.6782      2.00000
    116      -1.6489      2.00000
    117      -1.6488      2.00000
    118      -1.6114      2.00000
    119      -1.6100      2.00000
    120      -1.6098      2.00000
    121      -1.6097      2.00000
    122      -1.6096      2.00000
    123      -1.6082      2.00000
    124      -1.6022      2.00000
    125      -1.6013      2.00000
    126      -1.6004      2.00000
    127      -1.6001      2.00000
    128      -1.5995      2.00000
    129      -1.5984      2.00000
    130      -1.5483      2.00000
    131      -1.5479      2.00000
    132      -1.5470      2.00000
    133      -1.5466      2.00000
    134      -1.5451      2.00000
    135      -1.5436      2.00000
    136      -1.4121      2.00000
    137      -1.4114      2.00000
    138      -1.4108      2.00000
    139      -1.3581      2.00000
    140      -1.3578      2.00000
    141      -1.3575      2.00000
    142      -1.1771      2.00000
    143      -1.1757      2.00000
    144      -1.1743      2.00000
    145      -1.1402      2.00000
    146      -1.1399      2.00000
    147      -1.1397      2.00000
    148      -1.1353      2.00000
    149      -1.1353      2.00000
    150      -1.1352      2.00000
    151      -1.1127      2.00000
    152      -1.1127      2.00000
    153      -1.1018      2.00000
    154      -1.1018      2.00000
    155      -1.1018      2.00000
    156      -0.9866      2.00000
    157      -0.9865      2.00000
    158      -0.9865      2.00000
    159      -0.9709      2.00000
    160      -0.9708      2.00000
    161      -0.9707      2.00000
    162      -0.9707      2.00000
    163      -0.9706      2.00000
    164      -0.9705      2.00000
    165      -0.9689      2.00000
    166      -0.9689      2.00000
    167      -0.9687      2.00000
    168       0.6593      2.00000
    169       0.6607      2.00000
    170       0.6621      2.00000
    171       1.1825      2.00001
    172       1.1832      2.00001
    173       1.1846      2.00001
    174       1.1846      2.00001
    175       1.1860      2.00002
    176       1.1866      2.00002
    177       1.7075      1.98461
    178       1.7202      1.94962
    179       1.7215      1.94538
    180       1.7229      1.94102
    181       1.9856      0.17693
    182       1.9857      0.17637
    183       1.9858      0.17593
    184       3.5809     -0.00000
    185       3.5812     -0.00000
    186       3.5816     -0.00000
    187       4.4353     -0.00000
    188       4.4356     -0.00000
    189       4.4359     -0.00000
    190       4.6913     -0.00000
    191       6.5210     -0.00000
    192       6.5215     -0.00000
    193       6.5231     -0.00000
    194       6.5231     -0.00000
    195       6.5246     -0.00000
    196       6.5252     -0.00000
    197       7.1067     -0.00000
    198       7.1070     -0.00000
    199       7.1089     -0.00000
    200       7.1089     -0.00000
    201       7.1108     -0.00000
    202       7.1108     -0.00000
    203       7.1691     -0.00000
    204       7.1694     -0.00000
    205       7.1697     -0.00000
    206       7.8256      0.00000
    207       7.8264      0.00000
    208       7.8268      0.00000
    209       7.8277      0.00000
    210       8.9365      0.00000
    211       9.1124      0.00000
    212       9.2268      0.00000

 k-point   2 :       0.1875    0.0625    0.0625
  band No.  band energies     occupation 
      1      -4.4072      2.00000
      2      -3.4058      2.00000
      3      -3.4047      2.00000
      4      -3.3999      2.00000
      5      -3.3999      2.00000
      6      -3.3880      2.00000
      7      -3.3880      2.00000
      8      -3.3798      2.00000
      9      -3.3435      2.00000
     10      -3.3324      2.00000
     11      -3.3324      2.00000
     12      -3.2747      2.00000
     13      -3.0583      2.00000
     14      -3.0511      2.00000
     15      -3.0510      2.00000
     16      -3.0210      2.00000
     17      -2.9946      2.00000
     18      -2.9945      2.00000
     19      -2.9612      2.00000
     20      -2.9612      2.00000
     21      -2.9025      2.00000
     22      -2.9025      2.00000
     23      -2.8895      2.00000
     24      -2.8895      2.00000
     25      -2.8806      2.00000
     26      -2.8806      2.00000
     27      -2.8728      2.00000
     28      -2.8457      2.00000
     29      -2.8457      2.00000
     30      -2.8413      2.00000
     31      -2.8088      2.00000
     32      -2.8088      2.00000
     33      -2.7809      2.00000
     34      -2.7809      2.00000
     35      -2.7730      2.00000
     36      -2.7729      2.00000
     37      -2.7283      2.00000
     38      -2.7283      2.00000
     39      -2.7277      2.00000
     40      -2.6978      2.00000
     41      -2.6978      2.00000
     42      -2.6948      2.00000
     43      -2.6948      2.00000
     44      -2.5955      2.00000
     45      -2.5954      2.00000
     46      -2.5947      2.00000
     47      -2.5947      2.00000
     48      -2.5488      2.00000
     49      -2.5477      2.00000
     50      -2.5468      2.00000
     51      -2.5457      2.00000
     52      -2.5447      2.00000
     53      -2.5446      2.00000
     54      -2.5008      2.00000
     55      -2.4891      2.00000
     56      -2.4891      2.00000
     57      -2.4663      2.00000
     58      -2.4663      2.00000
     59      -2.4558      2.00000
     60      -2.4035      2.00000
     61      -2.4035      2.00000
     62      -2.3866      2.00000
     63      -2.3866      2.00000
     64      -2.3830      2.00000
     65      -2.3740      2.00000
     66      -2.3740      2.00000
     67      -2.3724      2.00000
     68      -2.3518      2.00000
     69      -2.3396      2.00000
     70      -2.3244      2.00000
     71      -2.3244      2.00000
     72      -2.3235      2.00000
     73      -2.3221      2.00000
     74      -2.3193      2.00000
     75      -2.3176      2.00000
     76      -2.3175      2.00000
     77      -2.3125      2.00000
     78      -2.3125      2.00000
     79      -2.2608      2.00000
     80      -2.2608      2.00000
     81      -2.2100      2.00000
     82      -2.2099      2.00000
     83      -2.1648      2.00000
     84      -2.1647      2.00000
     85      -2.1009      2.00000
     86      -2.1009      2.00000
     87      -2.0632      2.00000
     88      -2.0407      2.00000
     89      -1.9994      2.00000
     90      -1.9870      2.00000
     91      -1.9870      2.00000
     92      -1.9706      2.00000
     93      -1.9426      2.00000
     94      -1.9368      2.00000
     95      -1.9289      2.00000
     96      -1.9289      2.00000
     97      -1.8859      2.00000
     98      -1.8859      2.00000
     99      -1.8632      2.00000
    100      -1.8631      2.00000
    101      -1.8225      2.00000
    102      -1.8224      2.00000
    103      -1.8163      2.00000
    104      -1.8162      2.00000
    105      -1.7910      2.00000
    106      -1.7910      2.00000
    107      -1.7757      2.00000
    108      -1.7757      2.00000
    109      -1.7502      2.00000
    110      -1.7260      2.00000
    111      -1.7260      2.00000
    112      -1.6941      2.00000
    113      -1.6941      2.00000
    114      -1.6695      2.00000
    115      -1.6390      2.00000
    116      -1.6230      2.00000
    117      -1.6230      2.00000
    118      -1.6146      2.00000
    119      -1.6145      2.00000
    120      -1.6081      2.00000
    121      -1.6080      2.00000
    122      -1.5908      2.00000
    123      -1.5726      2.00000
    124      -1.5588      2.00000
    125      -1.5588      2.00000
    126      -1.5535      2.00000
    127      -1.5159      2.00000
    128      -1.5158      2.00000
    129      -1.5006      2.00000
    130      -1.5006      2.00000
    131      -1.4769      2.00000
    132      -1.4765      2.00000
    133      -1.4763      2.00000
    134      -1.4703      2.00000
    135      -1.4702      2.00000
    136      -1.4632      2.00000
    137      -1.3609      2.00000
    138      -1.3609      2.00000
    139      -1.3236      2.00000
    140      -1.3236      2.00000
    141      -1.3038      2.00000
    142      -1.2224      2.00000
    143      -1.2126      2.00000
    144      -1.2126      2.00000
    145      -1.1647      2.00000
    146      -1.1646      2.00000
    147      -1.1496      2.00000
    148      -1.1483      2.00000
    149      -1.1481      2.00000
    150      -1.1161      2.00000
    151      -1.1142      2.00000
    152      -1.1142      2.00000
    153      -1.0721      2.00000
    154      -1.0721      2.00000
    155      -1.0212      2.00000
    156      -1.0074      2.00000
    157      -1.0074      2.00000
    158      -1.0069      2.00000
    159      -1.0068      2.00000
    160      -1.0003      2.00000
    161      -0.9989      2.00000
    162      -0.9986      2.00000
    163      -0.9715      2.00000
    164      -0.9708      2.00000
    165      -0.9707      2.00000
    166      -0.9699      2.00000
    167      -0.6497      2.00000
    168       0.2038      2.00000
    169       0.2038      2.00000
    170       0.6831      2.00000
    171       0.7068      2.00000
    172       0.7068      2.00000
    173       1.2161      2.00004
    174       1.2161      2.00004
    175       1.4070      2.00516
    176       1.7583      1.79741
    177       1.7787      1.68626
    178       1.7788      1.68596
    179       1.8634      1.05016
    180       1.8634      1.05014
    181       2.1455     -0.06489
    182       2.3220     -0.00624
    183       2.3220     -0.00624
    184       3.0463     -0.00000
    185       3.7296     -0.00000
    186       3.7296     -0.00000
    187       4.4602     -0.00000
    188       4.7241     -0.00000
    189       4.7241     -0.00000
    190       5.1397     -0.00000
    191       5.6978     -0.00000
    192       5.6978     -0.00000
    193       5.9436     -0.00000
    194       5.9436     -0.00000
    195       6.2204     -0.00000
    196       6.2205     -0.00000
    197       6.6497     -0.00000
    198       6.6497     -0.00000
    199       7.1882     -0.00000
    200       7.1882     -0.00000
    201       7.2305     -0.00000
    202       7.2305     -0.00000
    203       7.4450      0.00000
    204       7.4450      0.00000
    205       7.8220      0.00000
    206       7.8287      0.00000
    207       8.0254      0.00000
    208       8.0429      0.00000
    209       8.1420      0.00000
    210       8.2565      0.00000
    211       8.3236      0.00000
    212       8.3437      0.00000

 k-point   3 :       0.3125    0.0625    0.0625
  band No.  band energies     occupation 
      1      -4.2718      2.00000
      2      -3.5432      2.00000
      3      -3.3587      2.00000
      4      -3.3533      2.00000
      5      -3.3417      2.00000
      6      -3.3416      2.00000
      7      -3.3292      2.00000
      8      -3.3292      2.00000
      9      -3.3138      2.00000
     10      -3.3081      2.00000
     11      -3.2744      2.00000
     12      -3.2744      2.00000
     13      -3.1297      2.00000
     14      -3.1096      2.00000
     15      -3.0543      2.00000
     16      -3.0542      2.00000
     17      -3.0282      2.00000
     18      -2.9953      2.00000
     19      -2.9953      2.00000
     20      -2.9810      2.00000
     21      -2.9809      2.00000
     22      -2.9756      2.00000
     23      -2.9409      2.00000
     24      -2.9408      2.00000
     25      -2.9368      2.00000
     26      -2.9367      2.00000
     27      -2.8633      2.00000
     28      -2.8633      2.00000
     29      -2.8497      2.00000
     30      -2.8497      2.00000
     31      -2.8337      2.00000
     32      -2.8336      2.00000
     33      -2.7961      2.00000
     34      -2.7960      2.00000
     35      -2.7724      2.00000
     36      -2.7722      2.00000
     37      -2.7604      2.00000
     38      -2.7602      2.00000
     39      -2.7436      2.00000
     40      -2.7436      2.00000
     41      -2.6884      2.00000
     42      -2.6884      2.00000
     43      -2.6332      2.00000
     44      -2.5939      2.00000
     45      -2.5938      2.00000
     46      -2.5840      2.00000
     47      -2.5840      2.00000
     48      -2.5745      2.00000
     49      -2.5734      2.00000
     50      -2.5728      2.00000
     51      -2.5716      2.00000
     52      -2.5365      2.00000
     53      -2.5364      2.00000
     54      -2.4878      2.00000
     55      -2.4649      2.00000
     56      -2.4649      2.00000
     57      -2.4599      2.00000
     58      -2.4599      2.00000
     59      -2.4239      2.00000
     60      -2.4238      2.00000
     61      -2.4146      2.00000
     62      -2.4131      2.00000
     63      -2.4079      2.00000
     64      -2.3953      2.00000
     65      -2.3952      2.00000
     66      -2.3901      2.00000
     67      -2.3901      2.00000
     68      -2.3897      2.00000
     69      -2.3897      2.00000
     70      -2.3815      2.00000
     71      -2.3814      2.00000
     72      -2.3579      2.00000
     73      -2.3317      2.00000
     74      -2.3317      2.00000
     75      -2.3047      2.00000
     76      -2.2831      2.00000
     77      -2.2826      2.00000
     78      -2.2822      2.00000
     79      -2.2819      2.00000
     80      -2.2817      2.00000
     81      -2.2812      2.00000
     82      -2.2716      2.00000
     83      -2.1182      2.00000
     84      -2.1182      2.00000
     85      -2.0927      2.00000
     86      -2.0660      2.00000
     87      -2.0660      2.00000
     88      -2.0558      2.00000
     89      -2.0468      2.00000
     90      -2.0346      2.00000
     91      -2.0337      2.00000
     92      -2.0337      2.00000
     93      -1.9268      2.00000
     94      -1.9267      2.00000
     95      -1.8811      2.00000
     96      -1.8715      2.00000
     97      -1.8714      2.00000
     98      -1.8429      2.00000
     99      -1.8392      2.00000
    100      -1.8391      2.00000
    101      -1.8263      2.00000
    102      -1.8263      2.00000
    103      -1.8219      2.00000
    104      -1.7479      2.00000
    105      -1.7478      2.00000
    106      -1.7328      2.00000
    107      -1.7328      2.00000
    108      -1.7143      2.00000
    109      -1.7143      2.00000
    110      -1.7080      2.00000
    111      -1.7029      2.00000
    112      -1.7028      2.00000
    113      -1.6987      2.00000
    114      -1.6987      2.00000
    115      -1.6270      2.00000
    116      -1.6270      2.00000
    117      -1.6194      2.00000
    118      -1.6095      2.00000
    119      -1.6095      2.00000
    120      -1.5996      2.00000
    121      -1.5996      2.00000
    122      -1.5116      2.00000
    123      -1.5088      2.00000
    124      -1.5088      2.00000
    125      -1.4838      2.00000
    126      -1.4746      2.00000
    127      -1.4745      2.00000
    128      -1.4307      2.00000
    129      -1.4249      2.00000
    130      -1.4121      2.00000
    131      -1.4120      2.00000
    132      -1.3987      2.00000
    133      -1.3987      2.00000
    134      -1.3897      2.00000
    135      -1.3896      2.00000
    136      -1.3839      2.00000
    137      -1.3751      2.00000
    138      -1.3751      2.00000
    139      -1.3492      2.00000
    140      -1.3335      2.00000
    141      -1.3335      2.00000
    142      -1.2541      2.00000
    143      -1.2507      2.00000
    144      -1.2499      2.00000
    145      -1.2493      2.00000
    146      -1.2067      2.00000
    147      -1.2017      2.00000
    148      -1.2017      2.00000
    149      -1.1757      2.00000
    150      -1.1568      2.00000
    151      -1.1568      2.00000
    152      -1.1546      2.00000
    153      -1.1034      2.00000
    154      -1.1034      2.00000
    155      -1.0880      2.00000
    156      -1.0758      2.00000
    157      -1.0758      2.00000
    158      -1.0750      2.00000
    159      -1.0750      2.00000
    160      -1.0581      2.00000
    161      -0.9716      2.00000
    162      -0.9709      2.00000
    163      -0.9708      2.00000
    164      -0.9700      2.00000
    165      -0.7389      2.00000
    166      -0.7389      2.00000
    167      -0.1928      2.00000
    168      -0.1928      2.00000
    169      -0.0095      2.00000
    170       0.2819      2.00000
    171       0.2819      2.00000
    172       0.7322      2.00000
    173       1.1471      2.00000
    174       1.2810      2.00026
    175       1.2810      2.00026
    176       1.6887      2.02385
    177       1.6887      2.02379
    178       1.8306      1.32084
    179       2.1457     -0.06481
    180       2.2900     -0.01129
    181       2.4433     -0.00038
    182       2.4433     -0.00038
    183       2.9876     -0.00000
    184       2.9877     -0.00000
    185       4.0089     -0.00000
    186       4.0089     -0.00000
    187       4.7960     -0.00000
    188       4.8180     -0.00000
    189       4.8180     -0.00000
    190       5.2257     -0.00000
    191       5.2258     -0.00000
    192       5.3511     -0.00000
    193       5.3511     -0.00000
    194       5.3804     -0.00000
    195       5.3805     -0.00000
    196       5.7202     -0.00000
    197       6.8280     -0.00000
    198       6.8280     -0.00000
    199       6.9206     -0.00000
    200       7.2264     -0.00000
    201       7.2264     -0.00000
    202       7.4156      0.00000
    203       7.4156      0.00000
    204       7.4374      0.00000
    205       7.4374      0.00000
    206       7.4581      0.00000
    207       7.4582      0.00000
    208       7.8453      0.00000
    209       7.8463      0.00000
    210       8.0058      0.00000
    211       8.3667      0.00000
    212       8.4985      0.00000

 k-point   4 :       0.4375    0.0625    0.0625
  band No.  band energies     occupation 
      1      -4.0742      2.00000
      2      -3.8244      2.00000
      3      -3.2924      2.00000
      4      -3.2724      2.00000
      5      -3.2596      2.00000
      6      -3.2596      2.00000
      7      -3.2562      2.00000
      8      -3.2426      2.00000
      9      -3.2426      2.00000
     10      -3.2219      2.00000
     11      -3.2129      2.00000
     12      -3.1892      2.00000
     13      -3.1884      2.00000
     14      -3.1884      2.00000
     15      -3.1631      2.00000
     16      -3.1600      2.00000
     17      -3.1600      2.00000
     18      -3.1300      2.00000
     19      -3.1300      2.00000
     20      -3.1071      2.00000
     21      -3.0764      2.00000
     22      -3.0764      2.00000
     23      -2.8948      2.00000
     24      -2.8948      2.00000
     25      -2.8728      2.00000
     26      -2.8727      2.00000
     27      -2.8364      2.00000
     28      -2.8363      2.00000
     29      -2.8165      2.00000
     30      -2.8164      2.00000
     31      -2.8148      2.00000
     32      -2.8147      2.00000
     33      -2.8077      2.00000
     34      -2.8076      2.00000
     35      -2.7714      2.00000
     36      -2.7713      2.00000
     37      -2.7586      2.00000
     38      -2.7586      2.00000
     39      -2.7141      2.00000
     40      -2.7141      2.00000
     41      -2.7116      2.00000
     42      -2.7114      2.00000
     43      -2.6391      2.00000
     44      -2.6391      2.00000
     45      -2.6370      2.00000
     46      -2.6369      2.00000
     47      -2.5963      2.00000
     48      -2.5960      2.00000
     49      -2.5946      2.00000
     50      -2.5942      2.00000
     51      -2.5544      2.00000
     52      -2.5544      2.00000
     53      -2.5467      2.00000
     54      -2.5054      2.00000
     55      -2.5054      2.00000
     56      -2.4723      2.00000
     57      -2.4644      2.00000
     58      -2.4377      2.00000
     59      -2.4376      2.00000
     60      -2.4362      2.00000
     61      -2.4347      2.00000
     62      -2.4346      2.00000
     63      -2.4302      2.00000
     64      -2.4302      2.00000
     65      -2.4110      2.00000
     66      -2.4109      2.00000
     67      -2.3894      2.00000
     68      -2.3755      2.00000
     69      -2.3754      2.00000
     70      -2.3708      2.00000
     71      -2.3652      2.00000
     72      -2.3650      2.00000
     73      -2.3233      2.00000
     74      -2.3233      2.00000
     75      -2.2886      2.00000
     76      -2.2886      2.00000
     77      -2.2503      2.00000
     78      -2.2250      2.00000
     79      -2.2249      2.00000
     80      -2.2214      2.00000
     81      -2.2213      2.00000
     82      -2.2207      2.00000
     83      -2.2206      2.00000
     84      -2.2060      2.00000
     85      -2.1913      2.00000
     86      -2.1912      2.00000
     87      -2.1784      2.00000
     88      -2.1458      2.00000
     89      -2.1458      2.00000
     90      -2.1427      2.00000
     91      -2.1422      2.00000
     92      -2.1254      2.00000
     93      -1.8308      2.00000
     94      -1.8307      2.00000
     95      -1.8293      2.00000
     96      -1.8292      2.00000
     97      -1.8061      2.00000
     98      -1.7581      2.00000
     99      -1.7122      2.00000
    100      -1.7122      2.00000
    101      -1.7043      2.00000
    102      -1.7043      2.00000
    103      -1.6912      2.00000
    104      -1.6910      2.00000
    105      -1.6906      2.00000
    106      -1.6845      2.00000
    107      -1.6844      2.00000
    108      -1.6816      2.00000
    109      -1.6816      2.00000
    110      -1.6517      2.00000
    111      -1.6517      2.00000
    112      -1.6508      2.00000
    113      -1.6507      2.00000
    114      -1.6447      2.00000
    115      -1.6447      2.00000
    116      -1.6239      2.00000
    117      -1.6215      2.00000
    118      -1.6215      2.00000
    119      -1.5910      2.00000
    120      -1.5694      2.00000
    121      -1.5694      2.00000
    122      -1.5546      2.00000
    123      -1.5319      2.00000
    124      -1.5319      2.00000
    125      -1.5092      2.00000
    126      -1.4944      2.00000
    127      -1.4944      2.00000
    128      -1.4586      2.00000
    129      -1.4586      2.00000
    130      -1.4507      2.00000
    131      -1.4507      2.00000
    132      -1.4186      2.00000
    133      -1.3792      2.00000
    134      -1.3783      2.00000
    135      -1.3783      2.00000
    136      -1.3120      2.00000
    137      -1.3119      2.00000
    138      -1.3100      2.00000
    139      -1.2988      2.00000
    140      -1.2934      2.00000
    141      -1.2860      2.00000
    142      -1.2859      2.00000
    143      -1.2851      2.00000
    144      -1.2759      2.00000
    145      -1.2758      2.00000
    146      -1.2708      2.00000
    147      -1.2707      2.00000
    148      -1.2252      2.00000
    149      -1.2246      2.00000
    150      -1.2244      2.00000
    151      -1.2149      2.00000
    152      -1.1948      2.00000
    153      -1.1825      2.00000
    154      -1.1678      2.00000
    155      -1.1678      2.00000
    156      -1.1672      2.00000
    157      -1.1672      2.00000
    158      -1.1300      2.00000
    159      -0.9717      2.00000
    160      -0.9709      2.00000
    161      -0.9709      2.00000
    162      -0.9701      2.00000
    163      -0.8394      2.00000
    164      -0.8394      2.00000
    165      -0.5377      2.00000
    166      -0.5377      2.00000
    167      -0.4364      2.00000
    168      -0.4364      2.00000
    169      -0.0972      2.00000
    170      -0.0972      2.00000
    171       0.7120      2.00000
    172       0.8172      2.00000
    173       0.9513      2.00000
    174       1.3818      2.00305
    175       1.3818      2.00305
    176       1.4893      2.02178
    177       1.5198      2.03306
    178       1.5199      2.03310
    179       1.9329      0.49097
    180       2.0504     -0.02472
    181       3.1756     -0.00000
    182       3.1756     -0.00000
    183       3.7177     -0.00000
    184       3.7177     -0.00000
    185       3.9702     -0.00000
    186       3.9702     -0.00000
    187       4.3932     -0.00000
    188       4.3932     -0.00000
    189       4.5083     -0.00000
    190       4.5083     -0.00000
    191       4.8575     -0.00000
    192       4.8575     -0.00000
    193       5.3684     -0.00000
    194       5.8721     -0.00000
    195       5.8721     -0.00000
    196       6.0926     -0.00000
    197       6.4013     -0.00000
    198       6.6235     -0.00000
    199       6.6235     -0.00000
    200       7.0988     -0.00000
    201       7.0988     -0.00000
    202       7.1658     -0.00000
    203       7.2841     -0.00000
    204       7.2842     -0.00000
    205       7.3589      0.00000
    206       7.3590      0.00000
    207       7.4421      0.00000
    208       7.4424      0.00000
    209       7.6773      0.00000
    210       7.6802      0.00000
    211       8.0085      0.00000
    212       8.6725      0.00000

 k-point   5 :       0.0625    0.1875    0.0625
  band No.  band energies     occupation 
      1      -4.4072      2.00000
      2      -3.4058      2.00000
      3      -3.4047      2.00000
      4      -3.3999      2.00000
      5      -3.3998      2.00000
      6      -3.3880      2.00000
      7      -3.3879      2.00000
      8      -3.3798      2.00000
      9      -3.3435      2.00000
     10      -3.3325      2.00000
     11      -3.3323      2.00000
     12      -3.2747      2.00000
     13      -3.0582      2.00000
     14      -3.0522      2.00000
     15      -3.0500      2.00000
     16      -3.0210      2.00000
     17      -2.9954      2.00000
     18      -2.9937      2.00000
     19      -2.9614      2.00000
     20      -2.9611      2.00000
     21      -2.9031      2.00000
     22      -2.9019      2.00000
     23      -2.8903      2.00000
     24      -2.8888      2.00000
     25      -2.8814      2.00000
     26      -2.8797      2.00000
     27      -2.8728      2.00000
     28      -2.8458      2.00000
     29      -2.8456      2.00000
     30      -2.8412      2.00000
     31      -2.8095      2.00000
     32      -2.8081      2.00000
     33      -2.7811      2.00000
     34      -2.7808      2.00000
     35      -2.7737      2.00000
     36      -2.7722      2.00000
     37      -2.7291      2.00000
     38      -2.7281      2.00000
     39      -2.7272      2.00000
     40      -2.6988      2.00000
     41      -2.6969      2.00000
     42      -2.6954      2.00000
     43      -2.6941      2.00000
     44      -2.5962      2.00000
     45      -2.5952      2.00000
[...]
    108      -1.7915      2.00000
    109      -1.7907      2.00000
    110      -1.7903      2.00000
    111      -1.7902      2.00000
    112      -1.7901      2.00000
    113      -1.7898      2.00000
    114      -1.7889      2.00000
    115      -1.7879      2.00000
    116      -1.7389      2.00000
    117      -1.7374      2.00000
    118      -1.7359      2.00000
    119      -1.6982      2.00000
    120      -1.6980      2.00000
    121      -1.6971      2.00000
    122      -1.6971      2.00000
    123      -1.6961      2.00000
    124      -1.6960      2.00000
    125      -1.6636      2.00000
    126      -1.6391      2.00000
    127      -1.6391      2.00000
    128      -1.6390      2.00000
    129      -1.6084      2.00000
    130      -1.6083      2.00000
    131      -1.5908      2.00000
    132      -1.5898      2.00000
    133      -1.5887      2.00000
    134      -1.5847      2.00000
    135      -1.5834      2.00000
    136      -1.5823      2.00000
    137      -1.5238      2.00000
    138      -1.5228      2.00000
    139      -1.5216      2.00000
    140      -1.4820      2.00000
    141      -1.4820      2.00000
    142      -1.4290      2.00000
    143      -1.4282      2.00000
    144      -1.4273      2.00000
    145      -1.0877      2.00000
    146      -1.0876      2.00000
    147      -1.0873      2.00000
    148      -1.0748      2.00000
    149      -1.0743      2.00000
    150      -1.0741      2.00000
    151      -1.0741      2.00000
    152      -1.0740      2.00000
    153      -1.0740      2.00000
    154      -1.0738      2.00000
    155      -1.0738      2.00000
    156      -1.0738      2.00000
    157      -1.0737      2.00000
    158      -1.0735      2.00000
    159      -1.0730      2.00000
    160      -1.0723      2.00000
    161      -1.0722      2.00000
    162      -1.0720      2.00000
    163      -1.0630      2.00000
    164      -1.0628      2.00000
    165      -1.0626      2.00000
    166      -1.0555      2.00000
    167      -1.0554      2.00000
    168      -1.0552      2.00000
    169       1.9409      0.43495
    170       1.9425      0.42417
    171       1.9440      0.41379
    172       2.2538     -0.02036
    173       2.2554     -0.01987
    174       2.2567     -0.01948
    175       2.2567     -0.01948
    176       2.2580     -0.01910
    177       2.2597     -0.01862
    178       2.5383     -0.00002
    179       2.5390     -0.00002
    180       2.5396     -0.00002
    181       2.7488     -0.00000
    182       2.7496     -0.00000
    183       2.7503     -0.00000
    184       3.0754     -0.00000
    185       3.0772     -0.00000
    186       3.0784     -0.00000
    187       3.0784     -0.00000
    188       3.0796     -0.00000
    189       3.0815     -0.00000
    190       3.3760     -0.00000
    191       3.3775     -0.00000
    192       3.3791     -0.00000
    193       6.1310     -0.00000
    194       6.1317     -0.00000
    195       6.1324     -0.00000
    196       6.4529     -0.00000
    197       6.4538     -0.00000
    198       6.4547     -0.00000
    199       6.8755     -0.00000
    200       6.8760     -0.00000
    201       6.8777     -0.00000
    202       6.8778     -0.00000
    203       6.8798     -0.00000
    204       6.8803     -0.00000
    205       7.2043     -0.00000
    206       7.2054     -0.00000
    207       7.2067     -0.00000
    208       7.2081     -0.00000
    209       7.2127     -0.00000
    210       7.5923      0.00000
    211       7.7289      0.00000
    212       7.9140      0.00000


--------------------------------------------------------------------------------------------------------


 soft charge-density along one line, spin component           1
         0         1         2         3         4         5         6         7         8         9
 total charge-density along one line
 
 pseudopotential strength for first ion, spin component:           1
-12.664   0.000  -0.000   0.000  -0.000   0.224  -0.000   0.000
  0.000 -12.664   0.000  -0.000  -0.000  -0.000   0.224  -0.000
 -0.000   0.000 -12.656   0.000  -0.000   0.000  -0.000   0.223
  0.000  -0.000   0.000 -12.664   0.000  -0.000   0.000  -0.000
 -0.000  -0.000  -0.000   0.000 -12.656   0.000   0.000   0.000
  0.224  -0.000   0.000  -0.000   0.000   0.440   0.000  -0.000
 -0.000   0.224  -0.000   0.000   0.000   0.000   0.440   0.000
  0.000  -0.000   0.223  -0.000   0.000  -0.000   0.000   0.440
 -0.000   0.000  -0.000   0.224  -0.000   0.000  -0.000   0.000
  0.000   0.000   0.000  -0.000   0.223  -0.000  -0.000  -0.000
  0.000  -0.000  -0.000  -0.000  -0.000   0.000   0.000   0.000
  0.000   0.000   0.000   0.000   0.000  -0.000  -0.000  -0.000
 -0.000   0.000  -0.000  -0.000  -0.000   0.000  -0.000   0.000
 -0.000   0.000   0.000  -0.000  -0.000   0.000  -0.000  -0.000
  0.000  -0.000   0.000   0.000  -0.000  -0.000   0.000  -0.000
  0.000  -0.000   0.000   0.000   0.000  -0.000   0.000  -0.000
  0.000  -0.000  -0.000   0.000   0.000  -0.000   0.000   0.000
 -0.000   0.000  -0.000  -0.000   0.000   0.000  -0.000   0.000
 total augmentation occupancy for first ion, spin component:           1
  1.945   0.000  -0.001   0.000  -0.000  -0.036  -0.000  -0.000  -0.000   0.000   0.004  -0.001  -0.000   0.000  -0.000  -0.000
  0.000   1.947  -0.001  -0.000  -0.001  -0.000  -0.038   0.001   0.000   0.000   0.003  -0.001   0.000  -0.000  -0.000  -0.000
 -0.001  -0.001   1.968  -0.001  -0.002  -0.000   0.001  -0.059   0.001   0.001   0.011   0.001  -0.000   0.000  -0.000  -0.000
  0.000  -0.000  -0.001   1.949  -0.000  -0.000   0.000   0.001  -0.041   0.001   0.002  -0.001   0.000  -0.000   0.000  -0.000
 -0.000  -0.001  -0.002  -0.000   1.962   0.000   0.000   0.001   0.001  -0.055   0.006   0.000   0.000   0.000  -0.000  -0.000
 -0.036  -0.000  -0.000  -0.000   0.000   0.045   0.000   0.001   0.000  -0.000  -0.001   0.001  -0.000  -0.000   0.000   0.000
 -0.000  -0.038   0.001   0.000   0.000   0.000   0.047  -0.001  -0.000   0.001  -0.000   0.001   0.000   0.000   0.000   0.000
 -0.000   0.001  -0.059   0.001   0.001   0.001  -0.001   0.040  -0.001  -0.001  -0.008   0.000   0.000  -0.000   0.000  -0.000
 -0.000   0.000   0.001  -0.041   0.001   0.000  -0.000  -0.001   0.048  -0.001   0.001   0.001  -0.000   0.000  -0.000   0.000
  0.000   0.000   0.001   0.001  -0.055  -0.000   0.001  -0.001  -0.001   0.038  -0.005   0.000  -0.000  -0.000  -0.000   0.000
  0.004   0.003   0.011   0.002   0.006  -0.001  -0.000  -0.008   0.001  -0.005   0.939  -0.273  -0.000  -0.000   0.000   0.000
 -0.001  -0.001   0.001  -0.001   0.000   0.001   0.001   0.000   0.001   0.000  -0.273   0.123   0.000   0.000  -0.000  -0.000
 -0.000   0.000  -0.000   0.000   0.000  -0.000   0.000   0.000  -0.000  -0.000  -0.000   0.000   0.074   0.001   0.002  -0.004
  0.000  -0.000   0.000  -0.000   0.000  -0.000   0.000  -0.000   0.000  -0.000  -0.000   0.000   0.001   0.078  -0.001  -0.000
 -0.000  -0.000  -0.000   0.000  -0.000   0.000   0.000   0.000  -0.000  -0.000   0.000  -0.000   0.002  -0.001   0.076  -0.000
 -0.000  -0.000  -0.000  -0.000  -0.000   0.000   0.000  -0.000   0.000   0.000   0.000  -0.000  -0.004  -0.000  -0.000   0.000
 -0.000   0.000  -0.000  -0.000  -0.000   0.000  -0.000   0.000   0.000   0.000   0.000   0.000  -0.000  -0.004  -0.000   0.000
  0.000   0.000   0.000   0.000  -0.000  -0.000  -0.000  -0.000  -0.000   0.000  -0.000   0.000  -0.000  -0.000  -0.004   0.000


------------------------ aborting loop because EDIFF is reached ----------------------------------------




--------------------------------------------------------------------------------------------------------


    CHARGE:  VPU time   18.92: CPU time   18.95
    FORLOC:  VPU time    0.08: CPU time    0.08
    FORNL :  VPU time  126.20: CPU time  126.39
    STRESS:  VPU time  515.13: CPU time  516.02
    FORCOR:  VPU time    0.52: CPU time    0.53
    FORHAR:  VPU time    0.17: CPU time    0.17
    MIXING:  VPU time    0.01: CPU time    0.01


--------------------------------------------------------------------------------------------------------



  FREE ENERGIE OF THE ION-ELECTRON SYSTEM (eV)
  ---------------------------------------------------
  free  energy   TOTEN  =       -87.187670 eV

  energy  without entropy=      -87.173206  energy(sigma->0) =      -87.182849
 

  FORCE on cell =-STRESS in cart. coord.  units (eV/reduce length):
  Direction    X        Y        Z        XY       YZ       ZX
  --------------------------------------------------------------------------------------
  Alpha Z   2687.59   2687.59   2687.59
  Ewald    -9706.42  -9706.30  -9706.30     -0.00     -0.00     -0.00
  Hartree   2410.12   2410.21   2410.21     -0.00     -0.00     -0.00
  E(xc)    -1851.16  -1851.16  -1851.16     -0.00     -0.00     -0.00
  Local     2915.30   2915.08   2915.08      0.00      0.00      0.00
  n-local  -2173.41  -2176.74  -2170.08      1.90      1.05      0.20
  augment   1335.10   1335.09   1335.09     -0.00     -0.00     -0.00
  Kinetic   4345.44   4339.93   4350.96      1.37     -0.18     -1.72
  -------------------------------------------------------------------------------------
  Total      -37.45    -37.46    -37.46     -0.00     -0.00     -0.00
  in kB      -88.69    -88.70    -88.70     -0.00     -0.00     -0.00
  external pressure =      -88.70 kB  Pullay stress =        0.00 kB


 VOLUME and BASIS-vectors are now :
 -----------------------------------------------------------------------------
  energy-cutoff  :      600.00
  volume of cell :      676.59
      direct lattice vectors                 reciprocal lattice vectors
     8.778937190  0.000000000  0.000000000     0.113909005 -0.000000002 -0.000000002
     0.000000160  8.778937190  0.000000000     0.000000000  0.113909005 -0.000000002
     0.000000160  0.000000160  8.778937190     0.000000000  0.000000000  0.113909005

  length of vectors
     8.778937190  8.778937190  8.778937190     0.113909005  0.113909005  0.113909005


 FORCES acting on ions
    electron-ion (+dipol)            ewald-force                    non-local-force                 convergence-correction
 -----------------------------------------------------------------------------------------------
   -.270E-01 -.134E+00 0.129E-07   0.296E-01 0.134E+00 -.138E-07   -.176E-02 0.591E-03 0.201E-20   -.324E-03 0.158E-03 -.121E-09
   -.864E+00 -.162E+01 0.719E-08   0.856E+00 0.161E+01 -.283E-09   0.103E-01 0.891E-02 -.388E-20   0.149E-02 0.145E-02 0.134E-09
   -.864E+00 0.277E-07 0.162E+01   0.856E+00 -.291E-07 -.161E+01   0.103E-01 -.162E-09 -.891E-02   0.149E-02 -.158E-09 -.145E-02
   -.270E-01 0.134E+00 -.715E-08   0.296E-01 -.134E+00 0.759E-08   -.176E-02 -.591E-03 0.479E-21   -.324E-03 -.158E-03 0.115E-09
   0.105E+01 -.761E-02 0.761E-02   -.105E+01 0.755E-02 -.755E-02   0.108E-02 0.612E-04 -.612E-04   0.729E-03 0.987E-05 -.987E-05
   0.557E+00 -.197E-08 -.364E-07   -.559E+00 0.150E-08 0.404E-07   0.811E-03 -.339E-19 -.212E-20   0.651E-03 -.314E-09 0.574E-09
   -.221E-01 0.135E+00 -.745E-08   0.247E-01 -.134E+00 0.791E-08   -.178E-02 -.575E-03 0.240E-20   -.302E-03 -.231E-03 0.115E-09
   -.864E+00 -.223E-07 -.162E+01   0.856E+00 0.291E-07 0.161E+01   0.103E-01 0.162E-09 0.891E-02   0.149E-02 0.160E-09 0.145E-02
   -.864E+00 0.162E+01 -.172E-08   0.856E+00 -.161E+01 0.232E-09   0.103E-01 -.891E-02 -.152E-21   0.149E-02 -.145E-02 -.132E-09
   -.270E-01 -.468E-08 0.134E+00   0.296E-01 0.516E-08 -.134E+00   -.176E-02 -.108E-10 -.591E-03   -.324E-03 0.112E-09 -.159E-03
   0.105E+01 -.761E-02 -.761E-02   -.105E+01 0.755E-02 0.755E-02   0.108E-02 0.612E-04 0.612E-04   0.729E-03 0.987E-05 0.987E-05
   0.673E+01 -.107E-06 0.141E-06   -.669E+01 0.116E-06 0.116E-06   -.652E-01 0.548E-20 -.145E-19   -.864E-02 -.629E-09 -.629E-09
   0.105E+01 0.761E-02 0.761E-02   -.105E+01 -.755E-02 -.755E-02   0.108E-02 -.612E-04 -.612E-04   0.729E-03 -.987E-05 -.987E-05
   0.232E+00 -.104E-07 -.104E-07   -.231E+00 0.107E-07 0.107E-07   -.238E-02 0.230E-19 0.126E-19   0.840E-03 0.263E-09 0.263E-09
   -.854E+00 0.164E+01 -.183E-08   0.846E+00 -.164E+01 0.257E-09   0.103E-01 -.905E-02 -.501E-20   0.146E-02 -.143E-02 -.131E-09
   -.854E+00 -.227E-07 -.164E+01   0.846E+00 0.296E-07 0.164E+01   0.103E-01 0.165E-09 0.905E-02   0.146E-02 0.201E-09 0.143E-02
   -.221E-01 -.135E+00 0.127E-07   0.247E-01 0.134E+00 -.135E-07   -.178E-02 0.575E-03 0.352E-20   -.302E-03 0.231E-03 -.160E-09
   -.590E+00 0.224E-02 -.224E-02   0.593E+00 -.226E-02 0.226E-02   -.101E-02 0.400E-04 -.400E-04   -.101E-02 -.246E-04 0.246E-04
   -.446E+00 0.194E-08 0.259E-07   0.439E+00 -.148E-08 -.255E-07   0.612E-02 -.777E-20 -.154E-19   0.114E-03 0.294E-09 -.482E-09
   -.270E-01 0.105E-07 -.134E+00   0.296E-01 -.113E-07 0.134E+00   -.176E-02 0.108E-10 0.591E-03   -.324E-03 -.118E-09 0.159E-03
   0.105E+01 0.761E-02 -.761E-02   -.105E+01 -.755E-02 0.755E-02   0.108E-02 -.612E-04 0.612E-04   0.729E-03 -.987E-05 0.987E-05
   0.557E+00 -.378E-07 -.192E-08   -.559E+00 0.404E-07 0.150E-08   0.811E-03 0.726E-21 0.474E-20   0.650E-03 0.574E-09 -.314E-09
   -.854E+00 0.280E-07 0.164E+01   0.846E+00 -.296E-07 -.164E+01   0.103E-01 -.165E-09 -.905E-02   0.146E-02 -.157E-09 -.143E-02
   -.854E+00 -.164E+01 0.727E-08   0.846E+00 0.164E+01 -.258E-09   0.103E-01 0.905E-02 0.108E-19   0.146E-02 0.143E-02 0.175E-09
   -.221E-01 0.103E-07 -.135E+00   0.247E-01 -.111E-07 0.134E+00   -.178E-02 0.105E-10 0.575E-03   -.302E-03 -.156E-09 0.231E-03
   -.590E+00 0.224E-02 0.224E-02   0.593E+00 -.226E-02 -.226E-02   -.101E-02 0.400E-04 0.400E-04   -.101E-02 -.246E-04 -.246E-04
   -.175E+01 0.391E-08 -.255E-06   0.177E+01 -.199E-08 -.199E-08   -.126E-01 0.589E-20 0.924E-20   -.176E-02 0.577E-09 0.576E-09
   -.590E+00 -.224E-02 -.224E-02   0.593E+00 0.226E-02 0.226E-02   -.101E-02 -.400E-04 -.400E-04   -.101E-02 0.246E-04 0.246E-04
   -.215E+00 0.921E-08 0.916E-08   0.216E+00 -.944E-08 -.944E-08   -.532E-04 -.865E-20 0.392E-20   -.588E-03 -.269E-09 -.269E-09
   -.221E-01 -.497E-08 0.135E+00   0.247E-01 0.546E-08 -.134E+00   -.178E-02 -.105E-10 -.575E-03   -.302E-03 0.111E-09 -.231E-03
   -.590E+00 -.224E-02 0.224E-02   0.593E+00 0.226E-02 -.226E-02   -.101E-02 -.400E-04 0.400E-04   -.101E-02 0.246E-04 -.246E-04
   -.446E+00 0.246E-07 0.200E-08   0.439E+00 -.255E-07 -.148E-08   0.612E-02 0.125E-19 -.262E-21   0.114E-03 -.482E-09 0.294E-09
 -----------------------------------------------------------------------------------------------
   -.650E-03 -.365E-10 -.181E-08   -.108E-12 0.309E-13 -.563E-13   0.202E-02 0.171E-17 -.197E-18   -.446E-03 -.333E-10 -.350E-10
 
 
 POSITION                                       TOTAL-FORCE (eV/Angst)
 -----------------------------------------------------------------------------------
      6.58420      6.58420      4.38947         0.000485      0.000073      0.000000
      6.58420      6.58420      0.00000         0.003361      0.004078     -0.000000
      6.58420      0.00000      2.19473         0.003361     -0.000000     -0.004078
      6.58420      2.19473      4.38947         0.000485     -0.000073      0.000000
      0.00000      6.58420      2.19473        -0.000919      0.000011     -0.000011
      0.00000      0.00000      4.38947        -0.000633     -0.000000      0.000000
      2.19473      6.58420      4.38947         0.000488     -0.000072     -0.000000
      6.58420      0.00000      6.58420         0.003361      0.000000      0.004078
      6.58420      2.19473      0.00000         0.003361     -0.004078      0.000000
      6.58420      4.38947      2.19473         0.000485     -0.000000     -0.000073
      0.00000      6.58420      6.58420        -0.000919      0.000011      0.000011
      0.02000      0.00000      0.00000        -0.031825      0.000000      0.000000
      0.00000      2.19473      2.19473        -0.000919     -0.000011     -0.000011
      0.00000      4.38947      4.38947        -0.000030     -0.000000     -0.000000
      2.19473      6.58420      0.00000         0.003732     -0.004544     -0.000000
      2.19473      0.00000      2.19473         0.003732      0.000000      0.004544
      2.19473      2.19473      4.38947         0.000488      0.000072      0.000000
      4.38947      6.58420      2.19473         0.001161     -0.000007      0.000007
      4.38947      0.00000      4.38947        -0.001060      0.000000      0.000000
      6.58420      4.38947      6.58420         0.000485      0.000000      0.000073
      0.00000      2.19473      6.58420        -0.000919     -0.000011      0.000011
      0.00000      4.38947      0.00000        -0.000633      0.000000      0.000000
      2.19473      0.00000      6.58420         0.003732     -0.000000     -0.004544
      2.19473      2.19473      0.00000         0.003732      0.004544     -0.000000
      2.19473      4.38947      2.19473         0.000488      0.000000      0.000072
      4.38947      6.58420      6.58420         0.001161     -0.000007     -0.000007
      4.38947      0.00000      0.00000         0.002314     -0.000000      0.000000
      4.38947      2.19473      2.19473         0.001161      0.000007      0.000007
      4.38947      4.38947      4.38947        -0.000305      0.000000     -0.000000
      2.19473      4.38947      6.58420         0.000488     -0.000000     -0.000072
      4.38947      2.19473      6.58420         0.001161      0.000007     -0.000007
      4.38947      4.38947      0.00000        -0.001060      0.000000     -0.000000
 -----------------------------------------------------------------------------------
    total drift:                                0.000921     -0.000000     -0.000000


--------------------------------------------------------------------------------------------------------



 mean value of Nose-termostat <S>:     1.000 mean value of <T> :     0.000
 mean temperature <T/S>/<1/S>  :     0.000

     LOOP+:  VPU time 2439.59: CPU time 2443.81

 ----------------------------------------------------------------------------- 
|                                                                             |
|           W    W    AA    RRRRR   N    N  II  N    N   GGGG   !!!           |
|           W    W   A  A   R    R  NN   N  II  NN   N  G    G  !!!           |
|           W    W  A    A  R    R  N N  N  II  N N  N  G       !!!           |
|           W WW W  AAAAAA  RRRRR   N  N N  II  N  N N  G  GGG   !            |
|           WW  WW  A    A  R   R   N   NN  II  N   NN  G    G                |
|           W    W  A    A  R    R  N    N  II  N    N   GGGG   !!!           |
|                                                                             |
|      The partial DOS and the PROCAR file are not evaluated for NPAR/=1      |
|      please rerun with NPAR=1                                               |
|                                                                             |
 ----------------------------------------------------------------------------- 

  
  
 General timing and accounting informations for this job:
 ========================================================
  
                  Total CPU time used (sec):     2491.265
                            User time (sec):     2457.853
                          System time (sec):       33.412
                         Elapsed time (sec):     2495.673
  
                   Maximum memory used (kb):     3938432.
                   Average memory used (kb):           0.
  
                          Minor page faults:       731456
                          Major page faults:            0
                 Voluntary context switches:          917
