 vasp.4.6.28 25Jul05 complex 
 executed on             LinuxIFC date 2017.01.20  23:15:28
 running on    4 nodes
 distr:  one band on    1 nodes,    4 groups


--------------------------------------------------------------------------------------------------------


 INCAR:
 POTCAR:   PAW_PBE Ag 06Sep2000                   
 POTCAR:   PAW_PBE Ag 06Sep2000                   
   VRHFIN =Ag : s1 d10                                                          
   LEXCH  = PE                                                                  
   EATOM  =  1037.4134 eV,   76.2477 Ry                                         
                                                                                
   TITEL  = PAW_PBE Ag 06Sep2000                                                
   LULTRA =        F    use ultrasoft PP ?                                      
   IUNSCR =        1    unscreen: 0-lin 1-nonlin 2-no                           
   RPACOR =    2.000    partial core radius                                     
   POMASS =  107.868; ZVAL   =   11.000    mass and valenz                      
   RCORE  =    2.400    outmost cutoff radius                                   
   RWIGS  =    2.840; RWIGS  =    1.503    wigner-seitz radius (au A)           
   ENMAX  =  249.846; ENMIN  =  187.385 eV                                      
   RCLOC  =    1.962    cutoff for local pot                                    
   LCOR   =        T    correct aug charges                                     
   LPAW   =        T    paw PP                                                  
   EAUG   =  412.496                                                            
   DEXC   =    -.047                                                            
   RMAX   =    2.917    core radius for proj-oper                               
   RAUG   =    1.300    factor for augmentation sphere                          
   RDEP   =    2.416    radius for radial grids                                 
   QCUT   =   -4.285; QGAM   =    8.570    optimization parameters              
                                                                                
   Description                                                                  
     l     E      TYP  RCUT    TYP  RCUT                                        
     2   .000     23  2.400                                                     
     2   .000     23  2.400                                                     
     0   .000     23  2.400                                                     
     0   .000     23  2.400                                                     
     1  -.200     23  2.400                                                     
     1  1.500     23  2.400                                                     
     3   .000      7   .000                                                     
  local pseudopotential read in
  partial core-charges read in
  atomic valenz-charges read in
  non local Contribution for L=           2  read in
    real space projection operators read in
  non local Contribution for L=           2  read in
    real space projection operators read in
  non local Contribution for L=           0  read in
    real space projection operators read in
  non local Contribution for L=           0  read in
    real space projection operators read in
  non local Contribution for L=           1  read in
    real space projection operators read in
  non local Contribution for L=           1  read in
    real space projection operators read in
    PAW grid and wavefunctions read in
 
   number of l-projection  operators is LMAX  =           6
   number of lm-projection operators is LMMAX =          18
 

 ----------------------------------------------------------------------------- 
|                                                                             |
|  ADVICE TO THIS USER RUNNING 'VASP/VAMP'   (HEAR YOUR MASTER'S VOICE ...):  |
|                                                                             |
|      You have a (more or less) 'large supercell' and for larger cells       |
|      it might be more efficient to use real space projection operators      |
|      So try LREAL= Auto  in the INCAR   file.                               |
|      Mind: If you want to do an extremely accurate calculations keep the    |
|      reciprocal projection scheme          (i.e. LREAL=.FALSE.)             |
|                                                                             |
 ----------------------------------------------------------------------------- 

 PAW_PBE Ag 06Sep2000                   :
 energy of atom  1       EATOM=-1037.4134
 kinetic energy error for atom=    0.0019 (will be added to EATOM!!)
 
 EXHCAR: internal setup
 exchange correlation table for  LEXCH =        8
   RHO(1)=    0.500       N(1)  =     2000
   RHO(2)=  100.500       N(2)  =     4000
 
 POSCAR: No title                                
  positions in direct lattice
  No initial velocities read in
 


--------------------------------------------------------------------------------------------------------


 ion  position               nearest neighbor table
   1  0.750  0.750  0.500-   3 3.06   5 3.06  14 3.06  19 3.06  20 3.06  26 3.06   6 3.06  29 3.06
                            11 3.06  18 3.06  10 3.06   8 3.06
   2  0.750  0.750  0.000-  12 3.05  10 3.06  11 3.06   8 3.06  18 3.06  22 3.06  27 3.06  32 3.06
                             5 3.06  26 3.06   3 3.06  20 3.06
   3  0.750  0.000  0.250-  12 3.05   5 3.06   9 3.06   1 3.06  19 3.06  28 3.06  13 3.06  18 3.06
                            27 3.06   6 3.06   4 3.06   2 3.06
   4  0.750  0.250  0.500-   6 3.06   8 3.06  10 3.06  13 3.06  29 3.06  31 3.06  14 3.06  19 3.06
                            21 3.06  28 3.06   3 3.06  20 3.06
   5  0.000  0.750  0.250-   1 3.06   3 3.06  14 3.06  15 3.06  25 3.06  16 3.06  10 3.06   7 3.06
                             2 3.06  22 3.06   6 3.06  12 3.06
   6  0.000  0.000  0.500-   4 3.06   7 3.06   8 3.06  11 3.06  13 3.06  16 3.06   1 3.06  17 3.06
                             3 3.06  23 3.06  21 3.06   5 3.06
   7  0.250  0.750  0.500-   6 3.06  11 3.06  16 3.06  18 3.06  29 3.06  30 3.06  14 3.06  19 3.06
                             5 3.06  26 3.06  25 3.06  23 3.06
   8  0.750  0.000  0.750-  12 3.05   4 3.06   6 3.06  11 3.06   2 3.06  27 3.06  31 3.06  21 3.06
                            26 3.06  19 3.06   9 3.06   1 3.06
   9  0.750  0.250  0.000-  12 3.05   3 3.06  20 3.06  21 3.06  28 3.06  32 3.06  22 3.06  27 3.06
                            31 3.06  13 3.06  10 3.06   8 3.06
  10  0.750  0.500  0.250-   2 3.06   4 3.06  13 3.06  18 3.06  22 3.06  29 3.06  28 3.06   5 3.06
                            14 3.06  32 3.06   9 3.06   1 3.06
  11  0.000  0.750  0.750-   2 3.06   6 3.06   7 3.06   8 3.06  22 3.06  30 3.06  23 3.06  20 3.06
                             1 3.06  15 3.06  14 3.06  12 3.06
  12  0.998  0.000  0.000-   3 3.05   9 3.05   2 3.05   8 3.05   5 3.06  21 3.06  11 3.06  13 3.06
                            15 3.08  23 3.08  16 3.08  24 3.08
  13  0.000  0.250  0.250-   4 3.06   6 3.06  10 3.06  16 3.06  22 3.06  24 3.06   3 3.06  25 3.06
                            17 3.06   9 3.06  14 3.06  12 3.06
  14  0.000  0.500  0.500-   1 3.06   5 3.06  17 3.06  20 3.06  21 3.06  25 3.06   4 3.06   7 3.06
                            10 3.06  30 3.06  13 3.06  11 3.06
  15  0.250  0.750  0.000-   5 3.06  23 3.06  25 3.06  26 3.06  32 3.06  27 3.06  22 3.06  11 3.06
                            18 3.06  30 3.06  16 3.06  12 3.08
  16  0.250  0.000  0.250-   6 3.06   7 3.06  13 3.06  18 3.06  24 3.06  27 3.06   5 3.06  28 3.06
                            19 3.06  17 3.06  15 3.06  12 3.08
  17  0.250  0.250  0.500-  14 3.06  19 3.06  21 3.06  23 3.06  25 3.06  28 3.06   6 3.06  29 3.06
                            13 3.06  31 3.06  30 3.06  16 3.06
  18  0.500  0.750  0.250-   2 3.06   7 3.06  10 3.06  16 3.06  27 3.06  29 3.06   3 3.06  25 3.06
                             1 3.06  15 3.06  19 3.06  32 3.06
  19  0.500  0.000  0.500-   1 3.06   3 3.06  17 3.06  23 3.06  26 3.06  28 3.06   4 3.06   7 3.06
                             8 3.06  16 3.06  18 3.06  31 3.06
  20  0.750  0.500  0.750-   1 3.06   9 3.06  14 3.06  21 3.06  26 3.06  32 3.06  31 3.06  11 3.06
                            22 3.06  29 3.06   4 3.06   2 3.06
  21  0.000  0.250  0.750-   9 3.06  14 3.06  17 3.06  20 3.06  23 3.06   8 3.06  30 3.06  24 3.06
                             4 3.06  22 3.06   6 3.06  12 3.06
  22  0.000  0.500  0.000-   2 3.06  10 3.06  11 3.06  13 3.06  24 3.06  30 3.06   9 3.06  15 3.06
                            25 3.06  20 3.06  21 3.06   5 3.06
  23  0.250  0.000  0.750-  15 3.06  17 3.06  19 3.06  21 3.06  26 3.06  11 3.06  31 3.06  27 3.06
                             6 3.06  24 3.06   7 3.06  12 3.08
  24  0.250  0.250  0.000-  13 3.06  16 3.06  22 3.06  27 3.06  30 3.06  31 3.06  32 3.06  28 3.06
                            21 3.06  25 3.06  23 3.06  12 3.08
  25  0.250  0.500  0.250-   5 3.06  14 3.06  15 3.06  17 3.06  28 3.06  32 3.06  13 3.06  18 3.06
                            29 3.06  22 3.06  24 3.06   7 3.06
  26  0.500  0.750  0.750-   1 3.06  15 3.06  19 3.06  20 3.06  23 3.06  32 3.06  30 3.06   8 3.06
                             7 3.06   2 3.06  27 3.06  29 3.06
  27  0.500  0.000  0.000-   2 3.06   8 3.06  16 3.06  18 3.06  24 3.06  31 3.06   9 3.06  15 3.06
                             3 3.06  23 3.06  28 3.06  26 3.06
  28  0.500  0.250  0.250-   3 3.06   9 3.06  17 3.06  19 3.06  25 3.06  32 3.06  10 3.06  16 3.06
                             4 3.06  24 3.06  29 3.06  27 3.06
  29  0.500  0.500  0.500-   4 3.06   7 3.06  10 3.06  18 3.06  30 3.06  31 3.06  17 3.06   1 3.06
                            20 3.06  25 3.06  26 3.06  28 3.06
  30  0.250  0.500  0.750-   7 3.06  11 3.06  22 3.06  24 3.06  29 3.06  31 3.06  21 3.06  26 3.06
                            14 3.06  32 3.06  17 3.06  15 3.06
  31  0.500  0.250  0.750-   4 3.06   8 3.06  24 3.06  27 3.06  29 3.06  30 3.06  20 3.06  23 3.06
                             9 3.06  17 3.06  19 3.06  32 3.06
  32  0.500  0.500  0.000-   9 3.06  15 3.06  20 3.06  25 3.06  26 3.06  28 3.06  24 3.06   2 3.06
                            10 3.06  30 3.06  18 3.06  31 3.06
 
  LATTYP: Found a simple cubic cell.
 ALAT       =     8.6606397800
  
  Lattice vectors:
  
 A1 = (   8.6606397800,   0.0000000000,   0.0000000000)
 A2 = (   0.0000001600,   8.6606397800,   0.0000000000)
 A3 = (   0.0000001600,   0.0000001600,   8.6606397800)
 Subroutine PRICEL returns:
 Original cell was already a primitive cell.
 

Analysis of symmetry for initial positions (statically):

 Routine SETGRP: Setting up the symmetry group for a 
 simple cubic supercell.


 Subroutine GETGRP returns: Found  8 space group operations
 (whereof  8 operations were pure point group operations)
 out of a pool of 48 trial point group operations.


The static configuration has the point symmetry C_4v.

Analysis of symmetry for dynamics (positions and initial velocities):

 Subroutine DYNSYM returns: Found  8 space group operations
 (whereof  8 operations were pure point group operations)
 out of a pool of  8 trial space group operations
 (whereof  8 operations were pure point group operations)
 and found also     1 'primitive' translations


The dynamic configuration has the point symmetry C_4v.
 
 
 KPOINTS: Automatic mesh                          

Automatic generation of k-mesh.
 
 Subroutine IBZKPT returns following result:
 ===========================================
 
 Found     40 irreducible k-points:
 
 Following reciprocal coordinates:
            Coordinates               Weight
  0.062500  0.062500  0.062500      8.000000
  0.187500  0.062500  0.062500      8.000000
  0.312500  0.062500  0.062500      8.000000
  0.437500  0.062500  0.062500      8.000000
  0.062500  0.187500  0.062500     16.000000
  0.187500  0.187500  0.062500     16.000000
  0.312500  0.187500  0.062500     16.000000
  0.437500  0.187500  0.062500     16.000000
  0.062500  0.312500  0.062500     16.000000
  0.187500  0.312500  0.062500     16.000000
  0.312500  0.312500  0.062500     16.000000
  0.437500  0.312500  0.062500     16.000000
  0.062500  0.437500  0.062500     16.000000
  0.187500  0.437500  0.062500     16.000000
  0.312500  0.437500  0.062500     16.000000
  0.437500  0.437500  0.062500     16.000000
  0.062500  0.187500  0.187500      8.000000
  0.187500  0.187500  0.187500      8.000000
  0.312500  0.187500  0.187500      8.000000
  0.437500  0.187500  0.187500      8.000000
  0.062500  0.312500  0.187500     16.000000
  0.187500  0.312500  0.187500     16.000000
  0.312500  0.312500  0.187500     16.000000
  0.437500  0.312500  0.187500     16.000000
  0.062500  0.437500  0.187500     16.000000
  0.187500  0.437500  0.187500     16.000000
  0.312500  0.437500  0.187500     16.000000
  0.437500  0.437500  0.187500     16.000000
  0.062500  0.312500  0.312500      8.000000
  0.187500  0.312500  0.312500      8.000000
  0.312500  0.312500  0.312500      8.000000
  0.437500  0.312500  0.312500      8.000000
  0.062500  0.437500  0.312500     16.000000
  0.187500  0.437500  0.312500     16.000000
  0.312500  0.437500  0.312500     16.000000
  0.437500  0.437500  0.312500     16.000000
  0.062500  0.437500  0.437500      8.000000
  0.187500  0.437500  0.437500      8.000000
  0.312500  0.437500  0.437500      8.000000
  0.437500  0.437500  0.437500      8.000000
 
 Following cartesian coordinates:
            Coordinates               Weight
  0.007217  0.007217  0.007217      8.000000
  0.021650  0.007217  0.007217      8.000000
  0.036083  0.007217  0.007217      8.000000
  0.050516  0.007217  0.007217      8.000000
  0.007217  0.021650  0.007217     16.000000
  0.021650  0.021650  0.007217     16.000000
  0.036083  0.021650  0.007217     16.000000
  0.050516  0.021650  0.007217     16.000000
  0.007217  0.036083  0.007217     16.000000
  0.021650  0.036083  0.007217     16.000000
  0.036083  0.036083  0.007217     16.000000
  0.050516  0.036083  0.007217     16.000000
  0.007217  0.050516  0.007217     16.000000
  0.021650  0.050516  0.007217     16.000000
  0.036083  0.050516  0.007217     16.000000
  0.050516  0.050516  0.007217     16.000000
  0.007217  0.021650  0.021650      8.000000
  0.021650  0.021650  0.021650      8.000000
  0.036083  0.021650  0.021650      8.000000
  0.050516  0.021650  0.021650      8.000000
  0.007217  0.036083  0.021650     16.000000
  0.021650  0.036083  0.021650     16.000000
  0.036083  0.036083  0.021650     16.000000
  0.050516  0.036083  0.021650     16.000000
  0.007217  0.050516  0.021650     16.000000
  0.021650  0.050516  0.021650     16.000000
  0.036083  0.050516  0.021650     16.000000
  0.050516  0.050516  0.021650     16.000000
  0.007217  0.036083  0.036083      8.000000
  0.021650  0.036083  0.036083      8.000000
  0.036083  0.036083  0.036083      8.000000
  0.050516  0.036083  0.036083      8.000000
  0.007217  0.050516  0.036083     16.000000
  0.021650  0.050516  0.036083     16.000000
  0.036083  0.050516  0.036083     16.000000
  0.050516  0.050516  0.036083     16.000000
  0.007217  0.050516  0.050516      8.000000
  0.021650  0.050516  0.050516      8.000000
  0.036083  0.050516  0.050516      8.000000
  0.050516  0.050516  0.050516      8.000000
 


--------------------------------------------------------------------------------------------------------




 Dimension of arrays:
   k-Points           NKPTS =     40   number of bands    NBANDS=    212
   number of dos      NEDOS =    301   number of ions     NIONS =     32
   non local maximal  LDIM  =      6   non local SUM 2l+1 LMDIM =     18
   total plane-waves  NPLWV = 343000
   max r-space proj   IRMAX =      1   max aug-charges    IRDMAX= 207869
   dimension x,y,z NGX =    70 NGY =   70 NGZ =   70
   dimension x,y,z NGXF=   140 NGYF=  140 NGZF=  140
   support grid    NGXF=   280 NGYF=  280 NGZF=  280
   ions per type =              32
 NGX,Y,Z   is equivalent  to a cutoff of  13.44, 13.44, 13.44 a.u.
 NGXF,Y,Z  is equivalent  to a cutoff of  26.87, 26.87, 26.87 a.u.


 I would recommend the setting:
   dimension x,y,z NGX =    69 NGY =   69 NGZ =   69
 SYSTEM =  No title                                
 POSCAR =  No title                                

 Startparameter for this run:
   NWRITE =      2    write-flag & timer
   PREC   = accura    medium, high low
   ISTART =      1    job   : 0-new  1-cont  2-samecut
   ICHARG =      0    charge: 1-file 2-atom 10-const
   ISPIN  =      1    spin polarized calculation?
   LNONCOLLINEAR =      F non collinear calculations
   LSORBIT =      F    spin-orbit coupling
   INIWAV =      1    electr: 0-lowe 1-rand  2-diag
   LASPH  =      F    aspherical Exc in radial PAW
   METAGGA=      F    non-selfconsistent MetaGGA calc.

 Electronic Relaxation 1
   ENCUT  =  600.0 eV  44.10 Ry    6.64 a.u.  17.30 17.30 17.30*2*pi/ulx,y,z
   ENINI  =  600.0     initial cutoff
   ENAUG  =  412.5 eV  augmentation charge cutoff
   NELM   =     60;   NELMIN=  2; NELMDL=  0     # of ELM steps 
   EDIFF  = 0.1E-04   stopping-criterion for ELM
   LREAL  =      F    real-space projection
   LCOMPAT=      F    compatible to vasp.4.4
   LREAL_COMPAT= F    compatible to vasp.4.5.1-3
   GGA_COMPAT  = T    GGA compatible to vasp.4.4-vasp.4.6
   LMAXPAW     = -100 max onsite density
   LMAXMIX     =    2 max onsite mixed and CHGCAR
   VOSKOWN=      1    Vosko Wilk Nusair interpolation
   ROPT   =    0.00000
 Ionic relaxation
   EDIFFG = -.2E-01   stopping-criterion for IOM
   NSW    =      0    number of steps for IOM
   NBLOCK =      1;   KBLOCK =      1    inner block; outer block 
   IBRION =     -1    ionic relax: 0-MD 1-quasi-New 2-CG
   NFREE  =      0    steps in history (QN), initial steepest desc. (CG)
   ISIF   =      2    stress and relaxation
   IWAVPR =     10    prediction:  0-non 1-charg 2-wave 3-comb
   ISYM   =      2    0-nonsym 1-usesym 2-fastsym
   LCORR  =      T    Harris-Foulkes like correction to forces

   POTIM  =   0.50    time-step for ionic-motion
   TEIN   =    0.0    initial temperature
   TEBEG  =    0.0;   TEEND  =   0.0 temperature during run
   SMASS  =  -3.00    Nose mass-parameter (am)
   estimated Nose-frequenzy (Omega)   =  0.10E-29 period in steps =****** mass=  -0.171E-26a.u.
   NPACO  =    256;   APACO  = 16.0  distance and # of slots for P.C.
   PSTRESS=    0.0 pullay stress

  Mass of Ions in am
   POMASS = 107.87
  Ionic Valenz
   ZVAL   =  11.00
  Atomic Wigner-Seitz radii
   RWIGS  =   1.34
   NELECT =     352.0000    total number of electrons
   NUPDOWN=      -1.0000    fix difference up-down

 DOS related values:
   EMIN   =  10.00;   EMAX   =-10.00  energy-range for DOS
   ISMEAR =     1;   SIGMA  =   0.20  broadening in eV -4-tet -1-fermi 0-gaus

 Electronic relaxation 2 (details)
   IALGO  =     48    algorithm
   LDIAG  =      T    sub-space diagonalisation
   IMIX   =      4    mixing-type and parameters
     AMIX     =   0.40;   BMIX     =  1.00
     AMIX_MAG =   1.60;   BMIX_MAG =  1.00
     AMIN     =   0.10
     WC   =   100.;   INIMIX=   1;  MIXPRE=   1

 Intra band minimization:
   WEIMIN = 0.0000     energy-eigenvalue tresh-hold
   EBREAK =  0.12E-07  absolut break condition
   DEPER  =   0.30     relativ break condition  

   TIME   =   0.10     timestep for ELM

  volume/ion in A,a.u.               =      20.30       136.99
  Fermi-wavevector in a.u.,eV,Ry     =   1.334665 24.236490  1.781332

 Second variation
   LSECVAR=     F    do a second variation
 
 Write flags
   LWAVE  =      F    write WAVECAR
   LCHARG =      F    write CHGCAR
   LVTOT  =      F    write LOCPOT, local potential
   LELF   =      F    write electronic localiz. function (ELF)
   LORBIT =      0    0 simple, 1 ext, 2 COOP (PROOUT)


 Dipole corrections
   IDIPOL =      0    1-x, 2-y, 3-z
   LDIPOL =      F    correct potential



--------------------------------------------------------------------------------------------------------


 Static calculation
 charge density will be updated during run
 non-spin polarized calculation
 RMM-DIIS sequential band-by-band
 performe sub-space diagonalisation
    before iterative eigenvector-optimisation
 modified Broyden-mixing scheme, WC =      100.0
 initial mixing is a Kerker type mixing with AMIX =  0.4000 and BMIX =      1.0000
 Hartree-type preconditioning will be used
 using additional bands           36
 reciprocal scheme for non local part
 use partial core corrections
 calculate Harris-corrections to forces 
   (improved forces if not selfconsistent)
 use gradient corrections 
 use of overlap-Matrix (Vanderbilt PP)
 Methfessel and Paxton  Order N= 1 SIGMA  =   0.20


--------------------------------------------------------------------------------------------------------


  energy-cutoff  :      600.00
  volume of cell :      649.61
      direct lattice vectors                 reciprocal lattice vectors
     8.660639780  0.000000000  0.000000000     0.115464911 -0.000000002 -0.000000002
     0.000000160  8.660639780  0.000000000     0.000000000  0.115464911 -0.000000002
     0.000000160  0.000000160  8.660639780     0.000000000  0.000000000  0.115464911

  length of vectors
     8.660639780  8.660639780  8.660639780     0.115464911  0.115464911  0.115464911


 
 old parameters found on file WAVECAR:
  energy-cutoff  :      600.00
  volume of cell :      649.61
      direct lattice vectors                 reciprocal lattice vectors
     8.660639780  0.000000000  0.000000000     0.115464911 -0.000000002 -0.000000002
     0.000000160  8.660639780  0.000000000     0.000000000  0.115464911 -0.000000002
     0.000000160  0.000000160  8.660639780     0.000000000  0.000000000  0.115464911

  length of vectors

 
 k-points in units of 2pi/SCALE and weight: Automatic mesh                          
   0.00721656  0.00721656  0.00721656       0.016
   0.02164967  0.00721656  0.00721656       0.016
   0.03608278  0.00721656  0.00721656       0.016
   0.05051590  0.00721656  0.00721656       0.016
   0.00721656  0.02164967  0.00721656       0.031
   0.02164967  0.02164967  0.00721656       0.031
   0.03608278  0.02164967  0.00721656       0.031
   0.05051590  0.02164967  0.00721656       0.031
   0.00721656  0.03608278  0.00721656       0.031
   0.02164967  0.03608278  0.00721656       0.031
   0.03608278  0.03608278  0.00721656       0.031
   0.05051590  0.03608278  0.00721656       0.031
   0.00721656  0.05051590  0.00721656       0.031
   0.02164967  0.05051590  0.00721656       0.031
   0.03608278  0.05051590  0.00721656       0.031
   0.05051590  0.05051590  0.00721656       0.031
   0.00721656  0.02164967  0.02164967       0.016
   0.02164967  0.02164967  0.02164967       0.016
   0.03608278  0.02164967  0.02164967       0.016
   0.05051590  0.02164967  0.02164967       0.016
   0.00721656  0.03608278  0.02164967       0.031
   0.02164967  0.03608278  0.02164967       0.031
   0.03608278  0.03608278  0.02164967       0.031
   0.05051590  0.03608278  0.02164967       0.031
   0.00721656  0.05051590  0.02164967       0.031
   0.02164967  0.05051590  0.02164967       0.031
   0.03608278  0.05051590  0.02164967       0.031
   0.05051590  0.05051590  0.02164967       0.031
   0.00721656  0.03608278  0.03608278       0.016
   0.02164967  0.03608278  0.03608278       0.016
   0.03608278  0.03608278  0.03608278       0.016
   0.05051590  0.03608278  0.03608278       0.016
   0.00721656  0.05051590  0.03608278       0.031
   0.02164967  0.05051590  0.03608278       0.031
   0.03608278  0.05051590  0.03608278       0.031
   0.05051590  0.05051590  0.03608278       0.031
   0.00721656  0.05051590  0.05051590       0.016
   0.02164967  0.05051590  0.05051590       0.016
   0.03608278  0.05051590  0.05051590       0.016
   0.05051590  0.05051590  0.05051590       0.016
 
 k-points in reciprocal lattice and weights: Automatic mesh                          
   0.06250000  0.06250000  0.06250000       0.016
   0.18750000  0.06250000  0.06250000       0.016
   0.31250000  0.06250000  0.06250000       0.016
   0.43750000  0.06250000  0.06250000       0.016
   0.06250000  0.18750000  0.06250000       0.031
   0.18750000  0.18750000  0.06250000       0.031
   0.31250000  0.18750000  0.06250000       0.031
   0.43750000  0.18750000  0.06250000       0.031
   0.06250000  0.31250000  0.06250000       0.031
   0.18750000  0.31250000  0.06250000       0.031
   0.31250000  0.31250000  0.06250000       0.031
   0.43750000  0.31250000  0.06250000       0.031
   0.06250000  0.43750000  0.06250000       0.031
   0.18750000  0.43750000  0.06250000       0.031
   0.31250000  0.43750000  0.06250000       0.031
   0.43750000  0.43750000  0.06250000       0.031
   0.06250000  0.18750000  0.18750000       0.016
   0.18750000  0.18750000  0.18750000       0.016
   0.31250000  0.18750000  0.18750000       0.016
   0.43750000  0.18750000  0.18750000       0.016
   0.06250000  0.31250000  0.18750000       0.031
   0.18750000  0.31250000  0.18750000       0.031
   0.31250000  0.31250000  0.18750000       0.031
   0.43750000  0.31250000  0.18750000       0.031
   0.06250000  0.43750000  0.18750000       0.031
   0.18750000  0.43750000  0.18750000       0.031
   0.31250000  0.43750000  0.18750000       0.031
   0.43750000  0.43750000  0.18750000       0.031
   0.06250000  0.31250000  0.31250000       0.016
   0.18750000  0.31250000  0.31250000       0.016
   0.31250000  0.31250000  0.31250000       0.016
   0.43750000  0.31250000  0.31250000       0.016
   0.06250000  0.43750000  0.31250000       0.031
   0.18750000  0.43750000  0.31250000       0.031
   0.31250000  0.43750000  0.31250000       0.031
   0.43750000  0.43750000  0.31250000       0.031
   0.06250000  0.43750000  0.43750000       0.016
   0.18750000  0.43750000  0.43750000       0.016
   0.31250000  0.43750000  0.43750000       0.016
   0.43750000  0.43750000  0.43750000       0.016
 
 position of ions in fractional coordinates (direct lattice) 
   0.75000000  0.75000000  0.50000000
   0.75000000  0.75000000  0.00000000
   0.75000000  0.00000000  0.25000000
   0.75000000  0.25000000  0.50000000
   0.00000000  0.75000000  0.25000000
   0.00000000  0.00000000  0.50000000
   0.25000000  0.75000000  0.50000000
   0.75000000  0.00000000  0.75000000
   0.75000000  0.25000000  0.00000000
   0.75000000  0.50000000  0.25000000
   0.00000000  0.75000000  0.75000000
   0.99769100  0.00000000  0.00000000
   0.00000000  0.25000000  0.25000000
   0.00000000  0.50000000  0.50000000
   0.25000000  0.75000000  0.00000000
   0.25000000  0.00000000  0.25000000
   0.25000000  0.25000000  0.50000000
   0.50000000  0.75000000  0.25000000
   0.50000000  0.00000000  0.50000000
   0.75000000  0.50000000  0.75000000
   0.00000000  0.25000000  0.75000000
   0.00000000  0.50000000  0.00000000
   0.25000000  0.00000000  0.75000000
   0.25000000  0.25000000  0.00000000
   0.25000000  0.50000000  0.25000000
   0.50000000  0.75000000  0.75000000
   0.50000000  0.00000000  0.00000000
   0.50000000  0.25000000  0.25000000
   0.50000000  0.50000000  0.50000000
   0.25000000  0.50000000  0.75000000
   0.50000000  0.25000000  0.75000000
   0.50000000  0.50000000  0.00000000
 
 position of ions in cartesian coordinates  (Angst):
   6.49548004  6.49547992  4.33031989
   6.49547996  6.49547984  0.00000000
   6.49547988  0.00000004  2.16515995
   6.49547996  2.16516003  4.33031989
   0.00000016  6.49547988  2.16515995
   0.00000008  0.00000008  4.33031989
   2.16516015  6.49547992  4.33031989
   6.49547996  0.00000012  6.49547984
   6.49547988  2.16515995  0.00000000
   6.49547996  4.33031993  2.16515995
   0.00000024  6.49547996  6.49547984
   8.64064236  0.00000000  0.00000000
   0.00000008  2.16515999  2.16515995
   0.00000016  4.33031997  4.33031989
   2.16516007  6.49547984  0.00000000
   2.16515999  0.00000004  2.16515995
   2.16516007  2.16516003  4.33031989
   4.33032005  6.49547988  2.16515995
   4.33031997  0.00000008  4.33031989
   6.49548004  4.33032001  6.49547984
   0.00000016  2.16516007  6.49547984
   0.00000008  4.33031989  0.00000000
   2.16516007  0.00000012  6.49547984
   2.16515999  2.16515995  0.00000000
   2.16516007  4.33031993  2.16515995
   4.33032013  6.49547996  6.49547984
   4.33031989  0.00000000  0.00000000
   4.33031997  2.16515999  2.16515995
   4.33032005  4.33031997  4.33031989
   2.16516015  4.33032001  6.49547984
   4.33032005  2.16516007  6.49547984
   4.33031997  4.33031989  0.00000000
 


--------------------------------------------------------------------------------------------------------


 k-point  1 :  0.06250.06250.0625  plane waves:  21716
 k-point  2 :  0.18750.06250.0625  plane waves:  21698
 k-point  3 :  0.31250.06250.0625  plane waves:  21704
 k-point  4 :  0.43750.06250.0625  plane waves:  21692
 k-point  5 :  0.06250.18750.0625  plane waves:  21698
 k-point  6 :  0.18750.18750.0625  plane waves:  21687
 k-point  7 :  0.31250.18750.0625  plane waves:  21679
 k-point  8 :  0.43750.18750.0625  plane waves:  21683
 k-point  9 :  0.06250.31250.0625  plane waves:  21704
 k-point 10 :  0.18750.31250.0625  plane waves:  21679
 k-point 11 :  0.31250.31250.0625  plane waves:  21664
 k-point 12 :  0.43750.31250.0625  plane waves:  21670
 k-point 13 :  0.06250.43750.0625  plane waves:  21692
 k-point 14 :  0.18750.43750.0625  plane waves:  21683
 k-point 15 :  0.31250.43750.0625  plane waves:  21670
 k-point 16 :  0.43750.43750.0625  plane waves:  21648
 k-point 17 :  0.06250.18750.1875  plane waves:  21687
 k-point 18 :  0.18750.18750.1875  plane waves:  21695
 k-point 19 :  0.31250.18750.1875  plane waves:  21668
 k-point 20 :  0.43750.18750.1875  plane waves:  21686
 k-point 21 :  0.06250.31250.1875  plane waves:  21679
 k-point 22 :  0.18750.31250.1875  plane waves:  21668
 k-point 23 :  0.31250.31250.1875  plane waves:  21671
 k-point 24 :  0.43750.31250.1875  plane waves:  21679
 k-point 25 :  0.06250.43750.1875  plane waves:  21683
 k-point 26 :  0.18750.43750.1875  plane waves:  21686
 k-point 27 :  0.31250.43750.1875  plane waves:  21679
 k-point 28 :  0.43750.43750.1875  plane waves:  21653
 k-point 29 :  0.06250.31250.3125  plane waves:  21664
 k-point 30 :  0.18750.31250.3125  plane waves:  21671
 k-point 31 :  0.31250.31250.3125  plane waves:  21683
 k-point 32 :  0.43750.31250.3125  plane waves:  21676
 k-point 33 :  0.06250.43750.3125  plane waves:  21670
 k-point 34 :  0.18750.43750.3125  plane waves:  21679
 k-point 35 :  0.31250.43750.3125  plane waves:  21676
 k-point 36 :  0.43750.43750.3125  plane waves:  21703
 k-point 37 :  0.06250.43750.4375  plane waves:  21648
 k-point 38 :  0.18750.43750.4375  plane waves:  21653
 k-point 39 :  0.31250.43750.4375  plane waves:  21703
 k-point 40 :  0.43750.43750.4375  plane waves:  21707

 maximum and minimum number of plane-waves per node :  21716 21648

 maximum number of plane-waves:  21716
 maximal index in each direction: 
   IXMAX= 17   IYMAX= 17   IZMAX= 17
   IXMIN=-17   IYMIN=-17   IZMIN=-17

 NGX is ok and might be reduce to  70
 NGY is ok and might be reduce to  70
 NGZ is ok and might be reduce to  70

 parallel 3dFFT wavefunction:
    minimum data exchange during FFTs selected (reduces bandwidth)
 parallel 3dFFT charge:
    minimum data exchange during FFTs selected (reduces bandwidth)

 For storing wavefunctions 2941.66 MBYTES are necessary
 For predicting wavefunctions  158.23 MBYTES are necessary
Broyden mixing: mesh for mixing (old mesh)
   NGX = 35   NGY = 35   NGZ = 35
  (NGX  =140   NGY  =140   NGZ  =140)
 gives a total of  42875 points
 charge density for first step will be calculated from the start-wavefunctions


--------------------------------------------------------------------------------------------------------


 Maximum index for augmentation-charges        50431 (set IRDMAX)


--------------------------------------------------------------------------------------------------------


 initial charge from wavefunction
 First call to EWALD:  gamma=   0.205
 Maximum number of real-space cells 3x 3x 3
 Maximum number of reciprocal cells 3x 3x 3

    FEWALD:  VPU time    0.00: CPU time    0.00


----------------------------------------- Iteration    1(   1)  ---------------------------------------


    POTLOK:  VPU time    0.40: CPU time    0.40
    SETDIJ:  VPU time    0.44: CPU time    0.44
    EDDIAG:  VPU time   25.24: CPU time   25.23
  RMM-DIIS:  VPU time  149.03: CPU time  148.98
    ORTHCH:  VPU time    4.30: CPU time    4.30
    DOS   :  VPU time    0.00: CPU time   -0.00
    CHARGE:  VPU time   10.03: CPU time   10.03
    MIXING:  VPU time    0.01: CPU time    0.01
    ------------------------------------------
      LOOP:  VPU time  189.52: CPU time  189.45

 eigenvalue-minimisations  : 17451
 total energy-change (2. order) :-0.8995482E+02  (-0.5750678E+02)
 number of electron  352.0000015 magnetization 
 augmentation part   172.2786771 magnetization 

 Broyden mixing:
  rms(total) = 0.69982E+00    rms(broyden)= 0.63552E+00
  rms(prec ) = 0.92311E+00
  weight for this iteration     100.00

 Free energy of the ion-electron system (eV)
  ---------------------------------------------------
  alpha Z        PSCENC =      2799.22930742
  Ewald energy   TEWEN  =    -29516.62843710
  -1/2 Hartree   DENC   =     -6911.82222247
  -V(xc)+E(xc)   XCENC  =      -397.17453896
  PAW double counting   =     26784.50917417   -25342.98684385
  entropy T*S    EENTRO =        -0.01507992
  eigenvalues    EBANDS =      -702.23406402
  atomic energy  EATOM  =     33197.16788402
  ---------------------------------------------------
  free energy    TOTEN  =       -89.95482070 eV

  energy without entropy =      -89.93974079  energy(sigma->0) =      -89.94979406


--------------------------------------------------------------------------------------------------------




----------------------------------------- Iteration    1(   2)  ---------------------------------------


    POTLOK:  VPU time    0.40: CPU time    0.40
    SETDIJ:  VPU time    0.44: CPU time    0.44
    EDDIAG:  VPU time   25.36: CPU time   25.35
  RMM-DIIS:  VPU time  150.75: CPU time  150.68
    ORTHCH:  VPU time    4.30: CPU time    4.30
    DOS   :  VPU time    0.00: CPU time   -0.00
    CHARGE:  VPU time    9.97: CPU time    9.96
    MIXING:  VPU time    0.01: CPU time    0.01
    ------------------------------------------
      LOOP:  VPU time  191.30: CPU time  191.21

 eigenvalue-minimisations  : 17770
 total energy-change (2. order) : 0.1386300E+01  (-0.1214578E+01)
 number of electron  352.0000015 magnetization 
 augmentation part   169.3295527 magnetization 

 Broyden mixing:
  rms(total) = 0.12212E+00    rms(broyden)= 0.12211E+00
  rms(prec ) = 0.15086E+00
  weight for this iteration     100.00

 eigenvalues of (default mixing * dielectric matrix)
  average eigenvalue GAMMA=   0.8663
  0.8663

 Free energy of the ion-electron system (eV)
  ---------------------------------------------------
  alpha Z        PSCENC =      2799.22930742
  Ewald energy   TEWEN  =    -29516.62843710
  -1/2 Hartree   DENC   =     -7026.63659904
  -V(xc)+E(xc)   XCENC  =      -368.71209252
  PAW double counting   =     27244.95711538   -25809.59455040
  entropy T*S    EENTRO =        -0.01458313
  eigenvalues    EBANDS =      -608.33656536
  atomic energy  EATOM  =     33197.16788402
  ---------------------------------------------------
  free energy    TOTEN  =       -88.56852074 eV

  energy without entropy =      -88.55393761  energy(sigma->0) =      -88.56365970


--------------------------------------------------------------------------------------------------------




----------------------------------------- Iteration    1(   3)  ---------------------------------------


    POTLOK:  VPU time    0.40: CPU time    0.40
    SETDIJ:  VPU time    0.45: CPU time    0.45
    EDDIAG:  VPU time   25.34: CPU time   25.33
  RMM-DIIS:  VPU time  154.54: CPU time  154.49
    ORTHCH:  VPU time    4.28: CPU time    4.27
    DOS   :  VPU time    0.00: CPU time   -0.00
    CHARGE:  VPU time   10.08: CPU time   10.07
    MIXING:  VPU time    0.01: CPU time    0.01
    ------------------------------------------
      LOOP:  VPU time  195.14: CPU time  195.09

 eigenvalue-minimisations  : 18207
 total energy-change (2. order) : 0.5240121E-02  (-0.1629613E-01)
 number of electron  352.0000015 magnetization 
 augmentation part   169.4537239 magnetization 

 Broyden mixing:
  rms(total) = 0.65004E-01    rms(broyden)= 0.65004E-01
  rms(prec ) = 0.75292E-01
  weight for this iteration     100.00

 eigenvalues of (default mixing * dielectric matrix)
  average eigenvalue GAMMA=   1.6245
  0.9652  2.2838

 Free energy of the ion-electron system (eV)
  ---------------------------------------------------
  alpha Z        PSCENC =      2799.22930742
  Ewald energy   TEWEN  =    -29516.62843710
  -1/2 Hartree   DENC   =     -7015.71611906
  -V(xc)+E(xc)   XCENC  =      -369.08495847
  PAW double counting   =     27343.66640443   -25908.37072183
  entropy T*S    EENTRO =        -0.01474676
  eigenvalues    EBANDS =      -618.81189327
  atomic energy  EATOM  =     33197.16788402
  ---------------------------------------------------
  free energy    TOTEN  =       -88.56328062 eV

  energy without entropy =      -88.54853386  energy(sigma->0) =      -88.55836503


--------------------------------------------------------------------------------------------------------




----------------------------------------- Iteration    1(   4)  ---------------------------------------


    POTLOK:  VPU time    0.40: CPU time    0.40
    SETDIJ:  VPU time    0.45: CPU time    0.45
    EDDIAG:  VPU time   25.32: CPU time   25.32
  RMM-DIIS:  VPU time  153.34: CPU time  153.31
    ORTHCH:  VPU time    4.28: CPU time    4.28
    DOS   :  VPU time    0.00: CPU time   -0.00
    CHARGE:  VPU time   10.11: CPU time   10.11
    MIXING:  VPU time    0.01: CPU time    0.01
    ------------------------------------------
      LOOP:  VPU time  193.98: CPU time  193.94

 eigenvalue-minimisations  : 18094
 total energy-change (2. order) :-0.6430534E-04  (-0.3695032E-02)
 number of electron  352.0000015 magnetization 
 augmentation part   169.6319158 magnetization 

 Broyden mixing:
  rms(total) = 0.19534E-01    rms(broyden)= 0.19534E-01
  rms(prec ) = 0.27932E-01
  weight for this iteration     100.00

 eigenvalues of (default mixing * dielectric matrix)
  average eigenvalue GAMMA=   1.5439
  2.4836  1.0741  1.0741

 Free energy of the ion-electron system (eV)
  ---------------------------------------------------
  alpha Z        PSCENC =      2799.22930742
  Ewald energy   TEWEN  =    -29516.62843710
  -1/2 Hartree   DENC   =     -7007.41415063
  -V(xc)+E(xc)   XCENC  =      -369.35996456
  PAW double counting   =     27487.75869456   -26052.69502628
  entropy T*S    EENTRO =        -0.01485174
  eigenvalues    EBANDS =      -626.60680061
  atomic energy  EATOM  =     33197.16788402
  ---------------------------------------------------
  free energy    TOTEN  =       -88.56334493 eV

  energy without entropy =      -88.54849318  energy(sigma->0) =      -88.55839434


--------------------------------------------------------------------------------------------------------




----------------------------------------- Iteration    1(   5)  ---------------------------------------


    POTLOK:  VPU time    0.40: CPU time    0.40
    SETDIJ:  VPU time    0.44: CPU time    0.44
    EDDIAG:  VPU time   25.30: CPU time   25.29
  RMM-DIIS:  VPU time  153.91: CPU time  153.85
    ORTHCH:  VPU time    4.27: CPU time    4.27
    DOS   :  VPU time    0.00: CPU time   -0.00
    CHARGE:  VPU time   10.13: CPU time   10.12
    MIXING:  VPU time    0.01: CPU time    0.01
    ------------------------------------------
      LOOP:  VPU time  194.52: CPU time  194.44

 eigenvalue-minimisations  : 18127
 total energy-change (2. order) : 0.6619473E-03  (-0.8522295E-03)
 number of electron  352.0000015 magnetization 
 augmentation part   169.5428605 magnetization 

 Broyden mixing:
  rms(total) = 0.54966E-02    rms(broyden)= 0.54964E-02
  rms(prec ) = 0.77576E-02
  weight for this iteration     100.00

 eigenvalues of (default mixing * dielectric matrix)
  average eigenvalue GAMMA=   1.4151
  2.5281  1.2552  0.9385  0.9385

 Free energy of the ion-electron system (eV)
  ---------------------------------------------------
  alpha Z        PSCENC =      2799.22930742
  Ewald energy   TEWEN  =    -29516.62843710
  -1/2 Hartree   DENC   =     -7011.94401610
  -V(xc)+E(xc)   XCENC  =      -369.19282230
  PAW double counting   =     27555.90518857   -26121.18302361
  entropy T*S    EENTRO =        -0.01480409
  eigenvalues    EBANDS =      -621.90195978
  atomic energy  EATOM  =     33197.16788402
  ---------------------------------------------------
  free energy    TOTEN  =       -88.56268298 eV

  energy without entropy =      -88.54787889  energy(sigma->0) =      -88.55774828


--------------------------------------------------------------------------------------------------------




----------------------------------------- Iteration    1(   6)  ---------------------------------------


    POTLOK:  VPU time    0.42: CPU time    0.42
    SETDIJ:  VPU time    0.44: CPU time    0.44
    EDDIAG:  VPU time   25.27: CPU time   25.26
  RMM-DIIS:  VPU time  157.45: CPU time  157.38
    ORTHCH:  VPU time    4.27: CPU time    4.27
    DOS   :  VPU time    0.00: CPU time   -0.00
    CHARGE:  VPU time   10.22: CPU time   10.21
    MIXING:  VPU time    0.01: CPU time    0.01
    ------------------------------------------
      LOOP:  VPU time  198.15: CPU time  198.06

 eigenvalue-minimisations  : 18434
 total energy-change (2. order) : 0.4590013E-04  (-0.1115702E-04)
 number of electron  352.0000015 magnetization 
 augmentation part   169.5483675 magnetization 

 Broyden mixing:
  rms(total) = 0.32890E-02    rms(broyden)= 0.32889E-02
  rms(prec ) = 0.45173E-02
  weight for this iteration     100.00

 eigenvalues of (default mixing * dielectric matrix)
  average eigenvalue GAMMA=   1.4560
  2.5632  1.8018  1.0136  1.0136  0.8878

 Free energy of the ion-electron system (eV)
  ---------------------------------------------------
  alpha Z        PSCENC =      2799.22930742
  Ewald energy   TEWEN  =    -29516.62843710
  -1/2 Hartree   DENC   =     -7011.63842397
  -V(xc)+E(xc)   XCENC  =      -369.20265800
  PAW double counting   =     27557.49707015   -26122.74971408
  entropy T*S    EENTRO =        -0.01480869
  eigenvalues    EBANDS =      -622.22285682
  atomic energy  EATOM  =     33197.16788402
  ---------------------------------------------------
  free energy    TOTEN  =       -88.56263708 eV

  energy without entropy =      -88.54782838  energy(sigma->0) =      -88.55770085


--------------------------------------------------------------------------------------------------------




----------------------------------------- Iteration    1(   7)  ---------------------------------------


    POTLOK:  VPU time    0.40: CPU time    0.41
    SETDIJ:  VPU time    0.44: CPU time    0.44
    EDDIAG:  VPU time   25.37: CPU time   25.35
  RMM-DIIS:  VPU time  158.09: CPU time  158.01
    ORTHCH:  VPU time    4.31: CPU time    4.31
    DOS   :  VPU time    0.00: CPU time   -0.00
    CHARGE:  VPU time   10.53: CPU time   10.52
    MIXING:  VPU time    0.01: CPU time    0.01
    ------------------------------------------
      LOOP:  VPU time  199.22: CPU time  199.12

 eigenvalue-minimisations  : 18247
 total energy-change (2. order) : 0.3112307E-04  (-0.1593951E-04)
 number of electron  352.0000015 magnetization 
 augmentation part   169.5602785 magnetization 

 Broyden mixing:
  rms(total) = 0.35883E-03    rms(broyden)= 0.35877E-03
  rms(prec ) = 0.55720E-03
  weight for this iteration     100.00

 eigenvalues of (default mixing * dielectric matrix)
  average eigenvalue GAMMA=   1.4967
  2.6221  1.9714  1.5625  0.9722  0.9722  0.8794

 Free energy of the ion-electron system (eV)
  ---------------------------------------------------
  alpha Z        PSCENC =      2799.22930742
  Ewald energy   TEWEN  =    -29516.62843710
  -1/2 Hartree   DENC   =     -7011.10086539
  -V(xc)+E(xc)   XCENC  =      -369.22094221
  PAW double counting   =     27556.89098599   -26122.10827816
  entropy T*S    EENTRO =        -0.01481562
  eigenvalues    EBANDS =      -622.77744491
  atomic energy  EATOM  =     33197.16788402
  ---------------------------------------------------
  free energy    TOTEN  =       -88.56260596 eV

  energy without entropy =      -88.54779033  energy(sigma->0) =      -88.55766741


--------------------------------------------------------------------------------------------------------




----------------------------------------- Iteration    1(   8)  ---------------------------------------


    POTLOK:  VPU time    0.40: CPU time    0.40
    SETDIJ:  VPU time    0.45: CPU time    0.45
    EDDIAG:  VPU time   25.35: CPU time   25.34
  RMM-DIIS:  VPU time   92.27: CPU time   92.23
    ORTHCH:  VPU time    4.27: CPU time    4.27
    DOS   :  VPU time    0.00: CPU time   -0.00
    ------------------------------------------
      LOOP:  VPU time  122.81: CPU time  122.75

 eigenvalue-minimisations  : 10106
 total energy-change (2. order) : 0.3585199E-05  (-0.3624257E-06)
 number of electron  352.0000015 magnetization 
 augmentation part   169.5602785 magnetization 

 Free energy of the ion-electron system (eV)
  ---------------------------------------------------
  alpha Z        PSCENC =      2799.22930742
  Ewald energy   TEWEN  =    -29516.62843710
  -1/2 Hartree   DENC   =     -7011.08127519
  -V(xc)+E(xc)   XCENC  =      -369.22135624
  PAW double counting   =     27556.37086161   -26121.57811448
  entropy T*S    EENTRO =        -0.01481609
  eigenvalues    EBANDS =      -622.80665632
  atomic energy  EATOM  =     33197.16788402
  ---------------------------------------------------
  free energy    TOTEN  =       -88.56260237 eV

  energy without entropy =      -88.54778628  energy(sigma->0) =      -88.55766367


--------------------------------------------------------------------------------------------------------




 average (electrostatic) potential at core
  the test charge radii are     1.1249
  (the norm of the test charge is              1.0000)
       1 -42.2960       2 -42.2978       3 -42.2978       4 -42.2960       5 -42.2959
       6 -42.2959       7 -42.2958       8 -42.2978       9 -42.2978      10 -42.2960
      11 -42.2959      12 -42.2960      13 -42.2959      14 -42.2959      15 -42.2941
      16 -42.2941      17 -42.2958      18 -42.2959      19 -42.2959      20 -42.2960
      21 -42.2959      22 -42.2959      23 -42.2941      24 -42.2941      25 -42.2958
      26 -42.2959      27 -42.2959      28 -42.2959      29 -42.2959      30 -42.2958
      31 -42.2959      32 -42.2959
 
 
 
 E-fermi :   2.1537     XC(G=0): -11.2002     alpha+bet : -7.1728
   add alpha+bet to get absolut eigen values

 k-point   1 :       0.0625    0.0625    0.0625
  band No.  band energies     occupation 
      1      -4.4397      2.00000
      2      -3.3388      2.00000
      3      -3.3388      2.00000
      4      -3.3387      2.00000
      5      -3.3309      2.00000
      6      -3.3218      2.00000
      7      -3.3218      2.00000
      8      -3.3217      2.00000
      9      -3.2590      2.00000
     10      -3.2590      2.00000
     11      -3.2589      2.00000
     12      -2.9971      2.00000
     13      -2.9954      2.00000
     14      -2.9938      2.00000
     15      -2.9240      2.00000
     16      -2.9227      2.00000
     17      -2.9214      2.00000
     18      -2.7923      2.00000
     19      -2.7912      2.00000
     20      -2.7902      2.00000
     21      -2.7809      2.00000
     22      -2.7785      2.00000
     23      -2.7784      2.00000
     24      -2.7784      2.00000
     25      -2.7783      2.00000
     26      -2.7759      2.00000
     27      -2.6857      2.00000
     28      -2.6846      2.00000
     29      -2.6835      2.00000
     30      -2.5990      2.00000
     31      -2.5977      2.00000
     32      -2.5965      2.00000
     33      -2.5742      2.00000
     34      -2.5733      2.00000
     35      -2.5723      2.00000
     36      -2.5628      2.00000
     37      -2.5621      2.00000
     38      -2.5612      2.00000
     39      -2.5610      2.00000
     40      -2.5602      2.00000
     41      -2.5595      2.00000
     42      -2.4449      2.00000
     43      -2.4448      2.00000
     44      -2.4438      2.00000
     45      -2.4437      2.00000
     46      -2.4426      2.00000
     47      -2.4426      2.00000
     48      -2.3803      2.00000
     49      -2.3787      2.00000
     50      -2.3784      2.00000
     51      -2.3772      2.00000
     52      -2.3769      2.00000
     53      -2.3761      2.00000
     54      -2.3754      2.00000
     55      -2.3751      2.00000
     56      -2.3742      2.00000
     57      -2.3366      2.00000
     58      -2.3355      2.00000
     59      -2.3343      2.00000
     60      -2.2232      2.00000
     61      -2.2232      2.00000
     62      -2.2220      2.00000
     63      -2.2220      2.00000
     64      -2.2209      2.00000
     65      -2.2208      2.00000
     66      -2.1866      2.00000
     67      -2.1866      2.00000
     68      -2.1865      2.00000
     69      -2.1751      2.00000
     70      -2.1750      2.00000
     71      -2.1733      2.00000
     72      -2.1677      2.00000
     73      -2.1677      2.00000
     74      -2.1676      2.00000
     75      -2.1618      2.00000
     76      -2.1617      2.00000
     77      -2.0538      2.00000
     78      -2.0525      2.00000
     79      -2.0519      2.00000
     80      -2.0519      2.00000
     81      -2.0513      2.00000
     82      -2.0501      2.00000
     83      -2.0316      2.00000
     84      -2.0310      2.00000
     85      -2.0303      2.00000
     86      -1.9944      2.00000
     87      -1.9934      2.00000
     88      -1.9923      2.00000
     89      -1.7078      2.00000
     90      -1.7073      2.00000
     91      -1.7069      2.00000
     92      -1.6595      2.00000
     93      -1.6584      2.00000
     94      -1.6573      2.00000
     95      -1.6520      2.00000
     96      -1.6512      2.00000
     97      -1.6503      2.00000
     98      -1.6485      2.00000
     99      -1.6484      2.00000
    100      -1.6475      2.00000
    101      -1.6472      2.00000
    102      -1.6462      2.00000
    103      -1.6460      2.00000
    104      -1.5974      2.00000
    105      -1.5964      2.00000
    106      -1.5954      2.00000
    107      -1.4997      2.00000
    108      -1.4983      2.00000
    109      -1.4968      2.00000
    110      -1.4589      2.00000
    111      -1.4573      2.00000
    112      -1.4561      2.00000
    113      -1.4508      2.00000
    114      -1.4495      2.00000
    115      -1.4481      2.00000
    116      -1.4143      2.00000
    117      -1.4143      2.00000
    118      -1.3784      2.00000
    119      -1.3769      2.00000
    120      -1.3767      2.00000
    121      -1.3766      2.00000
    122      -1.3765      2.00000
    123      -1.3749      2.00000
    124      -1.3665      2.00000
    125      -1.3654      2.00000
    126      -1.3645      2.00000
    127      -1.3642      2.00000
    128      -1.3635      2.00000
    129      -1.3623      2.00000
    130      -1.3418      2.00000
    131      -1.3402      2.00000
    132      -1.3385      2.00000
    133      -1.3081      2.00000
    134      -1.3073      2.00000
    135      -1.3066      2.00000
    136      -1.1599      2.00000
    137      -1.1592      2.00000
    138      -1.1585      2.00000
    139      -1.1017      2.00000
    140      -1.1014      2.00000
    141      -1.1011      2.00000
    142      -0.9769      2.00000
    143      -0.9755      2.00000
    144      -0.9741      2.00000
    145      -0.8693      2.00000
    146      -0.8690      2.00000
    147      -0.8688      2.00000
    148      -0.8618      2.00000
    149      -0.8617      2.00000
    150      -0.8617      2.00000
    151      -0.8379      2.00000
    152      -0.8379      2.00000
    153      -0.8262      2.00000
    154      -0.8262      2.00000
    155      -0.8261      2.00000
    156      -0.7028      2.00000
    157      -0.7028      2.00000
    158      -0.7028      2.00000
    159      -0.6853      2.00000
    160      -0.6852      2.00000
    161      -0.6851      2.00000
    162      -0.6850      2.00000
    163      -0.6850      2.00000
    164      -0.6848      2.00000
    165      -0.6831      2.00000
    166      -0.6831      2.00000
    167      -0.6829      2.00000
    168       0.9454      2.00000
    169       0.9468      2.00000
    170       0.9483      2.00000
    171       1.4794      2.00002
    172       1.4799      2.00002
    173       1.4814      2.00002
    174       1.4814      2.00002
    175       1.4829      2.00002
    176       1.4834      2.00002
    177       1.9088      2.07092
    178       2.0293      1.85918
    179       2.0307      1.85314
    180       2.0321      1.84710
    181       2.1841      0.74576
    182       2.1842      0.74513
    183       2.1843      0.74466
    184       3.8401     -0.00000
    185       3.8404     -0.00000
    186       3.8408     -0.00000
    187       4.8966     -0.00000
    188       4.8968     -0.00000
    189       4.8971     -0.00000
    190       5.1460     -0.00000
    191       6.9356     -0.00000
    192       6.9361     -0.00000
    193       6.9378     -0.00000
    194       6.9378     -0.00000
    195       6.9394     -0.00000
    196       6.9399     -0.00000
    197       7.5477     -0.00000
    198       7.5479     -0.00000
    199       7.5500     -0.00000
    200       7.5500     -0.00000
    201       7.5521     -0.00000
    202       7.5522     -0.00000
    203       7.7148      0.00000
    204       7.7151      0.00000
    205       7.7153      0.00000
    206       8.3396      0.00000
    207       8.3401      0.00000
    208       8.3406      0.00000
    209       8.3408      0.00000
    210       8.3417      0.00000
    211       9.5323      0.00000
    212       9.6327      0.00000

 k-point   2 :       0.1875    0.0625    0.0625
  band No.  band energies     occupation 
      1      -4.3688      2.00000
      2      -3.3128      2.00000
      3      -3.3082      2.00000
      4      -3.3064      2.00000
      5      -3.3064      2.00000
      6      -3.2903      2.00000
      7      -3.2903      2.00000
      8      -3.2816      2.00000
      9      -3.2397      2.00000
     10      -3.2281      2.00000
     11      -3.2281      2.00000
     12      -3.1952      2.00000
     13      -2.9547      2.00000
     14      -2.9545      2.00000
     15      -2.9480      2.00000
     16      -2.8940      2.00000
     17      -2.8856      2.00000
     18      -2.8855      2.00000
     19      -2.8380      2.00000
     20      -2.8380      2.00000
     21      -2.7679      2.00000
     22      -2.7678      2.00000
     23      -2.7606      2.00000
     24      -2.7606      2.00000
     25      -2.7516      2.00000
     26      -2.7516      2.00000
     27      -2.7433      2.00000
     28      -2.7130      2.00000
     29      -2.7130      2.00000
     30      -2.7068      2.00000
     31      -2.6661      2.00000
     32      -2.6661      2.00000
     33      -2.6402      2.00000
     34      -2.6401      2.00000
     35      -2.6306      2.00000
     36      -2.6305      2.00000
     37      -2.5917      2.00000
     38      -2.5917      2.00000
     39      -2.5780      2.00000
     40      -2.5548      2.00000
     41      -2.5548      2.00000
     42      -2.5481      2.00000
     43      -2.5481      2.00000
     44      -2.4426      2.00000
     45      -2.4425      2.00000
     46      -2.4417      2.00000
     47      -2.4417      2.00000
     48      -2.3921      2.00000
     49      -2.3912      2.00000
     50      -2.3888      2.00000
     51      -2.3880      2.00000
     52      -2.3873      2.00000
     53      -2.3872      2.00000
     54      -2.3382      2.00000
     55      -2.3240      2.00000
     56      -2.3240      2.00000
     57      -2.3045      2.00000
     58      -2.3045      2.00000
     59      -2.2878      2.00000
     60      -2.2373      2.00000
     61      -2.2373      2.00000
     62      -2.2187      2.00000
     63      -2.2187      2.00000
     64      -2.2069      2.00000
     65      -2.1972      2.00000
     66      -2.1971      2.00000
     67      -2.1940      2.00000
     68      -2.1730      2.00000
     69      -2.1599      2.00000
     70      -2.1530      2.00000
     71      -2.1529      2.00000
     72      -2.1497      2.00000
     73      -2.1497      2.00000
     74      -2.1434      2.00000
     75      -2.1434      2.00000
     76      -2.1413      2.00000
     77      -2.1398      2.00000
     78      -2.1379      2.00000
     79      -2.0941      2.00000
     80      -2.0941      2.00000
     81      -2.0381      2.00000
     82      -2.0381      2.00000
     83      -1.9811      2.00000
     84      -1.9811      2.00000
     85      -1.9217      2.00000
     86      -1.9217      2.00000
     87      -1.8835      2.00000
     88      -1.8635      2.00000
     89      -1.7946      2.00000
     90      -1.7867      2.00000
     91      -1.7867      2.00000
     92      -1.7649      2.00000
     93      -1.7339      2.00000
     94      -1.7270      2.00000
     95      -1.7231      2.00000
     96      -1.7231      2.00000
     97      -1.6752      2.00000
     98      -1.6752      2.00000
     99      -1.6561      2.00000
    100      -1.6560      2.00000
    101      -1.6043      2.00000
    102      -1.6043      2.00000
    103      -1.5990      2.00000
    104      -1.5989      2.00000
    105      -1.5748      2.00000
    106      -1.5748      2.00000
    107      -1.5572      2.00000
    108      -1.5572      2.00000
    109      -1.5410      2.00000
    110      -1.5001      2.00000
    111      -1.5001      2.00000
    112      -1.4665      2.00000
    113      -1.4665      2.00000
    114      -1.4367      2.00000
    115      -1.4037      2.00000
    116      -1.3898      2.00000
    117      -1.3897      2.00000
    118      -1.3818      2.00000
    119      -1.3817      2.00000
    120      -1.3749      2.00000
    121      -1.3748      2.00000
    122      -1.3542      2.00000
    123      -1.3383      2.00000
    124      -1.3215      2.00000
    125      -1.3215      2.00000
    126      -1.3148      2.00000
    127      -1.2738      2.00000
    128      -1.2738      2.00000
    129      -1.2572      2.00000
    130      -1.2571      2.00000
    131      -1.2506      2.00000
    132      -1.2506      2.00000
    133      -1.2311      2.00000
    134      -1.2242      2.00000
    135      -1.2241      2.00000
    136      -1.2149      2.00000
    137      -1.1098      2.00000
    138      -1.1098      2.00000
    139      -1.0818      2.00000
    140      -1.0818      2.00000
    141      -1.0433      2.00000
    142      -0.9620      2.00000
    143      -0.9503      2.00000
    144      -0.9503      2.00000
    145      -0.8937      2.00000
    146      -0.8937      2.00000
    147      -0.8798      2.00000
    148      -0.8764      2.00000
    149      -0.8757      2.00000
    150      -0.8416      2.00000
    151      -0.8397      2.00000
    152      -0.8397      2.00000
    153      -0.7973      2.00000
    154      -0.7973      2.00000
    155      -0.7792      2.00000
    156      -0.7792      2.00000
    157      -0.7404      2.00000
    158      -0.7248      2.00000
    159      -0.7248      2.00000
    160      -0.7242      2.00000
    161      -0.7242      2.00000
    162      -0.7170      2.00000
    163      -0.6859      2.00000
    164      -0.6851      2.00000
    165      -0.6850      2.00000
    166      -0.6842      2.00000
    167      -0.4465      2.00000
    168       0.4807      2.00000
    169       0.4807      2.00000
    170       0.9652      2.00000
    171       0.9923      2.00000
    172       0.9923      2.00000
    173       1.5094      2.00005
    174       1.5094      2.00005
    175       1.6191      2.00103
    176       2.0640      1.68128
    177       2.0792      1.58449
    178       2.0795      1.58258
    179       2.0887      1.51894
    180       2.0888      1.51852
    181       2.3574     -0.05391
    182       2.6453     -0.00279
    183       2.6453     -0.00279
    184       3.3104     -0.00000
    185       3.9994     -0.00000
    186       3.9994     -0.00000
    187       4.9203     -0.00000
    188       5.1773     -0.00000
    189       5.1773     -0.00000
    190       5.5904     -0.00000
    191       6.1052     -0.00000
    192       6.1052     -0.00000
    193       6.3295     -0.00000
    194       6.3295     -0.00000
    195       6.6533     -0.00000
    196       6.6533     -0.00000
    197       7.0576     -0.00000
    198       7.0576     -0.00000
    199       7.6674      0.00000
    200       7.6674      0.00000
    201       7.7333      0.00000
    202       7.7333      0.00000
    203       7.9597      0.00000
    204       7.9598      0.00000
    205       8.3081      0.00000
    206       8.3670      0.00000
    207       8.4908      0.00000
    208       8.5087      0.00000
    209       8.6496      0.00000
    210       8.6636      0.00000
    211       8.7921      0.00000
    212       8.8210      0.00000

 k-point   3 :       0.3125    0.0625    0.0625
  band No.  band energies     occupation 
      1      -4.2290      2.00000
      2      -3.4759      2.00000
      3      -3.2628      2.00000
      4      -3.2538      2.00000
      5      -3.2440      2.00000
      6      -3.2440      2.00000
      7      -3.2280      2.00000
      8      -3.2280      2.00000
      9      -3.2115      2.00000
     10      -3.2017      2.00000
     11      -3.1664      2.00000
     12      -3.1664      2.00000
     13      -3.0211      2.00000
     14      -2.9894      2.00000
     15      -2.9372      2.00000
     16      -2.9371      2.00000
     17      -2.9089      2.00000
     18      -2.8790      2.00000
     19      -2.8790      2.00000
     20      -2.8729      2.00000
     21      -2.8729      2.00000
     22      -2.8512      2.00000
     23      -2.8201      2.00000
     24      -2.8201      2.00000
     25      -2.8108      2.00000
     26      -2.8108      2.00000
     27      -2.7310      2.00000
     28      -2.7310      2.00000
     29      -2.7160      2.00000
     30      -2.7160      2.00000
     31      -2.7006      2.00000
     32      -2.7006      2.00000
     33      -2.6549      2.00000
     34      -2.6548      2.00000
     35      -2.6306      2.00000
     36      -2.6300      2.00000
     37      -2.6282      2.00000
     38      -2.6276      2.00000
     39      -2.6031      2.00000
     40      -2.6031      2.00000
     41      -2.5397      2.00000
     42      -2.5397      2.00000
     43      -2.4760      2.00000
     44      -2.4404      2.00000
     45      -2.4403      2.00000
     46      -2.4326      2.00000
     47      -2.4325      2.00000
     48      -2.4240      2.00000
     49      -2.4235      2.00000
     50      -2.4190      2.00000
     51      -2.4184      2.00000
     52      -2.3915      2.00000
     53      -2.3914      2.00000
     54      -2.3230      2.00000
     55      -2.3058      2.00000
     56      -2.3058      2.00000
     57      -2.2918      2.00000
     58      -2.2918      2.00000
     59      -2.2602      2.00000
     60      -2.2601      2.00000
     61      -2.2424      2.00000
     62      -2.2382      2.00000
     63      -2.2344      2.00000
     64      -2.2304      2.00000
     65      -2.2303      2.00000
     66      -2.2245      2.00000
     67      -2.2243      2.00000
     68      -2.2149      2.00000
     69      -2.2148      2.00000
     70      -2.2133      2.00000
     71      -2.2133      2.00000
     72      -2.1798      2.00000
     73      -2.1659      2.00000
     74      -2.1659      2.00000
     75      -2.1223      2.00000
     76      -2.1068      2.00000
     77      -2.1067      2.00000
     78      -2.0982      2.00000
     79      -2.0982      2.00000
     80      -2.0970      2.00000
     81      -2.0962      2.00000
     82      -2.0869      2.00000
     83      -1.9259      2.00000
     84      -1.9259      2.00000
     85      -1.8949      2.00000
     86      -1.8676      2.00000
     87      -1.8676      2.00000
     88      -1.8548      2.00000
     89      -1.8450      2.00000
     90      -1.8392      2.00000
     91      -1.8392      2.00000
     92      -1.8327      2.00000
     93      -1.7255      2.00000
     94      -1.7255      2.00000
     95      -1.6862      2.00000
     96      -1.6761      2.00000
     97      -1.6760      2.00000
     98      -1.6497      2.00000
     99      -1.6243      2.00000
    100      -1.6243      2.00000
    101      -1.6088      2.00000
    102      -1.6085      2.00000
    103      -1.6084      2.00000
    104      -1.5255      2.00000
    105      -1.5255      2.00000
    106      -1.5108      2.00000
    107      -1.5108      2.00000
    108      -1.4908      2.00000
    109      -1.4908      2.00000
    110      -1.4787      2.00000
    111      -1.4784      2.00000
    112      -1.4783      2.00000
    113      -1.4715      2.00000
    114      -1.4715      2.00000
    115      -1.3951      2.00000
    116      -1.3951      2.00000
    117      -1.3828      2.00000
    118      -1.3765      2.00000
    119      -1.3765      2.00000
    120      -1.3674      2.00000
    121      -1.3674      2.00000
    122      -1.2763      2.00000
    123      -1.2762      2.00000
    124      -1.2669      2.00000
    125      -1.2389      2.00000
    126      -1.2303      2.00000
    127      -1.2303      2.00000
    128      -1.1844      2.00000
    129      -1.1761      2.00000
    130      -1.1621      2.00000
    131      -1.1620      2.00000
    132      -1.1531      2.00000
    133      -1.1531      2.00000
    134      -1.1377      2.00000
    135      -1.1377      2.00000
    136      -1.1311      2.00000
    137      -1.1218      2.00000
    138      -1.1218      2.00000
    139      -1.1035      2.00000
    140      -1.0854      2.00000
    141      -1.0854      2.00000
    142      -0.9983      2.00000
    143      -0.9907      2.00000
    144      -0.9906      2.00000
    145      -0.9856      2.00000
    146      -0.9396      2.00000
    147      -0.9357      2.00000
    148      -0.9357      2.00000
    149      -0.9056      2.00000
    150      -0.8860      2.00000
    151      -0.8860      2.00000
    152      -0.8833      2.00000
    153      -0.8607      2.00000
    154      -0.8607      2.00000
    155      -0.8130      2.00000
    156      -0.7989      2.00000
    157      -0.7989      2.00000
    158      -0.7980      2.00000
    159      -0.7980      2.00000
    160      -0.7796      2.00000
    161      -0.6861      2.00000
    162      -0.6853      2.00000
    163      -0.6852      2.00000
    164      -0.6843      2.00000
    165      -0.5023      2.00000
    166      -0.5023      2.00000
    167       0.0755      2.00000
    168       0.0755      2.00000
    169       0.2046      2.00000
    170       0.5563      2.00000
    171       0.5563      2.00000
    172       1.0060      2.00000
    173       1.3746      2.00000
    174       1.5669      2.00027
    175       1.5669      2.00027
    176       1.9272      2.06795
    177       1.9272      2.06794
    178       2.1291      1.20670
    179       2.3857     -0.06950
    180       2.5484     -0.01741
    181       2.7688     -0.00012
    182       2.7688     -0.00012
    183       3.3273     -0.00000
    184       3.3273     -0.00000
    185       4.2970     -0.00000
    186       4.2970     -0.00000
    187       5.2042     -0.00000
    188       5.2042     -0.00000
    189       5.2465     -0.00000
    190       5.6741     -0.00000
    191       5.6742     -0.00000
    192       5.7407     -0.00000
    193       5.7408     -0.00000
    194       5.7550     -0.00000
    195       5.7551     -0.00000
    196       6.1731     -0.00000
    197       7.2490     -0.00000
    198       7.2490     -0.00000
    199       7.3842     -0.00000
    200       7.7702      0.00000
    201       7.7702      0.00000
    202       7.8599      0.00000
    203       7.8599      0.00000
    204       7.9346      0.00000
    205       7.9346      0.00000
    206       7.9754      0.00000
    207       7.9755      0.00000
    208       8.3118      0.00000
    209       8.3126      0.00000
    210       8.4966      0.00000
    211       8.8363      0.00000
    212       8.8892      0.00000

 k-point   4 :       0.4375    0.0625    0.0625
  band No.  band energies     occupation 
      1      -4.0251      2.00000
      2      -3.7670      2.00000
      3      -3.1925      2.00000
      4      -3.1681      2.00000
      5      -3.1562      2.00000
      6      -3.1562      2.00000
      7      -3.1462      2.00000
      8      -3.1360      2.00000
      9      -3.1360      2.00000
     10      -3.1138      2.00000
     11      -3.1084      2.00000
     12      -3.0751      2.00000
     13      -3.0751      2.00000
     14      -3.0745      2.00000
     15      -3.0522      2.00000
     16      -3.0498      2.00000
     17      -3.0498      2.00000
     18      -3.0164      2.00000
     19      -3.0164      2.00000
     20      -2.9915      2.00000
     21      -2.9558      2.00000
     22      -2.9558      2.00000
     23      -2.7843      2.00000
     24      -2.7843      2.00000
     25      -2.7452      2.00000
     26      -2.7452      2.00000
     27      -2.7001      2.00000
     28      -2.7000      2.00000
     29      -2.6947      2.00000
     30      -2.6947      2.00000
     31      -2.6755      2.00000
     32      -2.6754      2.00000
     33      -2.6722      2.00000
     34      -2.6722      2.00000
     35      -2.6324      2.00000
     36      -2.6324      2.00000
     37      -2.6258      2.00000
     38      -2.6258      2.00000
     39      -2.5702      2.00000
     40      -2.5701      2.00000
     41      -2.5657      2.00000
     42      -2.5655      2.00000
     43      -2.5026      2.00000
     44      -2.5026      2.00000
     45      -2.4928      2.00000
     46      -2.4927      2.00000
     47      -2.4439      2.00000
     48      -2.4436      2.00000
     49      -2.4419      2.00000
     50      -2.4416      2.00000
     51      -2.4031      2.00000
     52      -2.4031      2.00000
     53      -2.3826      2.00000
     54      -2.3516      2.00000
     55      -2.3516      2.00000
     56      -2.3022      2.00000
     57      -2.2967      2.00000
     58      -2.2764      2.00000
     59      -2.2764      2.00000
     60      -2.2708      2.00000
     61      -2.2708      2.00000
     62      -2.2656      2.00000
     63      -2.2641      2.00000
     64      -2.2640      2.00000
     65      -2.2379      2.00000
     66      -2.2379      2.00000
     67      -2.2147      2.00000
     68      -2.2074      2.00000
     69      -2.2073      2.00000
     70      -2.1976      2.00000
     71      -2.1975      2.00000
     72      -2.1942      2.00000
     73      -2.1462      2.00000
     74      -2.1461      2.00000
     75      -2.1074      2.00000
     76      -2.1073      2.00000
     77      -2.0640      2.00000
     78      -2.0388      2.00000
     79      -2.0387      2.00000
     80      -2.0331      2.00000
     81      -2.0330      2.00000
     82      -2.0315      2.00000
     83      -2.0315      2.00000
     84      -2.0166      2.00000
     85      -2.0067      2.00000
     86      -2.0067      2.00000
     87      -1.9868      2.00000
     88      -1.9520      2.00000
     89      -1.9520      2.00000
     90      -1.9479      2.00000
     91      -1.9473      2.00000
     92      -1.9301      2.00000
     93      -1.6137      2.00000
     94      -1.6136      2.00000
     95      -1.6117      2.00000
     96      -1.6117      2.00000
     97      -1.5871      2.00000
     98      -1.5335      2.00000
     99      -1.4868      2.00000
    100      -1.4868      2.00000
    101      -1.4792      2.00000
    102      -1.4777      2.00000
    103      -1.4777      2.00000
    104      -1.4700      2.00000
    105      -1.4700      2.00000
    106      -1.4648      2.00000
    107      -1.4646      2.00000
    108      -1.4638      2.00000
    109      -1.4636      2.00000
    110      -1.4225      2.00000
    111      -1.4224      2.00000
    112      -1.4210      2.00000
    113      -1.4210      2.00000
    114      -1.4189      2.00000
    115      -1.4189      2.00000
    116      -1.4102      2.00000
    117      -1.3897      2.00000
    118      -1.3897      2.00000
    119      -1.3522      2.00000
    120      -1.3394      2.00000
    121      -1.3394      2.00000
    122      -1.3131      2.00000
    123      -1.2969      2.00000
    124      -1.2969      2.00000
    125      -1.2803      2.00000
    126      -1.2640      2.00000
    127      -1.2640      2.00000
    128      -1.2183      2.00000
    129      -1.2183      2.00000
    130      -1.2110      2.00000
    131      -1.2110      2.00000
    132      -1.1830      2.00000
    133      -1.1261      2.00000
    134      -1.1259      2.00000
    135      -1.1258      2.00000
    136      -1.0540      2.00000
    137      -1.0539      2.00000
    138      -1.0518      2.00000
    139      -1.0415      2.00000
    140      -1.0334      2.00000
    141      -1.0259      2.00000
    142      -1.0258      2.00000
    143      -1.0243      2.00000
    144      -1.0150      2.00000
    145      -1.0149      2.00000
    146      -1.0094      2.00000
    147      -1.0093      2.00000
    148      -0.9598      2.00000
    149      -0.9595      2.00000
    150      -0.9590      2.00000
    151      -0.9485      2.00000
    152      -0.9263      2.00000
    153      -0.9154      2.00000
    154      -0.8984      2.00000
    155      -0.8983      2.00000
    156      -0.8977      2.00000
    157      -0.8976      2.00000
    158      -0.8570      2.00000
    159      -0.6861      2.00000
    160      -0.6853      2.00000
    161      -0.6852      2.00000
    162      -0.6844      2.00000
    163      -0.5885      2.00000
    164      -0.5885      2.00000
    165      -0.2780      2.00000
    166      -0.2780      2.00000
    167      -0.1859      2.00000
    168      -0.1859      2.00000
    169       0.1658      2.00000
    170       0.1658      2.00000
    171       0.9411      2.00000
    172       1.0784      2.00000
    173       1.1962      2.00000
    174       1.6562      2.00245
    175       1.6562      2.00245
    176       1.7343      2.01155
    177       1.7784      2.02332
    178       1.7784      2.02335
    179       2.2190      0.47886
    180       2.3173      0.01091
    181       3.5193     -0.00000
    182       3.5193     -0.00000
    183       4.0762     -0.00000
    184       4.0762     -0.00000
    185       4.3345     -0.00000
    186       4.3345     -0.00000
    187       4.7039     -0.00000
    188       4.7039     -0.00000
    189       4.8882     -0.00000
    190       4.8882     -0.00000
    191       5.1926     -0.00000
    192       5.1926     -0.00000
    193       5.8141     -0.00000
    194       6.3235     -0.00000
    195       6.3235     -0.00000
    196       6.5435     -0.00000
    197       6.8623     -0.00000
    198       7.0849     -0.00000
    199       7.0849     -0.00000
    200       7.5331     -0.00000
    201       7.5332     -0.00000
    202       7.6395      0.00000
    203       7.8263      0.00000
    204       7.8264      0.00000
    205       7.8919      0.00000
    206       7.8919      0.00000
    207       7.8995      0.00000
    208       7.8996      0.00000
    209       8.1331      0.00000
    210       8.1339      0.00000
    211       8.4788      0.00000
    212       8.9443      0.00000

 k-point   5 :       0.0625    0.1875    0.0625
  band No.  band energies     occupation 
      1      -4.3688      2.00000
      2      -3.3128      2.00000
      3      -3.3082      2.00000
      4      -3.3064      2.00000
      5      -3.3063      2.00000
      6      -3.2904      2.00000
      7      -3.2903      2.00000
      8      -3.2815      2.00000
      9      -3.2397      2.00000
     10      -3.2281      2.00000
     11      -3.2280      2.00000
     12      -3.1952      2.00000
     13      -2.9557      2.00000
     14      -2.9534      2.00000
     15      -2.9481      2.00000
     16      -2.8940      2.00000
     17      -2.8865      2.00000
     18      -2.8846      2.00000
     19      -2.8381      2.00000
     20      -2.8379      2.00000
     21      -2.7685      2.00000
     22      -2.7672      2.00000
     23      -2.7615      2.00000
     24      -2.7598      2.00000
     25      -2.7524      2.00000
     26      -2.7506      2.00000
     27      -2.7434      2.00000
     28      -2.7132      2.00000
     29      -2.7128      2.00000
     30      -2.7068      2.00000
     31      -2.6669      2.00000
     32      -2.6653      2.00000
     33      -2.6404      2.00000
     34      -2.6401      2.00000
     35      -2.6313      2.00000
     36      -2.6297      2.00000
     37      -2.5924      2.00000
     38      -2.5910      2.00000
     39      -2.5781      2.00000
     40      -2.5559      2.00000
     41      -2.5537      2.00000
     42      -2.5487      2.00000
     43      -2.5474      2.00000
     44      -2.4429      2.00000
     45      -2.4427      2.00000
[...]
    108      -1.5722      2.00000
    109      -1.5709      2.00000
    110      -1.5708      2.00000
    111      -1.5707      2.00000
    112      -1.5700      2.00000
    113      -1.5700      2.00000
    114      -1.5693      2.00000
    115      -1.5677      2.00000
    116      -1.5144      2.00000
    117      -1.5128      2.00000
    118      -1.5112      2.00000
    119      -1.4996      2.00000
    120      -1.4715      2.00000
    121      -1.4713      2.00000
    122      -1.4703      2.00000
    123      -1.4703      2.00000
    124      -1.4692      2.00000
    125      -1.4691      2.00000
    126      -1.4070      2.00000
    127      -1.4070      2.00000
    128      -1.4069      2.00000
    129      -1.3722      2.00000
    130      -1.3721      2.00000
    131      -1.3572      2.00000
    132      -1.3561      2.00000
    133      -1.3550      2.00000
    134      -1.3472      2.00000
    135      -1.3458      2.00000
    136      -1.3445      2.00000
    137      -1.2812      2.00000
    138      -1.2800      2.00000
    139      -1.2788      2.00000
    140      -1.2364      2.00000
    141      -1.2364      2.00000
    142      -1.1857      2.00000
    143      -1.1847      2.00000
    144      -1.1838      2.00000
    145      -0.8111      2.00000
    146      -0.8109      2.00000
    147      -0.8106      2.00000
    148      -0.7971      2.00000
    149      -0.7965      2.00000
    150      -0.7964      2.00000
    151      -0.7964      2.00000
    152      -0.7962      2.00000
    153      -0.7962      2.00000
    154      -0.7961      2.00000
    155      -0.7960      2.00000
    156      -0.7960      2.00000
    157      -0.7959      2.00000
    158      -0.7957      2.00000
    159      -0.7952      2.00000
    160      -0.7943      2.00000
    161      -0.7942      2.00000
    162      -0.7940      2.00000
    163      -0.7842      2.00000
    164      -0.7840      2.00000
    165      -0.7837      2.00000
    166      -0.7762      2.00000
    167      -0.7761      2.00000
    168      -0.7759      2.00000
    169       2.2376      0.35425
    170       2.2393      0.34414
    171       2.2409      0.33441
    172       2.5601     -0.01441
    173       2.5616     -0.01404
    174       2.5630     -0.01373
    175       2.5630     -0.01373
    176       2.5643     -0.01342
    177       2.5659     -0.01306
    178       2.8489     -0.00001
    179       2.8495     -0.00001
    180       2.8501     -0.00001
    181       3.0662     -0.00000
    182       3.0669     -0.00000
    183       3.0676     -0.00000
    184       3.4039     -0.00000
    185       3.4057     -0.00000
    186       3.4069     -0.00000
    187       3.4070     -0.00000
    188       3.4082     -0.00000
    189       3.4100     -0.00000
    190       3.7101     -0.00000
    191       3.7117     -0.00000
    192       3.7134     -0.00000
    193       6.5653     -0.00000
    194       6.5660     -0.00000
    195       6.5666     -0.00000
    196       6.8984     -0.00000
    197       6.8993     -0.00000
    198       6.9001     -0.00000
    199       7.3229     -0.00000
    200       7.3232     -0.00000
    201       7.3254     -0.00000
    202       7.3254     -0.00000
    203       7.3275     -0.00000
    204       7.3278     -0.00000
    205       7.6635      0.00000
    206       7.6638      0.00000
    207       7.6657      0.00000
    208       7.6664      0.00000
    209       7.6678      0.00000
    210       7.6761      0.00000
    211       8.0728      0.00000
    212       8.0796      0.00000


--------------------------------------------------------------------------------------------------------


 soft charge-density along one line, spin component           1
         0         1         2         3         4         5         6         7         8         9
 total charge-density along one line
 
 pseudopotential strength for first ion, spin component:           1
-12.548   0.000   0.000   0.000   0.000   0.202  -0.000  -0.000
  0.000 -12.548   0.000   0.000  -0.000  -0.000   0.202  -0.000
  0.000   0.000 -12.540   0.000  -0.000  -0.000  -0.000   0.201
  0.000   0.000   0.000 -12.548   0.000  -0.000  -0.000  -0.000
  0.000  -0.000  -0.000   0.000 -12.540  -0.000   0.000   0.000
  0.202  -0.000  -0.000  -0.000  -0.000   0.444   0.000   0.000
 -0.000   0.202  -0.000  -0.000   0.000   0.000   0.444   0.000
 -0.000  -0.000   0.201  -0.000   0.000   0.000   0.000   0.444
 -0.000  -0.000  -0.000   0.202  -0.000   0.000   0.000   0.000
 -0.000   0.000   0.000  -0.000   0.201   0.000  -0.000  -0.000
 -0.000  -0.000   0.000  -0.000  -0.000   0.000   0.000  -0.000
 -0.000   0.000  -0.000   0.000   0.000   0.000  -0.000   0.000
  0.000  -0.000   0.000   0.000   0.000  -0.000   0.000  -0.000
  0.000  -0.000  -0.000   0.000   0.000  -0.000   0.000   0.000
 -0.000   0.000  -0.000  -0.000   0.000   0.000  -0.000   0.000
 -0.000   0.000  -0.000  -0.000  -0.000   0.000  -0.000   0.000
 -0.000   0.000   0.000  -0.000  -0.000   0.000  -0.000  -0.000
  0.000  -0.000   0.000   0.000  -0.000  -0.000   0.000  -0.000
 total augmentation occupancy for first ion, spin component:           1
  1.942   0.000  -0.001  -0.000  -0.000  -0.034  -0.000  -0.000  -0.000   0.000   0.004  -0.001   0.000  -0.000   0.000   0.000
  0.000   1.945  -0.001  -0.000  -0.001  -0.000  -0.036   0.001   0.000   0.000   0.003  -0.001  -0.000   0.000   0.000   0.000
 -0.001  -0.001   1.968  -0.001  -0.002  -0.000   0.001  -0.059   0.001   0.001   0.011   0.001   0.000  -0.000   0.000   0.000
 -0.000  -0.000  -0.001   1.947  -0.000  -0.000   0.000   0.001  -0.038   0.001   0.002  -0.001  -0.000   0.000  -0.000   0.000
 -0.000  -0.001  -0.002  -0.000   1.961   0.000   0.000   0.001   0.001  -0.054   0.007   0.000  -0.000  -0.000   0.000   0.000
 -0.034  -0.000  -0.000  -0.000   0.000   0.051   0.000   0.001   0.000  -0.000  -0.002   0.001   0.000   0.000  -0.000  -0.000
 -0.000  -0.036   0.001   0.000   0.000   0.000   0.053  -0.002  -0.000   0.001  -0.000   0.001  -0.000  -0.000  -0.000  -0.000
 -0.000   0.001  -0.059   0.001   0.001   0.001  -0.002   0.045  -0.001  -0.001  -0.008   0.000  -0.000   0.000  -0.000   0.000
 -0.000   0.000   0.001  -0.038   0.001   0.000  -0.000  -0.001   0.055  -0.001   0.001   0.001   0.000  -0.000   0.000  -0.000
  0.000   0.000   0.001   0.001  -0.054  -0.000   0.001  -0.001  -0.001   0.043  -0.005   0.000   0.000   0.000   0.000  -0.000
  0.004   0.003   0.011   0.002   0.007  -0.002  -0.000  -0.008   0.001  -0.005   0.960  -0.290   0.000   0.000  -0.000  -0.000
 -0.001  -0.001   0.001  -0.001   0.000   0.001   0.001   0.000   0.001   0.000  -0.290   0.134  -0.000  -0.000   0.000   0.000
  0.000  -0.000   0.000  -0.000  -0.000   0.000  -0.000  -0.000   0.000   0.000   0.000  -0.000   0.081   0.001   0.002  -0.004
 -0.000   0.000  -0.000   0.000  -0.000   0.000  -0.000   0.000  -0.000   0.000   0.000  -0.000   0.001   0.085  -0.001  -0.000
  0.000   0.000   0.000  -0.000   0.000  -0.000  -0.000  -0.000   0.000   0.000  -0.000   0.000   0.002  -0.001   0.083  -0.000
  0.000   0.000   0.000   0.000   0.000  -0.000  -0.000   0.000  -0.000  -0.000  -0.000   0.000  -0.004  -0.000  -0.000   0.000
  0.000  -0.000   0.000   0.000   0.000  -0.000  -0.000  -0.000  -0.000  -0.000  -0.000  -0.000  -0.000  -0.005  -0.000   0.000
 -0.000  -0.000  -0.000  -0.000   0.000   0.000   0.000   0.000   0.000  -0.000   0.000  -0.000  -0.000  -0.000  -0.004   0.000


------------------------ aborting loop because EDIFF is reached ----------------------------------------




--------------------------------------------------------------------------------------------------------


    CHARGE:  VPU time   10.44: CPU time   10.43
    FORLOC:  VPU time    0.08: CPU time    0.08
    FORNL :  VPU time  128.19: CPU time  128.11
    STRESS:  VPU time  184.38: CPU time  184.28
    FORCOR:  VPU time    0.47: CPU time    0.47
    FORHAR:  VPU time    0.14: CPU time    0.14
    MIXING:  VPU time    0.01: CPU time    0.01


--------------------------------------------------------------------------------------------------------



  FREE ENERGIE OF THE ION-ELECTRON SYSTEM (eV)
  ---------------------------------------------------
  free  energy   TOTEN  =       -88.562602 eV

  energy  without entropy=      -88.547786  energy(sigma->0) =      -88.557664
 

  FORCE on cell =-STRESS in cart. coord.  units (eV/reduce length):
  Direction    X        Y        Z        XY       YZ       ZX
  --------------------------------------------------------------------------------------
  Alpha Z   2799.23   2799.23   2799.23
  Ewald    -9839.00  -9838.87  -9838.87     -0.00     -0.00     -0.00
  Hartree   2337.05   2337.14   2337.14     -0.00     -0.00     -0.00
  E(xc)    -1852.96  -1852.96  -1852.96     -0.00     -0.00     -0.00
  Local     3000.95   3000.73   3000.73      0.00      0.00      0.00
  n-local  -2158.52  -2161.92  -2155.12      2.05      1.11      0.17
  augment   1336.85   1336.84   1336.84     -0.00     -0.00     -0.00
  Kinetic   4346.26   4340.60   4351.92      1.48     -0.23     -1.95
  -------------------------------------------------------------------------------------
  Total      -30.15    -30.15    -30.15     -0.00     -0.00     -0.00
  in kB      -74.35    -74.37    -74.37     -0.00     -0.00     -0.00
  external pressure =      -74.36 kB  Pullay stress =        0.00 kB


 VOLUME and BASIS-vectors are now :
 -----------------------------------------------------------------------------
  energy-cutoff  :      600.00
  volume of cell :      649.61
      direct lattice vectors                 reciprocal lattice vectors
     8.660639780  0.000000000  0.000000000     0.115464911 -0.000000002 -0.000000002
     0.000000160  8.660639780  0.000000000     0.000000000  0.115464911 -0.000000002
     0.000000160  0.000000160  8.660639780     0.000000000  0.000000000  0.115464911

  length of vectors
     8.660639780  8.660639780  8.660639780     0.115464911  0.115464911  0.115464911


 FORCES acting on ions
    electron-ion (+dipol)            ewald-force                    non-local-force                 convergence-correction
 -----------------------------------------------------------------------------------------------
   0.230E-01 0.140E+00 -.134E-07   -.257E-01 -.140E+00 0.143E-07   0.195E-02 -.532E-03 0.122E-22   0.267E-03 -.254E-03 0.156E-09
   0.887E+00 0.171E+01 -.777E-08   -.881E+00 -.170E+01 0.273E-09   -.101E-01 -.838E-02 -.632E-20   -.149E-02 -.164E-02 -.166E-09
   0.887E+00 -.295E-07 -.171E+01   -.881E+00 0.312E-07 0.170E+01   -.101E-01 0.155E-09 0.838E-02   -.149E-02 0.162E-09 0.164E-02
   0.230E-01 -.140E+00 0.785E-08   -.257E-01 0.140E+00 -.835E-08   0.195E-02 0.532E-03 0.207E-20   0.267E-03 0.254E-03 -.116E-09
   -.110E+01 -.804E-02 0.804E-02   0.110E+01 0.797E-02 -.797E-02   -.144E-02 0.565E-04 -.565E-04   -.281E-03 0.251E-04 -.251E-04
   -.580E+00 0.211E-08 0.389E-07   0.582E+00 -.158E-08 -.426E-07   -.125E-02 0.488E-19 -.238E-21   -.360E-03 0.311E-09 -.579E-09
   0.281E-01 -.140E+00 0.753E-08   -.308E-01 0.139E+00 -.801E-08   0.193E-02 0.558E-03 0.182E-20   0.305E-03 0.218E-03 -.114E-09
   0.887E+00 0.238E-07 0.171E+01   -.881E+00 -.312E-07 -.170E+01   -.101E-01 -.155E-09 -.838E-02   -.149E-02 -.197E-09 -.164E-02
   0.887E+00 -.171E+01 0.200E-08   -.881E+00 0.170E+01 -.272E-09   -.101E-01 0.838E-02 0.813E-20   -.149E-02 0.164E-02 0.132E-09
   0.230E-01 0.523E-08 -.140E+00   -.257E-01 -.577E-08 0.140E+00   0.195E-02 0.983E-11 0.532E-03   0.267E-03 -.111E-09 0.254E-03
   -.110E+01 -.804E-02 -.804E-02   0.110E+01 0.797E-02 0.797E-02   -.144E-02 0.565E-04 0.565E-04   -.281E-03 0.250E-04 0.251E-04
   -.699E+01 0.113E-06 -.129E-06   0.696E+01 -.122E-06 -.122E-06   0.621E-01 0.322E-19 -.158E-19   0.796E-02 0.624E-09 0.625E-09
   -.110E+01 0.804E-02 0.804E-02   0.110E+01 -.797E-02 -.797E-02   -.144E-02 -.565E-04 -.565E-04   -.281E-03 -.251E-04 -.251E-04
   -.242E+00 0.110E-07 0.108E-07   0.240E+00 -.113E-07 -.113E-07   0.247E-02 0.921E-20 0.123E-19   -.704E-03 -.268E-09 -.268E-09
   0.898E+00 -.168E+01 0.189E-08   -.891E+00 0.168E+01 -.245E-09   -.101E-01 0.827E-02 -.616E-20   -.148E-02 0.167E-02 0.128E-09
   0.898E+00 0.234E-07 0.168E+01   -.891E+00 -.307E-07 -.168E+01   -.101E-01 -.153E-09 -.827E-02   -.148E-02 -.160E-09 -.167E-02
   0.281E-01 0.140E+00 -.136E-07   -.308E-01 -.139E+00 0.145E-07   0.193E-02 -.558E-03 0.308E-20   0.305E-03 -.218E-03 0.124E-09
   0.614E+00 0.235E-02 -.235E-02   -.617E+00 -.239E-02 0.239E-02   0.153E-02 0.378E-04 -.378E-04   0.711E-03 -.351E-05 0.351E-05
   0.465E+00 -.206E-08 -.268E-07   -.457E+00 0.156E-08 0.269E-07   -.630E-02 0.425E-19 -.385E-20   -.251E-03 -.292E-09 0.484E-09
   0.230E-01 -.108E-07 0.140E+00   -.257E-01 0.117E-07 -.140E+00   0.195E-02 -.983E-11 -.532E-03   0.267E-03 0.151E-09 -.254E-03
   -.110E+01 0.804E-02 -.804E-02   0.110E+01 -.797E-02 0.797E-02   -.144E-02 -.565E-04 0.565E-04   -.281E-03 -.250E-04 0.251E-04
   -.580E+00 0.398E-07 0.210E-08   0.582E+00 -.426E-07 -.158E-08   -.125E-02 -.215E-20 0.197E-20   -.360E-03 -.579E-09 0.311E-09
   0.898E+00 -.292E-07 -.168E+01   -.891E+00 0.307E-07 0.168E+01   -.101E-01 0.153E-09 0.827E-02   -.148E-02 0.159E-09 0.167E-02
   0.898E+00 0.168E+01 -.768E-08   -.891E+00 -.168E+01 0.299E-09   -.101E-01 -.827E-02 -.490E-20   -.148E-02 -.167E-02 -.129E-09
   0.281E-01 -.111E-07 0.140E+00   -.308E-01 0.120E-07 -.139E+00   0.193E-02 -.103E-10 -.558E-03   0.305E-03 0.120E-09 -.218E-03
   0.614E+00 0.235E-02 0.235E-02   -.617E+00 -.239E-02 -.239E-02   0.153E-02 0.378E-04 0.378E-04   0.711E-03 -.351E-05 -.351E-05
   0.182E+01 -.422E-08 0.244E-06   -.184E+01 0.210E-08 0.210E-08   0.132E-01 -.117E-21 0.147E-19   0.963E-03 -.567E-09 -.566E-09
   0.614E+00 -.235E-02 -.235E-02   -.617E+00 0.239E-02 0.239E-02   0.153E-02 -.378E-04 -.378E-04   0.711E-03 0.351E-05 0.351E-05
   0.224E+00 -.971E-08 -.983E-08   -.225E+00 0.997E-08 0.997E-08   0.950E-04 0.802E-20 0.121E-20   0.455E-03 0.272E-09 0.272E-09
   0.281E-01 0.493E-08 -.140E+00   -.308E-01 -.544E-08 0.139E+00   0.193E-02 0.103E-10 0.558E-03   0.305E-03 -.111E-09 0.218E-03
   0.614E+00 -.235E-02 0.235E-02   -.617E+00 0.239E-02 -.239E-02   0.153E-02 -.378E-04 0.378E-04   0.711E-03 0.351E-05 -.351E-05
   0.465E+00 -.259E-07 -.207E-08   -.457E+00 0.269E-07 0.156E-08   -.630E-02 -.151E-19 0.190E-20   -.252E-03 0.484E-09 -.291E-09
 -----------------------------------------------------------------------------------------------
   0.159E-02 -.401E-10 0.194E-08   -.138E-12 -.930E-13 0.377E-13   -.173E-02 -.112E-17 0.166E-17   -.441E-03 0.337E-10 0.331E-10
 
 
 POSITION                                       TOTAL-FORCE (eV/Angst)
 -----------------------------------------------------------------------------------
      6.49548      6.49548      4.33032        -0.000486     -0.000077      0.000000
      6.49548      6.49548      0.00000        -0.005300     -0.006313      0.000000
      6.49548      0.00000      2.16516        -0.005300      0.000000      0.006313
      6.49548      2.16516      4.33032        -0.000486      0.000077     -0.000000
      0.00000      6.49548      2.16516         0.001098      0.000015     -0.000015
      0.00000      0.00000      4.33032         0.000606     -0.000000     -0.000000
      2.16516      6.49548      4.33032        -0.000484      0.000078      0.000000
      6.49548      0.00000      6.49548        -0.005300     -0.000000     -0.006313
      6.49548      2.16516      0.00000        -0.005300      0.006313     -0.000000
      6.49548      4.33032      2.16516        -0.000486      0.000000      0.000077
      0.00000      6.49548      6.49548         0.001098      0.000015      0.000015
      8.64064      0.00000      0.00000         0.043307      0.000000     -0.000000
      0.00000      2.16516      2.16516         0.001098     -0.000015     -0.000015
      0.00000      4.33032      4.33032         0.000081     -0.000000      0.000000
      2.16516      6.49548      0.00000        -0.004851      0.005737     -0.000000
      2.16516      0.00000      2.16516        -0.004851     -0.000000     -0.005737
      2.16516      2.16516      4.33032        -0.000484     -0.000078     -0.000000
      4.33032      6.49548      2.16516        -0.001169     -0.000008      0.000008
      4.33032      0.00000      4.33032         0.001028     -0.000000     -0.000000
      6.49548      4.33032      6.49548        -0.000486     -0.000000     -0.000077
      0.00000      2.16516      6.49548         0.001098     -0.000015      0.000015
      0.00000      4.33032      0.00000         0.000606      0.000000      0.000000
      2.16516      0.00000      6.49548        -0.004851      0.000000      0.005737
      2.16516      2.16516      0.00000        -0.004851     -0.005737     -0.000000
      2.16516      4.33032      2.16516        -0.000484     -0.000000     -0.000078
      4.33032      6.49548      6.49548        -0.001169     -0.000008     -0.000008
      4.33032      0.00000      0.00000        -0.002190     -0.000000     -0.000000
      4.33032      2.16516      2.16516        -0.001169      0.000008      0.000008
      4.33032      4.33032      4.33032         0.000304     -0.000000      0.000000
      2.16516      4.33032      6.49548        -0.000484      0.000000      0.000078
      4.33032      2.16516      6.49548        -0.001169      0.000008     -0.000008
      4.33032      4.33032      0.00000         0.001028      0.000000      0.000000
 -----------------------------------------------------------------------------------
    total drift:                               -0.000577     -0.000000      0.000000


--------------------------------------------------------------------------------------------------------



 mean value of Nose-termostat <S>:     1.000 mean value of <T> :     0.000
 mean temperature <T/S>/<1/S>  :     0.000

     LOOP+:  VPU time 1808.39: CPU time 1807.65

 ----------------------------------------------------------------------------- 
|                                                                             |
|           W    W    AA    RRRRR   N    N  II  N    N   GGGG   !!!           |
|           W    W   A  A   R    R  NN   N  II  NN   N  G    G  !!!           |
|           W    W  A    A  R    R  N N  N  II  N N  N  G       !!!           |
|           W WW W  AAAAAA  RRRRR   N  N N  II  N  N N  G  GGG   !            |
|           WW  WW  A    A  R   R   N   NN  II  N   NN  G    G                |
|           W    W  A    A  R    R  N    N  II  N    N   GGGG   !!!           |
|                                                                             |
|      The partial DOS and the PROCAR file are not evaluated for NPAR/=1      |
|      please rerun with NPAR=1                                               |
|                                                                             |
 ----------------------------------------------------------------------------- 

  
  
 General timing and accounting informations for this job:
 ========================================================
  
                  Total CPU time used (sec):     1866.096
                            User time (sec):     1799.236
                          System time (sec):       66.860
                         Elapsed time (sec):     1865.401
  
                   Maximum memory used (kb):     3796892.
                   Average memory used (kb):           0.
  
                          Minor page faults:       709099
                          Major page faults:            0
                 Voluntary context switches:          887
