       N       E                     dE             d eps       ncg     rms          rms(c)
RMM:   1     0.393381986076E+04    0.39338E+04   -0.16335E+05  4240   0.169E+03
RMM:   2     0.829856316205E+03   -0.31040E+04   -0.34565E+04  4240   0.413E+02
RMM:   3     0.184669851581E+03   -0.64519E+03   -0.69995E+03  4240   0.160E+02
RMM:   4    -0.124367536466E+02   -0.19711E+03   -0.14472E+03  4240   0.749E+01
RMM:   5    -0.772349327337E+02   -0.64798E+02   -0.38927E+02  4240   0.457E+01
RMM:   6    -0.907287092356E+02   -0.13494E+02   -0.96259E+01  4240   0.225E+01
RMM:   7    -0.935970361999E+02   -0.28683E+01   -0.23305E+01  4240   0.123E+01
RMM:   8    -0.942107013579E+02   -0.61367E+00   -0.57191E+00  4240   0.570E+00
RMM:   9    -0.944043701261E+02   -0.19367E+00   -0.18226E+00  8480   0.297E+00
RMM:  10    -0.944213483633E+02   -0.16978E-01   -0.15961E-01  8471   0.430E-01
RMM:  11    -0.944220104126E+02   -0.66205E-03   -0.59964E-03  8160   0.199E-01
RMM:  12    -0.944220743299E+02   -0.63917E-04   -0.61662E-04  6987   0.186E-02    0.140E+01
RMM:  13    -0.887084385969E+02    0.57136E+01   -0.24108E+01  8480   0.157E+01    0.267E+00
RMM:  14    -0.886117916403E+02    0.96647E-01   -0.36166E-01  8480   0.112E+00    0.150E+00
RMM:  15    -0.885635630722E+02    0.48229E-01   -0.51161E-02  8480   0.968E-01    0.243E-01
RMM:  16    -0.885637678500E+02   -0.20478E-03   -0.17623E-02  8480   0.378E-01    0.141E-01
RMM:  17    -0.885630877496E+02    0.68010E-03   -0.66820E-04  8480   0.841E-02    0.345E-02
RMM:  18    -0.885630435025E+02    0.44247E-04   -0.14982E-04  8345   0.369E-02    0.322E-03
RMM:  19    -0.885630381430E+02    0.53595E-05   -0.22951E-06  3803   0.221E-03
   1 F= -.88563038E+02 E0= -.88558100E+02  d E =-.885630E+02
