 vasp.4.6.28 25Jul05 complex 
 executed on             LinuxIFC date 2017.01.20  19:29:43
 running on    4 nodes
 distr:  one band on    1 nodes,    4 groups


--------------------------------------------------------------------------------------------------------


 INCAR:
 POTCAR:   PAW_PBE Ag 06Sep2000                   
 POTCAR:   PAW_PBE Ag 06Sep2000                   
   VRHFIN =Ag : s1 d10                                                          
   LEXCH  = PE                                                                  
   EATOM  =  1037.4134 eV,   76.2477 Ry                                         
                                                                                
   TITEL  = PAW_PBE Ag 06Sep2000                                                
   LULTRA =        F    use ultrasoft PP ?                                      
   IUNSCR =        1    unscreen: 0-lin 1-nonlin 2-no                           
   RPACOR =    2.000    partial core radius                                     
   POMASS =  107.868; ZVAL   =   11.000    mass and valenz                      
   RCORE  =    2.400    outmost cutoff radius                                   
   RWIGS  =    2.840; RWIGS  =    1.503    wigner-seitz radius (au A)           
   ENMAX  =  249.846; ENMIN  =  187.385 eV                                      
   RCLOC  =    1.962    cutoff for local pot                                    
   LCOR   =        T    correct aug charges                                     
   LPAW   =        T    paw PP                                                  
   EAUG   =  412.496                                                            
   DEXC   =    -.047                                                            
   RMAX   =    2.917    core radius for proj-oper                               
   RAUG   =    1.300    factor for augmentation sphere                          
   RDEP   =    2.416    radius for radial grids                                 
   QCUT   =   -4.285; QGAM   =    8.570    optimization parameters              
                                                                                
   Description                                                                  
     l     E      TYP  RCUT    TYP  RCUT                                        
     2   .000     23  2.400                                                     
     2   .000     23  2.400                                                     
     0   .000     23  2.400                                                     
     0   .000     23  2.400                                                     
     1  -.200     23  2.400                                                     
     1  1.500     23  2.400                                                     
     3   .000      7   .000                                                     
  local pseudopotential read in
  partial core-charges read in
  atomic valenz-charges read in
  non local Contribution for L=           2  read in
    real space projection operators read in
  non local Contribution for L=           2  read in
    real space projection operators read in
  non local Contribution for L=           0  read in
    real space projection operators read in
  non local Contribution for L=           0  read in
    real space projection operators read in
  non local Contribution for L=           1  read in
    real space projection operators read in
  non local Contribution for L=           1  read in
    real space projection operators read in
    PAW grid and wavefunctions read in
 
   number of l-projection  operators is LMAX  =           6
   number of lm-projection operators is LMMAX =          18
 

 ----------------------------------------------------------------------------- 
|                                                                             |
|  ADVICE TO THIS USER RUNNING 'VASP/VAMP'   (HEAR YOUR MASTER'S VOICE ...):  |
|                                                                             |
|      You have a (more or less) 'large supercell' and for larger cells       |
|      it might be more efficient to use real space projection operators      |
|      So try LREAL= Auto  in the INCAR   file.                               |
|      Mind: If you want to do an extremely accurate calculations keep the    |
|      reciprocal projection scheme          (i.e. LREAL=.FALSE.)             |
|                                                                             |
 ----------------------------------------------------------------------------- 

 PAW_PBE Ag 06Sep2000                   :
 energy of atom  1       EATOM=-1037.4134
 kinetic energy error for atom=    0.0019 (will be added to EATOM!!)
 
 EXHCAR: internal setup
 exchange correlation table for  LEXCH =        8
   RHO(1)=    0.500       N(1)  =     2000
   RHO(2)=  100.500       N(2)  =     4000
 
 POSCAR: No title                                
  positions in direct lattice
  No initial velocities read in
 


--------------------------------------------------------------------------------------------------------


 ion  position               nearest neighbor table
   1  0.750  0.750  0.500-   3 3.06   5 3.06  14 3.06  19 3.06  20 3.06  26 3.06   6 3.06  29 3.06
                            11 3.06  18 3.06  10 3.06   8 3.06
   2  0.750  0.750  0.000-   8 3.06  10 3.06  11 3.06  18 3.06  22 3.06  27 3.06  12 3.06  32 3.06
                             5 3.06  26 3.06   3 3.06  20 3.06
   3  0.750  0.000  0.250-   1 3.06   5 3.06   9 3.06  12 3.06  19 3.06  28 3.06  13 3.06  18 3.06
                            27 3.06   6 3.06   4 3.06   2 3.06
   4  0.750  0.250  0.500-   6 3.06   8 3.06  10 3.06  13 3.06  29 3.06  31 3.06  14 3.06  19 3.06
                            21 3.06  28 3.06   3 3.06  20 3.06
   5  0.000  0.750  0.250-   1 3.06   3 3.06  12 3.06  14 3.06  15 3.06  25 3.06  16 3.06  10 3.06
                             2 3.06   7 3.06  22 3.06   6 3.06
   6  0.000  0.000  0.500-   4 3.06   7 3.06   8 3.06  11 3.06  13 3.06  16 3.06   1 3.06  17 3.06
                             3 3.06  23 3.06  21 3.06   5 3.06
   7  0.250  0.750  0.500-   6 3.06  11 3.06  16 3.06  18 3.06  29 3.06  30 3.06  14 3.06  19 3.06
                             5 3.06  26 3.06  25 3.06  23 3.06
   8  0.750  0.000  0.750-   2 3.06   4 3.06   6 3.06  11 3.06  27 3.06  31 3.06  21 3.06  26 3.06
                            12 3.06  19 3.06   9 3.06   1 3.06
   9  0.750  0.250  0.000-   3 3.06  12 3.06  20 3.06  21 3.06  28 3.06  32 3.06  22 3.06  27 3.06
                            31 3.06  13 3.06  10 3.06   8 3.06
  10  0.750  0.500  0.250-   2 3.06   4 3.06  13 3.06  18 3.06  22 3.06  29 3.06  28 3.06   5 3.06
                            14 3.06  32 3.06   9 3.06   1 3.06
  11  0.000  0.750  0.750-   2 3.06   6 3.06   7 3.06   8 3.06  22 3.06  30 3.06  23 3.06  20 3.06
                             1 3.06  15 3.06  14 3.06  12 3.06
  12  0.000  0.000  0.000-   3 3.06   5 3.06   9 3.06  15 3.06  21 3.06  23 3.06   2 3.06  24 3.06
                            16 3.06   8 3.06  13 3.06  11 3.06
  13  0.000  0.250  0.250-   4 3.06   6 3.06  10 3.06  16 3.06  22 3.06  24 3.06   3 3.06  25 3.06
                            17 3.06   9 3.06  14 3.06  12 3.06
  14  0.000  0.500  0.500-   1 3.06   5 3.06  17 3.06  20 3.06  21 3.06  25 3.06   4 3.06   7 3.06
                            10 3.06  30 3.06  13 3.06  11 3.06
  15  0.250  0.750  0.000-   5 3.06  12 3.06  23 3.06  25 3.06  26 3.06  32 3.06  27 3.06  22 3.06
                            11 3.06  18 3.06  30 3.06  16 3.06
  16  0.250  0.000  0.250-   6 3.06   7 3.06  13 3.06  18 3.06  24 3.06  27 3.06   5 3.06  28 3.06
                            19 3.06  12 3.06  17 3.06  15 3.06
  17  0.250  0.250  0.500-  14 3.06  19 3.06  21 3.06  23 3.06  25 3.06  28 3.06   6 3.06  29 3.06
                            13 3.06  31 3.06  30 3.06  16 3.06
  18  0.500  0.750  0.250-   2 3.06   7 3.06  10 3.06  16 3.06  27 3.06  29 3.06   3 3.06  25 3.06
                             1 3.06  15 3.06  19 3.06  32 3.06
  19  0.500  0.000  0.500-   1 3.06   3 3.06  17 3.06  23 3.06  26 3.06  28 3.06   4 3.06   7 3.06
                             8 3.06  16 3.06  18 3.06  31 3.06
  20  0.750  0.500  0.750-   1 3.06   9 3.06  14 3.06  21 3.06  26 3.06  32 3.06  31 3.06  11 3.06
                            22 3.06  29 3.06   4 3.06   2 3.06
  21  0.000  0.250  0.750-   9 3.06  12 3.06  14 3.06  17 3.06  20 3.06  23 3.06   8 3.06  30 3.06
                            24 3.06   4 3.06  22 3.06   6 3.06
  22  0.000  0.500  0.000-   2 3.06  10 3.06  11 3.06  13 3.06  24 3.06  30 3.06   9 3.06  15 3.06
                            25 3.06  20 3.06  21 3.06   5 3.06
  23  0.250  0.000  0.750-  12 3.06  15 3.06  17 3.06  19 3.06  21 3.06  26 3.06  11 3.06  31 3.06
                            27 3.06   6 3.06  24 3.06   7 3.06
  24  0.250  0.250  0.000-  13 3.06  16 3.06  22 3.06  27 3.06  30 3.06  31 3.06  12 3.06  32 3.06
                            28 3.06  21 3.06  25 3.06  23 3.06
  25  0.250  0.500  0.250-   5 3.06  14 3.06  15 3.06  17 3.06  28 3.06  32 3.06  13 3.06  18 3.06
                            29 3.06  22 3.06  24 3.06   7 3.06
  26  0.500  0.750  0.750-   1 3.06  15 3.06  19 3.06  20 3.06  23 3.06  32 3.06  30 3.06   8 3.06
                             7 3.06   2 3.06  27 3.06  29 3.06
  27  0.500  0.000  0.000-   2 3.06   8 3.06  16 3.06  18 3.06  24 3.06  31 3.06   9 3.06  15 3.06
                             3 3.06  23 3.06  28 3.06  26 3.06
  28  0.500  0.250  0.250-   3 3.06   9 3.06  17 3.06  19 3.06  25 3.06  32 3.06  10 3.06  16 3.06
                             4 3.06  24 3.06  29 3.06  27 3.06
  29  0.500  0.500  0.500-   4 3.06   7 3.06  10 3.06  18 3.06  30 3.06  31 3.06  17 3.06   1 3.06
                            20 3.06  25 3.06  26 3.06  28 3.06
  30  0.250  0.500  0.750-   7 3.06  11 3.06  22 3.06  24 3.06  29 3.06  31 3.06  21 3.06  26 3.06
                            14 3.06  32 3.06  17 3.06  15 3.06
  31  0.500  0.250  0.750-   4 3.06   8 3.06  24 3.06  27 3.06  29 3.06  30 3.06  20 3.06  23 3.06
                             9 3.06  17 3.06  19 3.06  32 3.06
  32  0.500  0.500  0.000-   9 3.06  15 3.06  20 3.06  25 3.06  26 3.06  28 3.06  24 3.06   2 3.06
                            10 3.06  30 3.06  18 3.06  31 3.06
 
  LATTYP: Found a simple cubic cell.
 ALAT       =     8.6606397800
  
  Lattice vectors:
  
 A1 = (   8.6606397800,   0.0000000000,   0.0000000000)
 A2 = (   0.0000001600,   8.6606397800,   0.0000000000)
 A3 = (   0.0000001600,   0.0000001600,   8.6606397800)
 Subroutine PRICEL returns following result:
 
  LATTYP: Found a face centered cubic cell.
 ALAT       =     4.3303199300
  
  Lattice vectors:
  
 A1 = (   2.1651599850,   2.1651599450,   0.0000000000)
 A2 = (   2.1651599050,  -0.0000000400,  -2.1651599450)
 A3 = (  -0.0000000000,   2.1651599050,  -2.1651599450)
 
  32 primitive cells build up your supercell.
 

Analysis of symmetry for initial positions (statically):

 Routine SETGRP: Setting up the symmetry group for a 
 simple cubic supercell.


 Subroutine GETGRP returns: Found 48 space group operations
 (whereof 48 operations were pure point group operations)
 out of a pool of 48 trial point group operations.


The static configuration has the point symmetry O_h .

Analysis of symmetry for dynamics (positions and initial velocities):

 Subroutine DYNSYM returns: Found 48 space group operations
 (whereof 48 operations were pure point group operations)
 out of a pool of 48 trial space group operations
 (whereof 48 operations were pure point group operations)
 and found also    32 'primitive' translations


The dynamic configuration has the point symmetry O_h .
 
 
 KPOINTS: Automatic mesh                          

Automatic generation of k-mesh.
 
 Subroutine IBZKPT returns following result:
 ===========================================
 
 Found     20 irreducible k-points:
 
 Following reciprocal coordinates:
            Coordinates               Weight
  0.062500  0.062500  0.062500      8.000000
  0.187500  0.062500  0.062500     24.000000
  0.312500  0.062500  0.062500     24.000000
  0.437500  0.062500  0.062500     24.000000
  0.187500  0.187500  0.062500     24.000000
  0.312500  0.187500  0.062500     48.000000
  0.437500  0.187500  0.062500     48.000000
  0.312500  0.312500  0.062500     24.000000
  0.437500  0.312500  0.062500     48.000000
  0.437500  0.437500  0.062500     24.000000
  0.187500  0.187500  0.187500      8.000000
  0.312500  0.187500  0.187500     24.000000
  0.437500  0.187500  0.187500     24.000000
  0.312500  0.312500  0.187500     24.000000
  0.437500  0.312500  0.187500     48.000000
  0.437500  0.437500  0.187500     24.000000
  0.312500  0.312500  0.312500      8.000000
  0.437500  0.312500  0.312500     24.000000
  0.437500  0.437500  0.312500     24.000000
  0.437500  0.437500  0.437500      8.000000
 
 Following cartesian coordinates:
            Coordinates               Weight
  0.007217  0.007217  0.007217      8.000000
  0.021650  0.007217  0.007217     24.000000
  0.036083  0.007217  0.007217     24.000000
  0.050516  0.007217  0.007217     24.000000
  0.021650  0.021650  0.007217     24.000000
  0.036083  0.021650  0.007217     48.000000
  0.050516  0.021650  0.007217     48.000000
  0.036083  0.036083  0.007217     24.000000
  0.050516  0.036083  0.007217     48.000000
  0.050516  0.050516  0.007217     24.000000
  0.021650  0.021650  0.021650      8.000000
  0.036083  0.021650  0.021650     24.000000
  0.050516  0.021650  0.021650     24.000000
  0.036083  0.036083  0.021650     24.000000
  0.050516  0.036083  0.021650     48.000000
  0.050516  0.050516  0.021650     24.000000
  0.036083  0.036083  0.036083      8.000000
  0.050516  0.036083  0.036083     24.000000
  0.050516  0.050516  0.036083     24.000000
  0.050516  0.050516  0.050516      8.000000
 


--------------------------------------------------------------------------------------------------------




 Dimension of arrays:
   k-Points           NKPTS =     20   number of bands    NBANDS=    212
   number of dos      NEDOS =    301   number of ions     NIONS =     32
   non local maximal  LDIM  =      6   non local SUM 2l+1 LMDIM =     18
   total plane-waves  NPLWV = 343000
   max r-space proj   IRMAX =      1   max aug-charges    IRDMAX= 207869
   dimension x,y,z NGX =    70 NGY =   70 NGZ =   70
   dimension x,y,z NGXF=   140 NGYF=  140 NGZF=  140
   support grid    NGXF=   280 NGYF=  280 NGZF=  280
   ions per type =              32
 NGX,Y,Z   is equivalent  to a cutoff of  13.44, 13.44, 13.44 a.u.
 NGXF,Y,Z  is equivalent  to a cutoff of  26.87, 26.87, 26.87 a.u.


 I would recommend the setting:
   dimension x,y,z NGX =    69 NGY =   69 NGZ =   69
 SYSTEM =  No title                                
 POSCAR =  No title                                

 Startparameter for this run:
   NWRITE =      2    write-flag & timer
   PREC   = accura    medium, high low
   ISTART =      0    job   : 0-new  1-cont  2-samecut
   ICHARG =      2    charge: 1-file 2-atom 10-const
   ISPIN  =      1    spin polarized calculation?
   LNONCOLLINEAR =      F non collinear calculations
   LSORBIT =      F    spin-orbit coupling
   INIWAV =      1    electr: 0-lowe 1-rand  2-diag
   LASPH  =      F    aspherical Exc in radial PAW
   METAGGA=      F    non-selfconsistent MetaGGA calc.

 Electronic Relaxation 1
   ENCUT  =  600.0 eV  44.10 Ry    6.64 a.u.  17.30 17.30 17.30*2*pi/ulx,y,z
   ENINI  =  600.0     initial cutoff
   ENAUG  =  412.5 eV  augmentation charge cutoff
   NELM   =     60;   NELMIN=  2; NELMDL=-12     # of ELM steps 
   EDIFF  = 0.1E-04   stopping-criterion for ELM
   LREAL  =      F    real-space projection
   LCOMPAT=      F    compatible to vasp.4.4
   LREAL_COMPAT= F    compatible to vasp.4.5.1-3
   GGA_COMPAT  = T    GGA compatible to vasp.4.4-vasp.4.6
   LMAXPAW     = -100 max onsite density
   LMAXMIX     =    2 max onsite mixed and CHGCAR
   VOSKOWN=      1    Vosko Wilk Nusair interpolation
   ROPT   =    0.00000
 Ionic relaxation
   EDIFFG = -.2E-01   stopping-criterion for IOM
   NSW    =    100    number of steps for IOM
   NBLOCK =      1;   KBLOCK =    100    inner block; outer block 
   IBRION =      2    ionic relax: 0-MD 1-quasi-New 2-CG
   NFREE  =      1    steps in history (QN), initial steepest desc. (CG)
   ISIF   =      2    stress and relaxation
   IWAVPR =     11    prediction:  0-non 1-charg 2-wave 3-comb
   ISYM   =      2    0-nonsym 1-usesym 2-fastsym
   LCORR  =      T    Harris-Foulkes like correction to forces

   POTIM  =   0.50    time-step for ionic-motion
   TEIN   =    0.0    initial temperature
   TEBEG  =    0.0;   TEEND  =   0.0 temperature during run
   SMASS  =  -3.00    Nose mass-parameter (am)
   estimated Nose-frequenzy (Omega)   =  0.10E-29 period in steps =****** mass=  -0.171E-26a.u.
   NPACO  =    256;   APACO  = 16.0  distance and # of slots for P.C.
   PSTRESS=    0.0 pullay stress

  Mass of Ions in am
   POMASS = 107.87
  Ionic Valenz
   ZVAL   =  11.00
  Atomic Wigner-Seitz radii
   RWIGS  =   1.34
   NELECT =     352.0000    total number of electrons
   NUPDOWN=      -1.0000    fix difference up-down

 DOS related values:
   EMIN   =  10.00;   EMAX   =-10.00  energy-range for DOS
   ISMEAR =     1;   SIGMA  =   0.20  broadening in eV -4-tet -1-fermi 0-gaus

 Electronic relaxation 2 (details)
   IALGO  =     48    algorithm
   LDIAG  =      T    sub-space diagonalisation
   IMIX   =      4    mixing-type and parameters
     AMIX     =   0.40;   BMIX     =  1.00
     AMIX_MAG =   1.60;   BMIX_MAG =  1.00
     AMIN     =   0.10
     WC   =   100.;   INIMIX=   1;  MIXPRE=   1

 Intra band minimization:
   WEIMIN = 0.0010     energy-eigenvalue tresh-hold
   EBREAK =  0.12E-07  absolut break condition
   DEPER  =   0.30     relativ break condition  

   TIME   =   0.10     timestep for ELM

  volume/ion in A,a.u.               =      20.30       136.99
  Fermi-wavevector in a.u.,eV,Ry     =   1.334665 24.236490  1.781332

 Second variation
   LSECVAR=     F    do a second variation
 
 Write flags
   LWAVE  =      T    write WAVECAR
   LCHARG =      F    write CHGCAR
   LVTOT  =      F    write LOCPOT, local potential
   LELF   =      F    write electronic localiz. function (ELF)
   LORBIT =      0    0 simple, 1 ext, 2 COOP (PROOUT)


 Dipole corrections
   IDIPOL =      0    1-x, 2-y, 3-z
   LDIPOL =      F    correct potential



--------------------------------------------------------------------------------------------------------


 conjugate gradient relaxation of ions
 charge density will be updated during run
 non-spin polarized calculation
 RMM-DIIS sequential band-by-band
 performe sub-space diagonalisation
    before iterative eigenvector-optimisation
 modified Broyden-mixing scheme, WC =      100.0
 initial mixing is a Kerker type mixing with AMIX =  0.4000 and BMIX =      1.0000
 Hartree-type preconditioning will be used
 using additional bands           36
 reciprocal scheme for non local part
 use partial core corrections
 calculate Harris-corrections to forces 
   (improved forces if not selfconsistent)
 use gradient corrections 
 use of overlap-Matrix (Vanderbilt PP)
 Methfessel and Paxton  Order N= 1 SIGMA  =   0.20


--------------------------------------------------------------------------------------------------------


  energy-cutoff  :      600.00
  volume of cell :      649.61
      direct lattice vectors                 reciprocal lattice vectors
     8.660639780  0.000000000  0.000000000     0.115464911 -0.000000002 -0.000000002
     0.000000160  8.660639780  0.000000000     0.000000000  0.115464911 -0.000000002
     0.000000160  0.000000160  8.660639780     0.000000000  0.000000000  0.115464911

  length of vectors
     8.660639780  8.660639780  8.660639780     0.115464911  0.115464911  0.115464911


 
 k-points in units of 2pi/SCALE and weight: Automatic mesh                          
   0.00721656  0.00721656  0.00721656       0.016
   0.02164967  0.00721656  0.00721656       0.047
   0.03608278  0.00721656  0.00721656       0.047
   0.05051590  0.00721656  0.00721656       0.047
   0.02164967  0.02164967  0.00721656       0.047
   0.03608278  0.02164967  0.00721656       0.094
   0.05051590  0.02164967  0.00721656       0.094
   0.03608278  0.03608278  0.00721656       0.047
   0.05051590  0.03608278  0.00721656       0.094
   0.05051590  0.05051590  0.00721656       0.047
   0.02164967  0.02164967  0.02164967       0.016
   0.03608278  0.02164967  0.02164967       0.047
   0.05051590  0.02164967  0.02164967       0.047
   0.03608278  0.03608278  0.02164967       0.047
   0.05051590  0.03608278  0.02164967       0.094
   0.05051590  0.05051590  0.02164967       0.047
   0.03608278  0.03608278  0.03608278       0.016
   0.05051590  0.03608278  0.03608278       0.047
   0.05051590  0.05051590  0.03608278       0.047
   0.05051590  0.05051590  0.05051590       0.016
 
 k-points in reciprocal lattice and weights: Automatic mesh                          
   0.06250000  0.06250000  0.06250000       0.016
   0.18750000  0.06250000  0.06250000       0.047
   0.31250000  0.06250000  0.06250000       0.047
   0.43750000  0.06250000  0.06250000       0.047
   0.18750000  0.18750000  0.06250000       0.047
   0.31250000  0.18750000  0.06250000       0.094
   0.43750000  0.18750000  0.06250000       0.094
   0.31250000  0.31250000  0.06250000       0.047
   0.43750000  0.31250000  0.06250000       0.094
   0.43750000  0.43750000  0.06250000       0.047
   0.18750000  0.18750000  0.18750000       0.016
   0.31250000  0.18750000  0.18750000       0.047
   0.43750000  0.18750000  0.18750000       0.047
   0.31250000  0.31250000  0.18750000       0.047
   0.43750000  0.31250000  0.18750000       0.094
   0.43750000  0.43750000  0.18750000       0.047
   0.31250000  0.31250000  0.31250000       0.016
   0.43750000  0.31250000  0.31250000       0.047
   0.43750000  0.43750000  0.31250000       0.047
   0.43750000  0.43750000  0.43750000       0.016
 
 position of ions in fractional coordinates (direct lattice) 
   0.75000000  0.75000000  0.50000000
   0.75000000  0.75000000  0.00000000
   0.75000000  0.00000000  0.25000000
   0.75000000  0.25000000  0.50000000
   0.00000000  0.75000000  0.25000000
   0.00000000  0.00000000  0.50000000
   0.25000000  0.75000000  0.50000000
   0.75000000  0.00000000  0.75000000
   0.75000000  0.25000000  0.00000000
   0.75000000  0.50000000  0.25000000
   0.00000000  0.75000000  0.75000000
   0.00000000  0.00000000  0.00000000
   0.00000000  0.25000000  0.25000000
   0.00000000  0.50000000  0.50000000
   0.25000000  0.75000000  0.00000000
   0.25000000  0.00000000  0.25000000
   0.25000000  0.25000000  0.50000000
   0.50000000  0.75000000  0.25000000
   0.50000000  0.00000000  0.50000000
   0.75000000  0.50000000  0.75000000
   0.00000000  0.25000000  0.75000000
   0.00000000  0.50000000  0.00000000
   0.25000000  0.00000000  0.75000000
   0.25000000  0.25000000  0.00000000
   0.25000000  0.50000000  0.25000000
   0.50000000  0.75000000  0.75000000
   0.50000000  0.00000000  0.00000000
   0.50000000  0.25000000  0.25000000
   0.50000000  0.50000000  0.50000000
   0.25000000  0.50000000  0.75000000
   0.50000000  0.25000000  0.75000000
   0.50000000  0.50000000  0.00000000
 
 position of ions in cartesian coordinates  (Angst):
   6.49548004  6.49547992  4.33031989
   6.49547996  6.49547984  0.00000000
   6.49547988  0.00000004  2.16515995
   6.49547996  2.16516003  4.33031989
   0.00000016  6.49547988  2.16515995
   0.00000008  0.00000008  4.33031989
   2.16516015  6.49547992  4.33031989
   6.49547996  0.00000012  6.49547984
   6.49547988  2.16515995  0.00000000
   6.49547996  4.33031993  2.16515995
   0.00000024  6.49547996  6.49547984
   0.00000000  0.00000000  0.00000000
   0.00000008  2.16515999  2.16515995
   0.00000016  4.33031997  4.33031989
   2.16516007  6.49547984  0.00000000
   2.16515999  0.00000004  2.16515995
   2.16516007  2.16516003  4.33031989
   4.33032005  6.49547988  2.16515995
   4.33031997  0.00000008  4.33031989
   6.49548004  4.33032001  6.49547984
   0.00000016  2.16516007  6.49547984
   0.00000008  4.33031989  0.00000000
   2.16516007  0.00000012  6.49547984
   2.16515999  2.16515995  0.00000000
   2.16516007  4.33031993  2.16515995
   4.33032013  6.49547996  6.49547984
   4.33031989  0.00000000  0.00000000
   4.33031997  2.16515999  2.16515995
   4.33032005  4.33031997  4.33031989
   2.16516015  4.33032001  6.49547984
   4.33032005  2.16516007  6.49547984
   4.33031997  4.33031989  0.00000000
 


--------------------------------------------------------------------------------------------------------


 k-point  1 :  0.06250.06250.0625  plane waves:  21716
 k-point  2 :  0.18750.06250.0625  plane waves:  21698
 k-point  3 :  0.31250.06250.0625  plane waves:  21704
 k-point  4 :  0.43750.06250.0625  plane waves:  21692
 k-point  5 :  0.18750.18750.0625  plane waves:  21687
 k-point  6 :  0.31250.18750.0625  plane waves:  21679
 k-point  7 :  0.43750.18750.0625  plane waves:  21683
 k-point  8 :  0.31250.31250.0625  plane waves:  21664
 k-point  9 :  0.43750.31250.0625  plane waves:  21670
 k-point 10 :  0.43750.43750.0625  plane waves:  21648
 k-point 11 :  0.18750.18750.1875  plane waves:  21695
 k-point 12 :  0.31250.18750.1875  plane waves:  21668
 k-point 13 :  0.43750.18750.1875  plane waves:  21686
 k-point 14 :  0.31250.31250.1875  plane waves:  21671
 k-point 15 :  0.43750.31250.1875  plane waves:  21679
 k-point 16 :  0.43750.43750.1875  plane waves:  21653
 k-point 17 :  0.31250.31250.3125  plane waves:  21683
 k-point 18 :  0.43750.31250.3125  plane waves:  21676
 k-point 19 :  0.43750.43750.3125  plane waves:  21703
 k-point 20 :  0.43750.43750.4375  plane waves:  21707

 maximum and minimum number of plane-waves per node :  21716 21648

 maximum number of plane-waves:  21716
 maximal index in each direction: 
   IXMAX= 17   IYMAX= 17   IZMAX= 17
   IXMIN=-17   IYMIN=-17   IZMIN=-17

 NGX is ok and might be reduce to  70
 NGY is ok and might be reduce to  70
 NGZ is ok and might be reduce to  70

 parallel 3dFFT wavefunction:
    minimum data exchange during FFTs selected (reduces bandwidth)
 parallel 3dFFT charge:
    minimum data exchange during FFTs selected (reduces bandwidth)

 For storing wavefunctions 1470.98 MBYTES are necessary
 For predicting wavefunctions  158.23 MBYTES are necessary
Broyden mixing: mesh for mixing (old mesh)
   NGX = 35   NGY = 35   NGZ = 35
  (NGX  =140   NGY  =140   NGZ  =140)
 gives a total of  42875 points
 initial charge density was supplied:
 charge density of overlapping atoms calculated
 number of electron  352.0000000 magnetization 
 keeping initial charge density in first step


--------------------------------------------------------------------------------------------------------


 Maximum index for augmentation-charges        50431 (set IRDMAX)


--------------------------------------------------------------------------------------------------------


 First call to EWALD:  gamma=   0.205
 Maximum number of real-space cells 3x 3x 3
 Maximum number of reciprocal cells 3x 3x 3

    FEWALD:  VPU time    0.01: CPU time    0.01


----------------------------------------- Iteration    1(   1)  ---------------------------------------


    POTLOK:  VPU time    1.25: CPU time    1.25
    SETDIJ:  VPU time    2.38: CPU time    2.38
    EDDIAG:  VPU time   60.29: CPU time   60.39
  RMM-DIIS:  VPU time  370.03: CPU time  370.62
    ORTHCH:  VPU time    9.53: CPU time    9.54
    DOS   :  VPU time    0.00: CPU time   -0.00
    ------------------------------------------
      LOOP:  VPU time  443.53: CPU time  444.24

 eigenvalue-minimisations  :  4240
 total energy-change (2. order) : 0.3933820E+04  (-0.1633546E+05)
 number of electron  352.0000000 magnetization 
 augmentation part   352.0000000 magnetization 

 Free energy of the ion-electron system (eV)
  ---------------------------------------------------
  alpha Z        PSCENC =      2799.22930742
  Ewald energy   TEWEN  =    -29516.69807580
  -1/2 Hartree   DENC   =     -7356.77411095
  -V(xc)+E(xc)   XCENC  =      -356.25337112
  PAW double counting   =     27861.41421209   -26376.63839568
  entropy T*S    EENTRO =        -0.01722955
  eigenvalues    EBANDS =      3682.38964034
  atomic energy  EATOM  =     33197.16788402
  ---------------------------------------------------
  free energy    TOTEN  =      3933.81986076 eV

  energy without entropy =     3933.83709031  energy(sigma->0) =     3933.82560394


--------------------------------------------------------------------------------------------------------




----------------------------------------- Iteration    1(   2)  ---------------------------------------


    EDDIAG:  VPU time   60.01: CPU time   60.06
  RMM-DIIS:  VPU time  324.52: CPU time  324.74
    ORTHCH:  VPU time    7.88: CPU time    7.88
    DOS   :  VPU time    0.00: CPU time   -0.00
    ------------------------------------------
      LOOP:  VPU time  392.46: CPU time  392.74

 eigenvalue-minimisations  :  4240
 total energy-change (2. order) :-0.3103964E+04  (-0.3456527E+04)
 number of electron  352.0000000 magnetization 
 augmentation part   352.0000000 magnetization 

 Free energy of the ion-electron system (eV)
  ---------------------------------------------------
  alpha Z        PSCENC =      2799.22930742
  Ewald energy   TEWEN  =    -29516.69807580
  -1/2 Hartree   DENC   =     -7356.77411095
  -V(xc)+E(xc)   XCENC  =      -356.25337112
  PAW double counting   =     27861.41421209   -26376.63839568
  entropy T*S    EENTRO =        -0.03158354
  eigenvalues    EBANDS =       578.44044977
  atomic energy  EATOM  =     33197.16788402
  ---------------------------------------------------
  free energy    TOTEN  =       829.85631621 eV

  energy without entropy =      829.88789974  energy(sigma->0) =      829.86684405


--------------------------------------------------------------------------------------------------------




----------------------------------------- Iteration    1(   3)  ---------------------------------------


    EDDIAG:  VPU time   55.91: CPU time   55.96
  RMM-DIIS:  VPU time  339.77: CPU time  340.01
    ORTHCH:  VPU time    9.44: CPU time    9.44
    DOS   :  VPU time   -0.00: CPU time   -0.00
    ------------------------------------------
      LOOP:  VPU time  405.16: CPU time  405.46

 eigenvalue-minimisations  :  4240
 total energy-change (2. order) :-0.6451865E+03  (-0.6999505E+03)
 number of electron  352.0000000 magnetization 
 augmentation part   352.0000000 magnetization 

 Free energy of the ion-electron system (eV)
  ---------------------------------------------------
  alpha Z        PSCENC =      2799.22930742
  Ewald energy   TEWEN  =    -29516.69807580
  -1/2 Hartree   DENC   =     -7356.77411095
  -V(xc)+E(xc)   XCENC  =      -356.25337112
  PAW double counting   =     27861.41421209   -26376.63839568
  entropy T*S    EENTRO =         0.02165077
  eigenvalues    EBANDS =       -66.79924916
  atomic energy  EATOM  =     33197.16788402
  ---------------------------------------------------
  free energy    TOTEN  =       184.66985158 eV

  energy without entropy =      184.64820081  energy(sigma->0) =      184.66263466


--------------------------------------------------------------------------------------------------------




----------------------------------------- Iteration    1(   4)  ---------------------------------------


    EDDIAG:  VPU time   59.76: CPU time   59.81
  RMM-DIIS:  VPU time  372.37: CPU time  372.66
    ORTHCH:  VPU time    9.37: CPU time    9.38
    DOS   :  VPU time    0.00: CPU time   -0.00
    ------------------------------------------
      LOOP:  VPU time  441.56: CPU time  441.90

 eigenvalue-minimisations  :  4240
 total energy-change (2. order) :-0.1971066E+03  (-0.1447153E+03)
 number of electron  352.0000000 magnetization 
 augmentation part   352.0000000 magnetization 

 Free energy of the ion-electron system (eV)
  ---------------------------------------------------
  alpha Z        PSCENC =      2799.22930742
  Ewald energy   TEWEN  =    -29516.69807580
  -1/2 Hartree   DENC   =     -7356.77411095
  -V(xc)+E(xc)   XCENC  =      -356.25337112
  PAW double counting   =     27861.41421209   -26376.63839568
  entropy T*S    EENTRO =         0.01881361
  eigenvalues    EBANDS =      -263.90301723
  atomic energy  EATOM  =     33197.16788402
  ---------------------------------------------------
  free energy    TOTEN  =       -12.43675365 eV

  energy without entropy =      -12.45556726  energy(sigma->0) =      -12.44302485


--------------------------------------------------------------------------------------------------------




----------------------------------------- Iteration    1(   5)  ---------------------------------------


    EDDIAG:  VPU time   59.86: CPU time   59.98
  RMM-DIIS:  VPU time  297.47: CPU time  297.89
    ORTHCH:  VPU time    9.74: CPU time    9.75
    DOS   :  VPU time    0.00: CPU time   -0.00
    ------------------------------------------
      LOOP:  VPU time  367.12: CPU time  367.68

 eigenvalue-minimisations  :  4240
 total energy-change (2. order) :-0.6479818E+02  (-0.3892736E+02)
 number of electron  352.0000000 magnetization 
 augmentation part   352.0000000 magnetization 

 Free energy of the ion-electron system (eV)
  ---------------------------------------------------
  alpha Z        PSCENC =      2799.22930742
  Ewald energy   TEWEN  =    -29516.69807580
  -1/2 Hartree   DENC   =     -7356.77411095
  -V(xc)+E(xc)   XCENC  =      -356.25337112
  PAW double counting   =     27861.41421209   -26376.63839568
  entropy T*S    EENTRO =         0.00868218
  eigenvalues    EBANDS =      -328.69106488
  atomic energy  EATOM  =     33197.16788402
  ---------------------------------------------------
  free energy    TOTEN  =       -77.23493273 eV

  energy without entropy =      -77.24361491  energy(sigma->0) =      -77.23782679


--------------------------------------------------------------------------------------------------------




----------------------------------------- Iteration    1(   6)  ---------------------------------------


    EDDIAG:  VPU time   63.74: CPU time   63.84
  RMM-DIIS:  VPU time  350.24: CPU time  350.85
    ORTHCH:  VPU time    7.96: CPU time    7.97
    DOS   :  VPU time    0.00: CPU time   -0.00
    ------------------------------------------
      LOOP:  VPU time  421.99: CPU time  422.72

 eigenvalue-minimisations  :  4240
 total energy-change (2. order) :-0.1349378E+02  (-0.9625914E+01)
 number of electron  352.0000000 magnetization 
 augmentation part   352.0000000 magnetization 

 Free energy of the ion-electron system (eV)
  ---------------------------------------------------
  alpha Z        PSCENC =      2799.22930742
  Ewald energy   TEWEN  =    -29516.69807580
  -1/2 Hartree   DENC   =     -7356.77411095
  -V(xc)+E(xc)   XCENC  =      -356.25337112
  PAW double counting   =     27861.41421209   -26376.63839568
  entropy T*S    EENTRO =        -0.00964972
  eigenvalues    EBANDS =      -342.16650949
  atomic energy  EATOM  =     33197.16788402
  ---------------------------------------------------
  free energy    TOTEN  =       -90.72870924 eV

  energy without entropy =      -90.71905952  energy(sigma->0) =      -90.72549266


--------------------------------------------------------------------------------------------------------




----------------------------------------- Iteration    1(   7)  ---------------------------------------


    EDDIAG:  VPU time   56.48: CPU time   56.53
  RMM-DIIS:  VPU time  347.07: CPU time  347.32
    ORTHCH:  VPU time    9.57: CPU time    9.58
    DOS   :  VPU time    0.00: CPU time   -0.00
    ------------------------------------------
      LOOP:  VPU time  413.17: CPU time  413.48

 eigenvalue-minimisations  :  4240
 total energy-change (2. order) :-0.2868327E+01  (-0.2330492E+01)
 number of electron  352.0000000 magnetization 
 augmentation part   352.0000000 magnetization 

 Free energy of the ion-electron system (eV)
  ---------------------------------------------------
  alpha Z        PSCENC =      2799.22930742
  Ewald energy   TEWEN  =    -29516.69807580
  -1/2 Hartree   DENC   =     -7356.77411095
  -V(xc)+E(xc)   XCENC  =      -356.25337112
  PAW double counting   =     27861.41421209   -26376.63839568
  entropy T*S    EENTRO =        -0.00973200
  eigenvalues    EBANDS =      -345.03475416
  atomic energy  EATOM  =     33197.16788402
  ---------------------------------------------------
  free energy    TOTEN  =       -93.59703620 eV

  energy without entropy =      -93.58730420  energy(sigma->0) =      -93.59379220


--------------------------------------------------------------------------------------------------------




----------------------------------------- Iteration    1(   8)  ---------------------------------------


    EDDIAG:  VPU time   60.08: CPU time   60.13
  RMM-DIIS:  VPU time  371.66: CPU time  371.95
    ORTHCH:  VPU time    9.57: CPU time    9.58
    DOS   :  VPU time    0.00: CPU time   -0.00
    ------------------------------------------
      LOOP:  VPU time  441.37: CPU time  441.72

 eigenvalue-minimisations  :  4240
 total energy-change (2. order) :-0.6136652E+00  (-0.5719101E+00)
 number of electron  352.0000000 magnetization 
 augmentation part   352.0000000 magnetization 

 Free energy of the ion-electron system (eV)
  ---------------------------------------------------
  alpha Z        PSCENC =      2799.22930742
  Ewald energy   TEWEN  =    -29516.69807580
  -1/2 Hartree   DENC   =     -7356.77411095
  -V(xc)+E(xc)   XCENC  =      -356.25337112
  PAW double counting   =     27861.41421209   -26376.63839568
  entropy T*S    EENTRO =        -0.01024762
  eigenvalues    EBANDS =      -345.64790370
  atomic energy  EATOM  =     33197.16788402
  ---------------------------------------------------
  free energy    TOTEN  =       -94.21070136 eV

  energy without entropy =      -94.20045374  energy(sigma->0) =      -94.20728548


--------------------------------------------------------------------------------------------------------




----------------------------------------- Iteration    1(   9)  ---------------------------------------


    EDDIAG:  VPU time   60.12: CPU time   60.21
  RMM-DIIS:  VPU time  707.63: CPU time  708.61
    ORTHCH:  VPU time    9.59: CPU time    9.61
    DOS   :  VPU time    0.00: CPU time   -0.00
    ------------------------------------------
      LOOP:  VPU time  777.40: CPU time  778.48

 eigenvalue-minimisations  :  8480
 total energy-change (2. order) :-0.1936688E+00  (-0.1822588E+00)
 number of electron  352.0000000 magnetization 
 augmentation part   352.0000000 magnetization 

 Free energy of the ion-electron system (eV)
  ---------------------------------------------------
  alpha Z        PSCENC =      2799.22930742
  Ewald energy   TEWEN  =    -29516.69807580
  -1/2 Hartree   DENC   =     -7356.77411095
  -V(xc)+E(xc)   XCENC  =      -356.25337112
  PAW double counting   =     27861.41421209   -26376.63839568
  entropy T*S    EENTRO =        -0.01035267
  eigenvalues    EBANDS =      -345.84146742
  atomic energy  EATOM  =     33197.16788402
  ---------------------------------------------------
  free energy    TOTEN  =       -94.40437013 eV

  energy without entropy =      -94.39401745  energy(sigma->0) =      -94.40091923


--------------------------------------------------------------------------------------------------------




----------------------------------------- Iteration    1(  10)  ---------------------------------------


    EDDIAG:  VPU time   60.27: CPU time   60.36
  RMM-DIIS:  VPU time  705.37: CPU time  706.33
    ORTHCH:  VPU time    9.53: CPU time    9.54
    DOS   :  VPU time    0.00: CPU time   -0.00
    ------------------------------------------
      LOOP:  VPU time  775.23: CPU time  776.29

 eigenvalue-minimisations  :  8471
 total energy-change (2. order) :-0.1697824E-01  (-0.1596052E-01)
 number of electron  352.0000000 magnetization 
 augmentation part   352.0000000 magnetization 

 Free energy of the ion-electron system (eV)
  ---------------------------------------------------
  alpha Z        PSCENC =      2799.22930742
  Ewald energy   TEWEN  =    -29516.69807580
  -1/2 Hartree   DENC   =     -7356.77411095
  -V(xc)+E(xc)   XCENC  =      -356.25337112
  PAW double counting   =     27861.41421209   -26376.63839568
  entropy T*S    EENTRO =        -0.01035766
  eigenvalues    EBANDS =      -345.85844067
  atomic energy  EATOM  =     33197.16788402
  ---------------------------------------------------
  free energy    TOTEN  =       -94.42134836 eV

  energy without entropy =      -94.41099070  energy(sigma->0) =      -94.41789581


--------------------------------------------------------------------------------------------------------




----------------------------------------- Iteration    1(  11)  ---------------------------------------


    EDDIAG:  VPU time   59.75: CPU time   59.80
  RMM-DIIS:  VPU time  683.83: CPU time  684.35
    ORTHCH:  VPU time    9.58: CPU time    9.59
    DOS   :  VPU time    0.00: CPU time   -0.00
    ------------------------------------------
      LOOP:  VPU time  753.21: CPU time  753.80

 eigenvalue-minimisations  :  8160
 total energy-change (2. order) :-0.6620494E-03  (-0.5996389E-03)
 number of electron  352.0000000 magnetization 
 augmentation part   352.0000000 magnetization 

 Free energy of the ion-electron system (eV)
  ---------------------------------------------------
  alpha Z        PSCENC =      2799.22930742
  Ewald energy   TEWEN  =    -29516.69807580
  -1/2 Hartree   DENC   =     -7356.77411095
  -V(xc)+E(xc)   XCENC  =      -356.25337112
  PAW double counting   =     27861.41421209   -26376.63839568
  entropy T*S    EENTRO =        -0.01035772
  eigenvalues    EBANDS =      -345.85910266
  atomic energy  EATOM  =     33197.16788402
  ---------------------------------------------------
  free energy    TOTEN  =       -94.42201041 eV

  energy without entropy =      -94.41165270  energy(sigma->0) =      -94.41855784


--------------------------------------------------------------------------------------------------------




----------------------------------------- Iteration    1(  12)  ---------------------------------------


    EDDIAG:  VPU time   60.12: CPU time   60.21
  RMM-DIIS:  VPU time  585.57: CPU time  586.42
    ORTHCH:  VPU time    9.53: CPU time    9.55
    DOS   :  VPU time    0.00: CPU time   -0.00
    CHARGE:  VPU time   28.46: CPU time   28.50
    MIXING:  VPU time    0.02: CPU time    0.03
    ------------------------------------------
      LOOP:  VPU time  683.76: CPU time  684.76

 eigenvalue-minimisations  :  6987
 total energy-change (2. order) :-0.6391731E-04  (-0.6166177E-04)
 number of electron  352.0000015 magnetization 
 augmentation part   164.2264614 magnetization 

 Broyden mixing:
  rms(total) = 0.14017E+01    rms(broyden)= 0.14017E+01
  rms(prec ) = 0.21088E+01
  weight for this iteration     100.00

 Free energy of the ion-electron system (eV)
  ---------------------------------------------------
  alpha Z        PSCENC =      2799.22930742
  Ewald energy   TEWEN  =    -29516.69807580
  -1/2 Hartree   DENC   =     -7356.77411095
  -V(xc)+E(xc)   XCENC  =      -356.25337112
  PAW double counting   =     27861.41421209   -26376.63839568
  entropy T*S    EENTRO =        -0.01035773
  eigenvalues    EBANDS =      -345.85916657
  atomic energy  EATOM  =     33197.16788402
  ---------------------------------------------------
  free energy    TOTEN  =       -94.42207433 eV

  energy without entropy =      -94.41171660  energy(sigma->0) =      -94.41862175


--------------------------------------------------------------------------------------------------------




----------------------------------------- Iteration    1(  13)  ---------------------------------------


    POTLOK:  VPU time    1.24: CPU time    1.24
    SETDIJ:  VPU time    2.36: CPU time    2.36
    EDDIAG:  VPU time   60.23: CPU time   60.32
  RMM-DIIS:  VPU time  705.64: CPU time  706.60
    ORTHCH:  VPU time    9.60: CPU time    9.62
    DOS   :  VPU time    0.00: CPU time   -0.00
    CHARGE:  VPU time   28.65: CPU time   28.69
    MIXING:  VPU time    0.03: CPU time    0.03
    ------------------------------------------
      LOOP:  VPU time  807.80: CPU time  808.91

 eigenvalue-minimisations  :  8480
 total energy-change (2. order) : 0.5713636E+01  (-0.2410810E+01)
 number of electron  352.0000015 magnetization 
 augmentation part   169.2923667 magnetization 

 Broyden mixing:
  rms(total) = 0.26679E+00    rms(broyden)= 0.26677E+00
  rms(prec ) = 0.35686E+00
  weight for this iteration     100.00

 eigenvalues of (default mixing * dielectric matrix)
  average eigenvalue GAMMA=   1.0261
  1.0261

 Free energy of the ion-electron system (eV)
  ---------------------------------------------------
  alpha Z        PSCENC =      2799.22930742
  Ewald energy   TEWEN  =    -29516.69807580
  -1/2 Hartree   DENC   =     -7074.50474763
  -V(xc)+E(xc)   XCENC  =      -366.56229158
  PAW double counting   =     27404.28845836   -25936.73711981
  entropy T*S    EENTRO =        -0.01470942
  eigenvalues    EBANDS =      -594.87714416
  atomic energy  EATOM  =     33197.16788402
  ---------------------------------------------------
  free energy    TOTEN  =       -88.70843860 eV

  energy without entropy =      -88.69372917  energy(sigma->0) =      -88.70353546


--------------------------------------------------------------------------------------------------------




----------------------------------------- Iteration    1(  14)  ---------------------------------------


    POTLOK:  VPU time    1.25: CPU time    1.25
    SETDIJ:  VPU time    2.40: CPU time    2.40
    EDDIAG:  VPU time   60.53: CPU time   60.58
  RMM-DIIS:  VPU time  702.37: CPU time  702.91
    ORTHCH:  VPU time    9.55: CPU time    9.56
    DOS   :  VPU time    0.00: CPU time   -0.00
    CHARGE:  VPU time   28.44: CPU time   28.47
    MIXING:  VPU time    0.03: CPU time    0.03
    ------------------------------------------
      LOOP:  VPU time  804.62: CPU time  805.26

 eigenvalue-minimisations  :  8480
 total energy-change (2. order) : 0.9664696E-01  (-0.3616620E-01)
 number of electron  352.0000015 magnetization 
 augmentation part   169.5629672 magnetization 

 Broyden mixing:
  rms(total) = 0.14999E+00    rms(broyden)= 0.14999E+00
  rms(prec ) = 0.18773E+00
  weight for this iteration     100.00

 eigenvalues of (default mixing * dielectric matrix)
  average eigenvalue GAMMA=   1.7014
  1.0497  2.3530

 Free energy of the ion-electron system (eV)
  ---------------------------------------------------
  alpha Z        PSCENC =      2799.22930742
  Ewald energy   TEWEN  =    -29516.69807580
  -1/2 Hartree   DENC   =     -7041.44443235
  -V(xc)+E(xc)   XCENC  =      -367.91034336
  PAW double counting   =     27438.83978794   -25986.00020117
  entropy T*S    EENTRO =        -0.01482335
  eigenvalues    EBANDS =      -611.78089500
  atomic energy  EATOM  =     33197.16788402
  ---------------------------------------------------
  free energy    TOTEN  =       -88.61179164 eV

  energy without entropy =      -88.59696829  energy(sigma->0) =      -88.60685052


--------------------------------------------------------------------------------------------------------




----------------------------------------- Iteration    1(  15)  ---------------------------------------


    POTLOK:  VPU time    1.23: CPU time    1.23
    SETDIJ:  VPU time    2.39: CPU time    2.40
    EDDIAG:  VPU time   60.23: CPU time   60.29
  RMM-DIIS:  VPU time  702.64: CPU time  703.19
    ORTHCH:  VPU time    9.57: CPU time    9.58
    DOS   :  VPU time    0.00: CPU time   -0.00
    CHARGE:  VPU time   28.87: CPU time   28.89
    MIXING:  VPU time    0.03: CPU time    0.03
    ------------------------------------------
      LOOP:  VPU time  805.04: CPU time  805.67

 eigenvalue-minimisations  :  8480
 total energy-change (2. order) : 0.4822857E-01  (-0.5116080E-02)
 number of electron  352.0000015 magnetization 
 augmentation part   169.4657211 magnetization 

 Broyden mixing:
  rms(total) = 0.24279E-01    rms(broyden)= 0.24278E-01
  rms(prec ) = 0.37176E-01
  weight for this iteration     100.00

 eigenvalues of (default mixing * dielectric matrix)
  average eigenvalue GAMMA=   1.7481
  2.8312  1.1138  1.2993

 Free energy of the ion-electron system (eV)
  ---------------------------------------------------
  alpha Z        PSCENC =      2799.22930742
  Ewald energy   TEWEN  =    -29516.69807580
  -1/2 Hartree   DENC   =     -7016.89084811
  -V(xc)+E(xc)   XCENC  =      -368.98452046
  PAW double counting   =     27543.18047159   -26108.42459071
  entropy T*S    EENTRO =        -0.01476862
  eigenvalues    EBANDS =      -617.12842240
  atomic energy  EATOM  =     33197.16788402
  ---------------------------------------------------
  free energy    TOTEN  =       -88.56356307 eV

  energy without entropy =      -88.54879445  energy(sigma->0) =      -88.55864020


--------------------------------------------------------------------------------------------------------




----------------------------------------- Iteration    1(  16)  ---------------------------------------


    POTLOK:  VPU time    1.24: CPU time    1.25
    SETDIJ:  VPU time    2.38: CPU time    2.39
    EDDIAG:  VPU time   60.89: CPU time   60.97
  RMM-DIIS:  VPU time  705.80: CPU time  706.82
    ORTHCH:  VPU time    9.38: CPU time    9.39
    DOS   :  VPU time    0.00: CPU time   -0.00
    CHARGE:  VPU time   28.21: CPU time   28.25
    MIXING:  VPU time    0.03: CPU time    0.03
    ------------------------------------------
      LOOP:  VPU time  807.98: CPU time  809.15

 eigenvalue-minimisations  :  8480
 total energy-change (2. order) :-0.2047778E-03  (-0.1762333E-02)
 number of electron  352.0000015 magnetization 
 augmentation part   169.5994876 magnetization 

 Broyden mixing:
  rms(total) = 0.14085E-01    rms(broyden)= 0.14085E-01
  rms(prec ) = 0.20841E-01
  weight for this iteration     100.00

 eigenvalues of (default mixing * dielectric matrix)
  average eigenvalue GAMMA=   1.8134
  2.8427  2.4055  1.0028  1.0028

 Free energy of the ion-electron system (eV)
  ---------------------------------------------------
  alpha Z        PSCENC =      2799.22930742
  Ewald energy   TEWEN  =    -29516.69807580
  -1/2 Hartree   DENC   =     -7006.88309228
  -V(xc)+E(xc)   XCENC  =      -369.37037316
  PAW double counting   =     27549.46540179   -26116.15548156
  entropy T*S    EENTRO =        -0.01484393
  eigenvalues    EBANDS =      -625.30449435
  atomic energy  EATOM  =     33197.16788402
  ---------------------------------------------------
  free energy    TOTEN  =       -88.56376785 eV

  energy without entropy =      -88.54892392  energy(sigma->0) =      -88.55881987


--------------------------------------------------------------------------------------------------------




----------------------------------------- Iteration    1(  17)  ---------------------------------------


    POTLOK:  VPU time    1.21: CPU time    1.22
    SETDIJ:  VPU time    2.35: CPU time    2.35
    EDDIAG:  VPU time   59.60: CPU time   59.68
  RMM-DIIS:  VPU time  611.30: CPU time  612.05
    ORTHCH:  VPU time    7.94: CPU time    7.95
    DOS   :  VPU time    0.00: CPU time   -0.00
    CHARGE:  VPU time   28.48: CPU time   28.52
    MIXING:  VPU time    0.03: CPU time    0.03
    ------------------------------------------
      LOOP:  VPU time  710.97: CPU time  711.87

 eigenvalue-minimisations  :  8480
 total energy-change (2. order) : 0.6801004E-03  (-0.6682033E-04)
 number of electron  352.0000015 magnetization 
 augmentation part   169.5723316 magnetization 

 Broyden mixing:
  rms(total) = 0.34475E-02    rms(broyden)= 0.34474E-02
  rms(prec ) = 0.50850E-02
  weight for this iteration     100.00

 eigenvalues of (default mixing * dielectric matrix)
  average eigenvalue GAMMA=   1.7789
  2.8630  2.4338  1.0240  1.0240  1.5499

 Free energy of the ion-electron system (eV)
  ---------------------------------------------------
  alpha Z        PSCENC =      2799.22930742
  Ewald energy   TEWEN  =    -29516.69807580
  -1/2 Hartree   DENC   =     -7010.31895924
  -V(xc)+E(xc)   XCENC  =      -369.24649684
  PAW double counting   =     27555.63834801   -26120.95004909
  entropy T*S    EENTRO =        -0.01482236
  eigenvalues    EBANDS =      -623.37022388
  atomic energy  EATOM  =     33197.16788402
  ---------------------------------------------------
  free energy    TOTEN  =       -88.56308775 eV

  energy without entropy =      -88.54826539  energy(sigma->0) =      -88.55814696


--------------------------------------------------------------------------------------------------------




----------------------------------------- Iteration    1(  18)  ---------------------------------------


    POTLOK:  VPU time    1.24: CPU time    1.25
    SETDIJ:  VPU time    2.40: CPU time    2.41
    EDDIAG:  VPU time   60.31: CPU time   60.36
  RMM-DIIS:  VPU time  695.76: CPU time  696.29
    ORTHCH:  VPU time    9.55: CPU time    9.56
    DOS   :  VPU time    0.00: CPU time   -0.00
    CHARGE:  VPU time   28.59: CPU time   28.61
    MIXING:  VPU time    0.03: CPU time    0.03
    ------------------------------------------
      LOOP:  VPU time  797.95: CPU time  798.57

 eigenvalue-minimisations  :  8345
 total energy-change (2. order) : 0.4424709E-04  (-0.1498244E-04)
 number of electron  352.0000015 magnetization 
 augmentation part   169.5605403 magnetization 

 Broyden mixing:
  rms(total) = 0.32198E-03    rms(broyden)= 0.32182E-03
  rms(prec ) = 0.45197E-03
  weight for this iteration     100.00

 eigenvalues of (default mixing * dielectric matrix)
  average eigenvalue GAMMA=   1.8411
  2.8367  2.8367  2.3519  0.9705  1.0254  1.0254

 Free energy of the ion-electron system (eV)
  ---------------------------------------------------
  alpha Z        PSCENC =      2799.22930742
  Ewald energy   TEWEN  =    -29516.69807580
  -1/2 Hartree   DENC   =     -7011.04806853
  -V(xc)+E(xc)   XCENC  =      -369.22050679
  PAW double counting   =     27556.64496423   -26121.86503201
  entropy T*S    EENTRO =        -0.01481539
  eigenvalues    EBANDS =      -622.75870066
  atomic energy  EATOM  =     33197.16788402
  ---------------------------------------------------
  free energy    TOTEN  =       -88.56304350 eV

  energy without entropy =      -88.54822811  energy(sigma->0) =      -88.55810504


--------------------------------------------------------------------------------------------------------




----------------------------------------- Iteration    1(  19)  ---------------------------------------


    POTLOK:  VPU time    1.23: CPU time    1.24
    SETDIJ:  VPU time    2.39: CPU time    2.39
    EDDIAG:  VPU time   60.83: CPU time   60.91
  RMM-DIIS:  VPU time  364.02: CPU time  364.52
    ORTHCH:  VPU time    9.53: CPU time    9.54
    DOS   :  VPU time    0.00: CPU time   -0.00
    ------------------------------------------
      LOOP:  VPU time  438.06: CPU time  438.67

 eigenvalue-minimisations  :  3803
 total energy-change (2. order) : 0.5359514E-05  (-0.2295052E-06)
 number of electron  352.0000015 magnetization 
 augmentation part   169.5605403 magnetization 

 Free energy of the ion-electron system (eV)
  ---------------------------------------------------
  alpha Z        PSCENC =      2799.22930742
  Ewald energy   TEWEN  =    -29516.69807580
  -1/2 Hartree   DENC   =     -7011.12628121
  -V(xc)+E(xc)   XCENC  =      -369.21765588
  PAW double counting   =     27556.11913170   -26121.31675614
  entropy T*S    EENTRO =        -0.01481481
  eigenvalues    EBANDS =      -622.70577744
  atomic energy  EATOM  =     33197.16788402
  ---------------------------------------------------
  free energy    TOTEN  =       -88.56303814 eV

  energy without entropy =      -88.54822334  energy(sigma->0) =      -88.55809987


--------------------------------------------------------------------------------------------------------




 average (electrostatic) potential at core
  the test charge radii are     1.1249
  (the norm of the test charge is              1.0000)
       1 -42.2955       2 -42.2955       3 -42.2955       4 -42.2955       5 -42.2955
       6 -42.2955       7 -42.2955       8 -42.2955       9 -42.2955      10 -42.2955
      11 -42.2955      12 -42.2955      13 -42.2955      14 -42.2955      15 -42.2955
      16 -42.2955      17 -42.2955      18 -42.2955      19 -42.2955      20 -42.2955
      21 -42.2955      22 -42.2955      23 -42.2955      24 -42.2955      25 -42.2955
      26 -42.2955      27 -42.2955      28 -42.2955      29 -42.2955      30 -42.2955
      31 -42.2955      32 -42.2955
 
 
 
 E-fermi :   2.1538     XC(G=0): -11.2001     alpha+bet : -7.1728
   add alpha+bet to get absolut eigen values

 k-point   1 :       0.0625    0.0625    0.0625
  band No.  band energies     occupation 
      1      -4.4397      2.00000
      2      -3.3385      2.00000
      3      -3.3385      2.00000
      4      -3.3385      2.00000
      5      -3.3306      2.00000
      6      -3.3215      2.00000
      7      -3.3215      2.00000
      8      -3.3215      2.00000
      9      -3.2587      2.00000
     10      -3.2587      2.00000
     11      -3.2587      2.00000
     12      -2.9953      2.00000
     13      -2.9953      2.00000
     14      -2.9953      2.00000
     15      -2.9225      2.00000
     16      -2.9225      2.00000
     17      -2.9225      2.00000
     18      -2.7909      2.00000
     19      -2.7909      2.00000
     20      -2.7909      2.00000
     21      -2.7781      2.00000
     22      -2.7781      2.00000
     23      -2.7781      2.00000
     24      -2.7781      2.00000
     25      -2.7781      2.00000
     26      -2.7781      2.00000
     27      -2.6842      2.00000
     28      -2.6842      2.00000
     29      -2.6842      2.00000
     30      -2.5974      2.00000
     31      -2.5974      2.00000
     32      -2.5974      2.00000
     33      -2.5729      2.00000
     34      -2.5729      2.00000
     35      -2.5729      2.00000
     36      -2.5609      2.00000
     37      -2.5609      2.00000
     38      -2.5609      2.00000
     39      -2.5609      2.00000
     40      -2.5609      2.00000
     41      -2.5609      2.00000
     42      -2.4434      2.00000
     43      -2.4434      2.00000
     44      -2.4434      2.00000
     45      -2.4434      2.00000
     46      -2.4434      2.00000
     47      -2.4434      2.00000
     48      -2.3782      2.00000
     49      -2.3782      2.00000
     50      -2.3782      2.00000
     51      -2.3759      2.00000
     52      -2.3759      2.00000
     53      -2.3759      2.00000
     54      -2.3759      2.00000
     55      -2.3759      2.00000
     56      -2.3759      2.00000
     57      -2.3352      2.00000
     58      -2.3352      2.00000
     59      -2.3352      2.00000
     60      -2.2217      2.00000
     61      -2.2217      2.00000
     62      -2.2217      2.00000
     63      -2.2217      2.00000
     64      -2.2217      2.00000
     65      -2.2217      2.00000
     66      -2.1862      2.00000
     67      -2.1862      2.00000
     68      -2.1862      2.00000
     69      -2.1747      2.00000
     70      -2.1747      2.00000
     71      -2.1730      2.00000
     72      -2.1674      2.00000
     73      -2.1674      2.00000
     74      -2.1674      2.00000
     75      -2.1615      2.00000
     76      -2.1615      2.00000
     77      -2.0516      2.00000
     78      -2.0516      2.00000
     79      -2.0516      2.00000
     80      -2.0516      2.00000
     81      -2.0516      2.00000
     82      -2.0516      2.00000
     83      -2.0307      2.00000
     84      -2.0307      2.00000
     85      -2.0307      2.00000
     86      -1.9932      2.00000
     87      -1.9932      2.00000
     88      -1.9932      2.00000
     89      -1.7070      2.00000
     90      -1.7070      2.00000
     91      -1.7070      2.00000
     92      -1.6579      2.00000
     93      -1.6579      2.00000
     94      -1.6579      2.00000
     95      -1.6506      2.00000
     96      -1.6506      2.00000
     97      -1.6506      2.00000
     98      -1.6472      2.00000
     99      -1.6472      2.00000
    100      -1.6472      2.00000
    101      -1.6472      2.00000
    102      -1.6472      2.00000
    103      -1.6472      2.00000
    104      -1.5961      2.00000
    105      -1.5961      2.00000
    106      -1.5961      2.00000
    107      -1.4979      2.00000
    108      -1.4979      2.00000
    109      -1.4979      2.00000
    110      -1.4569      2.00000
    111      -1.4569      2.00000
    112      -1.4569      2.00000
    113      -1.4493      2.00000
    114      -1.4493      2.00000
    115      -1.4493      2.00000
    116      -1.4140      2.00000
    117      -1.4140      2.00000
    118      -1.3762      2.00000
    119      -1.3762      2.00000
    120      -1.3762      2.00000
    121      -1.3762      2.00000
    122      -1.3762      2.00000
    123      -1.3762      2.00000
    124      -1.3642      2.00000
    125      -1.3642      2.00000
    126      -1.3642      2.00000
    127      -1.3642      2.00000
    128      -1.3642      2.00000
    129      -1.3642      2.00000
    130      -1.3401      2.00000
    131      -1.3401      2.00000
    132      -1.3401      2.00000
    133      -1.3071      2.00000
    134      -1.3071      2.00000
    135      -1.3071      2.00000
    136      -1.1589      2.00000
    137      -1.1589      2.00000
    138      -1.1589      2.00000
    139      -1.1011      2.00000
    140      -1.1011      2.00000
    141      -1.1011      2.00000
    142      -0.9754      2.00000
    143      -0.9754      2.00000
    144      -0.9754      2.00000
    145      -0.8687      2.00000
    146      -0.8687      2.00000
    147      -0.8687      2.00000
    148      -0.8614      2.00000
    149      -0.8614      2.00000
    150      -0.8614      2.00000
    151      -0.8376      2.00000
    152      -0.8376      2.00000
    153      -0.8258      2.00000
    154      -0.8258      2.00000
    155      -0.8258      2.00000
    156      -0.7024      2.00000
    157      -0.7024      2.00000
    158      -0.7024      2.00000
    159      -0.6847      2.00000
    160      -0.6847      2.00000
    161      -0.6847      2.00000
    162      -0.6847      2.00000
    163      -0.6847      2.00000
    164      -0.6847      2.00000
    165      -0.6827      2.00000
    166      -0.6827      2.00000
    167      -0.6827      2.00000
    168       0.9470      2.00000
    169       0.9470      2.00000
    170       0.9470      2.00000
    171       1.4816      2.00002
    172       1.4816      2.00002
    173       1.4816      2.00002
    174       1.4816      2.00002
    175       1.4816      2.00002
    176       1.4816      2.00002
    177       1.9088      2.07092
    178       2.0309      1.85296
    179       2.0309      1.85296
    180       2.0309      1.85296
    181       2.1842      0.74612
    182       2.1842      0.74612
    183       2.1842      0.74611
    184       3.8404     -0.00000
    185       3.8404     -0.00000
    186       3.8404     -0.00000
    187       4.8970     -0.00000
    188       4.8970     -0.00000
    189       4.8970     -0.00000
    190       5.1461     -0.00000
    191       6.9378     -0.00000
    192       6.9378     -0.00000
    193       6.9378     -0.00000
    194       6.9378     -0.00000
    195       6.9379     -0.00000
    196       6.9379     -0.00000
    197       7.5501     -0.00000
    198       7.5501     -0.00000
    199       7.5501     -0.00000
    200       7.5502     -0.00000
    201       7.5514     -0.00000
    202       7.5596     -0.00000
    203       7.7152      0.00000
    204       7.7157      0.00000
    205       7.7230      0.00000
    206       8.3408      0.00000
    207       8.3417      0.00000
    208       8.3455      0.00000
    209       8.3784      0.00000
    210       8.8909      0.00000
    211       9.5719      0.00000
    212       9.7497      0.00000

 k-point   2 :       0.1875    0.0625    0.0625
  band No.  band energies     occupation 
      1      -4.3687      2.00000
      2      -3.3126      2.00000
      3      -3.3080      2.00000
      4      -3.3061      2.00000
      5      -3.3061      2.00000
      6      -3.2901      2.00000
      7      -3.2901      2.00000
      8      -3.2813      2.00000
      9      -3.2394      2.00000
     10      -3.2278      2.00000
     11      -3.2278      2.00000
     12      -3.1951      2.00000
     13      -2.9543      2.00000
     14      -2.9543      2.00000
     15      -2.9480      2.00000
     16      -2.8937      2.00000
     17      -2.8853      2.00000
     18      -2.8853      2.00000
     19      -2.8377      2.00000
     20      -2.8377      2.00000
     21      -2.7675      2.00000
     22      -2.7675      2.00000
     23      -2.7603      2.00000
     24      -2.7603      2.00000
     25      -2.7513      2.00000
     26      -2.7513      2.00000
     27      -2.7431      2.00000
     28      -2.7127      2.00000
     29      -2.7127      2.00000
     30      -2.7065      2.00000
     31      -2.6658      2.00000
     32      -2.6658      2.00000
     33      -2.6399      2.00000
     34      -2.6398      2.00000
     35      -2.6303      2.00000
     36      -2.6303      2.00000
     37      -2.5915      2.00000
     38      -2.5915      2.00000
     39      -2.5777      2.00000
     40      -2.5545      2.00000
     41      -2.5545      2.00000
     42      -2.5479      2.00000
     43      -2.5479      2.00000
     44      -2.4421      2.00000
     45      -2.4421      2.00000
     46      -2.4415      2.00000
     47      -2.4415      2.00000
     48      -2.3908      2.00000
     49      -2.3908      2.00000
     50      -2.3883      2.00000
     51      -2.3883      2.00000
     52      -2.3873      2.00000
     53      -2.3873      2.00000
     54      -2.3379      2.00000
     55      -2.3237      2.00000
     56      -2.3237      2.00000
     57      -2.3042      2.00000
     58      -2.3042      2.00000
     59      -2.2876      2.00000
     60      -2.2370      2.00000
     61      -2.2370      2.00000
     62      -2.2184      2.00000
     63      -2.2184      2.00000
     64      -2.2066      2.00000
     65      -2.1969      2.00000
     66      -2.1969      2.00000
     67      -2.1938      2.00000
     68      -2.1727      2.00000
     69      -2.1594      2.00000
     70      -2.1527      2.00000
     71      -2.1527      2.00000
     72      -2.1494      2.00000
     73      -2.1494      2.00000
     74      -2.1431      2.00000
     75      -2.1431      2.00000
     76      -2.1410      2.00000
     77      -2.1395      2.00000
     78      -2.1376      2.00000
     79      -2.0939      2.00000
     80      -2.0939      2.00000
     81      -2.0379      2.00000
     82      -2.0379      2.00000
     83      -1.9808      2.00000
     84      -1.9808      2.00000
     85      -1.9215      2.00000
     86      -1.9215      2.00000
     87      -1.8832      2.00000
     88      -1.8633      2.00000
     89      -1.7943      2.00000
     90      -1.7864      2.00000
     91      -1.7864      2.00000
     92      -1.7646      2.00000
     93      -1.7335      2.00000
     94      -1.7267      2.00000
     95      -1.7228      2.00000
     96      -1.7228      2.00000
     97      -1.6749      2.00000
     98      -1.6749      2.00000
     99      -1.6557      2.00000
    100      -1.6557      2.00000
    101      -1.6040      2.00000
    102      -1.6040      2.00000
    103      -1.5987      2.00000
    104      -1.5987      2.00000
    105      -1.5745      2.00000
    106      -1.5745      2.00000
    107      -1.5569      2.00000
    108      -1.5569      2.00000
    109      -1.5408      2.00000
    110      -1.4998      2.00000
    111      -1.4998      2.00000
    112      -1.4662      2.00000
    113      -1.4662      2.00000
    114      -1.4364      2.00000
    115      -1.4033      2.00000
    116      -1.3893      2.00000
    117      -1.3893      2.00000
    118      -1.3815      2.00000
    119      -1.3815      2.00000
    120      -1.3744      2.00000
    121      -1.3744      2.00000
    122      -1.3540      2.00000
    123      -1.3380      2.00000
    124      -1.3212      2.00000
    125      -1.3212      2.00000
    126      -1.3145      2.00000
    127      -1.2735      2.00000
    128      -1.2735      2.00000
    129      -1.2569      2.00000
    130      -1.2569      2.00000
    131      -1.2504      2.00000
    132      -1.2504      2.00000
    133      -1.2307      2.00000
    134      -1.2239      2.00000
    135      -1.2239      2.00000
    136      -1.2146      2.00000
    137      -1.1095      2.00000
    138      -1.1095      2.00000
    139      -1.0815      2.00000
    140      -1.0815      2.00000
    141      -1.0430      2.00000
    142      -0.9616      2.00000
    143      -0.9500      2.00000
    144      -0.9500      2.00000
    145      -0.8934      2.00000
    146      -0.8934      2.00000
    147      -0.8795      2.00000
    148      -0.8760      2.00000
    149      -0.8754      2.00000
    150      -0.8413      2.00000
    151      -0.8394      2.00000
    152      -0.8394      2.00000
    153      -0.7970      2.00000
    154      -0.7970      2.00000
    155      -0.7790      2.00000
    156      -0.7790      2.00000
    157      -0.7401      2.00000
    158      -0.7245      2.00000
    159      -0.7245      2.00000
    160      -0.7239      2.00000
    161      -0.7239      2.00000
    162      -0.7166      2.00000
    163      -0.6847      2.00000
    164      -0.6847      2.00000
    165      -0.6847      2.00000
    166      -0.6847      2.00000
    167      -0.4464      2.00000
    168       0.4809      2.00000
    169       0.4809      2.00000
    170       0.9654      2.00000
    171       0.9925      2.00000
    172       0.9925      2.00000
    173       1.5096      2.00005
    174       1.5096      2.00005
    175       1.6191      2.00103
    176       2.0643      1.67963
    177       2.0795      1.58348
    178       2.0795      1.58348
    179       2.0887      1.51990
    180       2.0887      1.51990
    181       2.3575     -0.05385
    182       2.6454     -0.00279
    183       2.6454     -0.00279
    184       3.3103     -0.00000
    185       3.9994     -0.00000
    186       3.9994     -0.00000
    187       4.9205     -0.00000
    188       5.1775     -0.00000
    189       5.1775     -0.00000
    190       5.5905     -0.00000
    191       6.1053     -0.00000
    192       6.1053     -0.00000
    193       6.3296     -0.00000
    194       6.3296     -0.00000
    195       6.6534     -0.00000
    196       6.6534     -0.00000
    197       7.0577     -0.00000
    198       7.0577     -0.00000
    199       7.6679      0.00000
    200       7.6706      0.00000
    201       7.7343      0.00000
    202       7.7374      0.00000
    203       7.9624      0.00000
    204       7.9752      0.00000
    205       8.3229      0.00000
    206       8.3906      0.00000
    207       8.5362      0.00000
    208       8.6293      0.00000
    209       8.7391      0.00000
    210       8.8066      0.00000
    211       8.8191      0.00000
    212       9.1209      0.00000

 k-point   3 :       0.3125    0.0625    0.0625
  band No.  band energies     occupation 
      1      -4.2289      2.00000
      2      -3.4758      2.00000
      3      -3.2625      2.00000
      4      -3.2535      2.00000
      5      -3.2437      2.00000
      6      -3.2437      2.00000
      7      -3.2277      2.00000
      8      -3.2277      2.00000
      9      -3.2112      2.00000
     10      -3.2014      2.00000
     11      -3.1661      2.00000
     12      -3.1661      2.00000
     13      -3.0209      2.00000
     14      -2.9891      2.00000
     15      -2.9368      2.00000
     16      -2.9368      2.00000
     17      -2.9086      2.00000
     18      -2.8788      2.00000
     19      -2.8788      2.00000
     20      -2.8726      2.00000
     21      -2.8726      2.00000
     22      -2.8510      2.00000
     23      -2.8198      2.00000
     24      -2.8198      2.00000
     25      -2.8105      2.00000
     26      -2.8105      2.00000
     27      -2.7307      2.00000
     28      -2.7307      2.00000
     29      -2.7157      2.00000
     30      -2.7157      2.00000
     31      -2.7003      2.00000
     32      -2.7003      2.00000
     33      -2.6546      2.00000
     34      -2.6546      2.00000
     35      -2.6294      2.00000
     36      -2.6294      2.00000
     37      -2.6282      2.00000
     38      -2.6282      2.00000
     39      -2.6029      2.00000
     40      -2.6029      2.00000
     41      -2.5394      2.00000
     42      -2.5394      2.00000
     43      -2.4757      2.00000
     44      -2.4399      2.00000
     45      -2.4399      2.00000
     46      -2.4322      2.00000
     47      -2.4322      2.00000
     48      -2.4232      2.00000
     49      -2.4232      2.00000
     50      -2.4187      2.00000
     51      -2.4187      2.00000
     52      -2.3912      2.00000
     53      -2.3912      2.00000
     54      -2.3226      2.00000
     55      -2.3055      2.00000
     56      -2.3055      2.00000
     57      -2.2915      2.00000
     58      -2.2915      2.00000
     59      -2.2598      2.00000
     60      -2.2598      2.00000
     61      -2.2421      2.00000
     62      -2.2380      2.00000
     63      -2.2340      2.00000
     64      -2.2301      2.00000
     65      -2.2301      2.00000
     66      -2.2241      2.00000
     67      -2.2241      2.00000
     68      -2.2145      2.00000
     69      -2.2145      2.00000
     70      -2.2131      2.00000
     71      -2.2131      2.00000
     72      -2.1796      2.00000
     73      -2.1656      2.00000
     74      -2.1656      2.00000
     75      -2.1219      2.00000
     76      -2.1064      2.00000
     77      -2.1064      2.00000
     78      -2.0979      2.00000
     79      -2.0979      2.00000
     80      -2.0967      2.00000
     81      -2.0958      2.00000
     82      -2.0865      2.00000
     83      -1.9256      2.00000
     84      -1.9256      2.00000
     85      -1.8945      2.00000
     86      -1.8672      2.00000
     87      -1.8672      2.00000
     88      -1.8545      2.00000
     89      -1.8447      2.00000
     90      -1.8389      2.00000
     91      -1.8389      2.00000
     92      -1.8324      2.00000
     93      -1.7252      2.00000
     94      -1.7252      2.00000
     95      -1.6859      2.00000
     96      -1.6758      2.00000
     97      -1.6758      2.00000
     98      -1.6494      2.00000
     99      -1.6240      2.00000
    100      -1.6240      2.00000
    101      -1.6085      2.00000
    102      -1.6082      2.00000
    103      -1.6082      2.00000
    104      -1.5252      2.00000
    105      -1.5252      2.00000
    106      -1.5105      2.00000
    107      -1.5105      2.00000
    108      -1.4904      2.00000
    109      -1.4904      2.00000
    110      -1.4785      2.00000
    111      -1.4781      2.00000
    112      -1.4781      2.00000
    113      -1.4712      2.00000
    114      -1.4712      2.00000
    115      -1.3948      2.00000
    116      -1.3948      2.00000
    117      -1.3824      2.00000
    118      -1.3762      2.00000
    119      -1.3762      2.00000
    120      -1.3671      2.00000
    121      -1.3671      2.00000
    122      -1.2760      2.00000
    123      -1.2760      2.00000
    124      -1.2665      2.00000
    125      -1.2386      2.00000
    126      -1.2300      2.00000
    127      -1.2300      2.00000
    128      -1.1841      2.00000
    129      -1.1758      2.00000
    130      -1.1617      2.00000
    131      -1.1617      2.00000
    132      -1.1528      2.00000
    133      -1.1528      2.00000
    134      -1.1374      2.00000
    135      -1.1374      2.00000
    136      -1.1307      2.00000
    137      -1.1215      2.00000
    138      -1.1215      2.00000
    139      -1.1032      2.00000
    140      -1.0851      2.00000
    141      -1.0851      2.00000
    142      -0.9979      2.00000
    143      -0.9903      2.00000
    144      -0.9903      2.00000
    145      -0.9853      2.00000
    146      -0.9393      2.00000
    147      -0.9354      2.00000
    148      -0.9354      2.00000
    149      -0.9052      2.00000
    150      -0.8857      2.00000
    151      -0.8857      2.00000
    152      -0.8829      2.00000
    153      -0.8604      2.00000
    154      -0.8604      2.00000
    155      -0.8127      2.00000
    156      -0.7986      2.00000
    157      -0.7986      2.00000
    158      -0.7977      2.00000
    159      -0.7977      2.00000
    160      -0.7793      2.00000
    161      -0.6849      2.00000
    162      -0.6849      2.00000
    163      -0.6848      2.00000
    164      -0.6848      2.00000
    165      -0.5021      2.00000
    166      -0.5021      2.00000
    167       0.0758      2.00000
    168       0.0758      2.00000
    169       0.2046      2.00000
    170       0.5565      2.00000
    171       0.5565      2.00000
    172       1.0062      2.00000
    173       1.3747      2.00000
    174       1.5670      2.00027
    175       1.5670      2.00027
    176       1.9273      2.06796
    177       1.9273      2.06796
    178       2.1292      1.20649
[...]
    111      -1.5705      2.00000
    112      -1.5705      2.00000
    113      -1.5696      2.00000
    114      -1.5696      2.00000
    115      -1.5696      2.00000
    116      -1.5125      2.00000
    117      -1.5125      2.00000
    118      -1.5125      2.00000
    119      -1.4995      2.00000
    120      -1.4700      2.00000
    121      -1.4700      2.00000
    122      -1.4700      2.00000
    123      -1.4700      2.00000
    124      -1.4700      2.00000
    125      -1.4700      2.00000
    126      -1.4066      2.00000
    127      -1.4066      2.00000
    128      -1.4066      2.00000
    129      -1.3718      2.00000
    130      -1.3718      2.00000
    131      -1.3558      2.00000
    132      -1.3558      2.00000
    133      -1.3558      2.00000
    134      -1.3456      2.00000
    135      -1.3456      2.00000
    136      -1.3456      2.00000
    137      -1.2797      2.00000
    138      -1.2797      2.00000
    139      -1.2797      2.00000
    140      -1.2361      2.00000
    141      -1.2361      2.00000
    142      -1.1844      2.00000
    143      -1.1844      2.00000
    144      -1.1844      2.00000
    145      -0.8105      2.00000
    146      -0.8105      2.00000
    147      -0.8105      2.00000
    148      -0.7958      2.00000
    149      -0.7958      2.00000
    150      -0.7958      2.00000
    151      -0.7958      2.00000
    152      -0.7958      2.00000
    153      -0.7958      2.00000
    154      -0.7957      2.00000
    155      -0.7957      2.00000
    156      -0.7957      2.00000
    157      -0.7957      2.00000
    158      -0.7957      2.00000
    159      -0.7957      2.00000
    160      -0.7940      2.00000
    161      -0.7940      2.00000
    162      -0.7940      2.00000
    163      -0.7837      2.00000
    164      -0.7837      2.00000
    165      -0.7837      2.00000
    166      -0.7757      2.00000
    167      -0.7757      2.00000
    168      -0.7757      2.00000
    169       2.2394      0.34404
    170       2.2394      0.34404
    171       2.2394      0.34404
    172       2.5631     -0.01372
    173       2.5631     -0.01372
    174       2.5631     -0.01372
    175       2.5631     -0.01372
    176       2.5631     -0.01372
    177       2.5631     -0.01372
    178       2.8496     -0.00001
    179       2.8496     -0.00001
    180       2.8496     -0.00001
    181       3.0670     -0.00000
    182       3.0670     -0.00000
    183       3.0670     -0.00000
    184       3.4070     -0.00000
    185       3.4070     -0.00000
    186       3.4070     -0.00000
    187       3.4070     -0.00000
    188       3.4070     -0.00000
    189       3.4070     -0.00000
    190       3.7118     -0.00000
    191       3.7118     -0.00000
    192       3.7118     -0.00000
    193       6.5661     -0.00000
    194       6.5661     -0.00000
    195       6.5662     -0.00000
    196       6.8994     -0.00000
    197       6.8995     -0.00000
    198       6.8996     -0.00000
    199       7.3255     -0.00000
    200       7.3255     -0.00000
    201       7.3258     -0.00000
    202       7.3276     -0.00000
    203       7.3295     -0.00000
    204       7.3399     -0.00000
    205       7.6657      0.00000
    206       7.6657      0.00000
    207       7.6669      0.00000
    208       7.6702      0.00000
    209       7.7258      0.00000
    210       7.9072      0.00000
    211       8.0812      0.00000
    212       8.2000      0.00000


--------------------------------------------------------------------------------------------------------


 soft charge-density along one line, spin component           1
         0         1         2         3         4         5         6         7         8         9
 total charge-density along one line
 
 pseudopotential strength for first ion, spin component:           1
-12.548   0.000  -0.000   0.000  -0.000   0.202  -0.000   0.000
  0.000 -12.548   0.000   0.000  -0.000  -0.000   0.202  -0.000
 -0.000   0.000 -12.540   0.000  -0.000   0.000  -0.000   0.201
  0.000   0.000   0.000 -12.548   0.000  -0.000  -0.000  -0.000
 -0.000  -0.000  -0.000   0.000 -12.540   0.000   0.000   0.000
  0.202  -0.000   0.000  -0.000   0.000   0.444   0.000  -0.000
 -0.000   0.202  -0.000  -0.000   0.000   0.000   0.444   0.000
  0.000  -0.000   0.201  -0.000   0.000  -0.000   0.000   0.444
 -0.000  -0.000  -0.000   0.202  -0.000   0.000   0.000   0.000
  0.000   0.000   0.000  -0.000   0.201  -0.000  -0.000  -0.000
 -0.000  -0.000  -0.000  -0.000  -0.000   0.000   0.000   0.000
  0.000   0.000   0.000   0.000   0.000  -0.000  -0.000  -0.000
  0.000  -0.000  -0.000   0.000  -0.000  -0.000   0.000   0.000
  0.000   0.000  -0.000   0.000   0.000  -0.000  -0.000   0.000
  0.000   0.000  -0.000  -0.000   0.000  -0.000  -0.000   0.000
 -0.000   0.000   0.000  -0.000   0.000   0.000  -0.000  -0.000
 -0.000  -0.000   0.000  -0.000  -0.000   0.000   0.000  -0.000
 -0.000  -0.000   0.000   0.000  -0.000   0.000   0.000  -0.000
 total augmentation occupancy for first ion, spin component:           1
  1.941  -0.000  -0.001   0.001   0.001  -0.033   0.000  -0.000  -0.001  -0.001   0.005  -0.001   0.000   0.000  -0.000   0.000
 -0.000   1.948  -0.002  -0.000  -0.000   0.000  -0.040   0.002   0.000  -0.001   0.001  -0.001  -0.000  -0.000  -0.000  -0.000
 -0.001  -0.002   1.970  -0.001   0.002  -0.000   0.002  -0.060   0.001  -0.001   0.017   0.001  -0.000  -0.000   0.000  -0.000
  0.001  -0.000  -0.001   1.945   0.001  -0.001   0.000   0.001  -0.035  -0.000   0.003  -0.000   0.000   0.000   0.000   0.000
  0.001  -0.000   0.002   0.001   1.959  -0.001  -0.001  -0.001  -0.000  -0.052  -0.009  -0.001   0.000  -0.000  -0.000   0.000
 -0.033   0.000  -0.000  -0.001  -0.001   0.051  -0.000   0.001   0.000   0.001  -0.002   0.001  -0.000  -0.000   0.000  -0.000
  0.000  -0.040   0.002   0.000  -0.001  -0.000   0.057  -0.002  -0.000   0.001   0.002   0.001   0.000   0.000   0.000   0.000
 -0.000   0.002  -0.060   0.001  -0.001   0.001  -0.002   0.046  -0.001   0.000  -0.012   0.001  -0.000  -0.000  -0.000   0.000
 -0.001   0.000   0.001  -0.035  -0.000   0.000  -0.000  -0.001   0.051  -0.000  -0.001   0.001  -0.000  -0.000   0.000  -0.000
 -0.001  -0.001  -0.001  -0.000  -0.052   0.001   0.001   0.000  -0.000   0.042   0.008   0.000   0.000   0.000   0.000  -0.000
  0.005   0.001   0.017   0.003  -0.009  -0.002   0.002  -0.012  -0.001   0.008   0.960  -0.290   0.000   0.000  -0.000  -0.000
 -0.001  -0.001   0.001  -0.000  -0.001   0.001   0.001   0.001   0.001   0.000  -0.290   0.135   0.000  -0.000  -0.000  -0.000
  0.000  -0.000  -0.000   0.000   0.000  -0.000   0.000  -0.000  -0.000   0.000   0.000   0.000   0.083  -0.002   0.003  -0.004
  0.000  -0.000  -0.000   0.000  -0.000  -0.000   0.000  -0.000  -0.000   0.000   0.000  -0.000  -0.002   0.087   0.001  -0.000
 -0.000  -0.000   0.000   0.000  -0.000   0.000   0.000  -0.000   0.000   0.000  -0.000  -0.000   0.003   0.001   0.081  -0.000
  0.000  -0.000  -0.000   0.000   0.000  -0.000   0.000   0.000  -0.000  -0.000  -0.000  -0.000  -0.004  -0.000  -0.000   0.000
  0.000  -0.000   0.000   0.000  -0.000  -0.000   0.000  -0.000  -0.000   0.000   0.000   0.000  -0.000  -0.005  -0.000   0.000
 -0.000  -0.000   0.000   0.000  -0.000   0.000   0.000  -0.000  -0.000   0.000  -0.000   0.000  -0.000  -0.000  -0.004   0.000


------------------------ aborting loop because EDIFF is reached ----------------------------------------




--------------------------------------------------------------------------------------------------------


    CHARGE:  VPU time   28.52: CPU time   28.62
    FORLOC:  VPU time    0.18: CPU time    0.18
    FORNL :  VPU time  183.25: CPU time  183.85
    STRESS:  VPU time 1199.31: CPU time 1203.36
    FORCOR:  VPU time    1.32: CPU time    1.33
    FORHAR:  VPU time    0.46: CPU time    0.46
    MIXING:  VPU time    0.03: CPU time    0.03


--------------------------------------------------------------------------------------------------------



  FREE ENERGIE OF THE ION-ELECTRON SYSTEM (eV)
  ---------------------------------------------------
  free  energy   TOTEN  =       -88.563038 eV

  energy  without entropy=      -88.548223  energy(sigma->0) =      -88.558100
 

  FORCE on cell =-STRESS in cart. coord.  units (eV/reduce length):
  Direction    X        Y        Z        XY       YZ       ZX
  --------------------------------------------------------------------------------------
  Alpha Z   2799.23   2799.23   2799.23
  Ewald    -9838.94  -9838.94  -9838.94     -0.00     -0.00     -0.00
  Hartree   2337.03   2337.03   2337.03     -0.00     -0.00     -0.00
  E(xc)    -1852.97  -1852.97  -1852.97     -0.00     -0.00     -0.00
  Local     3000.80   3000.80   3000.80      0.00      0.00      0.00
  n-local  -2163.45  -2158.92  -2153.26      2.43     -0.38      1.28
  augment   1336.80   1336.80   1336.80     -0.00     -0.00     -0.00
  Kinetic   4338.08   4345.65   4355.05      2.06     -3.08      0.31
  -------------------------------------------------------------------------------------
  Total      -30.33    -30.33    -30.33     -0.00     -0.00     -0.00
  in kB      -74.80    -74.80    -74.80     -0.00     -0.00     -0.00
  external pressure =      -74.80 kB  Pullay stress =        0.00 kB


 VOLUME and BASIS-vectors are now :
 -----------------------------------------------------------------------------
  energy-cutoff  :      600.00
  volume of cell :      649.61
      direct lattice vectors                 reciprocal lattice vectors
     8.660639780  0.000000000  0.000000000     0.115464911 -0.000000002 -0.000000002
     0.000000160  8.660639780  0.000000000     0.000000000  0.115464911 -0.000000002
     0.000000160  0.000000160  8.660639780     0.000000000  0.000000000  0.115464911

  length of vectors
     8.660639780  8.660639780  8.660639780     0.115464911  0.115464911  0.115464911


 FORCES acting on ions
    electron-ion (+dipol)            ewald-force                    non-local-force                 convergence-correction
 -----------------------------------------------------------------------------------------------
   0.669E-12 -.175E-10 0.385E-11   0.244E-13 0.977E-13 0.250E-12   0.740E-24 0.146E-23 -.548E-23   0.192E-12 -.965E-14 -.722E-12
   0.663E-12 -.173E-11 -.533E-12   -.204E-13 0.213E-13 0.243E-12   -.110E-22 0.288E-23 -.248E-23   0.719E-13 -.394E-12 0.101E-11
   0.660E-12 -.402E-13 -.704E-11   0.533E-13 -.214E-13 0.127E-12   0.104E-22 0.484E-23 0.000E+00   -.287E-13 -.306E-12 -.169E-12
   0.667E-12 0.434E-11 0.236E-11   0.153E-12 0.111E-13 0.572E-13   0.178E-23 0.228E-23 0.434E-23   0.152E-12 -.450E-13 -.280E-12
   -.644E-13 0.700E-12 0.185E-12   0.132E-12 0.453E-13 0.111E-12   -.236E-23 -.628E-23 0.496E-23   0.446E-13 -.105E-12 -.274E-12
   -.728E-13 -.262E-13 0.445E-12   -.476E-13 0.287E-13 0.527E-13   -.111E-22 0.305E-23 0.346E-23   0.197E-12 -.144E-12 -.397E-12
   0.217E-12 -.147E-11 0.171E-11   0.127E-12 0.528E-13 0.251E-12   -.779E-23 0.145E-23 -.408E-23   -.218E-12 -.257E-13 -.373E-12
   0.662E-12 0.155E-12 0.245E-11   0.151E-13 0.651E-14 -.417E-13   -.832E-23 -.893E-23 -.620E-24   0.158E-12 0.110E-12 -.258E-12
   0.661E-12 -.112E-10 -.727E-12   0.693E-13 -.711E-14 0.146E-12   0.147E-22 -.206E-23 -.207E-24   -.103E-12 0.359E-12 0.618E-12
   0.669E-12 -.146E-11 0.851E-11   0.107E-12 -.123E-12 -.400E-13   0.460E-23 0.462E-24 -.238E-23   0.704E-13 0.378E-12 -.559E-12
   -.647E-13 0.687E-12 0.699E-12   0.126E-12 0.497E-13 0.564E-13   -.409E-23 0.109E-22 -.429E-23   0.361E-12 -.183E-12 -.986E-13
   -.654E-13 -.437E-13 -.222E-13   -.359E-14 -.831E-13 -.314E-14   -.126E-22 0.184E-22 -.403E-23   0.516E-12 -.395E-13 0.725E-12
   -.720E-13 0.205E-12 0.205E-12   0.200E-13 -.604E-13 -.244E-13   0.772E-24 0.822E-23 -.393E-23   0.373E-12 0.459E-13 -.374E-12
   -.722E-13 0.445E-12 0.457E-12   -.100E-13 -.135E-12 -.346E-13   -.771E-24 0.981E-23 0.414E-23   0.214E-12 0.198E-12 -.335E-12
   0.223E-12 0.290E-11 0.110E-11   0.115E-12 0.107E-12 0.118E-12   0.161E-22 -.578E-23 -.207E-23   -.987E-13 -.869E-13 0.717E-12
   0.223E-12 -.146E-13 -.199E-11   -.799E-14 0.146E-13 0.622E-14   0.142E-23 0.578E-23 0.310E-23   -.647E-15 -.167E-14 -.436E-12
   0.220E-12 0.224E-11 0.163E-11   -.706E-13 0.302E-13 0.872E-13   -.175E-22 -.263E-23 -.607E-23   -.174E-12 -.393E-13 -.266E-12
   0.470E-12 -.395E-11 -.478E-12   -.144E-12 0.817E-13 0.444E-13   0.286E-23 -.153E-23 -.290E-23   -.534E-13 -.168E-13 -.411E-12
   0.478E-12 -.983E-14 -.376E-11   -.468E-13 -.245E-13 0.125E-13   -.142E-23 0.258E-23 0.538E-23   -.213E-12 -.884E-13 -.569E-12
   0.670E-12 -.482E-12 -.131E-10   0.542E-13 0.345E-13 -.835E-13   -.373E-23 0.760E-23 0.103E-23   0.124E-12 -.381E-13 0.139E-12
   -.713E-13 0.215E-12 0.682E-12   0.608E-13 0.400E-13 -.435E-13   0.672E-23 0.110E-23 0.310E-23   0.358E-12 0.123E-12 0.232E-13
   -.656E-13 0.463E-12 -.357E-13   0.965E-14 -.790E-13 -.187E-12   0.841E-23 -.999E-23 0.869E-23   0.198E-12 0.805E-13 0.633E-12
   0.223E-12 -.563E-13 0.271E-11   0.711E-13 0.383E-14 -.666E-13   -.766E-23 0.529E-23 -.269E-23   -.189E-12 0.825E-13 0.115E-12
   0.226E-12 -.187E-11 0.117E-11   0.622E-14 0.924E-13 0.418E-13   -.250E-22 0.654E-23 -.191E-23   0.814E-13 0.173E-13 0.658E-12
   0.219E-12 0.442E-12 0.211E-11   -.400E-13 -.456E-13 -.172E-12   -.102E-22 0.110E-22 -.100E-22   -.987E-13 0.471E-13 -.502E-12
   0.471E-12 0.367E-11 0.654E-11   -.200E-13 0.444E-13 0.142E-13   -.740E-23 -.765E-23 0.207E-24   -.373E-12 -.228E-12 0.334E-14
   0.472E-12 0.820E-13 0.306E-11   -.118E-12 -.453E-13 -.995E-13   0.232E-22 -.200E-22 0.310E-24   -.531E-12 0.160E-12 0.932E-12
   0.477E-12 -.359E-11 -.776E-12   -.996E-13 0.124E-13 -.853E-13   0.639E-24 0.153E-23 0.110E-22   -.374E-12 -.449E-13 -.642E-12
   0.478E-12 -.344E-11 -.341E-11   -.875E-13 -.979E-13 -.169E-12   -.883E-23 -.488E-23 -.196E-23   -.219E-12 0.155E-12 -.369E-12
   0.218E-12 0.480E-12 -.141E-11   -.355E-13 -.127E-12 -.879E-13   0.140E-22 -.167E-23 0.456E-23   -.148E-12 -.381E-13 0.165E-12
   0.477E-12 -.281E-11 -.164E-11   -.188E-12 0.746E-13 -.101E-12   0.791E-24 -.223E-23 0.951E-23   -.361E-12 0.169E-12 0.265E-12
   0.471E-12 -.356E-11 0.229E-11   -.197E-13 -.746E-13 -.311E-12   -.900E-23 0.288E-23 -.321E-23   -.204E-12 -.925E-13 0.703E-12
 -----------------------------------------------------------------------------------------------
   0.103E-10 -.362E-10 0.724E-11   0.185E-12 -.755E-13 0.694E-13   -.417E-22 0.345E-22 0.542E-23   -.277E-12 -.220E-14 -.331E-12
 
 
 POSITION                                       TOTAL-FORCE (eV/Angst)
 -----------------------------------------------------------------------------------
      6.49548      6.49548      4.33032         0.000000      0.000000      0.000000
      6.49548      6.49548      0.00000        -0.000000      0.000000     -0.000000
      6.49548      0.00000      2.16516        -0.000000      0.000000     -0.000000
      6.49548      2.16516      4.33032        -0.000000     -0.000000     -0.000000
      0.00000      6.49548      2.16516         0.000000      0.000000     -0.000000
      0.00000      0.00000      4.33032        -0.000000      0.000000     -0.000000
      2.16516      6.49548      4.33032        -0.000000      0.000000     -0.000000
      6.49548      0.00000      6.49548         0.000000      0.000000      0.000000
      6.49548      2.16516      0.00000         0.000000     -0.000000      0.000000
      6.49548      4.33032      2.16516         0.000000      0.000000      0.000000
      0.00000      6.49548      6.49548         0.000000      0.000000     -0.000000
      0.00000      0.00000      0.00000        -0.000000      0.000000      0.000000
      0.00000      2.16516      2.16516         0.000000      0.000000      0.000000
      0.00000      4.33032      4.33032         0.000000      0.000000      0.000000
      2.16516      6.49548      0.00000         0.000000     -0.000000      0.000000
      2.16516      0.00000      2.16516         0.000000      0.000000     -0.000000
      2.16516      2.16516      4.33032         0.000000     -0.000000     -0.000000
      4.33032      6.49548      2.16516        -0.000000      0.000000      0.000000
      4.33032      0.00000      4.33032         0.000000      0.000000      0.000000
      6.49548      4.33032      6.49548        -0.000000      0.000000     -0.000000
      0.00000      2.16516      6.49548         0.000000     -0.000000      0.000000
      0.00000      4.33032      0.00000         0.000000      0.000000     -0.000000
      2.16516      0.00000      6.49548         0.000000      0.000000      0.000000
      2.16516      2.16516      0.00000         0.000000      0.000000      0.000000
      2.16516      4.33032      2.16516        -0.000000      0.000000     -0.000000
      4.33032      6.49548      6.49548         0.000000      0.000000     -0.000000
      4.33032      0.00000      0.00000         0.000000     -0.000000     -0.000000
      4.33032      2.16516      2.16516         0.000000      0.000000     -0.000000
      4.33032      4.33032      4.33032        -0.000000      0.000000     -0.000000
      2.16516      4.33032      6.49548         0.000000     -0.000000      0.000000
      4.33032      2.16516      6.49548         0.000000     -0.000000     -0.000000
      4.33032      4.33032      0.00000        -0.000000      0.000000      0.000000
 -----------------------------------------------------------------------------------
    total drift:                                0.000000     -0.000000      0.000000


--------------------------------------------------------------------------------------------------------




--------------------------------------------------------------------------------------------------------


  
 reached required accuracy - stopping structural energy minimisation
 writing wavefunctions
     LOOP+:  VPU time12915.41: CPU time12939.32

 ----------------------------------------------------------------------------- 
|                                                                             |
|           W    W    AA    RRRRR   N    N  II  N    N   GGGG   !!!           |
|           W    W   A  A   R    R  NN   N  II  NN   N  G    G  !!!           |
|           W    W  A    A  R    R  N N  N  II  N N  N  G       !!!           |
|           W WW W  AAAAAA  RRRRR   N  N N  II  N  N N  G  GGG   !            |
|           WW  WW  A    A  R   R   N   NN  II  N   NN  G    G                |
|           W    W  A    A  R    R  N    N  II  N    N   GGGG   !!!           |
|                                                                             |
|      The partial DOS and the PROCAR file are not evaluated for NPAR/=1      |
|      please rerun with NPAR=1                                               |
|                                                                             |
 ----------------------------------------------------------------------------- 

  
  
 General timing and accounting informations for this job:
 ========================================================
  
                  Total CPU time used (sec):    13080.020
                            User time (sec):    12914.714
                          System time (sec):      165.306
                         Elapsed time (sec):    13104.079
  
                   Maximum memory used (kb):     2077396.
                   Average memory used (kb):           0.
  
                          Minor page faults:       426554
                          Major page faults:            0
                 Voluntary context switches:        24526
