       N       E                     dE             d eps       ncg     rms          rms(c)
RMM:   1    -0.106718463446E+03   -0.10672E+03   -0.65907E+02 17612   0.439E+01    0.850E+00
RMM:   2    -0.103969273742E+03    0.27492E+01   -0.12662E+01 18019   0.100E+01    0.142E+00
RMM:   3    -0.103986112809E+03   -0.16839E-01   -0.91471E-01 18571   0.213E+00    0.783E-01
RMM:   4    -0.103989311562E+03   -0.31988E-02   -0.37912E-02 18707   0.308E-01    0.296E-01
RMM:   5    -0.103989873271E+03   -0.56171E-03   -0.23635E-03 18483   0.126E-01    0.738E-02
RMM:   6    -0.103989737900E+03    0.13537E-03   -0.11133E-03 18281   0.989E-02    0.151E-02
RMM:   7    -0.103989732558E+03    0.53428E-05   -0.60912E-05 13795   0.139E-02
   1 F= -.10398973E+03 E0= -.10399210E+03  d E =0.710525E-02
