       N       E                     dE             d eps       ncg     rms          rms(c)
RMM:   1    -0.106717762994E+03   -0.10672E+03   -0.65905E+02 17616   0.439E+01    0.850E+00
RMM:   2    -0.103969193907E+03    0.27486E+01   -0.12667E+01 18014   0.100E+01    0.142E+00
RMM:   3    -0.103986084285E+03   -0.16890E-01   -0.91563E-01 18578   0.213E+00    0.783E-01
RMM:   4    -0.103989306210E+03   -0.32219E-02   -0.38084E-02 18713   0.307E-01    0.299E-01
RMM:   5    -0.103989874861E+03   -0.56865E-03   -0.23644E-03 18479   0.127E-01    0.741E-02
RMM:   6    -0.103989737689E+03    0.13717E-03   -0.11099E-03 18279   0.989E-02    0.149E-02
RMM:   7    -0.103989732456E+03    0.52332E-05   -0.61375E-05 13808   0.138E-02
   1 F= -.10398973E+03 E0= -.10399210E+03  d E =0.710526E-02
