   4   4   0   0
  0.1557351E+02  0.3964138E-09  0.3964138E-09  0.3964138E-09  0.5000000E-15
  1.000000000000000E-004
  CAR 
 unknown system                          
     21.20044262     -6.98335316  301      1.75156014      1.00000000
     -6.983  0.0000E+00  0.0000E+00
     -6.889  0.0000E+00  0.0000E+00
     -6.795  0.0000E+00  0.0000E+00
     -6.702  0.0000E+00  0.0000E+00
     -6.608  0.0000E+00  0.0000E+00
     -6.514  0.0000E+00  0.0000E+00
     -6.420  0.0000E+00  0.0000E+00
     -6.326  0.0000E+00  0.0000E+00
     -6.232  0.0000E+00  0.0000E+00
     -6.138  0.0000E+00  0.0000E+00
     -6.044  0.0000E+00  0.0000E+00
     -5.950  0.0000E+00  0.0000E+00
     -5.856  0.0000E+00  0.0000E+00
     -5.762  0.0000E+00  0.0000E+00
     -5.668  0.1734E-01  0.1629E-02
     -5.574  0.8834E-01  0.1177E-01
     -5.480  0.1439E+00  0.2814E-01
     -5.386  0.1687E+00  0.4752E-01
     -5.292  0.2022E+00  0.7099E-01
     -5.198  0.2273E+00  0.9608E-01
     -5.104  0.2739E+00  0.1254E+00
     -5.010  0.3326E+00  0.1585E+00
     -4.917  0.3050E+00  0.1891E+00
     -4.823  0.3197E+00  0.2252E+00
     -4.729  0.3081E+00  0.2625E+00
     -4.635  0.3744E+00  0.3035E+00
     -4.541  0.4524E+00  0.3489E+00
     -4.447  0.3892E+00  0.3888E+00
     -4.353  0.4450E+00  0.4370E+00
     -4.259  0.4002E+00  0.4832E+00
     -4.165  0.4685E+00  0.5373E+00
     -4.071  0.4355E+00  0.5875E+00
     -3.977  0.5171E+00  0.6465E+00
     -3.883  0.5319E+00  0.7028E+00
     -3.789  0.5237E+00  0.7615E+00
     -3.695  0.6021E+00  0.8246E+00
     -3.601  0.5229E+00  0.8841E+00
     -3.507  0.6521E+00  0.9567E+00
     -3.413  0.6290E+00  0.1024E+01
     -3.319  0.6806E+00  0.1098E+01
     -3.226  0.7030E+00  0.1177E+01
     -3.132  0.6926E+00  0.1255E+01
     -3.038  0.8167E+00  0.1344E+01
     -2.944  0.6924E+00  0.1424E+01
     -2.850  0.9121E+00  0.1522E+01
     -2.756  0.8352E+00  0.1619E+01
     -2.662  0.9165E+00  0.1722E+01
     -2.568  0.9914E+00  0.1836E+01
     -2.474  0.1045E+01  0.1952E+01
     -2.380  0.1269E+01  0.2092E+01
     -2.286  0.1373E+01  0.2238E+01
     -2.192  0.1520E+01  0.2406E+01
     -2.098  0.1951E+01  0.2615E+01
     -2.004  0.2506E+01  0.2884E+01
     -1.910  0.2957E+01  0.3211E+01
     -1.816  0.3335E+01  0.3595E+01
     -1.722  0.5029E+01  0.4128E+01
     -1.628  0.5407E+01  0.4729E+01
     -1.534  0.5965E+01  0.5363E+01
     -1.441  0.6953E+01  0.6117E+01
     -1.347  0.9702E+01  0.7155E+01
     -1.253  0.1130E+02  0.8399E+01
     -1.159  0.1067E+02  0.9602E+01
     -1.065  0.1071E+02  0.1075E+02
     -0.971  0.1070E+02  0.1195E+02
     -0.877  0.1178E+02  0.1322E+02
     -0.783  0.1483E+02  0.1486E+02
     -0.689  0.1667E+02  0.1670E+02
     -0.595  0.1937E+02  0.1879E+02
     -0.501  0.2242E+02  0.2123E+02
     -0.407  0.2266E+02  0.2377E+02
     -0.313  0.1500E+02  0.2544E+02
     -0.219  0.1360E+02  0.2695E+02
     -0.125  0.1831E+02  0.2891E+02
     -0.031  0.2071E+02  0.3115E+02
      0.063  0.1756E+02  0.3311E+02
      0.157  0.1721E+02  0.3501E+02
      0.250  0.2034E+02  0.3721E+02
      0.344  0.3162E+02  0.4062E+02
      0.438  0.9259E+01  0.4183E+02
      0.532  0.1909E+01  0.4203E+02
      0.626  0.1819E+01  0.4223E+02
      0.720  0.1603E+01  0.4241E+02
      0.814  0.1370E+01  0.4258E+02
      0.908  0.1376E+01  0.4274E+02
      1.002  0.1326E+01  0.4289E+02
      1.096  0.1587E+01  0.4305E+02
      1.190  0.1134E+01  0.4318E+02
      1.284  0.1201E+01  0.4332E+02
      1.378  0.1384E+01  0.4347E+02
      1.472  0.1141E+01  0.4359E+02
      1.566  0.1244E+01  0.4373E+02
      1.660  0.1259E+01  0.4387E+02
      1.754  0.1243E+01  0.4400E+02
      1.848  0.1215E+01  0.4414E+02
      1.942  0.1200E+01  0.4427E+02
      2.035  0.1237E+01  0.4440E+02
      2.129  0.1094E+01  0.4451E+02
      2.223  0.1184E+01  0.4464E+02
      2.317  0.1101E+01  0.4476E+02
      2.411  0.1091E+01  0.4488E+02
      2.505  0.1109E+01  0.4500E+02
      2.599  0.1013E+01  0.4511E+02
      2.693  0.8950E+00  0.4522E+02
      2.787  0.1099E+01  0.4535E+02
      2.881  0.8568E+00  0.4545E+02
      2.975  0.1030E+01  0.4557E+02
      3.069  0.1000E+01  0.4568E+02
      3.163  0.9501E+00  0.4578E+02
      3.257  0.9834E+00  0.4589E+02
      3.351  0.1060E+01  0.4600E+02
      3.445  0.8264E+00  0.4609E+02
      3.539  0.1125E+01  0.4621E+02
      3.633  0.9548E+00  0.4632E+02
      3.726  0.8696E+00  0.4641E+02
      3.820  0.9732E+00  0.4651E+02
      3.914  0.9552E+00  0.4662E+02
      4.008  0.7997E+00  0.4670E+02
      4.102  0.8946E+00  0.4679E+02
      4.196  0.7770E+00  0.4688E+02
      4.290  0.7963E+00  0.4696E+02
      4.384  0.9139E+00  0.4706E+02
      4.478  0.1222E+01  0.4719E+02
      4.572  0.1143E+01  0.4731E+02
      4.666  0.1086E+01  0.4744E+02
      4.760  0.1244E+01  0.4757E+02
      4.854  0.1136E+01  0.4771E+02
      4.948  0.1210E+01  0.4783E+02
      5.042  0.9985E+00  0.4795E+02
      5.136  0.1208E+01  0.4809E+02
      5.230  0.1257E+01  0.4822E+02
      5.324  0.1038E+01  0.4834E+02
      5.418  0.1114E+01  0.4846E+02
      5.511  0.1245E+01  0.4859E+02
      5.605  0.1163E+01  0.4871E+02
      5.699  0.9707E+00  0.4882E+02
      5.793  0.1219E+01  0.4895E+02
      5.887  0.1026E+01  0.4906E+02
      5.981  0.1122E+01  0.4918E+02
      6.075  0.8795E+00  0.4929E+02
      6.169  0.1180E+01  0.4941E+02
      6.263  0.1026E+01  0.4952E+02
      6.357  0.9845E+00  0.4964E+02
      6.451  0.9903E+00  0.4974E+02
      6.545  0.8664E+00  0.4984E+02
      6.639  0.1035E+01  0.4996E+02
      6.733  0.9622E+00  0.5007E+02
      6.827  0.8833E+00  0.5017E+02
      6.921  0.8724E+00  0.5027E+02
      7.015  0.9844E+00  0.5038E+02
      7.109  0.8870E+00  0.5048E+02
      7.202  0.1010E+01  0.5059E+02
      7.296  0.1134E+01  0.5072E+02
      7.390  0.1115E+01  0.5085E+02
      7.484  0.1242E+01  0.5098E+02
      7.578  0.1283E+01  0.5113E+02
      7.672  0.1098E+01  0.5126E+02
      7.766  0.1335E+01  0.5140E+02
      7.860  0.1459E+01  0.5155E+02
      7.954  0.1253E+01  0.5169E+02
      8.048  0.1261E+01  0.5182E+02
      8.142  0.1392E+01  0.5197E+02
      8.236  0.1344E+01  0.5212E+02
      8.330  0.1400E+01  0.5228E+02
      8.424  0.1323E+01  0.5242E+02
      8.518  0.1378E+01  0.5257E+02
      8.612  0.1426E+01  0.5273E+02
      8.706  0.1200E+01  0.5287E+02
      8.800  0.1315E+01  0.5301E+02
      8.894  0.1388E+01  0.5316E+02
      8.987  0.1477E+01  0.5332E+02
      9.081  0.1296E+01  0.5347E+02
      9.175  0.1452E+01  0.5363E+02
      9.269  0.1180E+01  0.5376E+02
      9.363  0.1459E+01  0.5392E+02
      9.457  0.1476E+01  0.5408E+02
      9.551  0.1380E+01  0.5424E+02
      9.645  0.1455E+01  0.5440E+02
      9.739  0.1274E+01  0.5454E+02
      9.833  0.1345E+01  0.5468E+02
      9.927  0.1405E+01  0.5484E+02
     10.021  0.1670E+01  0.5502E+02
     10.115  0.1317E+01  0.5517E+02
     10.209  0.1467E+01  0.5532E+02
     10.303  0.1354E+01  0.5547E+02
     10.397  0.1399E+01  0.5563E+02
     10.491  0.1389E+01  0.5579E+02
     10.585  0.1522E+01  0.5595E+02
     10.678  0.1654E+01  0.5614E+02
     10.772  0.1282E+01  0.5628E+02
     10.866  0.1359E+01  0.5644E+02
     10.960  0.1402E+01  0.5660E+02
     11.054  0.1588E+01  0.5678E+02
     11.148  0.1515E+01  0.5694E+02
     11.242  0.1592E+01  0.5712E+02
     11.336  0.1316E+01  0.5726E+02
     11.430  0.1483E+01  0.5743E+02
     11.524  0.1740E+01  0.5762E+02
     11.618  0.1416E+01  0.5778E+02
     11.712  0.1311E+01  0.5792E+02
     11.806  0.1878E+01  0.5813E+02
     11.900  0.1547E+01  0.5829E+02
     11.994  0.1419E+01  0.5845E+02
     12.088  0.1723E+01  0.5864E+02
     12.182  0.1611E+01  0.5881E+02
     12.276  0.1551E+01  0.5899E+02
     12.370  0.1671E+01  0.5916E+02
     12.463  0.1730E+01  0.5935E+02
     12.557  0.1611E+01  0.5952E+02
     12.651  0.1696E+01  0.5971E+02
     12.745  0.1725E+01  0.5990E+02
     12.839  0.1659E+01  0.6009E+02
     12.933  0.1894E+01  0.6029E+02
     13.027  0.1453E+01  0.6045E+02
     13.121  0.1707E+01  0.6064E+02
     13.215  0.1556E+01  0.6081E+02
     13.309  0.1612E+01  0.6099E+02
     13.403  0.1451E+01  0.6116E+02
     13.497  0.1474E+01  0.6131E+02
     13.591  0.1243E+01  0.6146E+02
     13.685  0.1434E+01  0.6161E+02
     13.779  0.1295E+01  0.6175E+02
     13.873  0.1092E+01  0.6187E+02
     13.967  0.1082E+01  0.6200E+02
     14.061  0.1042E+01  0.6211E+02
     14.154  0.8640E+00  0.6221E+02
     14.248  0.8554E+00  0.6231E+02
     14.342  0.7748E+00  0.6239E+02
     14.436  0.7624E+00  0.6247E+02
     14.530  0.7657E+00  0.6256E+02
     14.624  0.6883E+00  0.6264E+02
     14.718  0.6031E+00  0.6270E+02
     14.812  0.6289E+00  0.6278E+02
     14.906  0.5709E+00  0.6284E+02
     15.000  0.5597E+00  0.6290E+02
     15.094  0.5842E+00  0.6297E+02
     15.188  0.5060E+00  0.6303E+02
     15.282  0.3687E+00  0.6307E+02
     15.376  0.5617E+00  0.6313E+02
     15.470  0.4160E+00  0.6318E+02
     15.564  0.2497E+00  0.6322E+02
     15.658  0.5236E+00  0.6328E+02
     15.752  0.2734E+00  0.6331E+02
     15.846  0.4264E+00  0.6335E+02
     15.939  0.2800E+00  0.6338E+02
     16.033  0.4018E+00  0.6342E+02
     16.127  0.1947E+00  0.6345E+02
     16.221  0.2991E+00  0.6349E+02
     16.315  0.2608E+00  0.6352E+02
     16.409  0.2523E+00  0.6355E+02
     16.503  0.3774E+00  0.6358E+02
     16.597  0.1961E+00  0.6360E+02
     16.691  0.2184E+00  0.6363E+02
     16.785  0.2259E+00  0.6365E+02
     16.879  0.2341E+00  0.6368E+02
     16.973  0.1677E+00  0.6370E+02
     17.067  0.9363E-01  0.6371E+02
     17.161  0.2556E+00  0.6374E+02
     17.255  0.1377E+00  0.6376E+02
     17.349  0.2194E+00  0.6378E+02
     17.443  0.1267E+00  0.6379E+02
     17.537  0.1327E+00  0.6381E+02
     17.630  0.9829E-01  0.6382E+02
     17.724  0.2055E+00  0.6384E+02
     17.818  0.9440E-01  0.6386E+02
     17.912  0.6184E-01  0.6386E+02
     18.006  0.1080E+00  0.6388E+02
     18.100  0.1028E+00  0.6389E+02
     18.194  0.1052E+00  0.6390E+02
     18.288  0.5005E-01  0.6391E+02
     18.382  0.1581E+00  0.6392E+02
     18.476  0.6219E-01  0.6393E+02
     18.570  0.8761E-01  0.6394E+02
     18.664  0.4627E-01  0.6394E+02
     18.758  0.1024E+00  0.6395E+02
     18.852  0.7649E-01  0.6396E+02
     18.946  0.5635E-01  0.6397E+02
     19.040  0.3455E-01  0.6397E+02
     19.134  0.5473E-01  0.6398E+02
     19.228  0.3363E-01  0.6398E+02
     19.322  0.1668E-01  0.6398E+02
     19.415  0.4208E-01  0.6399E+02
     19.509  0.3291E-01  0.6399E+02
     19.603  0.1468E-01  0.6399E+02
     19.697  0.3297E-01  0.6400E+02
     19.791  0.3687E-02  0.6400E+02
     19.885  0.2180E-01  0.6400E+02
     19.979  0.1825E-02  0.6400E+02
     20.073  0.0000E+00  0.6400E+02
     20.167  0.0000E+00  0.6400E+02
     20.261  0.0000E+00  0.6400E+02
     20.355  0.0000E+00  0.6400E+02
     20.449  0.0000E+00  0.6400E+02
     20.543  0.0000E+00  0.6400E+02
     20.637  0.0000E+00  0.6400E+02
     20.731  0.0000E+00  0.6400E+02
     20.825  0.0000E+00  0.6400E+02
     20.919  0.0000E+00  0.6400E+02
     21.013  0.0000E+00  0.6400E+02
     21.106  0.0000E+00  0.6400E+02
     21.200  0.0000E+00  0.6400E+02
