   4   4   0   0
  0.1751078E+02  0.4122131E-09  0.4122131E-09  0.4122131E-09  0.5000000E-15
  1.000000000000000E-004
  CAR 
 unknown system                          
     20.64820281     -5.47610269  301      3.32069441      1.00000000
     -5.476  0.0000E+00  0.0000E+00
     -5.389  0.0000E+00  0.0000E+00
     -5.302  0.0000E+00  0.0000E+00
     -5.215  0.0000E+00  0.0000E+00
     -5.128  0.0000E+00  0.0000E+00
     -5.041  0.0000E+00  0.0000E+00
     -4.954  0.0000E+00  0.0000E+00
     -4.867  0.0000E+00  0.0000E+00
     -4.779  0.0000E+00  0.0000E+00
     -4.692  0.0000E+00  0.0000E+00
     -4.605  0.0000E+00  0.0000E+00
     -4.518  0.0000E+00  0.0000E+00
     -4.431  0.0000E+00  0.0000E+00
     -4.344  0.1148E-17  0.9994E-19
     -4.257  0.1583E-01  0.1378E-02
     -4.170  0.1035E+00  0.1057E-01
     -4.083  0.1530E+00  0.2415E-01
     -3.996  0.1712E+00  0.4145E-01
     -3.909  0.1956E+00  0.6081E-01
     -3.822  0.2502E+00  0.8539E-01
     -3.734  0.2604E+00  0.1111E+00
     -3.647  0.3078E+00  0.1411E+00
     -3.560  0.3271E+00  0.1727E+00
     -3.473  0.3974E+00  0.2104E+00
     -3.386  0.3894E+00  0.2481E+00
     -3.299  0.4637E+00  0.2929E+00
     -3.212  0.5294E+00  0.3426E+00
     -3.125  0.5483E+00  0.3950E+00
     -3.038  0.5826E+00  0.4519E+00
     -2.951  0.1228E+01  0.5668E+00
     -2.864  0.3593E+01  0.8962E+00
     -2.777  0.6422E+01  0.1505E+01
     -2.690  0.8059E+01  0.2265E+01
     -2.602  0.9520E+01  0.3167E+01
     -2.515  0.1217E+02  0.4304E+01
     -2.428  0.1542E+02  0.5772E+01
     -2.341  0.1206E+02  0.6941E+01
     -2.254  0.1120E+02  0.8021E+01
     -2.167  0.9906E+01  0.8956E+01
     -2.080  0.8412E+01  0.9771E+01
     -1.993  0.7330E+01  0.1048E+02
     -1.906  0.9242E+01  0.1134E+02
     -1.819  0.9416E+01  0.1224E+02
     -1.732  0.1048E+02  0.1324E+02
     -1.645  0.1005E+02  0.1420E+02
     -1.557  0.9933E+01  0.1514E+02
     -1.470  0.9531E+01  0.1606E+02
     -1.383  0.1073E+02  0.1707E+02
     -1.296  0.1372E+02  0.1835E+02
     -1.209  0.1716E+02  0.1996E+02
     -1.122  0.1684E+02  0.2161E+02
     -1.035  0.1195E+02  0.2277E+02
     -0.948  0.9140E+01  0.2366E+02
     -0.861  0.1028E+02  0.2461E+02
     -0.774  0.9575E+01  0.2555E+02
     -0.687  0.1013E+02  0.2653E+02
     -0.600  0.1197E+02  0.2766E+02
     -0.512  0.1187E+02  0.2880E+02
     -0.425  0.1292E+02  0.3003E+02
     -0.338  0.1161E+02  0.3114E+02
     -0.251  0.1062E+02  0.3215E+02
     -0.164  0.9743E+01  0.3308E+02
     -0.077  0.9979E+01  0.3402E+02
      0.010  0.1003E+02  0.3498E+02
      0.097  0.1067E+02  0.3599E+02
      0.184  0.1215E+02  0.3714E+02
      0.271  0.1830E+02  0.3885E+02
      0.358  0.1459E+02  0.4027E+02
      0.445  0.7354E+01  0.4102E+02
      0.532  0.3342E+01  0.4138E+02
      0.620  0.6504E+00  0.4145E+02
      0.707  0.8984E+00  0.4154E+02
      0.794  0.8242E+00  0.4161E+02
      0.881  0.7209E+00  0.4168E+02
      0.968  0.8993E+00  0.4177E+02
      1.055  0.6501E+00  0.4183E+02
      1.142  0.8891E+00  0.4192E+02
      1.229  0.7052E+00  0.4199E+02
      1.316  0.7658E+00  0.4206E+02
      1.403  0.9485E+00  0.4215E+02
      1.490  0.5372E+00  0.4221E+02
      1.577  0.1156E+01  0.4231E+02
      1.665  0.7021E+00  0.4238E+02
      1.752  0.7985E+00  0.4245E+02
      1.839  0.8374E+00  0.4254E+02
      1.926  0.6984E+00  0.4260E+02
      2.013  0.9232E+00  0.4269E+02
      2.100  0.8766E+00  0.4278E+02
      2.187  0.6366E+00  0.4284E+02
      2.274  0.1044E+01  0.4294E+02
      2.361  0.8053E+00  0.4302E+02
      2.448  0.6886E+00  0.4309E+02
      2.535  0.1091E+01  0.4319E+02
      2.622  0.8275E+00  0.4327E+02
      2.710  0.7177E+00  0.4334E+02
      2.797  0.1131E+01  0.4345E+02
      2.884  0.8844E+00  0.4353E+02
      2.971  0.8354E+00  0.4362E+02
      3.058  0.1075E+01  0.4371E+02
      3.145  0.1163E+01  0.4382E+02
      3.232  0.8848E+00  0.4391E+02
      3.319  0.1019E+01  0.4400E+02
      3.406  0.1148E+01  0.4411E+02
      3.493  0.9401E+00  0.4419E+02
      3.580  0.9549E+00  0.4428E+02
      3.667  0.1099E+01  0.4439E+02
      3.754  0.8022E+00  0.4447E+02
      3.842  0.8631E+00  0.4455E+02
      3.929  0.1171E+01  0.4466E+02
      4.016  0.9120E+00  0.4475E+02
      4.103  0.8073E+00  0.4483E+02
      4.190  0.1183E+01  0.4494E+02
      4.277  0.9372E+00  0.4504E+02
      4.364  0.8810E+00  0.4512E+02
      4.451  0.8329E+00  0.4520E+02
      4.538  0.1052E+01  0.4531E+02
      4.625  0.8759E+00  0.4539E+02
      4.712  0.9484E+00  0.4548E+02
      4.799  0.1016E+01  0.4558E+02
      4.887  0.9763E+00  0.4568E+02
      4.974  0.8160E+00  0.4576E+02
      5.061  0.9392E+00  0.4585E+02
      5.148  0.1104E+01  0.4595E+02
      5.235  0.1060E+01  0.4605E+02
      5.322  0.8019E+00  0.4612E+02
      5.409  0.9858E+00  0.4621E+02
      5.496  0.9481E+00  0.4631E+02
      5.583  0.8538E+00  0.4639E+02
      5.670  0.8151E+00  0.4646E+02
      5.757  0.8455E+00  0.4654E+02
      5.844  0.9749E+00  0.4663E+02
      5.932  0.6536E+00  0.4670E+02
      6.019  0.6749E+00  0.4677E+02
      6.106  0.9257E+00  0.4685E+02
      6.193  0.7899E+00  0.4693E+02
      6.280  0.6922E+00  0.4700E+02
      6.367  0.6321E+00  0.4706E+02
      6.454  0.8229E+00  0.4713E+02
      6.541  0.5457E+00  0.4719E+02
      6.628  0.7321E+00  0.4726E+02
      6.715  0.5499E+00  0.4731E+02
      6.802  0.8566E+00  0.4739E+02
      6.889  0.1192E+01  0.4750E+02
      6.976  0.1180E+01  0.4761E+02
      7.064  0.1240E+01  0.4773E+02
      7.151  0.1321E+01  0.4785E+02
      7.238  0.1332E+01  0.4798E+02
      7.325  0.1014E+01  0.4808E+02
      7.412  0.1238E+01  0.4821E+02
      7.499  0.1318E+01  0.4833E+02
      7.586  0.1152E+01  0.4845E+02
      7.673  0.1216E+01  0.4856E+02
      7.760  0.1030E+01  0.4867E+02
      7.847  0.1236E+01  0.4879E+02
      7.934  0.1151E+01  0.4890E+02
      8.021  0.9857E+00  0.4900E+02
      8.109  0.1233E+01  0.4912E+02
      8.196  0.1195E+01  0.4923E+02
      8.283  0.1014E+01  0.4933E+02
      8.370  0.1230E+01  0.4944E+02
      8.457  0.1081E+01  0.4954E+02
      8.544  0.1011E+01  0.4964E+02
      8.631  0.1038E+01  0.4974E+02
      8.718  0.1095E+01  0.4984E+02
      8.805  0.9322E+00  0.4993E+02
      8.892  0.1135E+01  0.5004E+02
      8.979  0.1009E+01  0.5013E+02
      9.066  0.1098E+01  0.5024E+02
      9.154  0.9669E+00  0.5033E+02
      9.241  0.1021E+01  0.5043E+02
      9.328  0.1099E+01  0.5053E+02
      9.415  0.9092E+00  0.5062E+02
      9.502  0.8768E+00  0.5070E+02
      9.589  0.1055E+01  0.5080E+02
      9.676  0.9463E+00  0.5089E+02
      9.763  0.1049E+01  0.5099E+02
      9.850  0.9665E+00  0.5108E+02
      9.937  0.1671E+01  0.5124E+02
     10.024  0.1522E+01  0.5139E+02
     10.111  0.1129E+01  0.5150E+02
     10.198  0.1576E+01  0.5164E+02
     10.286  0.1286E+01  0.5177E+02
     10.373  0.1427E+01  0.5190E+02
     10.460  0.1580E+01  0.5205E+02
     10.547  0.1797E+01  0.5222E+02
     10.634  0.1614E+01  0.5237E+02
     10.721  0.1421E+01  0.5251E+02
     10.808  0.1344E+01  0.5265E+02
     10.895  0.1568E+01  0.5280E+02
     10.982  0.1769E+01  0.5297E+02
     11.069  0.1536E+01  0.5312E+02
     11.156  0.1367E+01  0.5325E+02
     11.243  0.1407E+01  0.5338E+02
     11.331  0.1376E+01  0.5352E+02
     11.418  0.1957E+01  0.5370E+02
     11.505  0.1552E+01  0.5385E+02
     11.592  0.1541E+01  0.5399E+02
     11.679  0.1368E+01  0.5413E+02
     11.766  0.1348E+01  0.5426E+02
     11.853  0.1811E+01  0.5443E+02
     11.940  0.1886E+01  0.5461E+02
     12.027  0.1530E+01  0.5476E+02
     12.114  0.1362E+01  0.5489E+02
     12.201  0.1515E+01  0.5504E+02
     12.288  0.1598E+01  0.5518E+02
     12.376  0.2051E+01  0.5538E+02
     12.463  0.1527E+01  0.5553E+02
     12.550  0.1661E+01  0.5568E+02
     12.637  0.1516E+01  0.5583E+02
     12.724  0.1599E+01  0.5598E+02
     12.811  0.1877E+01  0.5615E+02
     12.898  0.1573E+01  0.5631E+02
     12.985  0.1967E+01  0.5649E+02
     13.072  0.1704E+01  0.5665E+02
     13.159  0.1516E+01  0.5680E+02
     13.246  0.1743E+01  0.5696E+02
     13.333  0.1864E+01  0.5714E+02
     13.420  0.1779E+01  0.5731E+02
     13.508  0.1760E+01  0.5748E+02
     13.595  0.1773E+01  0.5765E+02
     13.682  0.1760E+01  0.5782E+02
     13.769  0.1815E+01  0.5799E+02
     13.856  0.1935E+01  0.5818E+02
     13.943  0.1848E+01  0.5836E+02
     14.030  0.2015E+01  0.5856E+02
     14.117  0.2004E+01  0.5874E+02
     14.204  0.1974E+01  0.5894E+02
     14.291  0.1591E+01  0.5910E+02
     14.378  0.2200E+01  0.5931E+02
     14.465  0.1635E+01  0.5946E+02
     14.553  0.1923E+01  0.5964E+02
     14.640  0.1734E+01  0.5981E+02
     14.727  0.1692E+01  0.5998E+02
     14.814  0.1644E+01  0.6014E+02
     14.901  0.1813E+01  0.6032E+02
     14.988  0.1494E+01  0.6047E+02
     15.075  0.1929E+01  0.6065E+02
     15.162  0.1596E+01  0.6080E+02
     15.249  0.1645E+01  0.6095E+02
     15.336  0.1660E+01  0.6111E+02
     15.423  0.1513E+01  0.6126E+02
     15.510  0.1552E+01  0.6141E+02
     15.598  0.1619E+01  0.6157E+02
     15.685  0.1346E+01  0.6169E+02
     15.772  0.1203E+01  0.6181E+02
     15.859  0.1531E+01  0.6195E+02
     15.946  0.1111E+01  0.6206E+02
     16.033  0.1084E+01  0.6216E+02
     16.120  0.1048E+01  0.6226E+02
     16.207  0.9221E+00  0.6236E+02
     16.294  0.9504E+00  0.6244E+02
     16.381  0.8317E+00  0.6253E+02
     16.468  0.8700E+00  0.6261E+02
     16.555  0.8922E+00  0.6269E+02
     16.642  0.8201E+00  0.6277E+02
     16.730  0.8165E+00  0.6284E+02
     16.817  0.5680E+00  0.6290E+02
     16.904  0.7610E+00  0.6297E+02
     16.991  0.7130E+00  0.6304E+02
     17.078  0.4834E+00  0.6308E+02
     17.165  0.6603E+00  0.6314E+02
     17.252  0.5955E+00  0.6320E+02
     17.339  0.3453E+00  0.6324E+02
     17.426  0.5904E+00  0.6330E+02
     17.513  0.5216E+00  0.6334E+02
     17.600  0.4813E+00  0.6339E+02
     17.687  0.4448E+00  0.6343E+02
     17.775  0.4004E+00  0.6347E+02
     17.862  0.3835E+00  0.6350E+02
     17.949  0.4598E+00  0.6355E+02
     18.036  0.1653E+00  0.6356E+02
     18.123  0.5526E+00  0.6361E+02
     18.210  0.2598E+00  0.6364E+02
     18.297  0.3454E+00  0.6367E+02
     18.384  0.3082E+00  0.6370E+02
     18.471  0.3255E+00  0.6373E+02
     18.558  0.3351E+00  0.6376E+02
     18.645  0.2372E+00  0.6378E+02
     18.732  0.3014E+00  0.6381E+02
     18.820  0.3711E+00  0.6385E+02
     18.907  0.2685E+00  0.6388E+02
     18.994  0.2484E+00  0.6390E+02
     19.081  0.3392E+00  0.6393E+02
     19.168  0.3306E+00  0.6397E+02
     19.255  0.1771E+00  0.6399E+02
     19.342  0.9846E-01  0.6400E+02
     19.429  0.3497E-01  0.6400E+02
     19.516  0.1490E-01  0.6400E+02
     19.603  0.0000E+00  0.6400E+02
     19.690  0.0000E+00  0.6400E+02
     19.777  0.0000E+00  0.6400E+02
     19.864  0.0000E+00  0.6400E+02
     19.952  0.0000E+00  0.6400E+02
     20.039  0.0000E+00  0.6400E+02
     20.126  0.0000E+00  0.6400E+02
     20.213  0.0000E+00  0.6400E+02
     20.300  0.0000E+00  0.6400E+02
     20.387  0.0000E+00  0.6400E+02
     20.474  0.0000E+00  0.6400E+02
     20.561  0.0000E+00  0.6400E+02
     20.648  0.0000E+00  0.6400E+02
