    4    4    1    1
  0.1751078E+02  0.4122131E-09  0.4122131E-09  0.4122131E-09  0.5000000E-15
  1.000000000000000E-004
  CAR 
 unknown system                          
   44 1330   32
 
  0.0000000E+00  0.0000000E+00  0.0000000E+00  0.2143347E-04
   1       -4.2886
   2       -3.0108
   3       -3.0108
   4       -3.0108
   5       -2.8824
   6       -2.8824
   7       -2.8824
   8       -1.4517
   9       -1.4517
  10       -1.4517
  11       -0.4637
  12       -0.4637
  13        0.2646
  14        0.2646
  15        0.2646
  16        0.4929
  17        0.4929
  18        0.4929
  19        0.4929
  20        0.4929
  21        0.4929
  22        4.9272
  23        4.9272
  24        4.9272
  25        9.8318
  26        9.8318
  27        9.8318
  28       13.9970
  29       13.9970
  30       13.9970
  31       13.9970
  32       13.9970
 
  0.2777778E-01  0.0000000E+00  0.0000000E+00  0.1286008E-03
   1       -4.2807
   2       -3.0075
   3       -3.0066
   4       -3.0066
   5       -2.8800
   6       -2.8787
   7       -2.8787
   8       -1.4547
   9       -1.4488
  10       -1.4488
  11       -0.4668
  12       -0.4624
  13        0.2605
  14        0.2605
  15        0.2631
  16        0.4780
  17        0.4780
  18        0.4879
  19        0.4879
  20        0.4930
  21        0.4930
  22        4.8684
  23        4.9487
  24        4.9487
  25        9.8330
  26        9.8330
  27        9.9031
  28       13.9673
  29       13.9673
  30       13.9674
  31       13.9674
  32       14.0108
 
  0.5555556E-01  0.0000000E+00  0.0000000E+00  0.1286008E-03
   1       -4.2569
   2       -2.9978
   3       -2.9940
   4       -2.9940
   5       -2.8727
   6       -2.8675
   7       -2.8675
   8       -1.4638
   9       -1.4403
  10       -1.4403
  11       -0.4760
  12       -0.4584
  13        0.2484
  14        0.2484
  15        0.2588
  16        0.4342
  17        0.4342
  18        0.4730
  19        0.4730
  20        0.4930
  21        0.4930
  22        4.7012
  23        5.0122
  24        5.0122
  25        9.8367
  26        9.8367
  27       10.1075
  28       13.8806
  29       13.8806
  30       13.8812
  31       13.8812
  32       14.0524
 
  0.8333333E-01  0.0000000E+00  0.0000000E+00  0.1286008E-03
   1       -4.2173
   2       -2.9818
   3       -2.9733
   4       -2.9733
   5       -2.8605
   6       -2.8489
   7       -2.8489
   8       -1.4789
   9       -1.4262
  10       -1.4262
  11       -0.4910
  12       -0.4519
  13        0.2282
  14        0.2282
  15        0.2516
  16        0.3640
  17        0.3640
  18        0.4484
  19        0.4484
  20        0.4930
  21        0.4930
  22        4.4488
  23        5.1153
  24        5.1153
  25        9.8430
  26        9.8430
  27       10.4221
  28       13.7415
  29       13.7415
  30       13.7469
  31       13.7469
  32       14.1213
 
  0.1111111E+00  0.0000000E+00  0.0000000E+00  0.1286008E-03
   1       -4.1623
   2       -2.9597
   3       -2.9446
   4       -2.9446
   5       -2.8435
   6       -2.8229
   7       -2.8229
   8       -1.4998
   9       -1.4064
  10       -1.4064
  11       -0.5116
  12       -0.4428
  13        0.2004
  14        0.2004
  15        0.2416
  16        0.2710
  17        0.2710
  18        0.4146
  19        0.4146
  20        0.4931
  21        0.4931
  22        4.1366
  23        5.2541
  24        5.2541
  25        9.8520
  26        9.8520
  27       10.8213
  28       13.5571
  29       13.5571
  30       13.5751
  31       13.5751
  32       14.2171
 
  0.1388889E+00  0.0000000E+00  0.0000000E+00  0.1286008E-03
   1       -4.0921
   2       -2.9319
   3       -2.9085
   4       -2.9085
   5       -2.8219
   6       -2.7894
   7       -2.7894
   8       -1.5263
   9       -1.3811
  10       -1.3811
  11       -0.5373
  12       -0.4311
  13        0.1593
  14        0.1593
  15        0.1652
  16        0.1652
  17        0.2288
  18        0.3720
  19        0.3720
  20        0.4931
  21        0.4931
  22        3.7862
  23        5.4247
  24        5.4247
  25        9.8638
  26        9.8638
  27       11.2836
  28       13.3347
  29       13.3347
  30       13.3770
  31       13.3770
  32       14.3392
 
  0.1666667E+00  0.0000000E+00  0.0000000E+00  0.1286008E-03
   1       -4.0071
   2       -2.8987
   3       -2.8655
   4       -2.8655
   5       -2.7957
   6       -2.7486
   7       -2.7486
   8       -1.5581
   9       -1.3503
  10       -1.3503
  11       -0.5675
  12       -0.4171
  13        0.0329
  14        0.0329
  15        0.1232
  16        0.1232
  17        0.2135
  18        0.3214
  19        0.3214
  20        0.4932
  21        0.4932
  22        3.4133
  23        5.6228
  24        5.6228
  25        9.8786
  26        9.8786
  27       11.7930
  28       13.0818
  29       13.0818
  30       13.1629
  31       13.1629
  32       14.4867
 
  0.1944444E+00  0.0000000E+00  0.0000000E+00  0.1286008E-03
   1       -3.9082
   2       -2.8608
   3       -2.8163
   4       -2.8163
   5       -2.7651
   6       -2.7004
   7       -2.7004
   8       -1.5950
   9       -1.3142
  10       -1.3142
  11       -0.6011
  12       -0.4007
  13       -0.1044
  14       -0.1044
  15        0.0750
  16        0.0750
  17        0.1957
  18        0.2634
  19        0.2634
  20        0.4933
  21        0.4933
  22        3.0293
  23        5.8445
  24        5.8445
  25        9.8965
  26        9.8965
  27       12.3382
  28       12.8045
  29       12.8045
  30       12.9412
  31       12.9412
  32       14.6587
 
  0.2222222E+00  0.0000000E+00  0.0000000E+00  0.1286008E-03
   1       -3.7960
   2       -2.8189
   3       -2.7618
   4       -2.7618
   5       -2.7303
   6       -2.6448
   7       -2.6448
   8       -1.6364
   9       -1.2728
  10       -1.2728
  11       -0.6372
  12       -0.3821
  13       -0.2493
  14       -0.2493
  15        0.0215
  16        0.0215
  17        0.1756
  18        0.1990
  19        0.1990
  20        0.4933
  21        0.4933
  22        2.6421
  23        6.0865
  24        6.0865
  25        9.9178
  26        9.9178
  27       12.5083
  28       12.5083
  29       12.7186
  30       12.7186
  31       12.9111
  32       14.8542
 
  0.2500000E+00  0.0000000E+00  0.0000000E+00  0.1286008E-03
   1       -3.6719
   2       -2.7738
   3       -2.7030
   4       -2.7030
   5       -2.6914
   6       -2.5820
   7       -2.5820
   8       -1.6821
   9       -1.2262
  10       -1.2262
  11       -0.6743
  12       -0.3992
  13       -0.3992
  14       -0.3614
  15       -0.0364
  16       -0.0364
  17        0.1289
  18        0.1289
  19        0.1533
  20        0.4934
  21        0.4934
  22        2.2575
  23        6.3458
  24        6.3458
  25        9.9425
  26        9.9425
  27       12.1973
  28       12.1973
  29       12.5006
  30       12.5006
  31       13.5057
  32       15.0721
 
  0.2777778E+00  0.0000000E+00  0.0000000E+00  0.1286008E-03
   1       -3.5374
   2       -2.7268
   3       -2.6487
   4       -2.6413
   5       -2.6413
   6       -2.5120
   7       -2.5120
   8       -1.7316
   9       -1.1747
  10       -1.1747
  11       -0.7103
  12       -0.5517
  13       -0.5517
  14       -0.3388
  15       -0.0974
  16       -0.0974
  17        0.0541
  18        0.0541
  19        0.1291
  20        0.4935
  21        0.4935
  22        1.8799
  23        6.6200
  24        6.6200
  25        9.9707
  26        9.9707
  27       11.8752
  28       11.8752
  29       12.2913
  30       12.2913
  31       14.1171
  32       15.3112
 
  0.3055556E+00  0.0000000E+00  0.0000000E+00  0.1286008E-03
   1       -3.3947
   2       -2.6791
   3       -2.6025
   4       -2.5782
   5       -2.5782
   6       -2.4348
   7       -2.4348
   8       -1.7844
   9       -1.1185
  10       -1.1185
  11       -0.7427
  12       -0.7050
  13       -0.7050
  14       -0.3143
  15       -0.1598
  16       -0.1598
  17       -0.0246
  18       -0.0246
  19        0.1032
  20        0.4936
  21        0.4936
  22        1.5131
  23        6.9070
  24        6.9070
  25       10.0021
  26       10.0021
  27       11.5447
  28       11.5447
  29       12.0942
  30       12.0942
  31       14.7412
  32       15.5703
 
  0.3333333E+00  0.0000000E+00  0.0000000E+00  0.1286008E-03
   1       -3.2468
   2       -2.6325
   3       -2.5529
   4       -2.5157
   5       -2.5157
   6       -2.3505
   7       -2.3505
   8       -1.8401
   9       -1.0578
  10       -1.0578
  11       -0.8576
  12       -0.8576
  13       -0.7682
  14       -0.2882
  15       -0.2219
  16       -0.2219
  17       -0.1062
  18       -0.1062
  19        0.0757
  20        0.4937
  21        0.4937
  22        1.1603
  23        7.2050
  24        7.2050
  25       10.0365
  26       10.0365
  27       11.2082
  28       11.2082
  29       11.9123
  30       11.9123
  31       15.3736
  32       15.8482
 
  0.3611111E+00  0.0000000E+00  0.0000000E+00  0.1286008E-03
   1       -3.0979
   2       -2.5893
   3       -2.5005
   4       -2.4559
   5       -2.4559
   6       -2.2593
   7       -2.2593
   8       -1.8982
   9       -1.0083
  10       -1.0083
  11       -0.9927
  12       -0.9927
  13       -0.7823
  14       -0.2813
  15       -0.2813
  16       -0.2607
  17       -0.1900
  18       -0.1900
  19        0.0469
  20        0.4937
  21        0.4937
  22        0.8247
  23        7.5125
  24        7.5125
  25       10.0727
  26       10.0727
  27       10.8676
  28       10.8676
  29       11.7484
  30       11.7484
  31       16.0095
  32       16.1435
 
  0.3888889E+00  0.0000000E+00  0.0000000E+00  0.1286008E-03
   1       -2.9533
   2       -2.5525
   3       -2.4454
   4       -2.4013
   5       -2.4013
   6       -2.1612
   7       -2.1612
   8       -1.9581
   9       -1.1561
  10       -1.1561
  11       -0.9236
  12       -0.9236
  13       -0.7791
  14       -0.3357
  15       -0.3357
  16       -0.2751
  17       -0.2751
  18       -0.2319
  19        0.0170
  20        0.4938
  21        0.4938
  22        0.5100
  23        7.8283
  24        7.8283
  25       10.1095
  26       10.1095
  27       10.5244
  28       10.5244
  29       11.6055
  30       11.6055
  31       16.4550
  32       16.4550
 
  0.4166667E+00  0.0000000E+00  0.0000000E+00  0.1286008E-03
   1       -2.8198
   2       -2.5256
   3       -2.3880
   4       -2.3547
   5       -2.3547
   6       -2.0565
   7       -2.0565
   8       -2.0194
   9       -1.3002
  10       -1.3002
  11       -0.8509
  12       -0.8509
  13       -0.7515
  14       -0.3821
  15       -0.3821
  16       -0.3608
  17       -0.3608
  18       -0.2021
  19       -0.0138
  20        0.2202
  21        0.4939
  22        0.4939
  23        8.1512
  24        8.1512
  25       10.1443
  26       10.1443
  27       10.1801
  28       10.1801
  29       11.4871
  30       11.4871
  31       16.7814
  32       16.7814
 
  0.4444444E+00  0.0000000E+00  0.0000000E+00  0.1286008E-03
   1       -2.7047
   2       -2.5134
   3       -2.3288
   4       -2.3189
   5       -2.3189
   6       -2.0815
   7       -1.9452
   8       -1.9452
   9       -1.4399
  10       -1.4399
  11       -0.7748
  12       -0.7748
  13       -0.6918
  14       -0.4464
  15       -0.4464
  16       -0.4179
  17       -0.4179
  18       -0.1714
  19       -0.0451
  20       -0.0400
  21        0.4939
  22        0.4939
  23        8.4800
  24        8.4800
  25        9.8358
  26        9.8358
  27       10.1737
  28       10.1737
  29       11.3974
  30       11.3974
  31       17.1213
  32       17.1213
 
  0.4722222E+00  0.0000000E+00  0.0000000E+00  0.1286008E-03
   1       -2.6148
   2       -2.5209
   3       -2.2962
   4       -2.2962
   5       -2.2680
   6       -2.1439
   7       -1.8276
   8       -1.8276
   9       -1.5746
  10       -1.5746
  11       -0.6959
  12       -0.6959
  13       -0.5929
  14       -0.5311
  15       -0.5311
  16       -0.4405
  17       -0.4405
  18       -0.2653
  19       -0.1402
  20       -0.0768
  21        0.4939
  22        0.4939
  23        8.8138
  24        8.8138
  25        9.4927
  26        9.4927
  27       10.1938
  28       10.1938
  29       11.3409
  30       11.3409
  31       17.4733
  32       17.4733
 
  0.5000000E+00  0.0000000E+00  0.0000000E+00  0.6430041E-04
   1       -2.5536
   2       -2.5536
   3       -2.2884
   4       -2.2884
   5       -2.2063
   6       -2.2063
   7       -1.7040
   8       -1.7040
   9       -1.7040
  10       -1.7040
  11       -0.6145
  12       -0.6145
  13       -0.6145
  14       -0.6145
  15       -0.4507
  16       -0.4507
  17       -0.4483
  18       -0.4483
  19       -0.1085
  20       -0.1085
  21        0.4939
  22        0.4939
  23        9.1517
  24        9.1517
  25        9.1517
  26        9.1517
  27       10.2010
  28       10.2010
  29       11.3216
  30       11.3216
  31       17.8361
  32       17.8361
 
  0.2777778E-01  0.2777778E-01  0.0000000E+00  0.2572016E-03
   1       -4.2728
   2       -3.0033
   3       -3.0033
   4       -3.0024
   5       -2.8763
   6       -2.8763
   7       -2.8749
   8       -1.4560
   9       -1.4478
  10       -1.4460
  11       -0.4677
  12       -0.4632
  13        0.2565
  14        0.2589
  15        0.2589
  16        0.4667
  17        0.4732
  18        0.4732
  19        0.4879
  20        0.4879
  21        0.4895
  22        4.8897
  23        4.8897
  24        4.9701
  25        9.8342
  26        9.9045
  27        9.9045
  28       13.8545
  29       13.9810
  30       13.9810
  31       13.9812
  32       13.9813
 
  0.5555556E-01  0.2777778E-01  0.0000000E+00  0.5144033E-03
   1       -4.2490
   2       -2.9936
   3       -2.9907
   4       -2.9901
   5       -2.8689
   6       -2.8651
   7       -2.8635
   8       -1.4642
   9       -1.4402
  10       -1.4376
  11       -0.4759
  12       -0.4601
  13        0.2444
  14        0.2462
  15        0.2541
  16        0.4250
  17        0.4299
  18        0.4587
  19        0.4730
  20        0.4878
  21        0.4880
  22        4.7222
  23        4.9528
  24        5.0332
  25        9.8380
  26        9.9087
  27       10.1093
  28       13.6927
  29       13.8943
  30       13.8947
  31       14.0208
  32       14.0223
 
  0.8333333E-01  0.2777778E-01  0.0000000E+00  0.5144033E-03
   1       -4.2095
   2       -2.9776
   3       -2.9700
   4       -2.9698
   5       -2.8568
   6       -2.8465
   7       -2.8446
   8       -1.4790
   9       -1.4262
  10       -1.4235
  11       -0.4908
  12       -0.4536
  13        0.2243
  14        0.2247
  15        0.2460
  16        0.3558
  17        0.3610
  18        0.4349
  19        0.4484
  20        0.4874
  21        0.4880
  22        4.4695
  23        5.0551
  24        5.1357
  25        9.8443
  26        9.9157
  27       10.4243
  28       13.4911
  29       13.7549
  30       13.7599
  31       13.9596
  32       14.0911
 
  0.1111111E+00  0.2777778E-01  0.0000000E+00  0.5144033E-03
   1       -4.1545
   2       -2.9555
   3       -2.9418
   4       -2.9413
   5       -2.8399
   6       -2.8205
   7       -2.8181
   8       -1.4998
   9       -1.4065
  10       -1.4039
  11       -0.5113
  12       -0.4444
  13        0.1925
  14        0.1966
  15        0.2345
  16        0.2637
  17        0.2724
  18        0.4024
  19        0.4146
  20        0.4873
  21        0.4880
  22        4.1570
  23        5.1928
  24        5.2739
  25        9.8532
  26        9.9257
  27       10.8239
  28       13.2591
  29       13.5702
  30       13.5877
  31       13.8465
  32       14.1857
 
  0.1388889E+00  0.2777778E-01  0.0000000E+00  0.5144033E-03
   1       -4.0844
   2       -2.9276
   3       -2.9064
   4       -2.9052
   5       -2.8183
   6       -2.7871
   7       -2.7840
   8       -1.5261
   9       -1.3813
  10       -1.3788
  11       -0.5369
  12       -0.4326
  13        0.1320
  14        0.1528
  15        0.1616
  16        0.1860
  17        0.2194
  18        0.3621
  19        0.3720
  20        0.4873
  21        0.4881
  22        3.8064
  23        5.3619
  24        5.4437
  25        9.8650
  26        9.9389
  27       11.2864
  28       13.0051
  29       13.3476
  30       13.3892
  31       13.6902
  32       14.3068
 
  0.1666667E+00  0.2777778E-01  0.0000000E+00  0.5144033E-03
   1       -3.9996
   2       -2.8944
   3       -2.8643
   4       -2.8622
   5       -2.7922
   6       -2.7463
   7       -2.7425
   8       -1.5579
   9       -1.3505
  10       -1.3483
  11       -0.5668
  12       -0.4184
  13        0.0186
  14        0.0272
  15        0.1198
  16        0.1312
  17        0.1998
  18        0.3155
  19        0.3213
  20        0.4873
  21        0.4881
  22        3.4336
  23        5.5580
  24        5.6410
  25        9.8796
  26        9.9554
  27       11.7959
  28       12.7356
  29       13.0944
  30       13.1746
  31       13.5009
  32       14.4532
 
  0.1944444E+00  0.2777778E-01  0.0000000E+00  0.5144033E-03
   1       -3.9008
   2       -2.8565
   3       -2.8160
   4       -2.8129
   5       -2.7617
   6       -2.6982
   7       -2.6936
   8       -1.5946
   9       -1.3144
  10       -1.3126
  11       -0.6002
  12       -0.4018
  13       -0.1157
  14       -0.1093
  15        0.0718
  16        0.0802
  17        0.1736
  18        0.2633
  19        0.2656
  20        0.4874
  21        0.4882
  22        3.0499
  23        5.7773
  24        5.8620
  25        9.8973
  26        9.9754
  27       12.3412
  28       12.4557
  29       12.8169
  30       12.9526
  31       13.2884
  32       14.6236
 
  0.2222222E+00  0.2777778E-01  0.0000000E+00  0.5144033E-03
   1       -3.7889
   2       -2.8145
   3       -2.7623
   4       -2.7583
   5       -2.7269
   6       -2.6427
   7       -2.6374
   8       -1.6359
   9       -1.2730
  10       -1.2717
  11       -0.6359
  12       -0.3829
  13       -0.2593
  14       -0.2536
  15        0.0185
  16        0.0255
  17        0.1359
  18        0.1989
  19        0.2183
  20        0.4875
  21        0.4882
  22        2.6631
  23        6.0163
  24        6.1033
  25        9.9182
  26        9.9992
  27       12.1686
  28       12.5204
  29       12.7299
  30       12.9140
  31       13.0618
  32       14.8173
 
  0.2500000E+00  0.2777778E-01  0.0000000E+00  0.5144033E-03
   1       -3.6650
   2       -2.7694
   3       -2.7042
   4       -2.6995
   5       -2.6881
   6       -2.5800
   7       -2.5742
   8       -1.6815
   9       -1.2264
  10       -1.2260
  11       -0.6723
  12       -0.4082
  13       -0.4027
  14       -0.3619
  15       -0.0392
  16       -0.0330
  17        0.0822
  18        0.1288
  19        0.1790
  20        0.4876
  21        0.4883
  22        2.2792
  23        6.2720
  24        6.3620
  25        9.9421
  26       10.0267
  27       11.8764
  28       12.2093
  29       12.5120
  30       12.8292
  31       13.5085
  32       15.0331
 
  0.2777778E+00  0.2777778E-01  0.0000000E+00  0.5144033E-03
   1       -3.5307
   2       -2.7222
   3       -2.6455
   4       -2.6429
   5       -2.6377
   6       -2.5101
   7       -2.5041
   8       -1.7308
   9       -1.1757
  10       -1.1750
  11       -0.7073
  12       -0.5600
  13       -0.5546
  14       -0.3389
  15       -0.0999
  16       -0.0944
  17        0.0152
  18        0.0540
  19        0.1462
  20        0.4877
  21        0.4883
  22        1.9026
  23        6.5418
  24        6.6356
  25        9.9687
  26       10.0581
  27       11.5805
  28       11.8871
  29       12.3032
  30       12.5977
  31       14.1198
  32       15.2696
 
  0.3055556E+00  0.2777778E-01  0.0000000E+00  0.5144033E-03
   1       -3.3882
   2       -2.6744
   3       -2.5994
   4       -2.5798
   5       -2.5746
   6       -2.4330
   7       -2.4273
   8       -1.7835
   9       -1.1215
  10       -1.1187
  11       -0.7379
  12       -0.7126
  13       -0.7074
  14       -0.3141
  15       -0.1621
  16       -0.1571
  17       -0.0600
  18       -0.0247
  19        0.1156
  20        0.4878
  21        0.4884
  22        1.5371
  23        6.8237
  24        6.9220
  25        9.9971
  26       10.0931
  27       11.2820
  28       11.5566
  29       12.1071
  30       12.3736
  31       14.7437
  32       15.5259
 
  0.3333333E+00  0.2777778E-01  0.0000000E+00  0.5144033E-03
   1       -3.2407
   2       -2.6278
   3       -2.5500
   4       -2.5169
   5       -2.5120
   6       -2.3489
   7       -2.3438
   8       -1.8390
   9       -1.0642
  10       -1.0580
  11       -0.8646
  12       -0.8595
  13       -0.7602
  14       -0.2876
  15       -0.2238
  16       -0.2195
  17       -0.1405
  18       -0.1064
  19        0.0853
  20        0.4879
  21        0.4884
  22        1.1860
  23        7.1156
  24        7.2195
  25       10.0246
  26       10.1311
  27       10.9832
  28       11.2201
  29       11.9269
  30       12.1620
  31       15.3762
  32       15.8008
 
  0.3611111E+00  0.2777778E-01  0.0000000E+00  0.5144033E-03
   1       -3.0920
   2       -2.5845
   3       -2.4976
   4       -2.4564
   5       -2.4522
   6       -2.2579
   7       -2.2538
   8       -1.8969
   9       -1.0145
  10       -1.0097
  11       -1.0056
  12       -0.9929
  13       -0.7682
  14       -0.2830
  15       -0.2793
  16       -0.2596
  17       -0.2245
  18       -0.1902
  19        0.0545
  20        0.4880
  21        0.4885
  22        0.8528
  23        7.4160
  24        7.5266
  25       10.0436
  26       10.1711
  27       10.6914
  28       10.8794
  29       11.7658
  30       11.9676
  31       16.0116
  32       16.0926
 
  0.3888889E+00  0.2777778E-01  0.0000000E+00  0.5144033E-03
   1       -2.9476
   2       -2.5475
   3       -2.4427
   4       -2.4010
   5       -2.3976
   6       -2.1600
   7       -2.1571
   8       -1.9566
   9       -1.1615
  10       -1.1571
  11       -0.9478
  12       -0.9239
  13       -0.7541
  14       -0.3371
  15       -0.3340
  16       -0.3112
  17       -0.2753
  18       -0.2303
  19        0.0230
  20        0.4881
  21        0.4885
  22        0.5414
  23        7.7232
  24        7.8420
  25       10.0240
  26       10.2112
  27       10.4356
  28       10.5363
  29       11.6275
  30       11.7943
  31       16.3975
  32       16.4088
 
  0.4166667E+00  0.2777778E-01  0.0000000E+00  0.5144033E-03
   1       -2.8143
   2       -2.5206
   3       -2.3854
   4       -2.3535
   5       -2.3510
   6       -2.0554
   7       -2.0538
   8       -2.0177
   9       -1.3047
  10       -1.3008
  11       -0.8909
  12       -0.8511
  13       -0.7112
  14       -0.3999
  15       -0.3832
  16       -0.3808
  17       -0.3610
  18       -0.1999
  19       -0.0094
  20        0.2565
  21        0.4882
  22        0.4885
  23        8.0359
  24        8.1645
  25        9.8781
  26       10.1921
  27       10.2483
  28       10.3022
  29       11.5164
  30       11.6462
  31       16.7184
  32       16.7313
 
  0.4444444E+00  0.2777778E-01  0.0000000E+00  0.5144033E-03
   1       -2.6994
   2       -2.5082
   3       -2.3263
   4       -2.3168
   5       -2.3152
   6       -2.0797
   7       -1.9443
   8       -1.9440
   9       -1.4435
  10       -1.4401
  11       -0.8292
  12       -0.7751
  13       -0.6378
  14       -0.4901
  15       -0.4466
  16       -0.4187
  17       -0.4170
  18       -0.1687
  19       -0.0476
  20        0.0080
  21        0.4883
  22        0.4885
  23        8.3525
  24        8.4930
  25        9.6110
  26        9.8480
  27       10.2783
  28       10.2839
  29       11.4379
  30       11.5277
  31       17.0514
  32       17.0664
 
  0.4722222E+00  0.2777778E-01  0.0000000E+00  0.5144033E-03
   1       -2.6095
   2       -2.5157
   3       -2.2935
   4       -2.2927
   5       -2.2658
   6       -2.1420
   7       -1.8278
   8       -1.8270
   9       -1.5772
  10       -1.5745
  11       -0.7560
  12       -0.6961
  13       -0.5814
  14       -0.5340
  15       -0.5313
  16       -0.4409
  17       -0.4401
  18       -0.2196
  19       -0.1367
  20       -0.0704
  21        0.4884
  22        0.4885
  23        8.6713
  24        8.8266
  25        9.3060
  26        9.5050
  27       10.2938
  28       10.2969
  29       11.3975
  30       11.4437
  31       17.3951
  32       17.4123
 
  0.5000000E+00  0.2777778E-01  0.0000000E+00  0.2572016E-03
   1       -2.5483
   2       -2.5483
   3       -2.2852
   4       -2.2852
   5       -2.2042
   6       -2.2042
   7       -1.7054
   8       -1.7054
   9       -1.7036
  10       -1.7036
  11       -0.6716
  12       -0.6716
  13       -0.6147
  14       -0.6147
  15       -0.4483
  16       -0.4483
  17       -0.3961
  18       -0.3961
  19       -0.1041
  20       -0.1041
  21        0.4884
  22        0.4884
  23        8.9903
  24        8.9903
  25        9.1642
  26        9.1642
  27       10.3014
  28       10.3014
  29       11.3993
  30       11.3993
  31       17.7614
  32       17.7648
 
  0.5555556E-01  0.5555556E-01  0.0000000E+00  0.2572016E-03
   1       -4.2253
   2       -2.9810
   3       -2.9810
   4       -2.9786
   5       -2.8578
   6       -2.8578
   7       -2.8515
   8       -1.4686
   9       -1.4362
  10       -1.4293
  11       -0.4794
  12       -0.4615
  13        0.2324
  14        0.2397
  15        0.2397
  16        0.3911
  17        0.4170
  18        0.4170
  19        0.4730
  20        0.4730
  21        0.4793
  22        4.7843
  23        4.7843
  24        5.0954
  25        9.8417
  26       10.1145
  27       10.1145
  28       13.4660
  29       13.9350
  30       13.9350
  31       13.9352
  32       13.9352
 
  0.8333333E-01  0.5555556E-01  0.0000000E+00  0.5144033E-03
   1       -4.1860
   2       -2.9649
   3       -2.9602
   4       -2.9595
   5       -2.8458
   6       -2.8393
   7       -2.8316
   8       -1.4811
   9       -1.4245
  10       -1.4156
  11       -0.4916
  12       -0.4572
  13        0.2127
  14        0.2141
  15        0.2285
  16        0.3279
  17        0.3522
  18        0.3961
  19        0.4484
  20        0.4730
  21        0.4745
  22        4.5304
  23        4.8848
  24        5.1963
  25        9.8480
  26       10.1234
  27       10.4308
  28       13.2105
  29       13.7951
  30       13.7990
  31       14.0019
  32       14.0030
 
  0.1111111E+00  0.5555556E-01  0.0000000E+00  0.5144033E-03
   1       -4.1313
   2       -2.9428
   3       -2.9332
   4       -2.9315
   5       -2.8290
   6       -2.8134
   7       -2.8037
   8       -1.5006
   9       -1.4059
  10       -1.3965
  11       -0.5111
  12       -0.4483
  13        0.1712
  14        0.1854
  15        0.2120
  16        0.2398
  17        0.2742
  18        0.3684
  19        0.4145
  20        0.4723
  21        0.4730
  22        4.2171
  23        5.0199
  24        5.3326
  25        9.8568
  26       10.1360
  27       10.8315
  28       12.9348
  29       13.6096
  30       13.6253
  31       14.0901
  32       14.0953
 
  0.1388889E+00  0.5555556E-01  0.0000000E+00  0.5144033E-03
   1       -4.0615
   2       -2.9148
   3       -2.8999
   4       -2.8953
   5       -2.8076
   6       -2.7802
   7       -2.7681
   8       -1.5263
   9       -1.3811
  10       -1.3720
  11       -0.5360
  12       -0.4364
  13        0.0956
  14        0.1321
  15        0.1508
  16        0.1891
  17        0.2032
  18        0.3354
  19        0.3719
  20        0.4713
  21        0.4730
  22        3.8660
  23        5.1853
  24        5.5003
  25        9.8684
  26       10.1525
  27       11.2948
  28       12.6460
  29       13.3861
  30       13.4254
  31       13.9979
  32       14.2133
 
  0.1666667E+00  0.5555556E-01  0.0000000E+00  0.5144033E-03
   1       -3.9771
   2       -2.8815
   3       -2.8600
   4       -2.8521
   5       -2.7816
   6       -2.7396
   7       -2.7248
   8       -1.5574
   9       -1.3506
  10       -1.3424
  11       -0.5652
  12       -0.4217
  13       -0.0154
  14        0.0093
  15        0.1096
  16        0.1462
  17        0.1581
  18        0.2997
  19        0.3212
  20        0.4708
  21        0.4730
  22        3.4933
  23        5.3766
  24        5.6954
  25        9.8826
  26       10.1731
  27       11.8047
  28       12.3496
  29       13.1321
  30       13.2097
  31       13.8607
  32       14.3563
 
  0.1944444E+00  0.5555556E-01  0.0000000E+00  0.5144033E-03
   1       -3.8788
   2       -2.8434
   3       -2.8141
   4       -2.8028
   5       -2.7513
   6       -2.6917
   7       -2.6743
   8       -1.5937
   9       -1.3146
  10       -1.3078
  11       -0.5978
  12       -0.4044
  13       -0.1461
  14       -0.1246
  15        0.0622
  16        0.0921
  17        0.1173
  18        0.2631
  19        0.2636
  20        0.4706
  21        0.4730
  22        3.1102
  23        5.5900
  24        5.9142
  25        9.8995
  26       10.1979
  27       12.0498
  28       12.3499
  29       12.8539
  30       12.9869
  31       13.6882
  32       14.5226
 
  0.2222222E+00  0.5555556E-01  0.0000000E+00  0.5144033E-03
   1       -3.7675
   2       -2.8013
   3       -2.7626
   4       -2.7480
   5       -2.7168
   6       -2.6365
   7       -2.6167
   8       -1.6345
   9       -1.2733
  10       -1.2685
  11       -0.6323
  12       -0.3847
  13       -0.2872
  14       -0.2665
  15        0.0095
  16        0.0356
  17        0.0659
  18        0.1986
  19        0.2288
  20        0.4705
  21        0.4730
  22        2.7246
  23        5.8217
  24        6.1535
  25        9.9188
  26       10.2271
  27       11.7499
  28       12.5569
  29       12.7640
  30       12.9225
  31       13.4905
  32       14.7115
 
  0.2500000E+00  0.5555556E-01  0.0000000E+00  0.5144033E-03
   1       -3.6442
   2       -2.7560
   3       -2.7063
   4       -2.6891
   5       -2.6782
   6       -2.5741
   7       -2.5526
   8       -1.6796
   9       -1.2269
  10       -1.2251
  11       -0.6669