       N       E                     dE             d eps       ncg     rms          rms(c)
DAV:   1     0.539672082627E+03    0.53967E+03   -0.32416E+04 85120   0.237E+03
DAV:   2     0.307496409140E+01   -0.53660E+03   -0.50198E+03 85184   0.495E+02
DAV:   3    -0.121283853078E+02   -0.15203E+02   -0.15063E+02 99544   0.108E+02
DAV:   4    -0.122154401580E+02   -0.87055E-01   -0.87039E-01 91128   0.709E+00
DAV:   5    -0.122157678924E+02   -0.32773E-03   -0.32773E-03100832   0.369E-01    0.573E+00
DAV:   6    -0.113262310851E+02    0.88954E+00   -0.25545E+00 96072   0.166E+01    0.105E+00
DAV:   7    -0.113007936452E+02    0.25437E-01   -0.58963E-02 91312   0.159E+00    0.528E-01
DAV:   8    -0.112895229667E+02    0.11271E-01   -0.45062E-03 92296   0.655E-01    0.468E-02
DAV:   9    -0.112896631214E+02   -0.14015E-03   -0.22613E-04 98304   0.126E-01    0.309E-02
DAV:  10    -0.112896259811E+02    0.37140E-04   -0.17058E-05 94480   0.341E-02    0.346E-03
DAV:  11    -0.112896237502E+02    0.22308E-05   -0.65693E-07 98280   0.507E-03    0.569E-04
DAV:  12    -0.112896232848E+02    0.46542E-06   -0.21660E-08 80568   0.104E-03    0.917E-05
DAV:  13    -0.112896231458E+02    0.13903E-06   -0.12963E-09 55624   0.301E-04    0.404E-05
DAV:  14    -0.112896231354E+02    0.10439E-07   -0.86239E-11 51928   0.813E-05    0.595E-06
DAV:  15    -0.112896231314E+02    0.39927E-08   -0.78221E-12 51064   0.209E-05
   1 F= -.11289623E+02 E0= -.11289599E+02  d E =-.473007E-04
