   4   4   0   0
  0.1556826E+02  0.3963693E-09  0.3963693E-09  0.3963693E-09  0.5000000E-15
  1.000000000000000E-004
  CAR 
 unknown system                          
     13.82093708     -6.63186899  301      1.76903919      1.00000000
     -6.632  0.0000E+00  0.0000E+00
     -6.564  0.0000E+00  0.0000E+00
     -6.496  0.0000E+00  0.0000E+00
     -6.427  0.0000E+00  0.0000E+00
     -6.359  0.0000E+00  0.0000E+00
     -6.291  0.0000E+00  0.0000E+00
     -6.223  0.0000E+00  0.0000E+00
     -6.155  0.0000E+00  0.0000E+00
     -6.086  0.0000E+00  0.0000E+00
     -6.018  0.0000E+00  0.0000E+00
     -5.950  0.0000E+00  0.0000E+00
     -5.882  0.0000E+00  0.0000E+00
     -5.814  0.0000E+00  0.0000E+00
     -5.746  0.5667E-11  0.3863E-12
     -5.677  0.1335E-01  0.9101E-03
     -5.609  0.8015E-01  0.6374E-02
     -5.541  0.1615E+00  0.1739E-01
     -5.473  0.1197E+00  0.2555E-01
     -5.405  0.2809E+00  0.4470E-01
     -5.337  0.4154E+00  0.7302E-01
     -5.268  0.5320E-07  0.7374E-01
     -5.200  0.1603E+00  0.8467E-01
     -5.132  0.4060E+00  0.1123E+00
     -5.064  0.4049E+00  0.1399E+00
     -4.996  0.3234E+00  0.1620E+00
     -4.927  0.3325E+00  0.1847E+00
     -4.859  0.6409E+00  0.2285E+00
     -4.791  0.4261E-03  0.2285E+00
     -4.723  0.2561E+00  0.2460E+00
     -4.655  0.8619E+00  0.3047E+00
     -4.587  0.4032E+00  0.3322E+00
     -4.518  0.3207E+00  0.3541E+00
     -4.450  0.6969E+00  0.4017E+00
     -4.382  0.2642E+00  0.4197E+00
     -4.314  0.3188E+00  0.4414E+00
     -4.246  0.4008E+00  0.4688E+00
     -4.178  0.1011E+01  0.5378E+00
     -4.109  0.3772E+00  0.5635E+00
     -4.041  0.9557E+00  0.6287E+00
     -3.973  0.6409E+00  0.6727E+00
     -3.905  0.3406E-01  0.6751E+00
     -3.837  0.7489E+00  0.7261E+00
     -3.768  0.6410E+00  0.7711E+00
     -3.700  0.8856E+00  0.8314E+00
     -3.632  0.4012E+00  0.8588E+00
     -3.564  0.1036E+01  0.9294E+00
     -3.496  0.2461E-01  0.9311E+00
     -3.428  0.1503E+01  0.1034E+01
     -3.359  0.1008E+01  0.1102E+01
     -3.291  0.2783E+00  0.1121E+01
     -3.223  0.1030E+01  0.1191E+01
     -3.155  0.7426E+00  0.1242E+01
     -3.087  0.1612E-01  0.1243E+01
     -3.019  0.1508E+01  0.1346E+01
     -2.950  0.9637E+00  0.1412E+01
     -2.882  0.7213E+00  0.1461E+01
     -2.814  0.2004E+01  0.1598E+01
     -2.746  0.7997E+00  0.1652E+01
     -2.678  0.6429E+00  0.1696E+01
     -2.609  0.1590E+01  0.1804E+01
     -2.541  0.1399E+00  0.1815E+01
     -2.473  0.1861E+01  0.1942E+01
     -2.405  0.1448E+01  0.2040E+01
     -2.337  0.2191E+01  0.2190E+01
     -2.269  0.1939E+01  0.2322E+01
     -2.200  0.8848E+00  0.2383E+01
     -2.132  0.1041E+01  0.2454E+01
     -2.064  0.2987E+01  0.2657E+01
     -1.996  0.4611E+01  0.2972E+01
     -1.928  0.2250E+01  0.3127E+01
     -1.860  0.4039E+01  0.3404E+01
     -1.791  0.4003E+01  0.3678E+01
     -1.723  0.6832E+01  0.4144E+01
     -1.655  0.5765E+01  0.4538E+01
     -1.587  0.7296E+01  0.5036E+01
     -1.519  0.5750E+01  0.5428E+01
     -1.450  0.8809E+01  0.6031E+01
     -1.382  0.1016E+02  0.6725E+01
     -1.314  0.1167E+02  0.7522E+01
     -1.246  0.1522E+02  0.8560E+01
     -1.178  0.1221E+02  0.9394E+01
     -1.110  0.1245E+02  0.1024E+02
     -1.041  0.1239E+02  0.1109E+02
     -0.973  0.1127E+02  0.1186E+02
     -0.905  0.1317E+02  0.1276E+02
     -0.837  0.1648E+02  0.1389E+02
     -0.769  0.1988E+02  0.1524E+02
     -0.701  0.1756E+02  0.1644E+02
     -0.632  0.1953E+02  0.1778E+02
     -0.564  0.2747E+02  0.1965E+02
     -0.496  0.2365E+02  0.2127E+02
     -0.428  0.2918E+02  0.2326E+02
     -0.360  0.2033E+02  0.2465E+02
     -0.291  0.1639E+02  0.2577E+02
     -0.223  0.1591E+02  0.2686E+02
     -0.155  0.1955E+02  0.2820E+02
     -0.087  0.2384E+02  0.2982E+02
     -0.019  0.2300E+02  0.3140E+02
      0.049  0.2107E+02  0.3284E+02
      0.118  0.2062E+02  0.3425E+02
      0.186  0.2126E+02  0.3570E+02
      0.254  0.2194E+02  0.3720E+02
      0.322  0.3895E+02  0.3986E+02
      0.390  0.2338E+02  0.4145E+02
      0.458  0.5809E+01  0.4185E+02
      0.527  0.2621E+01  0.4203E+02
      0.595  0.1818E+01  0.4216E+02
      0.663  0.1652E+01  0.4227E+02
      0.731  0.3111E+01  0.4248E+02
      0.799  0.9331E+00  0.4254E+02
      0.867  0.1118E+01  0.4262E+02
      0.936  0.1715E+01  0.4274E+02
      1.004  0.3326E+01  0.4296E+02
      1.072  0.1263E+01  0.4305E+02
      1.140  0.1289E+01  0.4314E+02
      1.208  0.4515E+00  0.4317E+02
      1.277  0.1672E+01  0.4329E+02
      1.345  0.7763E+00  0.4334E+02
      1.413  0.2167E+01  0.4349E+02
      1.481  0.2548E+01  0.4366E+02
      1.549  0.1296E+01  0.4375E+02
      1.617  0.1188E+01  0.4383E+02
      1.686  0.1920E+01  0.4396E+02
      1.754  0.1222E+00  0.4397E+02
      1.822  0.1232E+01  0.4405E+02
      1.890  0.1052E+01  0.4413E+02
      1.958  0.1776E+01  0.4425E+02
      2.026  0.2140E+01  0.4439E+02
      2.095  0.1362E+01  0.4449E+02
      2.163  0.2296E+01  0.4464E+02
      2.231  0.3031E+00  0.4466E+02
      2.299  0.1844E+01  0.4479E+02
      2.367  0.2969E-01  0.4479E+02
      2.436  0.6062E+00  0.4483E+02
      2.504  0.1218E+01  0.4492E+02
      2.572  0.2241E+01  0.4507E+02
      2.640  0.1721E+01  0.4519E+02
      2.708  0.2158E+01  0.4533E+02
      2.776  0.3723E+00  0.4536E+02
      2.845  0.9101E+00  0.4542E+02
      2.913  0.2381E+00  0.4544E+02
      2.981  0.2196E+01  0.4559E+02
      3.049  0.1508E+01  0.4569E+02
      3.117  0.3532E+00  0.4571E+02
      3.185  0.2762E+00  0.4573E+02
      3.254  0.1649E+01  0.4585E+02
      3.322  0.1149E+01  0.4592E+02
      3.390  0.9513E+00  0.4599E+02
      3.458  0.2577E+01  0.4616E+02
      3.526  0.8699E+00  0.4622E+02
      3.595  0.1599E+01  0.4633E+02
      3.663  0.8856E+00  0.4639E+02
      3.731  0.8010E+00  0.4645E+02
      3.799  0.6431E+00  0.4649E+02
      3.867  0.8921E+00  0.4655E+02
      3.935  0.5385E+00  0.4659E+02
      4.004  0.6731E+00  0.4664E+02
      4.072  0.1253E+01  0.4672E+02
      4.140  0.1925E+01  0.4685E+02
      4.208  0.3076E+00  0.4687E+02
      4.276  0.1250E+01  0.4696E+02
      4.344  0.6469E+00  0.4700E+02
      4.413  0.1887E+01  0.4713E+02
      4.481  0.1418E+01  0.4723E+02
      4.549  0.1039E+01  0.4730E+02
      4.617  0.1299E+01  0.4739E+02
      4.685  0.1242E+01  0.4747E+02
      4.754  0.9127E+00  0.4754E+02
      4.822  0.1726E+01  0.4766E+02
      4.890  0.1474E+01  0.4776E+02
      4.958  0.1282E+01  0.4784E+02
      5.026  0.1118E+01  0.4792E+02
      5.094  0.8033E+00  0.4797E+02
      5.163  0.2044E+01  0.4811E+02
      5.231  0.2223E+01  0.4827E+02
      5.299  0.6974E+00  0.4831E+02
      5.367  0.4111E+00  0.4834E+02
      5.435  0.2743E+01  0.4853E+02
      5.503  0.1644E+01  0.4864E+02
      5.572  0.6409E+00  0.4868E+02
      5.640  0.2094E+00  0.4870E+02
      5.708  0.1262E+01  0.4878E+02
      5.776  0.2054E+01  0.4892E+02
      5.844  0.1510E+01  0.4903E+02
      5.913  0.1671E+01  0.4914E+02
      5.981  0.1832E+00  0.4915E+02
      6.049  0.1093E+01  0.4923E+02
      6.117  0.8612E+00  0.4929E+02
      6.185  0.1881E+01  0.4942E+02
      6.253  0.1307E+01  0.4951E+02
      6.322  0.2364E+01  0.4967E+02
      6.390  0.2245E+00  0.4968E+02
      6.458  0.9874E+00  0.4975E+02
      6.526  0.1804E+01  0.4987E+02
      6.594  0.4756E+00  0.4991E+02
      6.662  0.1129E+01  0.4999E+02
      6.731  0.1594E+01  0.5009E+02
      6.799  0.1110E+00  0.5010E+02
      6.867  0.8512E+00  0.5016E+02
      6.935  0.1939E+01  0.5029E+02
      7.003  0.7314E+00  0.5034E+02
      7.072  0.1761E+01  0.5046E+02
      7.140  0.4422E+00  0.5049E+02
      7.208  0.7378E+00  0.5054E+02
      7.276  0.2847E+01  0.5074E+02
      7.344  0.1369E+01  0.5083E+02
      7.412  0.6138E+00  0.5087E+02
      7.481  0.1583E+01  0.5098E+02
      7.549  0.1072E+01  0.5105E+02
      7.617  0.1652E+01  0.5117E+02
      7.685  0.1518E+01  0.5127E+02
      7.753  0.1789E+01  0.5139E+02
      7.821  0.1998E+01  0.5153E+02
      7.890  0.1084E+01  0.5160E+02
      7.958  0.1023E+01  0.5167E+02
      8.026  0.6284E+00  0.5172E+02
      8.094  0.3485E+01  0.5195E+02
      8.162  0.5287E+00  0.5199E+02
      8.231  0.2054E+01  0.5213E+02
      8.299  0.1648E+01  0.5224E+02
      8.367  0.8424E+00  0.5230E+02
      8.435  0.1840E+01  0.5243E+02
      8.503  0.1951E+01  0.5256E+02
      8.571  0.1521E+01  0.5267E+02
      8.640  0.1400E+01  0.5276E+02
      8.708  0.1167E+01  0.5284E+02
      8.776  0.3161E+01  0.5306E+02
      8.844  0.3245E+00  0.5308E+02
      8.912  0.1459E+01  0.5318E+02
      8.980  0.7971E+00  0.5324E+02
      9.049  0.1697E+01  0.5335E+02
      9.117  0.1506E+01  0.5345E+02
      9.185  0.1504E+01  0.5356E+02
      9.253  0.2952E+01  0.5376E+02
      9.321  0.8735E+00  0.5382E+02
      9.389  0.1141E+01  0.5390E+02
      9.458  0.2704E+01  0.5408E+02
      9.526  0.1544E+01  0.5419E+02
      9.594  0.9667E+00  0.5425E+02
      9.662  0.1004E+01  0.5432E+02
      9.730  0.1885E+01  0.5445E+02
      9.799  0.1691E+01  0.5456E+02
      9.867  0.1279E+01  0.5465E+02
      9.935  0.6787E+00  0.5470E+02
     10.003  0.3318E+01  0.5492E+02
     10.071  0.1594E+01  0.5503E+02
     10.139  0.3748E+00  0.5506E+02
     10.208  0.1551E+01  0.5517E+02
     10.276  0.6880E+00  0.5521E+02
     10.344  0.9095E+00  0.5527E+02
     10.412  0.6321E+00  0.5532E+02
     10.480  0.2085E+01  0.5546E+02
     10.548  0.4714E+00  0.5549E+02
     10.617  0.1406E+01  0.5559E+02
     10.685  0.1318E+01  0.5568E+02
     10.753  0.5736E-08  0.5568E+02
     10.821  0.6371E+00  0.5572E+02
     10.889  0.4411E+00  0.5575E+02
     10.958  0.5203E+00  0.5579E+02
     11.026  0.1587E+01  0.5590E+02
     11.094  0.0000E+00  0.5590E+02
     11.162  0.6830E-09  0.5590E+02
     11.230  0.6408E+00  0.5594E+02
     11.298  0.0000E+00  0.5594E+02
     11.367  0.0000E+00  0.5594E+02
     11.435  0.0000E+00  0.5594E+02
     11.503  0.8976E-13  0.5594E+02
     11.571  0.3406E+00  0.5596E+02
     11.639  0.1012E+00  0.5597E+02
     11.707  0.5613E-02  0.5597E+02
     11.776  0.0000E+00  0.5597E+02
     11.844  0.6283E-03  0.5597E+02
     11.912  0.3198E+00  0.5599E+02
     11.980  0.0000E+00  0.5599E+02
     12.048  0.0000E+00  0.5599E+02
     12.117  0.0000E+00  0.5599E+02
     12.185  0.0000E+00  0.5599E+02
     12.253  0.0000E+00  0.5599E+02
     12.321  0.0000E+00  0.5599E+02
     12.389  0.0000E+00  0.5599E+02
     12.457  0.5066E-02  0.5599E+02
     12.526  0.7505E-01  0.5600E+02
     12.594  0.0000E+00  0.5600E+02
     12.662  0.0000E+00  0.5600E+02
     12.730  0.0000E+00  0.5600E+02
     12.798  0.0000E+00  0.5600E+02
     12.866  0.3037E-05  0.5600E+02
     12.935  0.1335E-01  0.5600E+02
     13.003  0.0000E+00  0.5600E+02
     13.071  0.0000E+00  0.5600E+02
     13.139  0.0000E+00  0.5600E+02
     13.207  0.0000E+00  0.5600E+02
     13.276  0.0000E+00  0.5600E+02
     13.344  0.0000E+00  0.5600E+02
     13.412  0.0000E+00  0.5600E+02
     13.480  0.0000E+00  0.5600E+02
     13.548  0.0000E+00  0.5600E+02
     13.616  0.0000E+00  0.5600E+02
     13.685  0.0000E+00  0.5600E+02
     13.753  0.0000E+00  0.5600E+02
     13.821  0.0000E+00  0.5600E+02
