    4    4    1    1
  0.1556826E+02  0.3963693E-09  0.3963693E-09  0.3963693E-09  0.5000000E-15
  1.000000000000000E-004
  CAR 
 unknown system                          
   44   84   28
 
  0.0000000E+00  0.0000000E+00  0.0000000E+00  0.4551661E-03
   1       -5.7022
   2       -1.7864
   3       -1.7864
   4       -1.7864
   5       -1.4865
   6       -1.4865
   7       -1.4865
   8       -0.5878
   9       -0.5878
  10       -0.5878
  11       -0.0500
  12       -0.0500
  13        0.3094
  14        0.3094
  15        0.3094
  16        0.4096
  17        0.4096
  18        0.4096
  19        0.4096
  20        0.4096
  21        0.4096
  22        3.4498
  23        3.4498
  24        3.4498
  25        7.1141
  26        7.1141
  27        7.1141
  28       12.8913
 
  0.7692308E-01  0.0000000E+00  0.0000000E+00  0.2730997E-02
   1       -5.6430
   2       -1.7894
   3       -1.7624
   4       -1.7624
   5       -1.4738
   6       -1.4729
   7       -1.4729
   8       -0.6012
   9       -0.5765
  10       -0.5765
  11       -0.0621
  12       -0.0448
  13        0.2938
  14        0.2938
  15        0.3041
  16        0.3390
  17        0.3390
  18        0.3909
  19        0.3909
  20        0.4096
  21        0.4096
  22        2.9781
  23        3.5759
  24        3.5759
  25        7.1415
  26        7.1415
  27        7.7111
  28       12.4682
 
  0.1538462E+00  0.0000000E+00  0.0000000E+00  0.2730997E-02
   1       -5.4663
   2       -1.8084
   3       -1.6935
   4       -1.6935
   5       -1.4364
   6       -1.4319
   7       -1.4319
   8       -0.6406
   9       -0.5427
  10       -0.5427
  11       -0.0974
  12       -0.0297
  13        0.1570
  14        0.1570
  15        0.2479
  16        0.2479
  17        0.2885
  18        0.3368
  19        0.3368
  20        0.4097
  21        0.4097
  22        2.0387
  23        3.9242
  24        3.9242
  25        7.2256
  26        7.2256
  27        9.0355
  28       11.5530
 
  0.2307692E+00  0.0000000E+00  0.0000000E+00  0.2730997E-02
   1       -5.1746
   2       -1.8792
   3       -1.5887
   4       -1.5887
   5       -1.3763
   6       -1.3628
   7       -1.3628
   8       -0.7036
   9       -0.4873
  10       -0.4873
  11       -0.1521
  12       -0.0807
  13       -0.0807
  14       -0.0054
  15        0.1759
  16        0.1759
  17        0.2530
  18        0.2530
  19        0.2636
  20        0.4098
  21        0.4098
  22        1.0877
  23        4.4383
  24        4.4383
  25        7.3710
  26        7.3710
  27       10.5096
  28       10.5096
 
  0.3076923E+00  0.0000000E+00  0.0000000E+00  0.2730997E-02
   1       -4.7731
   2       -2.0780
   3       -1.4646
   4       -1.4646
   5       -1.2968
   6       -1.2647
   7       -1.2647
   8       -0.7862
   9       -0.4116
  10       -0.4116
  11       -0.3315
  12       -0.3315
  13       -0.2189
  14        0.0267
  15        0.0868
  16        0.0868
  17        0.1476
  18        0.1476
  19        0.2309
  20        0.3257
  21        0.4099
  22        0.4099
  23        5.0742
  24        5.0742
  25        7.5839
  26        7.5839
  27        9.4636
  28        9.4636
 
  0.3846154E+00  0.0000000E+00  0.0000000E+00  0.2730997E-02
   1       -4.2713
   2       -2.4864
   3       -1.3474
   4       -1.3474
   5       -1.2021
   6       -1.1367
   7       -1.1367
   8       -0.8834
   9       -0.5716
  10       -0.5716
  11       -0.3181
  12       -0.3181
  13       -0.2855
  14       -0.1294
  15       -0.0012
  16       -0.0012
  17        0.0297
  18        0.0297
  19        0.0648
  20        0.1923
  21        0.4100
  22        0.4100
  23        5.8062
  24        5.8062
  25        7.8674
  26        7.8674
  27        8.4565
  28        8.4565
 
  0.4615385E+00  0.0000000E+00  0.0000000E+00  0.2730997E-02
   1       -3.6885
   2       -3.0649
   3       -1.2728
   4       -1.2728
   5       -1.0976
   6       -0.9893
   7       -0.9780
   8       -0.9780
   9       -0.7890
  10       -0.7890
  11       -0.3293
  12       -0.3066
  13       -0.2100
  14       -0.2100
  15       -0.0920
  16       -0.0920
  17       -0.0593
  18       -0.0593
  19        0.1067
  20        0.1501
  21        0.4101
  22        0.4101
  23        6.6197
  24        6.6197
  25        7.5056
  26        7.5056
  27        8.1849
  28        8.1849
 
  0.7692308E-01  0.7692308E-01  0.0000000E+00  0.5461994E-02
   1       -5.5840
   2       -1.7649
   3       -1.7649
   4       -1.7391
   5       -1.4604
   6       -1.4604
   7       -1.4596
   8       -0.6083
   9       -0.5712
  10       -0.5661
  11       -0.0654
  12       -0.0476
  13        0.2775
  14        0.2775
  15        0.2787
  16        0.2857
  17        0.3284
  18        0.3284
  19        0.3909
  20        0.3909
  21        0.3974
  22        3.0989
  23        3.0989
  24        3.6971
  25        7.1695
  26        7.7464
  27        7.7464
  28       11.5544
 
  0.1538462E+00  0.7692308E-01  0.0000000E+00  0.1092399E-01
   1       -5.4078
   2       -1.7819
   3       -1.6942
   4       -1.6720
   5       -1.4237
   6       -1.4201
   7       -1.4195
   8       -0.6438
   9       -0.5407
  10       -0.5353
  11       -0.0961
  12       -0.0341
  13        0.1181
  14        0.1212
  15        0.2213
  16        0.2344
  17        0.2557
  18        0.3042
  19        0.3366
  20        0.3908
  21        0.3909
  22        2.1618
  23        3.4266
  24        4.0347
  25        7.2548
  26        7.8542
  27        9.0779
  28       10.4799
 
  0.2307692E+00  0.7692308E-01  0.0000000E+00  0.1092399E-01
   1       -5.1170
   2       -1.8493
   3       -1.5865
   4       -1.5700
   5       -1.3646
   6       -1.3523
   7       -1.3521
   8       -0.7047
   9       -0.4862
  10       -0.4858
  11       -0.1472
  12       -0.1189
  13       -0.1036
  14       -0.0074
  15        0.1172
  16        0.1647
  17        0.1819
  18        0.2527
  19        0.2712
  20        0.3894
  21        0.3907
  22        1.2343
  23        3.8996
  24        4.5377
  25        7.4017
  26        8.0389
  27        9.4227
  28       10.5808
 
  0.3076923E+00  0.7692308E-01  0.0000000E+00  0.1092399E-01
   1       -4.7169
   2       -2.0428
   3       -1.4586
   4       -1.4483
   5       -1.2864
   6       -1.2583
   7       -1.2557
   8       -0.7855
   9       -0.4235
  10       -0.4111
  11       -0.3674
  12       -0.3447
  13       -0.2042
  14       -0.0512
  15        0.0283
  16        0.0785
  17        0.0927
  18        0.1473
  19        0.2233
  20        0.3892
  21        0.3905
  22        0.5464
  23        4.4733
  24        5.1646
  25        7.6106
  26        8.3043
  27        8.4336
  28        9.5347
 
  0.3846154E+00  0.7692308E-01  0.0000000E+00  0.1092399E-01
   1       -4.2172
   2       -2.4450
   3       -1.3366
   4       -1.3306
   5       -1.1934
   6       -1.1393
   7       -1.1299
   8       -0.8806
   9       -0.6030
  10       -0.5775
  11       -0.3772
  12       -0.3179
  13       -0.2616
  14       -0.2280
  15       -0.0063
  16        0.0038
  17        0.0294
  18        0.0711
  19        0.1149
  20        0.2497
  21        0.3893
  22        0.3903
  23        5.1241
  24        5.8897
  25        7.4541
  26        7.9620
  27        8.5289
  28        8.6313
 
  0.4615385E+00  0.7692308E-01  0.0000000E+00  0.1092399E-01
   1       -3.6373
   2       -3.0180
   3       -1.2570
   4       -1.2545
   5       -1.0908
   6       -0.9929
   7       -0.9845
   8       -0.9743
   9       -0.8136
  10       -0.7894
  11       -0.3858
  12       -0.3744
  13       -0.2101
  14       -0.1605
  15       -0.0923
  16       -0.0606
  17       -0.0568
  18       -0.0394
  19        0.1192
  20        0.1725
  21        0.3896
  22        0.3900
  23        5.8417
  24        6.6229
  25        6.6981
  26        7.5804
  27        8.3195
  28        8.7132
 
  0.1538462E+00  0.1538462E+00  0.0000000E+00  0.5461994E-02
   1       -5.2332
   2       -1.7057
   3       -1.7057
   4       -1.6106
   5       -1.3852
   6       -1.3852
   7       -1.3821
   8       -0.6649
   9       -0.5226
  10       -0.5136
  11       -0.1073
  12       -0.0310
  13        0.0052
  14        0.0237
  15        0.0237
  16        0.1946
  17        0.2557
  18        0.2557
  19        0.3362
  20        0.3362
  21        0.3611
  22        2.4793
  23        2.4793
  24        4.3475
  25        7.3434
  26        9.2052
  27        9.2052
  28        9.3048
 
  0.2307692E+00  0.1538462E+00  0.0000000E+00  0.1092399E-01
   1       -4.9452
   2       -1.7627
   3       -1.5890
   4       -1.5173
   5       -1.3293
   6       -1.3206
   7       -1.3198
   8       -0.7141
   9       -0.4805
  10       -0.4768
  11       -0.2191
  12       -0.1763
  13       -0.1444
  14       -0.1154
  15       -0.0019
  16        0.1315
  17        0.1859
  18        0.2338
  19        0.2520
  20        0.3356
  21        0.3441
  22        1.5617
  23        2.9165
  24        4.8237
  25        7.4885
  26        8.2101
  27        9.4148
  28       10.7920
 
  0.3076923E+00  0.1538462E+00  0.0000000E+00  0.1092399E-01
   1       -4.5494
   2       -1.9410
   3       -1.4489
   4       -1.4039
   5       -1.2553
   6       -1.2367
   7       -1.2291
   8       -0.7863
   9       -0.4620
  10       -0.4463
  11       -0.4061
  12       -0.3860
  13       -0.2888
  14       -0.1843
  15        0.0451
  16        0.0531
  17        0.0990
  18        0.1463
  19        0.1855
  20        0.3349
  21        0.3367
  22        0.8676
  23        3.4353
  24        5.4275
  25        7.1509
  26        7.7627
  27        9.6692
  28        9.7454
 
  0.3846154E+00  0.1538462E+00  0.0000000E+00  0.1092399E-01
   1       -4.0561
   2       -2.3246
   3       -1.3114
   4       -1.2852
   5       -1.1675
   6       -1.1434
   7       -1.1101
   8       -0.8741
   9       -0.6858
  10       -0.5960
  11       -0.4388
  12       -0.4329
  13       -0.3155
  14       -0.1851
  15       -0.0231
  16        0.0099
  17        0.0286
  18        0.1021
  19        0.1048
  20        0.3338
  21        0.3340
  22        0.4676
  23        4.0241
  24        6.1345
  25        6.2455
  26        8.0632
  27        8.7431
  28        9.5315
 
  0.4615385E+00  0.1538462E+00  0.0000000E+00  0.1092399E-01
   1       -3.4857
   2       -2.8799
   3       -1.2143
   4       -1.2014
   5       -1.0709
   6       -1.0357
   7       -0.9710
   8       -0.9638
   9       -0.8809
  10       -0.7912
  11       -0.4837
  12       -0.4667
  13       -0.2093
  14       -0.1207
  15       -0.0925
  16       -0.0679
  17       -0.0553
  18       -0.0131
  19        0.1782
  20        0.2794
  21        0.3330
  22        0.3333
  23        4.6839
  24        5.4219
  25        6.9291
  26        7.8013
  27        8.4695
  28        8.9737
 
  0.2307692E+00  0.2307692E+00  0.0000000E+00  0.5461994E-02
   1       -4.6623
   2       -1.6297
   3       -1.6297
   4       -1.4390
   5       -1.2701
   6       -1.2701
   7       -1.2650
   8       -0.7433
   9       -0.4712
  10       -0.4459
  11       -0.3590
  12       -0.3590
  13       -0.2996
  14       -0.1639
  15        0.0337
  16        0.0779
  17        0.1697
  18        0.1697
  19        0.2509
  20        0.2509
  21        0.3017
  22        1.9732
  23        1.9732
  24        5.2684
  25        7.0388
  26        7.6962
  27       10.9957
  28       10.9958
 
  0.3076923E+00  0.2307692E+00  0.0000000E+00  0.1092399E-01
   1       -4.2744
   2       -1.7839
   3       -1.4679
   4       -1.3445
   5       -1.2035
   6       -1.1937
   7       -1.1866
   8       -0.7964
   9       -0.5858
  10       -0.5021
  11       -0.4660
  12       -0.4582
  13       -0.3877
  14       -0.1922
  15        0.0105
  16        0.0875
  17        0.0991
  18        0.1247
  19        0.1452
  20        0.2498
  21        0.2742
  22        1.2283
  23        2.4470
  24        5.8432
  25        6.0251
  26        7.9312
  27       10.0889
  28       10.6083
 
  0.3846154E+00  0.2307692E+00  0.0000000E+00  0.1092399E-01
   1       -3.7931
   2       -2.1368
   3       -1.3038
   4       -1.2366
   5       -1.1291
   6       -1.1249
   7       -1.0790
   8       -0.8682
   9       -0.7874
  10       -0.6296
  11       -0.5836
  12       -0.4853
  13       -0.3054
  14       -0.1908
  15       -0.0546
  16        0.0006
  17        0.0282
  18        0.0479
  19        0.1863
  20        0.2490
  21        0.2594
  22        0.7400
  23        2.9857
  24        5.1114
  25        6.5259
  26        8.2653
  27        9.0916
  28        9.8864
 
  0.4615385E+00  0.2307692E+00  0.0000000E+00  0.1092399E-01
   1       -3.2403
   2       -2.6600
   3       -1.1734
   4       -1.1195
   5       -1.1031
   6       -1.0390
   7       -0.9617
   8       -0.9513
   9       -0.9481
  10       -0.7964
  11       -0.5814
  12       -0.5339
  13       -0.2045
  14       -0.1385
  15       -0.0910
  16       -0.0885
  17       -0.0675
  18       -0.0494
  19        0.2494
  20        0.2522
  21        0.2990
  22        0.4621
  23        3.6006
  24        4.3053
  25        7.3015
  26        8.1595
  27        8.6993
  28        9.2398
 
  0.3076923E+00  0.3076923E+00  0.0000000E+00  0.5461994E-02
   1       -3.8992
   2       -1.5922
   3       -1.5922
   4       -1.2849
   5       -1.1312
   6       -1.1312
   7       -1.1291
   8       -0.8237
   9       -0.6862
  10       -0.6862
  11       -0.5597
  12       -0.4845
  13       -0.3468
  14       -0.2190
  15       -0.0455
  16        0.0468
  17        0.0468
  18        0.1447
  19        0.1447
  20        0.1894
  21        0.2210
  22        1.6363
  23        1.6363
  24        5.0014
  25        6.3892
  26        8.1979
  27       10.5556
  28       10.5556
 
  0.3846154E+00  0.3076923E+00  0.0000000E+00  0.1092399E-01
   1       -3.4374
   2       -1.9038
   3       -1.3979
   4       -1.2297
   5       -1.0666
   6       -1.0639
   7       -1.0393
   8       -0.8696
   9       -0.8385
  10       -0.7063
  11       -0.6807
  12       -0.5196
  13       -0.2800
  14       -0.2271
  15       -0.1011
  16       -0.0364
  17       -0.0247
  18        0.0300
  19        0.1460
  20        0.1843
  21        0.3084
  22        1.0568
  23        2.1075
  24        4.0995
  25        7.0467
  26        8.5594
  27        9.5643
  28       10.2830
 
  0.4615385E+00  0.3076923E+00  0.0000000E+00  0.1092399E-01
   1       -2.9143
   2       -2.3766
   3       -1.2476
   4       -1.1956
   5       -1.0183
   6       -0.9975
   7       -0.9529
   8       -0.9301
   9       -0.9297
  10       -0.8080
  11       -0.6573
  12       -0.5833
  13       -0.1905
  14       -0.1892
  15       -0.1282
  16       -0.1128
  17       -0.1037
  18       -0.0847
  19        0.1510
  20        0.1624
  21        0.4643
  22        0.6911
  23        2.6627
  24        3.3218
  25        7.8015
  26        8.6434
  27        9.0235
  28        9.5971
 
  0.3846154E+00  0.3846154E+00  0.0000000E+00  0.5461994E-02
   1       -3.0066
   2       -1.6612
   3       -1.6612
   4       -1.2569
   5       -0.9949
   6       -0.9949
   7       -0.9803
   8       -0.8836
   9       -0.7980
  10       -0.7980
  11       -0.7488
  12       -0.5580
  13       -0.2562
  14       -0.2326
  15       -0.1527
  16       -0.1023
  17       -0.1023
  18        0.0364
  19        0.0364
  20        0.1221
  21        0.4654
  22        1.4360
  23        1.4360
  24        3.2251
  25        7.6808
  26        8.9515
  27       10.1506
  28       10.1506
 
  0.4615385E+00  0.3846154E+00  0.0000000E+00  0.1092399E-01
   1       -2.5310
   2       -2.0605
   3       -1.4556
   4       -1.3228
   5       -0.9505
   6       -0.9137
   7       -0.9128
   8       -0.9116
   9       -0.8609
  10       -0.8291
  11       -0.7119
  12       -0.6230
  13       -0.2418
  14       -0.1826
  15       -0.1813
  16       -0.1638
  17       -0.1612
  18       -0.0691
  19        0.0509
  20        0.0781
  21        0.6732
  22        0.9747
  23        1.9057
  24        2.4955
  25        8.4156
  26        9.2414
  27        9.4487
  28       10.0566
 
  0.4615385E+00  0.4615385E+00  0.0000000E+00  0.5461994E-02
   1       -2.1282
   2       -1.7555
   3       -1.7555
   4       -1.5045
   5       -0.9031
   6       -0.9031
   7       -0.9020
   8       -0.8612
   9       -0.8216
  10       -0.7584
  11       -0.7584
  12       -0.6754
  13       -0.2616
  14       -0.2284
  15       -0.2284
  16       -0.2273
  17       -0.1112
  18       -0.0393
  19       -0.0393
  20        0.0094
  21        0.9503
  22        1.3433
  23        1.3433
  24        1.8389
  25        9.1324
  26        9.9432
  27        9.9432
  28        9.9804
 
  0.7692308E-01  0.7692308E-01  0.7692308E-01  0.3641329E-02
   1       -5.5252
   2       -1.7410
   3       -1.7410
   4       -1.7410
   5       -1.4473
   6       -1.4473
   7       -1.4473
   8       -0.6150
   9       -0.5614
  10       -0.5614
  11       -0.0591
  12       -0.0591
  13        0.2611
  14        0.2611
  15        0.2611
  16        0.2658
  17        0.2658
  18        0.2658
  19        0.3873
  20        0.3873
  21        0.3873
  22        3.2138
  23        3.2138
  24        3.2138
  25        7.7821
  26        7.7821
  27        7.7821
  28       11.6278
 
  0.1538462E+00  0.7692308E-01  0.7692308E-01  0.1092399E-01
   1       -5.3495
   2       -1.7565
   3       -1.6725
   4       -1.6725
   5       -1.4111
   6       -1.4078
   7       -1.4078
   8       -0.6471
   9       -0.5350
  10       -0.5322
  11       -0.0918
  12       -0.0405
  13        0.0876
  14        0.0876
  15        0.1866
  16        0.2261
  17        0.2269
  18        0.2269
  19        0.3603
  20        0.3817
  21        0.3817
  22        2.2750
  23        3.5291
  24        3.5291
  25        7.8907
  26        7.8907
  27        9.1199
  28       10.5515
 
  0.2307692E+00  0.7692308E-01  0.7692308E-01  0.1092399E-01
   1       -5.0597
   2       -1.8207
   3       -1.5681
   4       -1.5681
   5       -1.3529
   6       -1.3415
   7       -1.3415
   8       -0.7056
   9       -0.4864
  10       -0.4841
  11       -0.1399
  12       -0.1393
  13       -0.1393
  14       -0.0108
  15        0.0575
  16        0.1595
  17        0.1622
  18        0.1622
  19        0.3226
  20        0.3773
  21        0.3773
  22        1.3551
  23        3.9897
  24        3.9897
  25        8.0741
  26        8.0741
  27        9.4971
  28        9.4971
 
  0.3076923E+00  0.7692308E-01  0.7692308E-01  0.1092399E-01
   1       -4.6610
   2       -2.0094
   3       -1.4432
   4       -1.4432
   5       -1.2758
   6       -1.2492
   7       -1.2492
   8       -0.7841
   9       -0.4286
  10       -0.4183
  11       -0.3781
  12       -0.3781
  13       -0.1873
  14       -0.1323
  15        0.0282
  16        0.0709
  17        0.0790
  18        0.0790
  19        0.2783
  20        0.3748
  21        0.3748
  22        0.6640
  23        4.5536
  24        4.5536
  25        8.2629
  26        8.2629
  27        8.5851
  28        8.5851
 
  0.3846154E+00  0.7692308E-01  0.7692308E-01  0.1092399E-01
   1       -4.1635
   2       -2.4053
   3       -1.3208
   4       -1.3208
   5       -1.1842
   6       -1.1339
   7       -1.1339
   8       -0.8772
   9       -0.6049
  10       -0.6049
  11       -0.3984
  12       -0.3364
  13       -0.3247
  14       -0.1871
  15       -0.0311
  16       -0.0051
  17       -0.0051
  18        0.0744
  19        0.2294
  20        0.2695
  21        0.3735
  22        0.3735
  23        5.1970
  24        5.1970
  25        7.5329
  26        7.5329
  27        8.7578
  28        8.7578
 
  0.4615385E+00  0.7692308E-01  0.7692308E-01  0.1092399E-01
   1       -3.5868
   2       -2.9722
   3       -1.2387
   4       -1.2387
   5       -1.0834
   6       -0.9999
   7       -0.9999
   8       -0.9790
   9       -0.8019
  10       -0.8019
  11       -0.4157
  12       -0.4143
  13       -0.2414
  14       -0.1377
  15       -0.0999
  16       -0.0614
  17       -0.0614
  18        0.0481
  19        0.1251
  20        0.1776
  21        0.3729
  22        0.3729
  23        5.9085
  24        5.9085
  25        6.6909
  26        6.6909
  27        9.1800
  28        9.1800
 
  0.1538462E+00  0.1538462E+00  0.7692308E-01  0.1092399E-01
   1       -5.1756
   2       -1.6831
   3       -1.6831
   4       -1.6103
   5       -1.3731
   6       -1.3731
   7       -1.3706
   8       -0.6669
   9       -0.5182
  10       -0.5128
  11       -0.0968
  12       -0.0405
  13       -0.0245
  14       -0.0038
  15       -0.0038
  16        0.1717
  17        0.1929
  18        0.1929
  19        0.3578
  20        0.3578
  21        0.3639
  22        2.5746
  23        2.5746
  24        3.8163
  25        7.9990
  26        9.2437
  27        9.2437
  28        9.3803
 
  0.2307692E+00  0.1538462E+00  0.7692308E-01  0.2184797E-01
   1       -4.8887
   2       -1.7384
   3       -1.5714
   4       -1.5163
   5       -1.3174
   6       -1.3095
   7       -1.3087
   8       -0.7136
   9       -0.4815
  10       -0.4779
  11       -0.2355
  12       -0.2064
  13       -0.1452
  14       -0.1306
  15       -0.0087
  16        0.1116
  17        0.1259
  18        0.1423
  19        0.3237
  20        0.3458
  21        0.3472
  22        1.6504
  23        2.9968
  24        4.2471
  25        8.0822
  26        8.3891
  27        9.3822
  28        9.7840
 
  0.3076923E+00  0.1538462E+00  0.7692308E-01  0.2184797E-01
   1       -4.4947
   2       -1.9130
   3       -1.4371
   4       -1.4022
   5       -1.2436
   6       -1.2267
   7       -1.2213
   8       -0.7830
   9       -0.4669
  10       -0.4489
  11       -0.4189
  12       -0.4125
  13       -0.3189
  14       -0.1605
  15        0.0353
  16        0.0401
  17        0.0405
  18        0.0699
  19        0.2772
  20        0.3354
  21        0.3356
  22        0.9359
  23        3.5053
  24        4.7852
  25        7.2213
  26        8.5248
  27        8.6470
  28        9.8282
 
  0.3846154E+00  0.1538462E+00  0.7692308E-01  0.2184797E-01
   1       -4.0042
   2       -2.2900
   3       -1.3016
   4       -1.2810
   5       -1.1564
   6       -1.1396
   7       -1.1164
   8       -0.8683
   9       -0.6762
  10       -0.6124
  11       -0.4556
  12       -0.4457
  13       -0.3466
  14       -0.1391
  15       -0.0659
  16       -0.0322
  17       -0.0096
  18        0.1006
  19        0.2094
  20        0.3288
  21        0.3294
  22        0.4909
  23        4.0869
  24        5.4035
  25        6.3161
  26        7.7346
  27        8.9063
  28       10.1740
 
  0.4615385E+00  0.1538462E+00  0.7692308E-01  0.2184797E-01
   1       -3.4377
   2       -2.8379
   3       -1.1982
   4       -1.1861
   5       -1.0615
   6       -1.0610
   7       -1.0254
   8       -0.9630
   9       -0.8272
  10       -0.7805
  11       -0.4989
  12       -0.4776
  13       -0.2623
  14       -0.1674
  15       -0.0776
  16       -0.0688
  17       -0.0449
  18        0.0938
  19        0.1712
  20        0.2708
  21        0.3261
  22        0.3264
  23        4.7410
  24        5.4662
  25        6.1303
  26        6.8916
  27        9.3969
  28        9.9686
 
  0.2307692E+00  0.2307692E+00  0.7692308E-01  0.1092399E-01
   1       -4.6073
   2       -1.6133
   3       -1.6133
   4       -1.4404
   5       -1.2576
   6       -1.2576
   7       -1.2530
   8       -0.7400
   9       -0.4728
  10       -0.4538
  11       -0.3716
  12       -0.3716
  13       -0.3238
  14       -0.1430
  15        0.0257
  16        0.0490
  17        0.0894
  18        0.0894
  19        0.3027
  20        0.3027
  21        0.3147
  22        2.0427
  23        2.0427
  24        4.6423
  25        7.1075
  26        8.4448
  27        9.9789
  28        9.9789
 
  0.3076923E+00  0.2307692E+00  0.7692308E-01  0.2184797E-01
   1       -4.2218
   2       -1.7665
   3       -1.4635
   4       -1.3505
   5       -1.1891
   6       -1.1809
   7       -1.1745
   8       -0.7896
   9       -0.5829
  10       -0.5101
  11       -0.4742
  12       -0.4680
  13       -0.4087
  14       -0.1593
  15       -0.0162
  16        0.0064
  17        0.0334
  18        0.0912
  19        0.2475
  20        0.2806
  21        0.2876
  22        1.2778
  23        2.5055
  24        5.1385
  25        6.1019
  26        8.7434
  27        8.9830
  28       10.4442
 
  0.3846154E+00  0.2307692E+00  0.7692308E-01  0.2184797E-01
   1       -3.7442
   2       -2.1123
   3       -1.3126
   4       -1.2507
   5       -1.1178
   6       -1.1093
   7       -1.0790
   8       -0.8579
   9       -0.7605
  10       -0.6296
  11       -0.5878
  12       -0.4878
  13       -0.3491
  14       -0.1339
  15       -0.0914
  16       -0.0768
  17       -0.0356
  18        0.1704
  19        0.1774
  20        0.2657
  21        0.2693
  22        0.7595
  23        3.0377
  24        5.1308
  25        5.7974
  26        8.0594
  27        9.1511
  28       11.0096
 
  0.4615385E+00  0.2307692E+00  0.7692308E-01  0.2184797E-01
   1       -3.1971
   2       -2.6253
   3       -1.1871
   4       -1.1492
   5       -1.1001
   6       -1.0404
   7       -1.0238
   8       -0.9381
   9       -0.8424
  10       -0.7640
  11       -0.5844
  12       -0.5368
  13       -0.2762
  14       -0.1890
  15       -0.1103
  16       -0.0937
  17       -0.0501
  18        0.0647
  19        0.2591
  20        0.2602
  21        0.2890
  22        0.4582
  23        3.6483
  24        4.3481
  25        6.4582
  26        7.2175
  27        9.6687
  28       10.2943
 
  0.3076923E+00  0.3076923E+00  0.7692308E-01  0.1092399E-01
   1       -3.8501
   2       -1.5928
   3       -1.5928
   4       -1.3026
   5       -1.1133
   6       -1.1118
   7       -1.1118
   8       -0.8119
   9       -0.6776
  10       -0.6776
  11       -0.5611
  12       -0.4856
  13       -0.3847
  14       -0.1707
  15       -0.0783
  16       -0.0354
  17       -0.0354
  18        0.1802
  19        0.2136
  20        0.2136
  21        0.2426
  22        1.6770
  23        1.6770
  24        5.0099
  25        5.6873
  26        9.0676
  27        9.4303
  28        9.4303
 
  0.3846154E+00  0.3076923E+00  0.7692308E-01  0.2184797E-01
   1       -3.3938
   2       -1.8964
   3       -1.4246
   4       -1.2636
   5       -1.0467
   6       -1.0420
   7       -1.0180
   8       -0.8524
   9       -0.8072
  10       -0.6990
  11       -0.6601
  12       -0.5197
  13       -0.3475
  14       -0.1497
  15       -0.1334
  16       -0.1244
  17       -0.0911
  18        0.1294
  19        0.1894
  20        0.2074
  21        0.2980
  22        1.0739
  23        2.1444
  24        4.1325
  25        6.2409
  26        8.5009
  27        9.4994
  28        9.9871
 
  0.4615385E+00  0.3076923E+00  0.7692308E-01  0.2184797E-01
   1       -2.8793
   2       -2.3542
   3       -1.2998
   4       -1.2494
   5       -1.0019
   6       -0.9725
   7       -0.9679
   8       -0.9078
   9       -0.8423
  10       -0.7580
  11       -0.6537
  12       -0.5822
  13       -0.2921
  14       -0.2151
  15       -0.1611
  16       -0.1429
  17       -0.0769
  18        0.0266
  19        0.1801
  20        0.1861
  21        0.4544
  22        0.6889
  23        2.6983
  24        3.3572
  25        6.9057
  26        7.6594
  27       10.0419
  28       10.6549
 
  0.3846154E+00  0.3846154E+00  0.7692308E-01  0.1092399E-01
   1       -2.9714
   2       -1.6787
   3       -1.6787
   4       -1.3052
   5       -0.9636
   6       -0.9557
   7       -0.9557
   8       -0.8580
   9       -0.7822
  10       -0.7822
  11       -0.7049
  12       -0.5559
  13       -0.3410
  14       -0.1890
  15       -0.1687
  16       -0.1687
  17       -0.1407
  18        0.1010
  19        0.1010
  20        0.1522
  21        0.4544
  22        1.4533
  23        1.4533
  24        3.2555
  25        6.8016
  26        9.0520
  27        9.0520
  28        9.9559
 
  0.4615385E+00  0.3846154E+00  0.7692308E-01  0.2184797E-01
   1       -2.5090
   2       -2.0573
   3       -1.4990
   4       -1.3776
   5       -0.9098
   6       -0.8981
   7       -0.8775
   8       -0.8699
   9       -0.8296
  10       -0.7663
  11       -0.7050
  12       -0.6190
  13       -0.3118
  14       -0.2495
  15       -0.2214
  16       -0.2106
  17       -0.0850
  18        0.0037
  19        0.0946
  20        0.1125
  21        0.6641
  22        0.9745
  23        1.9260
  24        2.5207
  25        7.4591
  26        8.2093
  27        9.7071
  28       10.4628
 
  0.4615385E+00  0.4615385E+00  0.7692308E-01  0.1092399E-01
   1       -2.1255
   2       -1.7769
   3       -1.7769
   4       -1.5483
   5       -0.8546
   6       -0.8451
   7       -0.8451
   8       -0.8105
   9       -0.7934
  10       -0.7492
  11       -0.7492
  12       -0.6686
  13       -0.3151
  14       -0.2774
  15       -0.2774
  16       -0.2691
  17       -0.0545
  18        0.0109
  19        0.0109
  20        0.0499
  21        0.9451
  22        1.3482
  23        1.3482
  24        1.8530
  25        8.1119
  26        8.8615
  27        8.8615
  28        9.6131
 
  0.1538462E+00  0.1538462E+00  0.1538462E+00  0.3641329E-02
   1       -5.0036
   2       -1.6189
   3       -1.6189
   4       -1.6189
   5       -1.3364
   6       -1.3364
   7       -1.3364
   8       -0.6803
   9       -0.5041
  10       -0.5041
  11       -0.1124
  12       -0.1124
  13       -0.1124
  14       -0.0666
  15       -0.0666
  16        0.1131
  17        0.1131
  18        0.1131
  19        0.3639
  20        0.3639
  21        0.3639
  22        2.8375
  23        2.8375
  24        2.8375
  25        9.2839
  26        9.2839
  27        9.2839
  28        9.6805
 
  0.2307692E+00  0.1538462E+00  0.1538462E+00  0.1092399E-01