   4   4   0   0
  0.2272484E+02  0.4496283E-09  0.4496283E-09  0.4496283E-09  0.5000000E-15
  1.000000000000000E-004
  CAR 
 unknown system                          
     11.44439172     -5.31448697  301      1.44564996      1.00000000
     -5.314  0.0000E+00  0.0000E+00
     -5.259  0.0000E+00  0.0000E+00
     -5.203  0.0000E+00  0.0000E+00
     -5.147  0.0000E+00  0.0000E+00
     -5.091  0.0000E+00  0.0000E+00
     -5.035  0.0000E+00  0.0000E+00
     -4.979  0.0000E+00  0.0000E+00
     -4.923  0.0000E+00  0.0000E+00
     -4.868  0.0000E+00  0.0000E+00
     -4.812  0.0000E+00  0.0000E+00
     -4.756  0.0000E+00  0.0000E+00
     -4.700  0.0000E+00  0.0000E+00
     -4.644  0.0000E+00  0.0000E+00
     -4.588  0.5150E-08  0.2877E-09
     -4.532  0.2068E-01  0.1155E-02
     -4.477  0.1237E+00  0.8066E-02
     -4.421  0.2471E+00  0.2187E-01
     -4.365  0.1662E+00  0.3116E-01
     -4.309  0.1235E+00  0.3805E-01
     -4.253  0.4930E+00  0.6559E-01
     -4.197  0.5017E+00  0.9362E-01
     -4.141  0.2331E-02  0.9375E-01
     -4.086  0.2485E+00  0.1076E+00
     -4.030  0.6214E+00  0.1423E+00
     -3.974  0.4983E+00  0.1702E+00
     -3.918  0.6274E+00  0.2052E+00
     -3.862  0.1032E+00  0.2110E+00
     -3.806  0.1380E+01  0.2881E+00
     -3.750  0.4359E-01  0.2905E+00
     -3.694  0.6144E+00  0.3248E+00
     -3.639  0.5538E+00  0.3558E+00
     -3.583  0.1623E+01  0.4464E+00
     -3.527  0.4991E+01  0.7252E+00
     -3.471  0.9595E+01  0.1261E+01
     -3.415  0.1141E+02  0.1899E+01
     -3.359  0.1544E+02  0.2761E+01
     -3.303  0.1844E+02  0.3791E+01
     -3.248  0.2700E+02  0.5299E+01
     -3.192  0.1906E+02  0.6364E+01
     -3.136  0.2311E+02  0.7655E+01
     -3.080  0.1706E+02  0.8608E+01
     -3.024  0.1518E+02  0.9456E+01
     -2.968  0.1343E+02  0.1021E+02
     -2.912  0.1451E+02  0.1102E+02
     -2.857  0.1691E+02  0.1196E+02
     -2.801  0.1640E+02  0.1288E+02
     -2.745  0.2362E+02  0.1420E+02
     -2.689  0.1706E+02  0.1515E+02
     -2.633  0.1511E+02  0.1599E+02
     -2.577  0.2002E+02  0.1711E+02
     -2.521  0.2163E+02  0.1832E+02
     -2.465  0.3308E+02  0.2017E+02
     -2.410  0.2570E+02  0.2160E+02
     -2.354  0.1782E+02  0.2260E+02
     -2.298  0.1676E+02  0.2354E+02
     -2.242  0.1720E+02  0.2450E+02
     -2.186  0.1985E+02  0.2561E+02
     -2.130  0.2033E+02  0.2674E+02
     -2.074  0.2207E+02  0.2797E+02
     -2.019  0.1979E+02  0.2908E+02
     -1.963  0.2490E+02  0.3047E+02
     -1.907  0.2207E+02  0.3170E+02
     -1.851  0.1571E+02  0.3258E+02
     -1.795  0.1718E+02  0.3354E+02
     -1.739  0.1866E+02  0.3458E+02
     -1.683  0.1782E+02  0.3558E+02
     -1.628  0.2631E+02  0.3705E+02
     -1.572  0.2754E+02  0.3859E+02
     -1.516  0.2792E+02  0.4015E+02
     -1.460  0.1220E+02  0.4083E+02
     -1.404  0.3867E+01  0.4104E+02
     -1.348  0.2938E+01  0.4121E+02
     -1.292  0.2255E+00  0.4122E+02
     -1.236  0.1371E+01  0.4130E+02
     -1.181  0.3997E+00  0.4132E+02
     -1.125  0.1727E+00  0.4133E+02
     -1.069  0.6144E+00  0.4136E+02
     -1.013  0.1440E+00  0.4137E+02
     -0.957  0.2839E+01  0.4153E+02
     -0.901  0.5513E+00  0.4156E+02
     -0.845  0.2433E+01  0.4170E+02
     -0.790  0.5504E+00  0.4173E+02
     -0.734  0.4441E+00  0.4175E+02
     -0.678  0.1253E+00  0.4176E+02
     -0.622  0.3758E+00  0.4178E+02
     -0.566  0.1706E+01  0.4188E+02
     -0.510  0.9986E+00  0.4193E+02
     -0.454  0.1237E+01  0.4200E+02
     -0.399  0.8914E+00  0.4205E+02
     -0.343  0.1659E+01  0.4214E+02
     -0.287  0.2461E+00  0.4216E+02
     -0.231  0.6048E+00  0.4219E+02
     -0.175  0.2000E+01  0.4230E+02
     -0.119  0.4735E+00  0.4233E+02
     -0.063  0.7542E+00  0.4237E+02
     -0.008  0.1235E+01  0.4244E+02
      0.048  0.6448E-01  0.4244E+02
      0.104  0.1427E+01  0.4252E+02
      0.160  0.1186E+01  0.4259E+02
      0.216  0.1734E+01  0.4269E+02
      0.272  0.2032E+01  0.4280E+02
      0.328  0.2149E+00  0.4281E+02
      0.384  0.1075E+01  0.4287E+02
      0.439  0.9317E+00  0.4292E+02
      0.495  0.4520E+00  0.4295E+02
      0.551  0.3489E+00  0.4297E+02
      0.607  0.4962E+00  0.4300E+02
      0.663  0.2644E+01  0.4315E+02
      0.719  0.7087E+00  0.4318E+02
      0.775  0.4889E+00  0.4321E+02
      0.830  0.3132E+01  0.4339E+02
      0.886  0.3667E+00  0.4341E+02
      0.942  0.1058E+01  0.4347E+02
      0.998  0.1045E+01  0.4352E+02
      1.054  0.9701E+00  0.4358E+02
      1.110  0.1474E+01  0.4366E+02
      1.166  0.2353E+01  0.4379E+02
      1.221  0.2358E+00  0.4381E+02
      1.277  0.1387E+01  0.4388E+02
      1.333  0.7478E-01  0.4389E+02
      1.389  0.2433E-02  0.4389E+02
      1.445  0.2003E+01  0.4400E+02
      1.501  0.1576E+01  0.4409E+02
      1.557  0.1502E+01  0.4417E+02
      1.613  0.1991E+01  0.4428E+02
      1.668  0.9467E+00  0.4434E+02
      1.724  0.7408E+00  0.4438E+02
      1.780  0.1785E+01  0.4448E+02
      1.836  0.2087E+01  0.4459E+02
      1.892  0.2206E+00  0.4461E+02
      1.948  0.2208E+01  0.4473E+02
      2.004  0.4734E+00  0.4476E+02
      2.059  0.1300E+01  0.4483E+02
      2.115  0.1399E+01  0.4491E+02
      2.171  0.6042E+00  0.4494E+02
      2.227  0.1506E+01  0.4502E+02
      2.283  0.1484E+01  0.4511E+02
      2.339  0.2586E+01  0.4525E+02
      2.395  0.4061E+00  0.4527E+02
      2.450  0.3980E+00  0.4530E+02
      2.506  0.1593E+01  0.4539E+02
      2.562  0.1793E+01  0.4549E+02
      2.618  0.1658E+01  0.4558E+02
      2.674  0.2019E+01  0.4569E+02
      2.730  0.1221E+00  0.4570E+02
      2.786  0.1183E-01  0.4570E+02
      2.842  0.1963E+01  0.4581E+02
      2.897  0.5520E+00  0.4584E+02
      2.953  0.9538E+00  0.4589E+02
      3.009  0.3879E+00  0.4591E+02
      3.065  0.2051E+01  0.4603E+02
      3.121  0.2601E+01  0.4617E+02
      3.177  0.4833E+00  0.4620E+02
      3.233  0.2920E+01  0.4636E+02
      3.288  0.7539E+00  0.4641E+02
      3.344  0.1496E+01  0.4649E+02
      3.400  0.5986E-01  0.4649E+02
      3.456  0.1592E+01  0.4658E+02
      3.512  0.6445E+00  0.4662E+02
      3.568  0.2365E+00  0.4663E+02
      3.624  0.3386E+00  0.4665E+02
      3.679  0.3179E+01  0.4683E+02
      3.735  0.1053E+01  0.4689E+02
      3.791  0.9878E+00  0.4694E+02
      3.847  0.7514E+00  0.4698E+02
      3.903  0.1378E+01  0.4706E+02
      3.959  0.2716E+01  0.4721E+02
      4.015  0.2165E+01  0.4733E+02
      4.070  0.2051E+01  0.4745E+02
      4.126  0.1132E+01  0.4751E+02
      4.182  0.1405E+01  0.4759E+02
      4.238  0.1088E+01  0.4765E+02
      4.294  0.1900E+01  0.4776E+02
      4.350  0.2284E+01  0.4788E+02
      4.406  0.1285E+01  0.4796E+02
      4.462  0.1039E+01  0.4801E+02
      4.517  0.1434E+01  0.4809E+02
      4.573  0.8894E+00  0.4814E+02
      4.629  0.1610E+01  0.4823E+02
      4.685  0.9952E+00  0.4829E+02
      4.741  0.1483E+01  0.4837E+02
      4.797  0.1289E+01  0.4844E+02
      4.853  0.3291E+01  0.4863E+02
      4.908  0.1574E+01  0.4872E+02
      4.964  0.6787E+00  0.4875E+02
      5.020  0.2907E+01  0.4892E+02
      5.076  0.7113E+00  0.4896E+02
      5.132  0.8597E+00  0.4900E+02
      5.188  0.3522E+00  0.4902E+02
      5.244  0.7448E+00  0.4907E+02
      5.299  0.2616E+01  0.4921E+02
      5.355  0.1525E+01  0.4930E+02
      5.411  0.2485E+01  0.4944E+02
      5.467  0.5964E+00  0.4947E+02
      5.523  0.4341E+00  0.4949E+02
      5.579  0.1507E+01  0.4958E+02
      5.635  0.1867E+01  0.4968E+02
      5.691  0.1541E+01  0.4977E+02
      5.746  0.1052E+01  0.4983E+02
      5.802  0.1468E+00  0.4983E+02
      5.858  0.2542E+01  0.4998E+02
      5.914  0.2055E+01  0.5009E+02
      5.970  0.2283E+00  0.5010E+02
      6.026  0.9732E+00  0.5016E+02
      6.082  0.3005E+01  0.5033E+02
      6.137  0.4973E+00  0.5035E+02
      6.193  0.2179E+01  0.5048E+02
      6.249  0.1983E+01  0.5059E+02
      6.305  0.1703E+01  0.5068E+02
      6.361  0.7446E+00  0.5072E+02
      6.417  0.3656E+01  0.5093E+02
      6.473  0.7376E+00  0.5097E+02
      6.528  0.2335E+01  0.5110E+02
      6.584  0.5296E+00  0.5113E+02
      6.640  0.9875E+00  0.5118E+02
      6.696  0.3292E+00  0.5120E+02
      6.752  0.1353E+01  0.5128E+02
      6.808  0.1897E+01  0.5138E+02
      6.864  0.2739E+01  0.5154E+02
      6.919  0.3210E+01  0.5172E+02
      6.975  0.1855E+01  0.5182E+02
      7.031  0.1442E+01  0.5190E+02
      7.087  0.2707E+01  0.5205E+02
      7.143  0.2470E+01  0.5219E+02
      7.199  0.9543E+00  0.5224E+02
      7.255  0.1901E+01  0.5235E+02
      7.311  0.3127E+01  0.5252E+02
      7.366  0.3542E+00  0.5254E+02
      7.422  0.9458E+00  0.5260E+02
      7.478  0.4487E+00  0.5262E+02
      7.534  0.1549E+01  0.5271E+02
      7.590  0.1485E+01  0.5279E+02
      7.646  0.1655E+01  0.5288E+02
      7.702  0.2245E+01  0.5301E+02
      7.757  0.2703E+01  0.5316E+02
      7.813  0.3394E+01  0.5335E+02
      7.869  0.5890E+00  0.5338E+02
      7.925  0.2139E+01  0.5350E+02
      7.981  0.1037E+01  0.5356E+02
      8.037  0.3507E+01  0.5376E+02
      8.093  0.2011E+01  0.5387E+02
      8.148  0.3531E+01  0.5407E+02
      8.204  0.1780E+01  0.5416E+02
      8.260  0.1236E+01  0.5423E+02
      8.316  0.7735E+00  0.5428E+02
      8.372  0.1981E+01  0.5439E+02
      8.428  0.3413E+01  0.5458E+02
      8.484  0.6740E-01  0.5458E+02
      8.540  0.4980E+00  0.5461E+02
      8.595  0.9937E+00  0.5467E+02
      8.651  0.1369E+01  0.5474E+02
      8.707  0.6200E+00  0.5478E+02
      8.763  0.1944E+01  0.5489E+02
      8.819  0.3529E+01  0.5508E+02
      8.875  0.3144E+01  0.5526E+02
      8.931  0.5705E+00  0.5529E+02
      8.986  0.4801E+00  0.5532E+02
      9.042  0.2063E+01  0.5543E+02
      9.098  0.1046E+01  0.5549E+02
      9.154  0.3938E+00  0.5551E+02
      9.210  0.1415E+01  0.5559E+02
      9.266  0.4977E+00  0.5562E+02
      9.322  0.1536E+01  0.5571E+02
      9.377  0.1909E+01  0.5581E+02
      9.433  0.3523E-01  0.5581E+02
      9.489  0.0000E+00  0.5581E+02
      9.545  0.1846E-04  0.5581E+02
      9.601  0.9927E+00  0.5587E+02
      9.657  0.5229E+00  0.5590E+02
      9.713  0.1201E+01  0.5597E+02
      9.769  0.1832E+00  0.5598E+02
      9.824  0.1247E+00  0.5598E+02
      9.880  0.0000E+00  0.5598E+02
      9.936  0.0000E+00  0.5598E+02
      9.992  0.0000E+00  0.5598E+02
     10.048  0.0000E+00  0.5598E+02
     10.104  0.0000E+00  0.5598E+02
     10.160  0.0000E+00  0.5598E+02
     10.215  0.0000E+00  0.5598E+02
     10.271  0.0000E+00  0.5598E+02
     10.327  0.0000E+00  0.5598E+02
     10.383  0.2010E-09  0.5598E+02
     10.439  0.1214E+00  0.5599E+02
     10.495  0.4292E-02  0.5599E+02
     10.551  0.1644E+00  0.5600E+02
     10.606  0.0000E+00  0.5600E+02
     10.662  0.4215E-04  0.5600E+02
     10.718  0.2068E-01  0.5600E+02
     10.774  0.0000E+00  0.5600E+02
     10.830  0.0000E+00  0.5600E+02
     10.886  0.0000E+00  0.5600E+02
     10.942  0.0000E+00  0.5600E+02
     10.997  0.0000E+00  0.5600E+02
     11.053  0.0000E+00  0.5600E+02
     11.109  0.0000E+00  0.5600E+02
     11.165  0.0000E+00  0.5600E+02
     11.221  0.0000E+00  0.5600E+02
     11.277  0.0000E+00  0.5600E+02
     11.333  0.0000E+00  0.5600E+02
     11.389  0.0000E+00  0.5600E+02
     11.444  0.0000E+00  0.5600E+02
