    4    4    1    1
  0.2272484E+02  0.4496283E-09  0.4496283E-09  0.4496283E-09  0.5000000E-15
  1.000000000000000E-004
  CAR 
 unknown system                          
   44   84   28
 
  0.0000000E+00  0.0000000E+00  0.0000000E+00  0.5787037E-03
   1       -4.5527
   2       -3.6008
   3       -3.6008
   4       -3.6008
   5       -3.5492
   6       -3.5492
   7       -3.5492
   8       -2.6544
   9       -2.6544
  10       -2.6544
  11       -2.0402
  12       -2.0402
  13       -1.5841
  14       -1.5841
  15       -1.5841
  16       -1.4387
  17       -1.4387
  18       -1.4387
  19       -1.4387
  20       -1.4387
  21       -1.4387
  22        3.2047
  23        3.2047
  24        3.2047
  25        6.1575
  26        6.1575
  27        6.1575
  28       10.6826
 
  0.8333333E-01  0.0000000E+00  0.0000000E+00  0.3472222E-02
   1       -4.4947
   2       -3.5812
   3       -3.5758
   4       -3.5758
   5       -3.5349
   6       -3.5268
   7       -3.5268
   8       -2.6708
   9       -2.6379
  10       -2.6379
  11       -2.0563
  12       -2.0327
  13       -1.6053
  14       -1.6053
  15       -1.5921
  16       -1.5065
  17       -1.5065
  18       -1.4652
  19       -1.4652
  20       -1.4387
  21       -1.4387
  22        2.6887
  23        3.3251
  24        3.3251
  25        6.1733
  26        6.1733
  27        6.7745
  28       10.4249
 
  0.1666667E+00  0.0000000E+00  0.0000000E+00  0.3472222E-02
   1       -4.3235
   2       -3.5249
   3       -3.5041
   4       -3.5041
   5       -3.4931
   6       -3.4600
   7       -3.4600
   8       -2.7186
   9       -2.5887
  10       -2.5887
  11       -2.1009
  12       -2.0106
  13       -1.6893
  14       -1.6893
  15       -1.6668
  16       -1.6668
  17       -1.6156
  18       -1.5411
  19       -1.5411
  20       -1.4386
  21       -1.4386
  22        1.7019
  23        3.6654
  24        3.6654
  25        6.2208
  26        6.2208
  27        8.0652
  28        9.7855
 
  0.2500000E+00  0.0000000E+00  0.0000000E+00  0.3472222E-02
   1       -4.0499
   2       -3.4388
   3       -3.4259
   4       -3.3964
   5       -3.3964
   6       -3.3491
   7       -3.3491
   8       -2.7939
   9       -2.5085
  10       -2.5085
  11       -2.1599
  12       -1.9754
  13       -1.9429
  14       -1.9429
  15       -1.7607
  16       -1.7607
  17       -1.6573
  18       -1.6573
  19       -1.6529
  20       -1.4385
  21       -1.4385
  22        0.6738
  23        4.1794
  24        4.1794
  25        6.2999
  26        6.2999
  27        8.9711
  28        8.9711
 
  0.3333333E+00  0.0000000E+00  0.0000000E+00  0.3472222E-02
   1       -3.7057
   2       -3.3373
   3       -3.3368
   4       -3.2728
   5       -3.2728
   6       -3.1953
   7       -3.1953
   8       -2.8906
   9       -2.4002
  10       -2.4002
  11       -2.2253
  12       -2.2253
  13       -2.1969
  14       -1.9291
  15       -1.8708
  16       -1.8708
  17       -1.8011
  18       -1.8011
  19       -1.7011
  20       -1.4384
  21       -1.4384
  22       -0.2817
  23        4.8220
  24        4.8220
  25        6.4041
  26        6.4041
  27        8.0965
  28        8.0965
 
  0.4166667E+00  0.0000000E+00  0.0000000E+00  0.3472222E-02
   1       -3.3807
   2       -3.2459
   3       -3.2325
   4       -3.1669
   5       -3.1669
   6       -3.0014
   7       -3.0007
   8       -3.0007
   9       -2.5069
  10       -2.5069
  11       -2.2679
  12       -2.2679
  13       -2.1158
  14       -1.9670
  15       -1.9670
  16       -1.9589
  17       -1.9589
  18       -1.8749
  19       -1.7569
  20       -1.4382
  21       -1.4382
  22       -1.1136
  23        5.5586
  24        5.5586
  25        6.5083
  26        6.5083
  27        7.2173
  28        7.2173
 
  0.5000000E+00  0.0000000E+00  0.0000000E+00  0.1736111E-02
   1       -3.2257
   2       -3.2257
   3       -3.1232
   4       -3.1232
   5       -3.1180
   6       -3.1180
   7       -2.7691
   8       -2.7691
   9       -2.7691
  10       -2.7691
  11       -2.1180
  12       -2.1180
  13       -2.1180
  14       -2.1180
  15       -2.0071
  16       -2.0071
  17       -1.8161
  18       -1.8161
  19       -1.7585
  20       -1.7585
  21       -1.4382
  22       -1.4382
  23        6.3641
  24        6.3641
  25        6.3641
  26        6.3641
  27        6.5566
  28        6.5566
 
  0.8333333E-01  0.8333333E-01  0.0000000E+00  0.6944444E-02
   1       -4.4375
   2       -3.5585
   3       -3.5561
   4       -3.5561
   5       -3.5129
   6       -3.5129
   7       -3.4978
   8       -2.6760
   9       -2.6322
  10       -2.6223
  11       -2.0604
  12       -2.0357
  13       -1.6257
  14       -1.6229
  15       -1.6229
  16       -1.5524
  17       -1.5233
  18       -1.5233
  19       -1.4652
  20       -1.4652
  21       -1.4574
  22        2.7997
  23        2.7997
  24        3.4426
  25        6.1883
  26        6.7983
  27        6.7983
  28        9.6652
 
  0.1666667E+00  0.8333333E-01  0.0000000E+00  0.1388889E-01
   1       -4.2687
   2       -3.5033
   3       -3.4993
   4       -3.4841
   5       -3.4719
   6       -3.4470
   7       -3.4172
   8       -2.7173
   9       -2.5883
  10       -2.5763
  11       -2.0988
  12       -2.0149
  13       -1.7539
  14       -1.7185
  15       -1.6850
  16       -1.6810
  17       -1.6355
  18       -1.5649
  19       -1.5414
  20       -1.4666
  21       -1.4654
  22        1.8075
  23        3.1095
  24        3.7757
  25        6.2317
  26        6.8694
  27        8.0890
  28        8.8105
 
  0.2500000E+00  0.8333333E-01  0.0000000E+00  0.1388889E-01
   1       -3.9999
   2       -3.4123
   3       -3.4101
   4       -3.4062
   5       -3.3757
   6       -3.3376
   7       -3.2966
   8       -2.7895
   9       -2.5093
  10       -2.5048
  11       -2.1504
  12       -1.9914
  13       -1.9750
  14       -1.9615
  15       -1.7836
  16       -1.7757
  17       -1.7423
  18       -1.6579
  19       -1.6175
  20       -1.4683
  21       -1.4657
  22        0.7813
  23        3.5682
  24        4.2814
  25        6.2922
  26        6.9829
  27        7.9858
  28        9.0512
 
  0.3333333E+00  0.8333333E-01  0.0000000E+00  0.1388889E-01
   1       -3.6628
   2       -3.3195
   3       -3.3088
   4       -3.2876
   5       -3.2513
   6       -3.1861
   7       -3.1481
   8       -2.8835
   9       -2.4281
  10       -2.4013
  11       -2.2629
  12       -2.2354
  13       -2.1589
  14       -1.9212
  15       -1.9206
  16       -1.8821
  17       -1.8579
  18       -1.8020
  19       -1.6773
  20       -1.4683
  21       -1.4661
  22       -0.1667
  23        4.1266
  24        4.9164
  25        6.3008
  26        7.1126
  27        7.3020
  28        8.1759
 
  0.4166667E+00  0.8333333E-01  0.0000000E+00  0.1388889E-01
   1       -3.3449
   2       -3.2170
   3       -3.2156
   4       -3.1661
   5       -3.1455
   6       -2.9946
   7       -2.9914
   8       -2.9779
   9       -2.5311
  10       -2.5102
  11       -2.3649
  12       -2.2692
  13       -2.0804
  14       -2.0233
  15       -1.9738
  16       -1.9602
  17       -1.9601
  18       -1.8474
  19       -1.7447
  20       -1.4679
  21       -1.4666
  22       -0.9836
  23        4.7461
  24        5.6469
  25        5.9942
  26        7.0255
  27        7.1764
  28        7.2980
 
  0.5000000E+00  0.8333333E-01  0.0000000E+00  0.6944444E-02
   1       -3.1928
   2       -3.1928
   3       -3.1070
   4       -3.1070
   5       -3.1052
   6       -3.1052
   7       -2.7738
   8       -2.7738
   9       -2.7671
  10       -2.7671
  11       -2.2446
  12       -2.2446
  13       -2.1194
  14       -2.1194
  15       -2.0076
  16       -2.0076
  17       -1.8267
  18       -1.8267
  19       -1.5991
  20       -1.5991
  21       -1.4672
  22       -1.4672
  23        5.3925
  24        5.3925
  25        6.4478
  26        6.4478
  27        7.1004
  28        7.1004
 
  0.1666667E+00  0.1666667E+00  0.0000000E+00  0.6944444E-02
   1       -4.1080
   2       -3.4717
   3       -3.4259
   4       -3.4259
   5       -3.4087
   6       -3.4087
   7       -3.3216
   8       -2.7324
   9       -2.5672
  10       -2.5404
  11       -2.1140
  12       -2.0015
  13       -1.8588
  14       -1.8588
  15       -1.8289
  16       -1.7380
  17       -1.6278
  18       -1.6278
  19       -1.5422
  20       -1.5422
  21       -1.5128
  22        2.0988
  23        2.0988
  24        4.0911
  25        6.2497
  26        7.8568
  27        8.1499
  28        8.1499
 
  0.2500000E+00  0.1666667E+00  0.0000000E+00  0.1388889E-01
   1       -3.8543
   2       -3.3996
   3       -3.3473
   4       -3.3364
   5       -3.3155
   6       -3.3040
   7       -3.1933
   8       -2.7851
   9       -2.5022
  10       -2.4902
  11       -2.1497
  12       -2.0986
  13       -2.0263
  14       -1.9892
  15       -1.9451
  16       -1.8200
  17       -1.7231
  18       -1.6596
  19       -1.6506
  20       -1.5436
  21       -1.5372
  22        1.0721
  23        2.5253
  24        4.5756
  25        6.1636
  26        7.1186
  27        8.1927
  28        9.2869
 
  0.3333333E+00  0.1666667E+00  0.0000000E+00  0.1388889E-01
   1       -3.5408
   2       -3.2910
   3       -3.2666
   4       -3.2285
   5       -3.1887
   6       -3.1592
   7       -3.0496
   8       -2.8662
   9       -2.4633
  10       -2.4002
  11       -2.3544
  12       -2.2693
  13       -2.1380
  14       -2.1346
  15       -1.9161
  16       -1.8471
  17       -1.8391
  18       -1.8045
  19       -1.7007
  20       -1.5461
  21       -1.5453
  22        0.1322
  23        3.0449
  24        5.1907
  25        5.6720
  26        6.9213
  27        8.0674
  28        8.4094
 
  0.4166667E+00  0.1666667E+00  0.0000000E+00  0.1388889E-01
   1       -3.2458
   2       -3.1714
   3       -3.1611
   4       -3.1285
   5       -3.0836
   6       -2.9771
   7       -2.9636
   8       -2.9124
   9       -2.5921
  10       -2.5218
  11       -2.4752
  12       -2.2949
  13       -2.2708
  14       -2.0164
  15       -1.9959
  16       -1.9629
  17       -1.9503
  18       -1.7755
  19       -1.6673
  20       -1.5486
  21       -1.5470
  22       -0.6731
  23        3.6328
  24        4.9698
  25        5.9047
  26        7.0801
  27        7.5351
  28        7.7351
 
  0.5000000E+00  0.1666667E+00  0.0000000E+00  0.6944444E-02
   1       -3.0995
   2       -3.0995
   3       -3.0680
   4       -3.0680
   5       -3.0646
   6       -3.0646
   7       -2.7787
   8       -2.7787
   9       -2.7620
  10       -2.7620
  11       -2.4293
  12       -2.4293
  13       -2.1220
  14       -2.1220
  15       -2.0140
  16       -2.0140
  17       -1.8782
  18       -1.8782
  19       -1.5484
  20       -1.5484
  21       -1.2913
  22       -1.2913
  23        4.2774
  24        4.2774
  25        6.6931
  26        6.6931
  27        7.3724
  28        7.3724
 
  0.2500000E+00  0.2500000E+00  0.0000000E+00  0.6944444E-02
   1       -3.6299
   2       -3.3509
   3       -3.2502
   4       -3.2502
   5       -3.2218
   6       -3.2218
   7       -3.0631
   8       -2.8022
   9       -2.4651
  10       -2.4644
  11       -2.2307
  12       -2.2307
  13       -2.1822
  14       -2.1539
  15       -1.8895
  16       -1.8450
  17       -1.7315
  18       -1.7315
  19       -1.6621
  20       -1.6621
  21       -1.6023
  22        1.4900
  23        1.4900
  24        5.0334
  25        5.5584
  26        6.8683
  27        9.2331
  28        9.2331
 
  0.3333333E+00  0.2500000E+00  0.0000000E+00  0.1388889E-01
   1       -3.3622
   2       -3.2645
   3       -3.1799
   4       -3.1168
   5       -3.1065
   6       -3.0899
   7       -2.9252
   8       -2.8517
   9       -2.4696
  10       -2.4674
  11       -2.3830
  12       -2.3726
  13       -2.3373
  14       -2.1828
  15       -1.9721
  16       -1.8419
  17       -1.8076
  18       -1.7741
  19       -1.6674
  20       -1.6648
  21       -1.6413
  22        0.5474
  23        1.9969
  24        4.7359
  25        5.6225
  26        6.9953
  27        8.6674
  28        8.7842
 
  0.4166667E+00  0.2500000E+00  0.0000000E+00  0.1388889E-01
   1       -3.1456
   2       -3.1122
   3       -3.0979
   4       -2.9955
   5       -2.9876
   6       -2.9505
   7       -2.9251
   8       -2.8125
   9       -2.6672
  10       -2.5473
  11       -2.5334
  12       -2.5078
  13       -2.2650
  14       -2.0905
  15       -2.0378
  16       -1.9655
  17       -1.9577
  18       -1.8517
  19       -1.6666
  20       -1.6593
  21       -1.3773
  22       -0.2658
  23        2.5763
  24        3.9457
  25        6.3141
  26        7.2615
  27        7.9150
  28        8.1088
 
  0.5000000E+00  0.2500000E+00  0.0000000E+00  0.6944444E-02
   1       -3.0178
   2       -3.0178
   3       -3.0104
   4       -3.0104
   5       -2.9665
   6       -2.9665
   7       -2.7573
   8       -2.7573
   9       -2.7562
  10       -2.7562
  11       -2.5808
  12       -2.5808
  13       -2.1220
  14       -2.1220
  15       -2.0375
  16       -2.0375
  17       -1.9622
  18       -1.9622
  19       -1.6658
  20       -1.6658
  21       -0.9161
  22       -0.9161
  23        3.2250
  24        3.2250
  25        7.0850
  26        7.0850
  27        7.6345
  28        7.6345
 
  0.3333333E+00  0.3333333E+00  0.0000000E+00  0.6944444E-02
   1       -3.2053
   2       -3.1668
   3       -3.0623
   4       -3.0623
   5       -2.9643
   6       -2.9643
   7       -2.8567
   8       -2.7938
   9       -2.5899
  10       -2.5899
  11       -2.4518
  12       -2.4479
  13       -2.3320
  14       -2.2408
  15       -2.0430
  16       -1.8801
  17       -1.8801
  18       -1.8098
  19       -1.8098
  20       -1.7215
  21       -1.3939
  22        1.0454
  23        1.0454
  24        3.8285
  25        6.1849
  26        7.2146
  27        9.1623
  28        9.1623
 
  0.4166667E+00  0.3333333E+00  0.0000000E+00  0.1388889E-01
   1       -3.1127
   2       -3.0011
   3       -2.9960
   4       -2.9190
   5       -2.8883
   6       -2.8776
   7       -2.8354
   8       -2.7269
   9       -2.6950
  10       -2.6926
  11       -2.5948
  12       -2.5137
  13       -2.2394
  14       -2.1933
  15       -2.1007
  16       -1.9979
  17       -1.9641
  18       -1.9581
  19       -1.8082
  20       -1.7724
  21       -1.0055
  22        0.2161
  23        1.6178
  24        3.0036
  25        6.8524
  26        7.5395
  27        8.4198
  28        8.5116
 
  0.5000000E+00  0.3333333E+00  0.0000000E+00  0.6944444E-02
   1       -2.9893
   2       -2.9893
   3       -2.9400
   4       -2.9400
   5       -2.8630
   6       -2.8630
   7       -2.7585
   8       -2.7585
   9       -2.6805
  10       -2.6805
  11       -2.6411
  12       -2.6411
  13       -2.1122
  14       -2.1122
  15       -2.0892
  16       -2.0892
  17       -2.0715
  18       -2.0715
  19       -1.7981
  20       -1.7981
  21       -0.4716
  22       -0.4716
  23        2.2682
  24        2.2682
  25        7.6036
  26        7.6036
  27        7.9704
  28        7.9704
 
  0.4166667E+00  0.4166667E+00  0.0000000E+00  0.6944444E-02
   1       -3.0558
   2       -2.9300
   3       -2.8889
   4       -2.8889
   5       -2.8671
   6       -2.8496
   7       -2.8496
   8       -2.6759
   9       -2.6759
  10       -2.6712
  11       -2.5846
  12       -2.4608
  13       -2.2670
  14       -2.1801
  15       -2.1678
  16       -2.0776
  17       -2.0776
  18       -1.9528
  19       -1.9528
  20       -1.8638
  21       -0.5341
  22        0.7745
  23        0.7745
  24        2.1608
  25        7.4972
  26        7.9169
  27        8.9964
  28        8.9986
 
  0.5000000E+00  0.4166667E+00  0.0000000E+00  0.6944444E-02
   1       -2.9693
   2       -2.9693
   3       -2.8881
   4       -2.8881
   5       -2.8686
   6       -2.8686
   7       -2.7737
   8       -2.7737
   9       -2.5674
  10       -2.5674
  11       -2.5439
  12       -2.5439
  13       -2.1892
  14       -2.1892
  15       -2.1708
  16       -2.1708
  17       -2.0820
  18       -2.0820
  19       -1.9226
  20       -1.9226
  21        0.0563
  22        0.0563
  23        1.4195
  24        1.4195
  25        8.2288
  26        8.2288
  27        8.4006
  28        8.4006
 
  0.5000000E+00  0.5000000E+00  0.0000000E+00  0.1736111E-02
   1       -2.9374
   2       -2.9374
   3       -2.9374
   4       -2.9374
   5       -2.8101
   6       -2.8101
   7       -2.8101
   8       -2.8101
   9       -2.4800
  10       -2.4800
  11       -2.4800
  12       -2.4800
  13       -2.2446
  14       -2.2446
  15       -2.2446
  16       -2.2446
  17       -2.0202
  18       -2.0202
  19       -2.0202
  20       -2.0202
  21        0.6832
  22        0.6832
  23        0.6832
  24        0.6832
  25        8.9345
  26        8.9345
  27        8.9345
  28        8.9345
 
  0.8333333E-01  0.8333333E-01  0.8333333E-01  0.4629630E-02
   1       -4.3812
   2       -3.5400
   3       -3.5400
   4       -3.5400
   5       -3.4829
   6       -3.4829
   7       -3.4829
   8       -2.6781
   9       -2.6182
  10       -2.6182
  11       -2.0509
  12       -2.0509
  13       -1.6443
  14       -1.6443
  15       -1.6443
  16       -1.5804
  17       -1.5804
  18       -1.5804
  19       -1.4716
  20       -1.4716
  21       -1.4716
  22        2.9072
  23        2.9072
  24        2.9072
  25        6.8202
  26        6.8202
  27        6.8202
  28        9.7515
 
  0.1666667E+00  0.8333333E-01  0.8333333E-01  0.1388889E-01
   1       -4.2156
   2       -3.4879
   3       -3.4865
   4       -3.4865
   5       -3.4378
   6       -3.4014
   7       -3.4014
   8       -2.7120
   9       -2.5786
  10       -2.5766
  11       -2.0916
  12       -2.0231
  13       -1.7694
  14       -1.7694
  15       -1.7000
  16       -1.6798
  17       -1.6798
  18       -1.6613
  19       -1.5101
  20       -1.4799
  21       -1.4799
  22        1.9088
  23        3.2089
  24        3.2089
  25        6.8803
  26        6.8803
  27        8.1036
  28        8.9055
 
  0.2500000E+00  0.8333333E-01  0.8333333E-01  0.1388889E-01
   1       -3.9530
   2       -3.4129
   3       -3.3943
   4       -3.3943
   5       -3.3610
   6       -3.2810
   7       -3.2810
   8       -2.7792
   9       -2.5086
  10       -2.5061
  11       -2.1361
  12       -2.0049
  13       -2.0049
  14       -1.9787
  15       -1.7908
  16       -1.7864
  17       -1.7701
  18       -1.7701
  19       -1.5653
  20       -1.4857
  21       -1.4857
  22        0.8824
  23        3.6583
  24        3.6583
  25        6.9372
  26        6.9372
  27        8.1325
  28        8.1325
 
  0.3333333E+00  0.8333333E-01  0.8333333E-01  0.1388889E-01
   1       -3.6265
   2       -3.3259
   3       -3.2715
   4       -3.2715
   5       -3.2587
   6       -3.1353
   7       -3.1353
   8       -2.8674
   9       -2.4408
  10       -2.4164
  11       -2.2694
  12       -2.2694
  13       -2.1156
  14       -1.9446
  15       -1.9206
  16       -1.9084
  17       -1.8766
  18       -1.8766
  19       -1.6311
  20       -1.4890
  21       -1.4890
  22       -0.0634
  23        4.2085
  24        4.2085
  25        6.7572
  26        6.7572
  27        7.7064
  28        7.7064
 
  0.4166667E+00  0.8333333E-01  0.8333333E-01  0.1388889E-01
   1       -3.3239
   2       -3.2371
   3       -3.1522
   4       -3.1474
   5       -3.1474
   6       -2.9742
   7       -2.9742
   8       -2.9663
   9       -2.5280
  10       -2.5280
  11       -2.4037
  12       -2.3036
  13       -2.1232
  14       -2.0408
  15       -1.9722
  16       -1.9722
  17       -1.9235
  18       -1.8525
  19       -1.7035
  20       -1.4905
  21       -1.4905
  22       -0.8792
  23        4.8208
  24        4.8208
  25        6.1815
  26        6.1815
  27        7.7715
  28        7.7715
 
  0.5000000E+00  0.8333333E-01  0.8333333E-01  0.6944444E-02
   1       -3.1929
   2       -3.1929
   3       -3.0907
   4       -3.0907
   5       -3.0613
   6       -3.0613
   7       -2.8255
   8       -2.8255
   9       -2.7168
  10       -2.7168
  11       -2.2979
  12       -2.2979
  13       -2.1759
  14       -2.1759
  15       -2.0129
  16       -2.0129
  17       -1.7787
  18       -1.7787
  19       -1.5144
  20       -1.5144
  21       -1.4910
  22       -1.4910
  23        5.3596
  24        5.3596
  25        5.6290
  26        5.6290
  27        7.8813
  28        7.8813
 
  0.1666667E+00  0.1666667E+00  0.8333333E-01  0.1388889E-01
   1       -4.0604
   2       -3.4574
   3       -3.4397
   4       -3.4397
   5       -3.3530
   6       -3.3530
   7       -3.3046
   8       -2.7158
   9       -2.5622
  10       -2.5451
  11       -2.0972
  12       -2.0153
  13       -1.8687
  14       -1.8687
  15       -1.8569
  16       -1.7708
  17       -1.7180
  18       -1.7180
  19       -1.5133
  20       -1.5133
  21       -1.5077
  22        2.1906
  23        2.1906
  24        3.4907
  25        6.8646
  26        8.0162
  27        8.1015
  28        8.1015
 
  0.2500000E+00  0.1666667E+00  0.8333333E-01  0.2777778E-01
   1       -3.8183
   2       -3.3875
   3       -3.3727
   4       -3.3514
   5       -3.2711
   6       -3.2325
   7       -3.1768
   8       -2.7564
   9       -2.5070
  10       -2.4953
  11       -2.1239
  12       -2.1059
  13       -2.0564
  14       -1.9974
  15       -1.9581
  16       -1.8444
  17       -1.8082
  18       -1.7845
  19       -1.5594
  20       -1.5319
  21       -1.5303
  22        1.1598
  23        2.6071
  24        3.9164
  25        6.5259
  26        7.5842
  27        7.8092
  28        8.8091
 
  0.3333333E+00  0.1666667E+00  0.8333333E-01  0.2777778E-01
   1       -3.5268
   2       -3.2953
   3       -3.2805
   4       -3.2291
   5       -3.1622
   6       -3.0939
   7       -3.0370
   8       -2.8220
   9       -2.4693
  10       -2.4257
  11       -2.3529
  12       -2.2924
  13       -2.1471
  14       -2.0778
  15       -1.9325
  16       -1.9309
  17       -1.8792
  18       -1.8628
  19       -1.6199
  20       -1.5474
  21       -1.5446
  22        0.2145
  23        3.1190
  24        4.4451
  25        5.8104
  26        7.1387
  27        7.6899
  28        8.8372
 
  0.4166667E+00  0.1666667E+00  0.8333333E-01  0.2777778E-01
   1       -3.2717
   2       -3.2187
   3       -3.1494
   4       -3.0958
   5       -3.0454
   6       -2.9633
   7       -2.9176
   8       -2.8906
   9       -2.5701
  10       -2.5205
  11       -2.4874
  12       -2.3244
  13       -2.3072
  14       -2.0699
  15       -2.0094
  16       -1.9774
  17       -1.9228
  18       -1.6966
  19       -1.6746
  20       -1.5548
  21       -1.5530
  22       -0.6032
  23        3.7026
  24        4.9831
  25        5.1241
  26        6.4109
  27        7.9973
  28        8.7791
 
  0.5000000E+00  0.1666667E+00  0.8333333E-01  0.1388889E-01
   1       -3.1773
   2       -3.1773
   3       -3.0485
   4       -3.0485
   5       -2.9523
   6       -2.9523
   7       -2.8748
   8       -2.8748
   9       -2.6647
  10       -2.6647
  11       -2.4442
  12       -2.4442
  13       -2.2041
  14       -2.2041
  15       -2.0328
  16       -2.0328
  17       -1.7917
  18       -1.7917
  19       -1.5563
  20       -1.5563
  21       -1.2521
  22       -1.2521
  23        4.3468
  24        4.3468
  25        5.7128
  26        5.7128
  27        8.4036
  28        8.4036
 
  0.2500000E+00  0.2500000E+00  0.8333333E-01  0.1388889E-01
   1       -3.6165
   2       -3.3424
   3       -3.2922
   4       -3.2922
   5       -3.1487
   6       -3.1487
   7       -3.0485
   8       -2.7467
   9       -2.4815
  10       -2.4684
  11       -2.2330
  12       -2.2330
  13       -2.1721
  14       -2.1464
  15       -1.9312
  16       -1.8613
  17       -1.8487
  18       -1.8487
  19       -1.5872
  20       -1.5872
  21       -1.5811
  22        1.5652
  23        1.5652
  24        4.3128
  25        5.6820
  26        7.6298
  27        8.3370
  28        8.3370
 
  0.3333333E+00  0.2500000E+00  0.8333333E-01  0.2777778E-01
   1       -3.3909
   2       -3.2599
   3       -3.2274
   4       -3.1763
   5       -3.0341
   6       -3.0164
   7       -2.9190
   8       -2.7633
   9       -2.4666
  10       -2.4568
  11       -2.4221
  12       -2.3699
  13       -2.3422
  14       -2.1202
  15       -2.0097
  16       -1.9579
  17       -1.9187
  18       -1.6834
  19       -1.6542
  20       -1.6200
  21       -1.6196
  22        0.6133
  23        2.0631
  24        4.7911
  25        4.8367
  26        7.5195
  27        7.8841
  28        8.8539
 
  0.4166667E+00  0.2500000E+00  0.8333333E-01  0.2777778E-01
   1       -3.2109
   2       -3.1687
   3       -3.1444
   4       -3.0347
   5       -2.9370
   6       -2.9050
   7       -2.8390
   8       -2.7809
   9       -2.6097
  10       -2.5363
  11       -2.5105
  12       -2.5009
  13       -2.3334
  14       -2.0886
  15       -2.0712
  16       -2.0081
  17       -1.9946
  18       -1.7407
  19       -1.6421
  20       -1.6416
  21       -1.3799
  22       -0.2153
  23        2.6374
  24        4.0090
  25        5.3983
  26        6.7525
  27        8.2654
  28        9.3357
 
  0.5000000E+00  0.2500000E+00  0.8333333E-01  0.1388889E-01
   1       -3.1435
   2       -3.1435
   3       -3.0126
   4       -3.0126
   5       -2.8905
   6       -2.8905
   7       -2.8025
   8       -2.8025
   9       -2.6089
  10       -2.6089
  11       -2.5819
  12       -2.5819
  13       -2.2191
  14       -2.2191
  15       -2.0753
  16       -2.0753
  17       -1.8542
  18       -1.8542
  19       -1.6489
  20       -1.6489
  21       -0.8904
  22       -0.8904
  23        3.2850
  24        3.2850
  25        6.0453
  26        6.0453
  27        8.7575
  28        8.7575
 
  0.3333333E+00  0.3333333E+00  0.8333333E-01  0.1388889E-01
   1       -3.2575
   2       -3.2079
   3       -3.1289
   4       -3.1289
   5       -2.9022
   6       -2.9022
   7       -2.8081
   8       -2.7265
   9       -2.5599
  10       -2.5599
  11       -2.4273
  12       -2.4214
  13       -2.4041
  14       -2.1541
  15       -2.0906
  16       -2.0037
  17       -2.0037
  18       -1.7052
  19       -1.7052
  20       -1.6865
  21       -1.4048
  22        1.1012
  23        1.1012
  24        3.8883
  25        5.2915
  26        7.9924
  27        7.9924
  28        8.1997
 
  0.4166667E+00  0.3333333E+00  0.8333333E-01  0.2777778E-01
   1       -3.1570
   2       -3.1252
   3       -3.0990
   4       -3.0172
   5       -2.8681
   6       -2.7706
   7       -2.7640
   8       -2.7163
   9       -2.6446
  10       -2.6163
  11       -2.4903
  12       -2.4853
  13       -2.3366
  14       -2.1492
  15       -2.1174
  16       -2.0744
  17       -2.0711
  18       -1.8063
  19       -1.7438
  20       -1.7342
  21       -1.0028
  22        0.2575
  23        1.6687
  24        3.0564
  25        5.8545
  26        7.2052
  27        8.5618
  28        8.6290
 
  0.5000000E+00  0.3333333E+00  0.8333333E-01  0.1388889E-01
   1       -3.1036
   2       -3.1036
   3       -3.0223
   4       -3.0223
   5       -2.8464
   6       -2.8464
   7       -2.6992
   8       -2.6992
   9       -2.6151
  10       -2.6151
  11       -2.5410
  12       -2.5410
  13       -2.2352
  14       -2.2352
  15       -2.1433
  16       -2.1433
  17       -1.9318
  18       -1.9318
  19       -1.7543
  20       -1.7543
  21       -0.4490
  22       -0.4490
  23        2.3182
  24        2.3182
  25        6.4932
  26        6.4932
  27        9.1688
  28        9.1695
 
  0.4166667E+00  0.4166667E+00  0.8333333E-01  0.1388889E-01
   1       -3.1123
   2       -3.0883
   3       -3.0383
   4       -3.0383
   5       -2.7931
   6       -2.7931
   7       -2.7600
   8       -2.7194
   9       -2.5650
  10       -2.5650
  11       -2.4464
  12       -2.3819
  13       -2.3583
  14       -2.2217
  15       -2.1672
  16       -2.1672
  17       -2.0795
  18       -1.8577
  19       -1.8577
  20       -1.8145
  21       -0.5217
  22        0.8134
  23        0.8134
  24        2.2061
  25        6.4050
  26        7.7592
  27        7.7592
  28        9.1006
 
  0.5000000E+00  0.4166667E+00  0.8333333E-01  0.1388889E-01
   1       -3.0731
   2       -3.0731
   3       -3.0425
   4       -3.0425
   5       -2.7971
   6       -2.7971
   7       -2.7455
   8       -2.7455
   9       -2.4654
  10       -2.4654
  11       -2.4540
  12       -2.4540
  13       -2.2673
  14       -2.2673
  15       -2.2287
  16       -2.2287
  17       -1.9816
  18       -1.9816
  19       -1.8620
  20       -1.8620
  21        0.0817
  22        0.0817
  23        1.4600
  24        1.4600
  25        7.0406
  26        7.0406
  27        8.4068
  28        8.4068
 
  0.5000000E+00  0.5000000E+00  0.8333333E-01  0.3472222E-02
   1       -3.0567
   2       -3.0567
   3       -3.0567
   4       -3.0567
   5       -2.7694
   6       -2.7694
   7       -2.7694
   8       -2.7694
   9       -2.3739
  10       -2.3739
  11       -2.3739
  12       -2.3739
  13       -2.3095
  14       -2.3095
  15       -2.3095
  16       -2.3095
  17       -1.9525
  18       -1.9525
  19       -1.9525
  20       -1.9525
  21        0.7152
  22        0.7152
  23        0.7152
  24        0.7152
  25        7.6795
  26        7.6795
  27        7.6795
  28        7.6795
 
  0.1666667E+00  0.1666667E+00  0.1666667E+00  0.4629630E-02
   1       -3.9236
   2       -3.4180
   3       -3.4180
   4       -3.4180
   5       -3.2528
   6       -3.2528
   7       -3.2528
   8       -2.6797
   9       -2.5456
  10       -2.5456
  11       -2.0497
  12       -2.0497
  13       -1.9372
  14       -1.9372
  15       -1.9372
  16       -1.8524
  17       -1.8524
  18       -1.8524
  19       -1.5063
  20       -1.5063
  21       -1.5063
  22        2.4499
  23        2.4499
  24        2.4499
  25        7.6902
  26        7.6902
  27        7.6902
  28        8.7485
 
  0.2500000E+00  0.1666667E+00  0.1666667E+00  0.1388889E-01