   4   4   0   0
  0.1600069E+02  0.4000057E-09  0.4000057E-09  0.4000057E-09  0.5000000E-15
  1.000000000000000E-004
  CAR 
 unknown system                          
     20.65099787     -6.96040634  301      1.61610720      1.00000000
     -6.960  0.0000E+00  0.0000E+00
     -6.868  0.0000E+00  0.0000E+00
     -6.776  0.0000E+00  0.0000E+00
     -6.684  0.0000E+00  0.0000E+00
     -6.592  0.0000E+00  0.0000E+00
     -6.500  0.0000E+00  0.0000E+00
     -6.408  0.0000E+00  0.0000E+00
     -6.316  0.0000E+00  0.0000E+00
     -6.224  0.0000E+00  0.0000E+00
     -6.132  0.0000E+00  0.0000E+00
     -6.040  0.0000E+00  0.0000E+00
     -5.948  0.0000E+00  0.0000E+00
     -5.856  0.0000E+00  0.0000E+00
     -5.764  0.6981E-18  0.6425E-19
     -5.672  0.1258E-01  0.1157E-02
     -5.580  0.8592E-01  0.9066E-02
     -5.488  0.9815E-01  0.3102E-01
     -5.396  0.7546E-01  0.3820E-01
     -5.304  0.3901E+00  0.7410E-01
     -5.212  0.1065E-10  0.9375E-01
     -5.120  0.1520E+00  0.1077E+00
     -5.028  0.6111E+00  0.1640E+00
     -4.936  0.3018E+00  0.1979E+00
     -4.844  0.1476E+00  0.2115E+00
     -4.751  0.6025E+00  0.2904E+00
     -4.659  0.1770E-03  0.2905E+00
     -4.567  0.6295E+00  0.3485E+00
     -4.475  0.4528E+00  0.3947E+00
     -4.383  0.4776E+00  0.4386E+00
     -4.291  0.6037E+00  0.5058E+00
     -4.199  0.3017E+00  0.5336E+00
     -4.107  0.3018E+00  0.5613E+00
     -4.015  0.7123E+00  0.6269E+00
     -3.923  0.4024E+00  0.7164E+00
     -3.831  0.6539E+00  0.7766E+00
     -3.739  0.6036E+00  0.8553E+00
     -3.647  0.1118E+00  0.8656E+00
     -3.555  0.8781E+00  0.9500E+00
     -3.463  0.9026E+00  0.1036E+01
     -3.371  0.4263E+00  0.1075E+01
     -3.279  0.9054E+00  0.1182E+01
     -3.187  0.5738E+00  0.1235E+01
     -3.095  0.1361E+01  0.1363E+01
     -3.003  0.5303E-01  0.1409E+01
     -2.911  0.9067E+00  0.1515E+01
     -2.819  0.7020E+00  0.1580E+01
     -2.727  0.1296E+01  0.1699E+01
     -2.635  0.7532E+00  0.1795E+01
     -2.543  0.2106E+01  0.1989E+01
     -2.451  0.1499E+01  0.2128E+01
     -2.359  0.8984E+00  0.2211E+01
     -2.266  0.1213E+01  0.2325E+01
     -2.174  0.2604E+01  0.2590E+01
     -2.082  0.1626E+01  0.2795E+01
     -1.990  0.3964E+01  0.3181E+01
     -1.898  0.3046E+01  0.3513E+01
     -1.806  0.5119E+01  0.4016E+01
     -1.714  0.5213E+01  0.4600E+01
     -1.622  0.5228E+01  0.5213E+01
     -1.530  0.7128E+01  0.5914E+01
     -1.438  0.9940E+01  0.6988E+01
     -1.346  0.1051E+02  0.8194E+01
     -1.254  0.1204E+02  0.9432E+01
     -1.162  0.1049E+02  0.1060E+02
     -1.070  0.1156E+02  0.1187E+02
     -0.978  0.1161E+02  0.1313E+02
     -0.886  0.1468E+02  0.1481E+02
     -0.794  0.1764E+02  0.1664E+02
     -0.702  0.1780E+02  0.1877E+02
     -0.610  0.2126E+02  0.2116E+02
     -0.518  0.2350E+02  0.2380E+02
     -0.426  0.1479E+02  0.2557E+02
     -0.334  0.1354E+02  0.2707E+02
     -0.242  0.2011E+02  0.2913E+02
     -0.150  0.2066E+02  0.3142E+02
     -0.058  0.1848E+02  0.3342E+02
      0.034  0.1868E+02  0.3542E+02
      0.127  0.2509E+02  0.3800E+02
      0.219  0.2797E+02  0.4092E+02
      0.311  0.8733E+01  0.4195E+02
      0.403  0.9915E+00  0.4205E+02
      0.495  0.2872E+01  0.4231E+02
      0.587  0.1500E+01  0.4248E+02
      0.679  0.8947E+00  0.4256E+02
      0.771  0.2835E+01  0.4282E+02
      0.863  0.1265E+01  0.4296E+02
      0.955  0.6633E+00  0.4307E+02
      1.047  0.1440E+01  0.4323E+02
      1.139  0.8457E-01  0.4324E+02
      1.231  0.2138E+01  0.4349E+02
      1.323  0.1236E+01  0.4361E+02
      1.415  0.2030E+01  0.4382E+02
      1.507  0.6016E+00  0.4392E+02
      1.599  0.6354E+00  0.4398E+02
      1.691  0.3355E+00  0.4403E+02
      1.783  0.2462E+01  0.4429E+02
      1.875  0.9635E+00  0.4438E+02
      1.967  0.1251E+01  0.4457E+02
      2.059  0.1207E+01  0.4473E+02
      2.151  0.4366E-08  0.4473E+02
      2.243  0.1208E+01  0.4484E+02
      2.335  0.1822E+01  0.4501E+02
      2.427  0.8821E+00  0.4509E+02
      2.520  0.1208E+01  0.4522E+02
      2.612  0.1184E+01  0.4536E+02
      2.704  0.9152E+00  0.4544E+02
      2.796  0.2103E+01  0.4564E+02
      2.888  0.7662E+00  0.4571E+02
      2.980  0.7034E-03  0.4573E+02
      3.072  0.1810E+01  0.4589E+02
      3.164  0.5924E+00  0.4595E+02
      3.256  0.1362E+01  0.4607E+02
      3.348  0.1267E+01  0.4620E+02
      3.440  0.1571E+01  0.4635E+02
      3.532  0.1130E+01  0.4646E+02
      3.624  0.1511E+00  0.4653E+02
      3.716  0.9052E+00  0.4662E+02
      3.808  0.3022E+00  0.4665E+02
      3.900  0.1631E+01  0.4680E+02
      3.992  0.9054E+00  0.4688E+02
      4.084  0.5610E+00  0.4693E+02
      4.176  0.1392E+01  0.4707E+02
      4.268  0.1255E+01  0.4721E+02
      4.360  0.1233E+01  0.4735E+02
      4.452  0.1659E+01  0.4751E+02
      4.544  0.9052E+00  0.4759E+02
      4.636  0.1504E+01  0.4773E+02
      4.728  0.1553E+01  0.4788E+02
      4.820  0.9758E+00  0.4799E+02
      4.912  0.9882E+00  0.4810E+02
      5.005  0.3215E+00  0.4815E+02
      5.097  0.2006E+01  0.4834E+02
      5.189  0.1517E+01  0.4850E+02
      5.281  0.8646E+00  0.4861E+02
      5.373  0.2250E+01  0.4882E+02
      5.465  0.6370E+00  0.4888E+02
      5.557  0.9096E+00  0.4898E+02
      5.649  0.6992E+00  0.4905E+02
      5.741  0.1108E+01  0.4915E+02
      5.833  0.1808E+01  0.4933E+02
      5.925  0.1153E+01  0.4943E+02
      6.017  0.1494E+01  0.4959E+02
      6.109  0.6634E+00  0.4965E+02
      6.201  0.5753E+00  0.4975E+02
      6.293  0.4514E+00  0.4980E+02
      6.385  0.1812E+01  0.4997E+02
      6.477  0.6020E+00  0.5008E+02
      6.569  0.1255E+01  0.5019E+02
      6.661  0.8818E+00  0.5028E+02
      6.753  0.1225E+01  0.5040E+02
      6.845  0.1542E+01  0.5054E+02
      6.937  0.7673E+00  0.5062E+02
      7.029  0.9232E+00  0.5073E+02
      7.121  0.2455E+01  0.5096E+02
      7.213  0.6711E+00  0.5104E+02
      7.305  0.2993E+00  0.5112E+02
      7.398  0.4654E+00  0.5116E+02
      7.490  0.1832E+01  0.5133E+02
      7.582  0.2098E+01  0.5154E+02
      7.674  0.7659E+00  0.5162E+02
      7.766  0.3144E+01  0.5191E+02
      7.858  0.1059E+01  0.5202E+02
      7.950  0.1979E+01  0.5223E+02
      8.042  0.7899E+00  0.5235E+02
      8.134  0.1323E+01  0.5249E+02
      8.226  0.2091E+01  0.5269E+02
      8.318  0.1234E-01  0.5269E+02
      8.410  0.1642E+01  0.5284E+02
      8.502  0.1308E+01  0.5298E+02
      8.594  0.1846E+01  0.5315E+02
      8.686  0.7798E+00  0.5322E+02
      8.778  0.1752E+01  0.5341E+02
      8.870  0.2108E+01  0.5361E+02
      8.962  0.1737E+01  0.5381E+02
      9.054  0.9621E+00  0.5396E+02
      9.146  0.9803E+00  0.5408E+02
      9.238  0.1836E+01  0.5427E+02
      9.330  0.9114E+00  0.5441E+02
      9.422  0.1497E+01  0.5455E+02
      9.514  0.1620E+01  0.5470E+02
      9.606  0.1383E+01  0.5484E+02
      9.698  0.1865E+01  0.5504E+02
      9.791  0.1471E+01  0.5518E+02
      9.883  0.1237E+01  0.5533E+02
      9.975  0.1406E+01  0.5548E+02
     10.067  0.1644E+01  0.5566E+02
     10.159  0.1503E+01  0.5587E+02
     10.251  0.1672E+01  0.5602E+02
     10.343  0.1133E+01  0.5615E+02
     10.435  0.8712E+00  0.5624E+02
     10.527  0.1005E+01  0.5636E+02
     10.619  0.2475E+01  0.5659E+02
     10.711  0.6034E+00  0.5670E+02
     10.803  0.1521E+01  0.5684E+02
     10.895  0.2690E+01  0.5709E+02
     10.987  0.1194E+01  0.5721E+02
     11.079  0.2019E+01  0.5739E+02
     11.171  0.2322E+01  0.5767E+02
     11.263  0.1204E+01  0.5779E+02
     11.355  0.2422E+01  0.5801E+02
     11.447  0.8894E+00  0.5811E+02
     11.539  0.2387E+01  0.5834E+02
     11.631  0.2987E+00  0.5837E+02
     11.723  0.1605E+01  0.5852E+02
     11.815  0.2261E+01  0.5880E+02
     11.907  0.2517E+01  0.5905E+02
     11.999  0.1610E+01  0.5921E+02
     12.091  0.1194E+01  0.5934E+02
     12.184  0.1694E+01  0.5951E+02
     12.276  0.1534E+01  0.5971E+02
     12.368  0.5039E+00  0.5980E+02
     12.460  0.1289E+01  0.5996E+02
     12.552  0.2402E+01  0.6023E+02
     12.644  0.1277E+01  0.6044E+02
     12.736  0.1242E+01  0.6055E+02
     12.828  0.1774E+01  0.6077E+02
     12.920  0.9734E+00  0.6094E+02
     13.012  0.1469E+01  0.6108E+02
     13.104  0.9057E+00  0.6116E+02
     13.196  0.2134E+01  0.6136E+02
     13.288  0.1585E+01  0.6153E+02
     13.380  0.7502E+00  0.6165E+02
     13.472  0.1666E+01  0.6185E+02
     13.564  0.1794E+01  0.6202E+02
     13.656  0.2651E+00  0.6204E+02
     13.748  0.8813E+00  0.6213E+02
     13.840  0.1274E+01  0.6231E+02
     13.932  0.5031E-01  0.6233E+02
     14.024  0.7590E-01  0.6236E+02
     14.116  0.1257E+01  0.6248E+02
     14.208  0.1789E+01  0.6267E+02
     14.300  0.2985E+00  0.6270E+02
     14.392  0.7605E+00  0.6277E+02
     14.484  0.6036E+00  0.6286E+02
     14.576  0.3011E+00  0.6289E+02
     14.669  0.2168E+00  0.6291E+02
     14.761  0.5928E+00  0.6297E+02
     14.853  0.1451E+00  0.6302E+02
     14.945  0.6903E+00  0.6309E+02
     15.037  0.2518E+00  0.6316E+02
     15.129  0.1207E+01  0.6328E+02
     15.221  0.1500E-03  0.6328E+02
     15.313  0.9051E+00  0.6336E+02
     15.405  0.0000E+00  0.6336E+02
     15.497  0.0000E+00  0.6336E+02
     15.589  0.3205E+00  0.6339E+02
     15.681  0.7545E-01  0.6342E+02
     15.773  0.1456E-05  0.6342E+02
     15.865  0.1504E+01  0.6356E+02
     15.957  0.0000E+00  0.6356E+02
     16.049  0.0000E+00  0.6356E+02
     16.141  0.0000E+00  0.6356E+02
     16.233  0.5726E+00  0.6361E+02
     16.325  0.2082E+00  0.6363E+02
     16.417  0.9666E-05  0.6367E+02
     16.509  0.1006E+00  0.6368E+02
     16.601  0.1504E-01  0.6368E+02
     16.693  0.0000E+00  0.6371E+02
     16.785  0.0000E+00  0.6371E+02
     16.877  0.8869E+00  0.6379E+02
     16.969  0.0000E+00  0.6379E+02
     17.062  0.1083E-11  0.6379E+02
     17.154  0.3018E+00  0.6382E+02
     17.246  0.0000E+00  0.6382E+02
     17.338  0.0000E+00  0.6382E+02
     17.430  0.0000E+00  0.6382E+02
     17.522  0.2076E-01  0.6382E+02
     17.614  0.6036E+00  0.6390E+02
     17.706  0.0000E+00  0.6390E+02
     17.798  0.0000E+00  0.6390E+02
     17.890  0.0000E+00  0.6390E+02
     17.982  0.2996E+00  0.6393E+02
     18.074  0.0000E+00  0.6393E+02
     18.166  0.8730E-01  0.6394E+02
     18.258  0.1006E+00  0.6397E+02
     18.350  0.0000E+00  0.6397E+02
     18.442  0.0000E+00  0.6397E+02
     18.534  0.3721E-11  0.6397E+02
     18.626  0.3018E+00  0.6400E+02
     18.718  0.0000E+00  0.6400E+02
     18.810  0.0000E+00  0.6400E+02
     18.902  0.0000E+00  0.6400E+02
     18.994  0.0000E+00  0.6400E+02
     19.086  0.0000E+00  0.6400E+02
     19.178  0.0000E+00  0.6400E+02
     19.270  0.0000E+00  0.6400E+02
     19.362  0.5560E-07  0.6400E+02
     19.455  0.5030E-01  0.6400E+02
     19.547  0.0000E+00  0.6400E+02
     19.639  0.0000E+00  0.6400E+02
     19.731  0.0000E+00  0.6400E+02
     19.823  0.0000E+00  0.6400E+02
     19.915  0.0000E+00  0.6400E+02
     20.007  0.0000E+00  0.6400E+02
     20.099  0.0000E+00  0.6400E+02
     20.191  0.0000E+00  0.6400E+02
     20.283  0.0000E+00  0.6400E+02
     20.375  0.0000E+00  0.6400E+02
     20.467  0.0000E+00  0.6400E+02
     20.559  0.0000E+00  0.6400E+02
     20.651  0.0000E+00  0.6400E+02
