    4    4    1    1
  0.1600069E+02  0.4000057E-09  0.4000057E-09  0.4000057E-09  0.5000000E-15
  1.000000000000000E-004
  CAR 
 unknown system                          
   44   84   32
 
  0.0000000E+00  0.0000000E+00  0.0000000E+00  0.5787037E-03
   1       -5.7053
   2       -1.8449
   3       -1.8449
   4       -1.8449
   5       -1.5569
   6       -1.5569
   7       -1.5569
   8       -0.6965
   9       -0.6965
  10       -0.6965
  11       -0.1814
  12       -0.1814
  13        0.1632
  14        0.1632
  15        0.1632
  16        0.2593
  17        0.2593
  18        0.2593
  19        0.2593
  20        0.2593
  21        0.2593
  22        3.2970
  23        3.2970
  24        3.2970
  25        6.7898
  26        6.7898
  27        6.7898
  28       12.5395
  29       12.5395
  30       12.5395
  31       12.5395
  32       12.5395
 
  0.8333333E-01  0.0000000E+00  0.0000000E+00  0.3472222E-02
   1       -5.6373
   2       -1.8487
   3       -1.8177
   4       -1.8177
   5       -1.5426
   6       -1.5416
   7       -1.5416
   8       -0.7116
   9       -0.6838
  10       -0.6838
  11       -0.1950
  12       -0.1756
  13        0.1457
  14        0.1457
  15        0.1572
  16        0.1816
  17        0.1816
  18        0.2383
  19        0.2383
  20        0.2593
  21        0.2593
  22        2.7522
  23        3.4388
  24        3.4388
  25        6.8218
  26        6.8218
  27        7.4795
  28       12.0603
  29       12.0603
  30       12.1736
  31       12.1736
  32       12.6331
 
  0.1666667E+00  0.0000000E+00  0.0000000E+00  0.3472222E-02
   1       -5.4340
   2       -1.8737
   3       -1.7402
   4       -1.7402
   5       -1.5007
   6       -1.4952
   7       -1.4952
   8       -0.7556
   9       -0.6458
  10       -0.6458
  11       -0.2342
  12       -0.1586
  13       -0.0153
  14       -0.0153
  15        0.0946
  16        0.0946
  17        0.1398
  18        0.1781
  19        0.1781
  20        0.2594
  21        0.2594
  22        1.7235
  23        3.8279
  24        3.8279
  25        6.9199
  26        6.9199
  27        8.9550
  28       11.0577
  29       11.0577
  30       11.3665
  31       11.3665
  32       12.9107
 
  0.2500000E+00  0.0000000E+00  0.0000000E+00  0.3472222E-02
   1       -5.0990
   2       -1.9709
   3       -1.6247
   4       -1.6247
   5       -1.4338
   6       -1.4170
   7       -1.4170
   8       -0.8253
   9       -0.5836
  10       -0.5836
  11       -0.2941
  12       -0.2665
  13       -0.2665
  14       -0.1315
  15        0.0154
  16        0.0154
  17        0.0859
  18        0.0859
  19        0.1121
  20        0.2595
  21        0.2595
  22        0.7340
  23        4.3981
  24        4.3981
  25        7.0897
  26        7.0897
  27        9.9408
  28        9.9408
  29       10.4709
  30       10.4709
  31       10.7393
  32       13.3637
 
  0.3333333E+00  0.0000000E+00  0.0000000E+00  0.3472222E-02
   1       -4.6395
   2       -2.2450
   3       -1.4938
   4       -1.4938
   5       -1.3461
   6       -1.3057
   7       -1.3057
   8       -0.9158
   9       -0.5253
  10       -0.5253
  11       -0.4993
  12       -0.4993
  13       -0.3648
  14       -0.0961
  15       -0.0790
  16       -0.0790
  17       -0.0280
  18       -0.0280
  19        0.0091
  20        0.0761
  21        0.2596
  22        0.2596
  23        5.1011
  24        5.1011
  25        7.3376
  26        7.3376
  27        8.8372
  28        8.8372
  29        9.6417
  30        9.6417
  31       12.7047
  32       13.9798
 
  0.4166667E+00  0.0000000E+00  0.0000000E+00  0.3472222E-02
   1       -4.0697
   2       -2.7652
   3       -1.3834
   4       -1.3834
   5       -1.2434
   6       -1.1603
   7       -1.1603
   8       -1.0206
   9       -0.7671
  10       -0.7671
  11       -0.4281
  12       -0.3959
  13       -0.3959
  14       -0.3507
  15       -0.1624
  16       -0.1624
  17       -0.1528
  18       -0.1528
  19       -0.0548
  20        0.0343
  21        0.2597
  22        0.2597
  23        5.9096
  24        5.9096
  25        7.6560
  26        7.6560
  27        7.7876
  28        7.7876
  29        8.9545
  30        8.9545
  31       14.7449
  32       14.7798
 
  0.5000000E+00  0.0000000E+00  0.0000000E+00  0.1736111E-02
   1       -3.4209
   2       -3.4209
   3       -1.3385
   4       -1.3385
   5       -1.1324
   6       -1.1324
   7       -0.9804
   8       -0.9804
   9       -0.9804
  10       -0.9804
  11       -0.4487
  12       -0.4487
  13       -0.2783
  14       -0.2783
  15       -0.2783
  16       -0.2783
  17       -0.1974
  18       -0.1974
  19       -0.0103
  20       -0.0103
  21        0.2597
  22        0.2597
  23        6.8084
  24        6.8084
  25        6.8084
  26        6.8084
  27        7.8901
  28        7.8901
  29        8.5946
  30        8.5946
  31       15.6451
  32       15.6451
 
  0.8333333E-01  0.8333333E-01  0.0000000E+00  0.6944444E-02
   1       -5.5694
   2       -1.8208
   3       -1.8208
   4       -1.7915
   5       -1.5276
   6       -1.5276
   7       -1.5266
   8       -0.7194
   9       -0.6779
  10       -0.6722
  11       -0.1986
  12       -0.1786
  13        0.1234
  14        0.1234
  15        0.1238
  16        0.1289
  17        0.1734
  18        0.1734
  19        0.2383
  20        0.2383
  21        0.2456
  22        2.8870
  23        2.8870
  24        3.5747
  25        6.8543
  26        7.5216
  27        7.5216
  28       11.0468
  29       12.1487
  30       12.1487
  31       12.2623
  32       12.2623
 
  0.1666667E+00  0.8333333E-01  0.0000000E+00  0.1388889E-01
   1       -5.3668
   2       -1.8432
   3       -1.7409
   4       -1.7165
   5       -1.4865
   6       -1.4821
   7       -1.4814
   8       -0.7589
   9       -0.6436
  10       -0.6383
  11       -0.2325
  12       -0.1629
  13       -0.0584
  14       -0.0527
  15        0.0538
  16        0.0798
  17        0.1023
  18        0.1513
  19        0.1779
  20        0.2382
  21        0.2383
  22        1.8625
  23        3.2486
  24        3.9509
  25        6.9538
  26        7.6498
  27        9.0044
  28        9.8886
  29       11.1410
  30       11.4481
  31       12.4107
  32       12.4673
 
  0.2500000E+00  0.8333333E-01  0.0000000E+00  0.1388889E-01
   1       -5.0330
   2       -1.9355
   3       -1.6216
   4       -1.6047
   5       -1.4209
   6       -1.4057
   7       -1.4053
   8       -0.8261
   9       -0.5844
  10       -0.5825
  11       -0.3090
  12       -0.2892
  13       -0.2872
  14       -0.1327
  15       -0.0698
  16        0.0036
  17        0.0220
  18        0.0856
  19        0.1157
  20        0.2367
  21        0.2380
  22        0.9068
  23        3.7648
  24        4.5085
  25        7.1240
  26        7.8687
  27        8.7721
  28       10.0222
  29       10.5494
  30       10.7888
  31       11.7088
  32       12.8366
 
  0.3333333E+00  0.8333333E-01  0.0000000E+00  0.1388889E-01
   1       -4.5754
   2       -2.2024
   3       -1.4856
   4       -1.4760
   5       -1.3350
   6       -1.3008
   7       -1.2963
   8       -0.9143
   9       -0.5643
  10       -0.5371
  11       -0.5222
  12       -0.4988
  13       -0.3404
  14       -0.2666
  15       -0.0925
  16       -0.0872
  17       -0.0726
  18       -0.0285
  19        0.0565
  20        0.2365
  21        0.2378
  22        0.2827
  23        4.3879
  24        5.2014
  25        7.3355
  26        7.7778
  27        8.1752
  28        8.9191
  29        9.7302
  30       10.8531
  31       12.7428
  32       13.4127
 
  0.4166667E+00  0.8333333E-01  0.0000000E+00  0.1388889E-01
   1       -4.0086
   2       -2.7147
   3       -1.3689
   4       -1.3636
   5       -1.2344
   6       -1.1689
   7       -1.1540
   8       -1.0166
   9       -0.7997
  10       -0.7709
  11       -0.4997
  12       -0.4538
  13       -0.3959
  14       -0.3288
  15       -0.1665
  16       -0.1577
  17       -0.1532
  18       -0.0816
  19       -0.0448
  20        0.0766
  21        0.2367
  22        0.2375
  23        5.0952
  24        6.0024
  25        6.7338
  26        7.7788
  27        7.8716
  28        8.4616
  29        9.1633
  30       10.0568
  31       14.1231
  32       14.2245
 
  0.5000000E+00  0.8333333E-01  0.0000000E+00  0.6944444E-02
   1       -3.3641
   2       -3.3641
   3       -1.3187
   4       -1.3187
   5       -1.1258
   6       -1.1258
   7       -1.0033
   8       -1.0033
   9       -0.9783
  10       -0.9783
  11       -0.5116
  12       -0.5116
  13       -0.2785
  14       -0.2785
  15       -0.2276
  16       -0.2276
  17       -0.1967
  18       -0.1967
  19        0.0091
  20        0.0091
  21        0.2371
  22        0.2371
  23        5.8788
  24        5.8788
  25        6.8960
  26        6.8960
  27        8.2006
  28        8.2006
  29        9.3998
  30        9.3998
  31       14.9519
  32       14.9524
 
  0.1666667E+00  0.1666667E+00  0.0000000E+00  0.6944444E-02
   1       -5.1663
   2       -1.7557
   3       -1.7557
   4       -1.6493
   5       -1.4435
   6       -1.4435
   7       -1.4396
   8       -0.7815
   9       -0.6235
  10       -0.6164
  11       -0.2445
  12       -0.1736
  13       -0.1646
  14       -0.1646
  15       -0.1571
  16        0.0364
  17        0.1010
  18        0.1010
  19        0.1774
  20        0.1774
  21        0.2049
  22        2.2124
  23        2.2124
  24        4.2984
  25        7.0556
  26        8.6366
  27        9.1516
  28        9.1516
  29       11.3875
  30       11.3875
  31       11.6919
  32       11.6919
 
  0.2500000E+00  0.1666667E+00  0.0000000E+00  0.1388889E-01
   1       -4.8364
   2       -1.8338
   3       -1.6242
   4       -1.5491
   5       -1.3821
   6       -1.3712
   7       -1.3704
   8       -0.8349
   9       -0.5843
  10       -0.5723
  11       -0.4190
  12       -0.3612
  13       -0.3195
  14       -0.2829
  15       -0.1214
  16       -0.0315
  17        0.0253
  18        0.0741
  19        0.0847
  20        0.1766
  21        0.1859
  22        1.2633
  23        2.6863
  24        4.8256
  25        7.1772
  26        7.5365
  27        9.3830
  28       10.2634
  29       10.7966
  30       10.9226
  31       11.7883
  32       12.1036
 
  0.3333333E+00  0.1666667E+00  0.0000000E+00  0.1388889E-01
   1       -4.3848
   2       -2.0796
   3       -1.4716
   4       -1.4296
   5       -1.3017
   6       -1.2818
   7       -1.2688
   8       -0.9127
   9       -0.6649
  10       -0.5743
  11       -0.5589
  12       -0.4943
  13       -0.4937
  14       -0.3145
  15       -0.1127
  16       -0.0668
  17       -0.0652
  18       -0.0295
  19        0.0150
  20        0.1757
  21        0.1778
  22        0.6021
  23        3.2480
  24        5.4930
  25        6.3811
  26        7.5544
  27        9.1614
  28        9.5152
  29       10.1762
  30       12.3307
  31       12.4675
  32       12.4825
 
  0.4166667E+00  0.1666667E+00  0.0000000E+00  0.1388889E-01
   1       -3.8273
   2       -2.5678
   3       -1.3342
   4       -1.3099
   5       -1.2079
   6       -1.1904
   7       -1.1359
   8       -1.0060
   9       -0.8848
  10       -0.7834
  11       -0.5996
  12       -0.5719
  13       -0.3937
  14       -0.2893
  15       -0.1814
  16       -0.1539
  17       -0.1536
  18       -0.0836
  19        0.0065
  20        0.1748
  21        0.1749
  22        0.2594
  23        3.8909
  24        5.4500
  25        6.2746
  26        7.9232
  27        8.1195
  28        9.0020
  29       10.4317
  30       11.7094
  31       13.0013
  32       13.2242
 
  0.5000000E+00  0.1666667E+00  0.0000000E+00  0.6944444E-02
   1       -3.1969
   2       -3.1969
   3       -1.2631
   4       -1.2631
   5       -1.1069
   6       -1.1069
   7       -1.0672
   8       -1.0672
   9       -0.9731
  10       -0.9731
  11       -0.6065
  12       -0.6065
  13       -0.2781
  14       -0.2781
  15       -0.2006
  16       -0.2006
  17       -0.2004
  18       -0.2004
  19        0.1010
  20        0.1010
  21        0.1743
  22        0.1743
  23        4.6214
  24        4.6214
  25        7.1538
  26        7.1538
  27        8.4103
  28        8.4103
  29       11.0092
  30       11.0092
  31       13.7873
  32       13.7873
 
  0.2500000E+00  0.2500000E+00  0.0000000E+00  0.6944444E-02
   1       -4.5134
   2       -1.6798
   3       -1.6798
   4       -1.4696
   5       -1.3170
   6       -1.3170
   7       -1.3101
   8       -0.8646
   9       -0.5815
  10       -0.5654
  11       -0.5654
  12       -0.5384
  13       -0.4836
  14       -0.3040
  15       -0.0878
  16       -0.0729
  17        0.0043
  18        0.0043
  19        0.0834
  20        0.0834
  21        0.1384
  22        1.6998
  23        1.6998
  24        5.3178
  25        6.2511
  26        7.4782
  27       10.6557
  28       10.6557
  29       10.8661
  30       10.8661
  31       11.4756
  32       11.4756
 
  0.3333333E+00  0.2500000E+00  0.0000000E+00  0.1388889E-01
   1       -4.0731
   2       -1.8929
   3       -1.4985
   4       -1.3762
   5       -1.2464
   6       -1.2360
   7       -1.2255
   8       -0.9196
   9       -0.7859
  10       -0.6902
  11       -0.6403
  12       -0.5876
  13       -0.4743
  14       -0.3276
  15       -0.1563
  16       -0.0829
  17       -0.0509
  18       -0.0304
  19        0.0085
  20        0.0824
  21        0.1081
  22        0.9629
  23        2.2051
  24        5.2001
  25        5.9538
  26        7.7678
  27        9.5550
  28       10.1092
  29       11.1872
  30       11.5291
  31       11.7278
  32       13.2685
 
  0.4166667E+00  0.2500000E+00  0.0000000E+00  0.1388889E-01
   1       -3.5333
   2       -2.3396
   3       -1.3269
   4       -1.2685
   5       -1.1846
   6       -1.1648
   7       -1.1081
   8       -0.9937
   9       -0.9754
  10       -0.8076
  11       -0.7252
  12       -0.6252
  13       -0.3837
  14       -0.3087
  15       -0.2127
  16       -0.1685
  17       -0.1531
  18       -0.1391
  19        0.0824
  20        0.0921
  21        0.1169
  22        0.5134
  23        2.7907
  24        4.2742
  25        6.7097
  26        8.1716
  27        8.5212
  28        9.3449
  29       11.8460
  30       12.1717
  31       12.2144
  32       13.4851
 
  0.5000000E+00  0.2500000E+00  0.0000000E+00  0.6944444E-02
   1       -2.9301
   2       -2.9301
   3       -1.2138
   4       -1.2138
   5       -1.1323
   6       -1.1323
   7       -1.0781
   8       -1.0781
   9       -0.9670
  10       -0.9670
  11       -0.6856
  12       -0.6856
  13       -0.2740
  14       -0.2740
  15       -0.2372
  16       -0.2372
  17       -0.2208
  18       -0.2208
  19        0.0848
  20        0.0848
  21        0.2670
  22        0.2670
  23        3.4746
  24        3.4746
  25        7.5693
  26        7.5693
  27        8.6957
  28        8.6957
  29       12.6210
  30       12.6210
  31       12.8164
  32       12.8164
 
  0.3333333E+00  0.3333333E+00  0.0000000E+00  0.6944444E-02
   1       -3.6516
   2       -1.6726
   3       -1.6726
   4       -1.3353
   5       -1.1700
   6       -1.1700
   7       -1.1637
   8       -0.9435
   9       -0.8510
  10       -0.8510
  11       -0.7341
  12       -0.6143
  13       -0.4301
  14       -0.3572
  15       -0.2130
  16       -0.1331
  17       -0.1331
  18       -0.0298
  19       -0.0298
  20        0.0488
  21        0.1222
  22        1.3814
  23        1.3814
  24        4.1511
  25        6.5591
  26        8.0916
  27       10.0880
  28       10.0880
  29       10.6007
  30       10.6007
  31       13.4015
  32       13.6575
 
  0.4166667E+00  0.3333333E+00  0.0000000E+00  0.1388889E-01
   1       -3.1419
   2       -2.0598
   3       -1.4666
   4       -1.3110
   5       -1.1073
   6       -1.0970
   7       -1.0744
   8       -0.9866
   9       -0.9721
  10       -0.8465
  11       -0.8208
  12       -0.6637
  13       -0.3576
  14       -0.3555
  15       -0.2617
  16       -0.2148
  17       -0.2143
  18       -0.1482
  19       -0.0256
  20        0.0087
  21        0.2722
  22        0.8222
  23        1.8832
  24        3.2499
  25        7.2886
  26        8.5298
  27        9.0635
  28        9.7821
  29       10.7484
  30       11.1962
  31       12.4120
  32       12.7450
 
  0.5000000E+00  0.3333333E+00  0.0000000E+00  0.6944444E-02
   1       -2.5859
   2       -2.5859
   3       -1.3373
   4       -1.3373
   5       -1.0477
   6       -1.0477
   7       -1.0438
   8       -1.0438
   9       -0.9639
  10       -0.9639
  11       -0.7423
  12       -0.7423
  13       -0.3007
  14       -0.3007
  15       -0.2665
  16       -0.2665
  17       -0.2609
  18       -0.2609
  19       -0.0143
  20       -0.0143
  21        0.4836
  22        0.4836
  23        2.4978
  24        2.4978
  25        8.1271
  26        8.1271
  27        9.0913
  28        9.0913
  29       11.5257
  30       11.5257
  31       11.9104
  32       11.9104
 
  0.4166667E+00  0.4166667E+00  0.0000000E+00  0.6944444E-02
   1       -2.6819
   2       -1.7762
   3       -1.7762
   4       -1.3971
   5       -1.0397
   6       -1.0397
   7       -1.0044
   8       -0.9914
   9       -0.9013
  10       -0.8864
  11       -0.8864
  12       -0.7088
  13       -0.3845
  14       -0.3129
  15       -0.3078
  16       -0.2879
  17       -0.2879
  18       -0.1347
  19       -0.1347
  20       -0.0598
  21        0.4760
  22        1.2116
  23        1.2116
  24        2.3975
  25        7.9939
  26        9.0056
  27        9.7334
  28        9.7334
  29       10.3371
  30       10.3371
  31       11.4151
  32       11.8184
 
  0.5000000E+00  0.4166667E+00  0.0000000E+00  0.6944444E-02
   1       -2.2032
   2       -2.2032
   3       -1.5459
   4       -1.5459
   5       -1.0101
   6       -1.0101
   7       -0.9683
   8       -0.9683
   9       -0.9373
  10       -0.9373
  11       -0.7862
  12       -0.7862
  13       -0.3583
  14       -0.3583
  15       -0.3287
  16       -0.3287
  17       -0.2320
  18       -0.2320
  19       -0.1070
  20       -0.1070
  21        0.7655
  22        0.7655
  23        1.7236
  24        1.7236
  25        8.8123
  26        8.8123
  27        9.6065
  28        9.6065
  29       10.5201
  30       10.5201
  31       11.0152
  32       11.0152
 
  0.5000000E+00  0.5000000E+00  0.0000000E+00  0.1736111E-02
   1       -1.8390
   2       -1.8390
   3       -1.8390
   4       -1.8390
   5       -0.9836
   6       -0.9836
   7       -0.9836
   8       -0.9836
   9       -0.8449
  10       -0.8449
  11       -0.8449
  12       -0.8449
  13       -0.3717
  14       -0.3717
  15       -0.3717
  16       -0.3717
  17       -0.1813
  18       -0.1813
  19       -0.1813
  20       -0.1813
  21        1.1586
  22        1.1586
  23        1.1586
  24        1.1586
  25        9.6131
  26        9.6131
  27        9.6131
  28        9.6131
  29       10.2468
  30       10.2468
  31       10.2468
  32       10.2468
 
  0.8333333E-01  0.8333333E-01  0.8333333E-01  0.4629630E-02
   1       -5.5017
   2       -1.7938
   3       -1.7938
   4       -1.7938
   5       -1.5128
   6       -1.5128
   7       -1.5128
   8       -0.7266
   9       -0.6671
  10       -0.6671
  11       -0.1912
  12       -0.1912
  13        0.0955
  14        0.0955
  15        0.0955
  16        0.1133
  17        0.1133
  18        0.1133
  19        0.2355
  20        0.2355
  21        0.2355
  22        3.0144
  23        3.0144
  24        3.0144
  25        7.5640
  26        7.5640
  27        7.5640
  28       11.1306
  29       11.1306
  30       11.1306
  31       12.8139
  32       12.8139
 
  0.1666667E+00  0.8333333E-01  0.8333333E-01  0.1388889E-01
   1       -5.2999
   2       -1.8140
   3       -1.7169
   4       -1.7169
   5       -1.4724
   6       -1.4683
   7       -1.4683
   8       -0.7621
   9       -0.6379
  10       -0.6352
  11       -0.2270
  12       -0.1697
  13       -0.0905
  14       -0.0905
  15        0.0096
  16        0.0666
  17        0.0703
  18        0.0703
  19        0.2084
  20        0.2290
  21        0.2290
  22        1.9883
  23        3.3610
  24        3.3610
  25        7.6923
  26        7.6923
  27        9.0526
  28        9.9717
  29        9.9717
  30       11.3798
  31       12.5530
  32       12.5530
 
  0.2500000E+00  0.8333333E-01  0.8333333E-01  0.1388889E-01
   1       -4.9674
   2       -1.9020
   3       -1.6021
   4       -1.6021
   5       -1.4079
   6       -1.3939
   7       -1.3939
   8       -0.8264
   9       -0.5856
  10       -0.5827
  11       -0.3286
  12       -0.3286
  13       -0.2771
  14       -0.1402
  15       -0.1357
  16       -0.0089
  17        0.0004
  18        0.0004
  19        0.1697
  20        0.2236
  21        0.2236
  22        1.0396
  23        3.8631
  24        3.8631
  25        7.9006
  26        7.9006
  27        8.8679
  28        8.8679
  29       10.8272
  30       11.7872
  31       11.7872
  32       11.7945
 
  0.3333333E+00  0.8333333E-01  0.8333333E-01  0.1388889E-01
   1       -4.5119
   2       -2.1621
   3       -1.4693
   4       -1.4693
   5       -1.3234
   6       -1.2915
   7       -1.2915
   8       -0.9118
   9       -0.5725
  10       -0.5725
  11       -0.5319
  12       -0.5109
  13       -0.3476
  14       -0.3144
  15       -0.1054
  16       -0.0915
  17       -0.0869
  18       -0.0869
  19        0.1228
  20        0.2206
  21        0.2206
  22        0.3908
  23        4.4755
  24        4.4755
  25        7.7246
  26        7.7246
  27        8.3324
  28        8.3324
  29       10.9285
  30       10.9285
  31       12.2690
  32       12.8600
 
  0.4166667E+00  0.8333333E-01  0.8333333E-01  0.1388889E-01
   1       -3.9482
   2       -2.6662
   3       -1.3502
   4       -1.3502
   5       -1.2246
   6       -1.1671
   7       -1.1671
   8       -1.0115
   9       -0.7961
  10       -0.7961
  11       -0.5261
  12       -0.5070
  13       -0.4223
  14       -0.2751
  15       -0.2126
  16       -0.1663
  17       -0.1663
  18       -0.0401
  19        0.0483
  20        0.0703
  21        0.2191
  22        0.2191
  23        5.1753
  24        5.1753
  25        6.8143
  26        6.8143
  27        8.7221
  28        8.7221
  29       10.1418
  30       10.1418
  31       12.9712
  32       14.6644
 
  0.5000000E+00  0.8333333E-01  0.8333333E-01  0.6944444E-02
   1       -3.3085
   2       -3.3085
   3       -1.2986
   4       -1.2986
   5       -1.1183
   6       -1.1183
   7       -1.0540
   8       -1.0540
   9       -0.9470
  10       -0.9470
  11       -0.5464
  12       -0.5464
  13       -0.3209
  14       -0.3209
  15       -0.2001
  16       -0.2001
  17       -0.1492
  18       -0.1492
  19        0.0149
  20        0.0149
  21        0.2187
  22        0.2187
  23        5.9287
  24        5.9287
  25        5.9823
  26        5.9823
  27        9.0755
  28        9.0755
  29        9.6603
  30        9.6603
  31       13.7653
  32       13.7653
 
  0.1666667E+00  0.1666667E+00  0.8333333E-01  0.1388889E-01
   1       -5.1003
   2       -1.7309
   3       -1.7309
   4       -1.6491
   5       -1.4299
   6       -1.4299
   7       -1.4267
   8       -0.7830
   9       -0.6201
  10       -0.6160
  11       -0.2314
  12       -0.2069
  13       -0.1935
  14       -0.1935
  15       -0.1674
  16        0.0096
  17        0.0297
  18        0.0297
  19        0.2050
  20        0.2050
  21        0.2099
  22        2.3159
  23        2.3159
  24        3.6748
  25        7.8096
  26        8.7351
  27        9.1860
  28        9.1860
  29       10.2288
  30       10.2288
  31       12.8074
  32       12.8074
 
  0.2500000E+00  0.1666667E+00  0.8333333E-01  0.2777778E-01
   1       -4.7720
   2       -1.8067
   3       -1.6066
   4       -1.5486
   5       -1.3683
   6       -1.3586
   7       -1.3578
   8       -0.8330
   9       -0.5858
  10       -0.5771
  11       -0.4333
  12       -0.3934
  13       -0.3497
  14       -0.2644
  15       -0.1287
  16       -0.0546
  17       -0.0460
  18       -0.0234
  19        0.1692
  20        0.1900
  21        0.1909
  22        1.3558
  23        2.7729
  24        4.1433
  25        7.4729
  26        8.1465
  27        8.9733
  28        9.5728
  29       10.4991
  30       11.0954
  31       12.0212
  32       13.2118
 
  0.3333333E+00  0.1666667E+00  0.8333333E-01  0.2777778E-01
   1       -4.3230
   2       -2.0471
   3       -1.4621
   4       -1.4292
   5       -1.2881
   6       -1.2710
   7       -1.2619
   8       -0.9074
   9       -0.6640
  10       -0.5995
  11       -0.5627
  12       -0.5210
  13       -0.5149
  14       -0.2801
  15       -0.1439
  16       -0.1279
  17       -0.0985
  18       -0.0708
  19        0.1172
  20        0.1776
  21        0.1779
  22        0.6624
  23        3.3236
  24        4.7271
  25        6.4574
  26        7.9852
  27        8.4593
  28        9.8708
  29       11.0762
  30       11.1637
  31       12.5406
  32       12.9988
 
  0.4166667E+00  0.1666667E+00  0.8333333E-01  0.2777778E-01
   1       -3.7696
   2       -2.5256
   3       -1.3245
   4       -1.3044
   5       -1.1950
   6       -1.1945
   7       -1.1592
   8       -0.9975
   9       -0.8574
  10       -0.7897
  11       -0.6174
  12       -0.5802
  13       -0.4388
  14       -0.2485
  15       -0.2247
  16       -0.1935
  17       -0.1747
  18       -0.0003
  19        0.0346
  20        0.1706
  21        0.1710
  22        0.2673
  23        3.9593
  24        5.3575
  25        5.5742
  26        7.0424
  27        8.9211
  28       10.0696
  29       10.6278
  30       11.7350
  31       11.7795
  32       13.3883
 
  0.5000000E+00  0.1666667E+00  0.8333333E-01  0.1388889E-01
   1       -3.1455
   2       -3.1455
   3       -1.2426
   4       -1.2426
   5       -1.1362
   6       -1.1362
   7       -1.0958
   8       -1.0958
   9       -0.9190
  10       -0.9190
  11       -0.6184
  12       -0.6184
  13       -0.3491
  14       -0.3491
  15       -0.2151
  16       -0.2151
  17       -0.0999
  18       -0.0999
  19        0.0904
  20        0.0904
  21        0.1687
  22        0.1687
  23        4.6837
  24        4.6837
  25        6.1892
  26        6.1892
  27        9.5006
  28        9.5006
  29       11.0855
  30       11.0855
  31       12.5067
  32       12.5067
 
  0.2500000E+00  0.2500000E+00  0.8333333E-01  0.1388889E-01
   1       -4.4512
   2       -1.6651
   3       -1.6651
   4       -1.4741
   5       -1.3016
   6       -1.3016
   7       -1.2957
   8       -0.8587
   9       -0.5836
  10       -0.5739
  11       -0.5739
  12       -0.5527
  13       -0.5068
  14       -0.2758
  15       -0.1212
  16       -0.0841
  17       -0.0841
  18       -0.0819
  19        0.1440
  20        0.1440
  21        0.1552
  22        1.7714
  23        1.7714
  24        4.5716
  25        6.3275
  26        8.3646
  27        9.4057
  28        9.4057
  29       11.3077
  30       11.3077
  31       12.4137
  32       12.4137
 
  0.3333333E+00  0.2500000E+00  0.8333333E-01  0.2777778E-01
   1       -4.0146
   2       -1.8757
   3       -1.5030
   4       -1.3897
   5       -1.2277
   6       -1.2203
   7       -1.2099
   8       -0.9089
   9       -0.7732
  10       -0.6930
  11       -0.6496
  12       -0.5896
  13       -0.5079
  14       -0.2809
  15       -0.1871
  16       -0.1746
  17       -0.1414
  18       -0.0010
  19        0.0818
  20        0.1184
  21        0.1252
  22        1.0070
  23        2.2659
  24        5.0466
  25        5.3532
  26        8.3613
  27        8.7295
  28        9.9263
  29       11.3342
  30       11.8649
  31       12.8372
  32       13.1815
 
  0.4166667E+00  0.2500000E+00  0.8333333E-01  0.2777778E-01
   1       -3.4807
   2       -2.3101
   3       -1.3530
   4       -1.3006
   5       -1.1685
   6       -1.1446
   7       -1.1216
   8       -0.9785
   9       -0.9155
  10       -0.7894
  11       -0.7262
  12       -0.6274
  13       -0.4476
  14       -0.2754
  15       -0.2400
  16       -0.2296
  17       -0.2076
  18       -0.0082
  19        0.1028
  20        0.1058
  21        0.1060
  22        0.5231
  23        2.8459
  24        4.3198
  25        5.8123
  26        7.4119
  27        9.2209
  28       10.5678
  29       10.5721
  30       12.1988
  31       12.2826
  32       13.5316
 
  0.5000000E+00  0.2500000E+00  0.8333333E-01  0.1388889E-01
   1       -2.8870
   2       -2.8870
   3       -1.2592
   4       -1.2592
   5       -1.1414
   6       -1.1414
   7       -1.0594
   8       -1.0594
   9       -0.9000
  10       -0.9000
  11       -0.6871
  12       -0.6871
  13       -0.3697
  14       -0.3697
  15       -0.2505
  16       -0.2505
  17       -0.1242
  18       -0.1242
  19        0.0987
  20        0.0987
  21        0.2579
  22        0.2579
  23        3.5264
  24        3.5264
  25        6.5617
  26        6.5617
  27        9.8386
  28        9.8386
  29       11.3267
  30       11.3267
  31       12.8810
  32       12.8810
 
  0.3333333E+00  0.3333333E+00  0.8333333E-01  0.1388889E-01
   1       -3.5987
   2       -1.6815
   3       -1.6815
   4       -1.3666
   5       -1.1447
   6       -1.1417
   7       -1.1417
   8       -0.9256
   9       -0.8352
  10       -0.8352
  11       -0.7207
  12       -0.6147
  13       -0.4897
  14       -0.2872
  15       -0.2505
  16       -0.2175
  17       -0.2175
  18        0.0446
  19        0.0446
  20        0.0757
  21        0.1109
  22        1.4192
  23        1.4192
  24        4.1893
  25        5.6868
  26        8.8680
  27        8.8680
  28        9.1223
  29       11.9272
  30       11.9272
  31       12.0927
  32       13.7179
 
  0.4166667E+00  0.3333333E+00  0.8333333E-01  0.2777778E-01
   1       -3.0983
   2       -2.0518
   3       -1.5102
   4       -1.3633
   5       -1.0779
   6       -1.0728
   7       -1.0440
   8       -0.9610
   9       -0.9279
  10       -0.8122
  11       -0.8022