       N       E                     dE             d eps       ncg     rms          rms(c)
DAV:   1     0.316833313146E+03    0.31683E+03   -0.25858E+04  5400   0.250E+03
DAV:   2     0.531139303760E+01   -0.31152E+03   -0.29759E+03  5376   0.398E+02
DAV:   3    -0.161128772228E+02   -0.21424E+02   -0.20782E+02  6104   0.128E+02
DAV:   4    -0.163824500912E+02   -0.26957E+00   -0.26940E+00  5880   0.149E+01
DAV:   5    -0.163830246642E+02   -0.57457E-03   -0.57457E-03  6056   0.615E-01    0.126E+01
DAV:   6    -0.155360836716E+02    0.84694E+00   -0.27406E+01  5864   0.779E+01    0.835E+00
DAV:   7    -0.136379808871E+02    0.18981E+01   -0.62843E+00  6080   0.366E+01    0.629E-01
DAV:   8    -0.136376833955E+02    0.29749E-03   -0.13609E-01  6440   0.429E+00    0.954E-01
DAV:   9    -0.136202961690E+02    0.17387E-01   -0.62455E-02  6152   0.358E+00    0.142E-01
DAV:  10    -0.136200195358E+02    0.27663E-03   -0.15249E-03  6280   0.525E-01    0.268E-02
DAV:  11    -0.136200144244E+02    0.51115E-05   -0.42963E-05  6096   0.806E-02    0.215E-03
DAV:  12    -0.136200164066E+02   -0.19822E-05   -0.17890E-06  6008   0.128E-02    0.128E-03
DAV:  13    -0.136200171064E+02   -0.69984E-06   -0.40011E-08  5504   0.209E-03    0.596E-04
DAV:  14    -0.136200170756E+02    0.30845E-07   -0.23538E-08  3816   0.218E-03    0.319E-05
DAV:  15    -0.136200170554E+02    0.20223E-07   -0.10207E-09  3192   0.242E-04    0.163E-05
DAV:  16    -0.136200170457E+02    0.96634E-08   -0.30097E-11  3240   0.513E-05
   1 F= -.13620017E+02 E0= -.13619997E+02  d E =-.404335E-04
