 vasp.4.6.28 25Jul05 complex 
 executed on             LinuxIFC date 2017.01.24  12:34:26
 running on    4 nodes
 distr:  one band on    1 nodes,    4 groups


--------------------------------------------------------------------------------------------------------


 INCAR:
 POTCAR:   PAW_PBE Au 06Sep2000                   
 POTCAR:   PAW_PBE Au 06Sep2000                   
   VRHFIN =Au: s1d10                                                            
   LEXCH  = PE                                                                  
   EATOM  =   926.0567 eV,   68.0632 Ry                                         
                                                                                
   TITEL  = PAW_PBE Au 06Sep2000                                                
   LULTRA =        F    use ultrasoft PP ?                                      
   IUNSCR =        1    unscreen: 0-lin 1-nonlin 2-no                           
   RPACOR =    2.330    partial core radius                                     
   POMASS =  196.966; ZVAL   =   11.000    mass and valenz                      
   RCORE  =    2.500    outmost cutoff radius                                   
   RWIGS  =    2.840; RWIGS  =    1.503    wigner-seitz radius (au A)           
   ENMAX  =  229.948; ENMIN  =  172.461 eV                                      
   RCLOC  =    1.964    cutoff for local pot                                    
   LCOR   =        T    correct aug charges                                     
   LPAW   =        T    paw PP                                                  
   EAUG   =  356.670                                                            
   DEXC   =    -.025                                                            
   RMAX   =    3.041    core radius for proj-oper                               
   RAUG   =    1.300    factor for augmentation sphere                          
   RDEP   =    2.598    radius for radial grids                                 
   QCUT   =   -4.111; QGAM   =    8.222    optimization parameters              
                                                                                
   Description                                                                  
     l     E      TYP  RCUT    TYP  RCUT                                        
     2   .000     23  2.500                                                     
     2   .000     23  2.500                                                     
     0   .000     23  2.500                                                     
     0   .000     23  2.500                                                     
     1  -.200     23  2.500                                                     
     1   .000     23  2.500                                                     
     3   .000      7   .000                                                     
  local pseudopotential read in
  partial core-charges read in
  atomic valenz-charges read in
  non local Contribution for L=           2  read in
    real space projection operators read in
  non local Contribution for L=           2  read in
    real space projection operators read in
  non local Contribution for L=           0  read in
    real space projection operators read in
  non local Contribution for L=           0  read in
    real space projection operators read in
  non local Contribution for L=           1  read in
    real space projection operators read in
  non local Contribution for L=           1  read in
    real space projection operators read in
    PAW grid and wavefunctions read in
 
   number of l-projection  operators is LMAX  =           6
   number of lm-projection operators is LMMAX =          18
 

 ----------------------------------------------------------------------------- 
|                                                                             |
|  ADVICE TO THIS USER RUNNING 'VASP/VAMP'   (HEAR YOUR MASTER'S VOICE ...):  |
|                                                                             |
|      You have a (more or less) 'large supercell' and for larger cells       |
|      it might be more efficient to use real space projection operators      |
|      So try LREAL= Auto  in the INCAR   file.                               |
|      Mind: If you want to do an extremely accurate calculations keep the    |
|      reciprocal projection scheme          (i.e. LREAL=.FALSE.)             |
|                                                                             |
 ----------------------------------------------------------------------------- 

 PAW_PBE Au 06Sep2000                   :
 energy of atom  1       EATOM= -926.0567
 kinetic energy error for atom=    0.0013 (will be added to EATOM!!)
 
 EXHCAR: internal setup
 exchange correlation table for  LEXCH =        8
   RHO(1)=    0.500       N(1)  =     2000
   RHO(2)=  100.500       N(2)  =     4000
 
 POSCAR: No title                                
  positions in direct lattice
  No initial velocities read in
 


--------------------------------------------------------------------------------------------------------


 ion  position               nearest neighbor table
   1  0.750  0.750  0.500-   3 2.92  14 2.92  19 2.92  20 2.92   5 2.92  26 2.92   6 2.92  29 2.92
                            11 2.92  18 2.92  10 2.92   8 2.92
   2  0.750  0.750  0.000-   8 2.92  10 2.92  22 2.92  27 2.92  11 2.92  18 2.92  12 2.92  32 2.92
                             5 2.92  26 2.92   3 2.92  20 2.92
   3  0.750  0.000  0.250-   1 2.92   5 2.92   9 2.92  28 2.92  19 2.92  12 2.92  13 2.92  18 2.92
                            27 2.92   6 2.92   4 2.92   2 2.92
   4  0.750  0.250  0.500-   6 2.92   8 2.92  10 2.92  29 2.92  13 2.92  31 2.92  14 2.92  19 2.92
                            21 2.92  28 2.92   3 2.92  20 2.92
   5  0.000  0.750  0.250-   3 2.92  12 2.92  14 2.92  25 2.92  15 2.92   1 2.92  16 2.92  10 2.92
                             2 2.92   7 2.92  22 2.92   6 2.92
   6  0.000  0.000  0.500-   4 2.92   7 2.92  11 2.92  13 2.92   8 2.92  16 2.92   1 2.92  17 2.92
                             3 2.92  23 2.92  21 2.92   5 2.92
   7  0.250  0.750  0.500-   6 2.92  16 2.92  29 2.92  30 2.92  11 2.92  18 2.92  14 2.92  19 2.92
                             5 2.92  26 2.92  25 2.92  23 2.92
   8  0.750  0.000  0.750-   2 2.92   4 2.92  11 2.92  31 2.92  27 2.92   6 2.92  21 2.92  26 2.92
                            12 2.92  19 2.92   9 2.92   1 2.92
   9  0.750  0.250  0.000-   3 2.92  12 2.92  20 2.92  32 2.92  28 2.92  21 2.92  22 2.92  27 2.92
                            31 2.92  13 2.92  10 2.92   8 2.92
  10  0.750  0.500  0.250-   2 2.92   4 2.92  13 2.92  18 2.92  22 2.92  29 2.92  28 2.92   5 2.92
                            14 2.92  32 2.92   9 2.92   1 2.92
  11  0.000  0.750  0.750-   6 2.92   8 2.92  22 2.92  30 2.92   7 2.92   2 2.92  23 2.92  20 2.92
                             1 2.92  15 2.92  14 2.92  12 2.92
  12  0.000  0.000  0.000-   5 2.92   9 2.92  15 2.92  21 2.92   3 2.92  23 2.92   2 2.92  24 2.92
                            16 2.92   8 2.92  13 2.92  11 2.92
  13  0.000  0.250  0.250-   6 2.92  10 2.92  16 2.92  22 2.92   4 2.92  24 2.92   3 2.92  25 2.92
                            17 2.92   9 2.92  14 2.92  12 2.92
  14  0.000  0.500  0.500-   1 2.92   5 2.92  17 2.92  21 2.92  20 2.92  25 2.92   4 2.92   7 2.92
                            10 2.92  30 2.92  13 2.92  11 2.92
  15  0.250  0.750  0.000-  12 2.92  23 2.92  25 2.92  32 2.92  26 2.92   5 2.92  27 2.92  22 2.92
                            11 2.92  18 2.92  30 2.92  16 2.92
  16  0.250  0.000  0.250-   7 2.92  13 2.92  18 2.92  24 2.92   6 2.92  27 2.92   5 2.92  28 2.92
                            19 2.92  12 2.92  17 2.92  15 2.92
  17  0.250  0.250  0.500-  14 2.92  19 2.92  23 2.92  25 2.92  21 2.92  28 2.92   6 2.92  29 2.92
                            13 2.92  31 2.92  30 2.92  16 2.92
  18  0.500  0.750  0.250-  10 2.92  16 2.92  27 2.92  29 2.92   2 2.92   7 2.92   3 2.92  25 2.92
                             1 2.92  15 2.92  19 2.92  32 2.92
  19  0.500  0.000  0.500-   1 2.92  17 2.92  26 2.92  28 2.92   3 2.92  23 2.92   4 2.92   7 2.92
                             8 2.92  16 2.92  18 2.92  31 2.92
  20  0.750  0.500  0.750-   1 2.92   9 2.92  21 2.92  26 2.92  14 2.92  32 2.92  31 2.92  11 2.92
                            22 2.92  29 2.92   4 2.92   2 2.92
  21  0.000  0.250  0.750-  12 2.92  14 2.92  20 2.92  23 2.92   9 2.92  17 2.92   8 2.92  30 2.92
                            24 2.92   4 2.92  22 2.92   6 2.92
  22  0.000  0.500  0.000-   2 2.92  11 2.92  13 2.92  24 2.92  10 2.92  30 2.92   9 2.92  15 2.92
                            25 2.92  20 2.92  21 2.92   5 2.92
  23  0.250  0.000  0.750-  15 2.92  17 2.92  21 2.92  26 2.92  12 2.92  19 2.92  11 2.92  31 2.92
                            27 2.92   6 2.92  24 2.92   7 2.92
  24  0.250  0.250  0.000-  16 2.92  22 2.92  27 2.92  30 2.92  13 2.92  31 2.92  12 2.92  32 2.92
                            28 2.92  21 2.92  25 2.92  23 2.92
  25  0.250  0.500  0.250-   5 2.92  15 2.92  17 2.92  28 2.92  14 2.92  32 2.92  13 2.92  18 2.92
                            29 2.92  22 2.92  24 2.92   7 2.92
  26  0.500  0.750  0.750-  19 2.92  20 2.92  23 2.92  32 2.92   1 2.92  15 2.92  30 2.92   8 2.92
                             7 2.92   2 2.92  27 2.92  29 2.92
  27  0.500  0.000  0.000-   2 2.92  18 2.92  24 2.92  31 2.92  16 2.92   8 2.92   9 2.92  15 2.92
                             3 2.92  23 2.92  28 2.92  26 2.92
  28  0.500  0.250  0.250-   3 2.92  19 2.92  25 2.92  32 2.92  17 2.92   9 2.92  10 2.92  16 2.92
                             4 2.92  24 2.92  29 2.92  27 2.92
  29  0.500  0.500  0.500-   4 2.92   7 2.92  18 2.92  31 2.92  30 2.92  10 2.92  17 2.92   1 2.92
                            20 2.92  25 2.92  26 2.92  28 2.92
  30  0.250  0.500  0.750-   7 2.92  11 2.92  24 2.92  31 2.92  29 2.92  22 2.92  21 2.92  26 2.92
                            14 2.92  32 2.92  17 2.92  15 2.92
  31  0.500  0.250  0.750-   8 2.92  27 2.92  29 2.92  30 2.92  24 2.92   4 2.92  20 2.92  23 2.92
                             9 2.92  17 2.92  19 2.92  32 2.92
  32  0.500  0.500  0.000-   9 2.92  15 2.92  26 2.92  28 2.92  20 2.92  25 2.92  24 2.92   2 2.92
                            10 2.92  30 2.92  18 2.92  31 2.92
 
  LATTYP: Found a simple cubic cell.
 ALAT       =     8.2552007800
  
  Lattice vectors:
  
 A1 = (   8.2552007800,   0.0000000000,   0.0000000000)
 A2 = (   0.0000001500,   8.2552007800,   0.0000000000)
 A3 = (   0.0000001500,   0.0000001500,   8.2552007800)
 Subroutine PRICEL returns following result:
 
  LATTYP: Found a face centered cubic cell.
 ALAT       =     4.1276004275
  
  Lattice vectors:
  
 A1 = (   2.0638002325,   2.0638001950,   0.0000000000)
 A2 = (   2.0638001575,  -0.0000000375,  -2.0638001950)
 A3 = (   0.0000000000,   2.0638001575,  -2.0638001950)
 
  32 primitive cells build up your supercell.
 

Analysis of symmetry for initial positions (statically):

 Routine SETGRP: Setting up the symmetry group for a 
 simple cubic supercell.


 Subroutine GETGRP returns: Found 48 space group operations
 (whereof 48 operations were pure point group operations)
 out of a pool of 48 trial point group operations.


The static configuration has the point symmetry O_h .

Analysis of symmetry for dynamics (positions and initial velocities):

 Subroutine DYNSYM returns: Found 48 space group operations
 (whereof 48 operations were pure point group operations)
 out of a pool of 48 trial space group operations
 (whereof 48 operations were pure point group operations)
 and found also    32 'primitive' translations


The dynamic configuration has the point symmetry O_h .
 
 
 KPOINTS: Automatic mesh                          

Automatic generation of k-mesh.
 
 Subroutine IBZKPT returns following result:
 ===========================================
 
 Found     20 irreducible k-points:
 
 Following reciprocal coordinates:
            Coordinates               Weight
  0.062500  0.062500  0.062500      8.000000
  0.187500  0.062500  0.062500     24.000000
  0.312500  0.062500  0.062500     24.000000
  0.437500  0.062500  0.062500     24.000000
  0.187500  0.187500  0.062500     24.000000
  0.312500  0.187500  0.062500     48.000000
  0.437500  0.187500  0.062500     48.000000
  0.312500  0.312500  0.062500     24.000000
  0.437500  0.312500  0.062500     48.000000
  0.437500  0.437500  0.062500     24.000000
  0.187500  0.187500  0.187500      8.000000
  0.312500  0.187500  0.187500     24.000000
  0.437500  0.187500  0.187500     24.000000
  0.312500  0.312500  0.187500     24.000000
  0.437500  0.312500  0.187500     48.000000
  0.437500  0.437500  0.187500     24.000000
  0.312500  0.312500  0.312500      8.000000
  0.437500  0.312500  0.312500     24.000000
  0.437500  0.437500  0.312500     24.000000
  0.437500  0.437500  0.437500      8.000000
 
 Following cartesian coordinates:
            Coordinates               Weight
  0.007571  0.007571  0.007571      8.000000
  0.022713  0.007571  0.007571     24.000000
  0.037855  0.007571  0.007571     24.000000
  0.052997  0.007571  0.007571     24.000000
  0.022713  0.022713  0.007571     24.000000
  0.037855  0.022713  0.007571     48.000000
  0.052997  0.022713  0.007571     48.000000
  0.037855  0.037855  0.007571     24.000000
  0.052997  0.037855  0.007571     48.000000
  0.052997  0.052997  0.007571     24.000000
  0.022713  0.022713  0.022713      8.000000
  0.037855  0.022713  0.022713     24.000000
  0.052997  0.022713  0.022713     24.000000
  0.037855  0.037855  0.022713     24.000000
  0.052997  0.037855  0.022713     48.000000
  0.052997  0.052997  0.022713     24.000000
  0.037855  0.037855  0.037855      8.000000
  0.052997  0.037855  0.037855     24.000000
  0.052997  0.052997  0.037855     24.000000
  0.052997  0.052997  0.052997      8.000000
 


--------------------------------------------------------------------------------------------------------




 Dimension of arrays:
   k-Points           NKPTS =     20   number of bands    NBANDS=    212
   number of dos      NEDOS =    301   number of ions     NIONS =     32
   non local maximal  LDIM  =      6   non local SUM 2l+1 LMDIM =     18
   total plane-waves  NPLWV = 343000
   max r-space proj   IRMAX =      1   max aug-charges    IRDMAX= 298442
   dimension x,y,z NGX =    70 NGY =   70 NGZ =   70
   dimension x,y,z NGXF=   140 NGYF=  140 NGZF=  140
   support grid    NGXF=   280 NGYF=  280 NGZF=  280
   ions per type =              32
 NGX,Y,Z   is equivalent  to a cutoff of  14.10, 14.10, 14.10 a.u.
 NGXF,Y,Z  is equivalent  to a cutoff of  28.19, 28.19, 28.19 a.u.


 I would recommend the setting:
   dimension x,y,z NGX =    66 NGY =   66 NGZ =   66
 SYSTEM =  No title                                
 POSCAR =  No title                                

 Startparameter for this run:
   NWRITE =      2    write-flag & timer
   PREC   = accura    medium, high low
   ISTART =      0    job   : 0-new  1-cont  2-samecut
   ICHARG =      2    charge: 1-file 2-atom 10-const
   ISPIN  =      1    spin polarized calculation?
   LNONCOLLINEAR =      F non collinear calculations
   LSORBIT =      F    spin-orbit coupling
   INIWAV =      1    electr: 0-lowe 1-rand  2-diag
   LASPH  =      F    aspherical Exc in radial PAW
   METAGGA=      F    non-selfconsistent MetaGGA calc.

 Electronic Relaxation 1
   ENCUT  =  600.0 eV  44.10 Ry    6.64 a.u.  16.49 16.49 16.49*2*pi/ulx,y,z
   ENINI  =  600.0     initial cutoff
   ENAUG  =  356.7 eV  augmentation charge cutoff
   NELM   =     60;   NELMIN=  2; NELMDL=-12     # of ELM steps 
   EDIFF  = 0.1E-04   stopping-criterion for ELM
   LREAL  =      F    real-space projection
   LCOMPAT=      F    compatible to vasp.4.4
   LREAL_COMPAT= F    compatible to vasp.4.5.1-3
   GGA_COMPAT  = T    GGA compatible to vasp.4.4-vasp.4.6
   LMAXPAW     = -100 max onsite density
   LMAXMIX     =    2 max onsite mixed and CHGCAR
   VOSKOWN=      1    Vosko Wilk Nusair interpolation
   ROPT   =    0.00000
 Ionic relaxation
   EDIFFG = -.2E-01   stopping-criterion for IOM
   NSW    =    100    number of steps for IOM
   NBLOCK =      1;   KBLOCK =    100    inner block; outer block 
   IBRION =      2    ionic relax: 0-MD 1-quasi-New 2-CG
   NFREE  =      1    steps in history (QN), initial steepest desc. (CG)
   ISIF   =      2    stress and relaxation
   IWAVPR =     11    prediction:  0-non 1-charg 2-wave 3-comb
   ISYM   =      2    0-nonsym 1-usesym 2-fastsym
   LCORR  =      T    Harris-Foulkes like correction to forces

   POTIM  =   0.50    time-step for ionic-motion
   TEIN   =    0.0    initial temperature
   TEBEG  =    0.0;   TEEND  =   0.0 temperature during run
   SMASS  =  -3.00    Nose mass-parameter (am)
   estimated Nose-frequenzy (Omega)   =  0.10E-29 period in steps =****** mass=  -0.156E-26a.u.
   NPACO  =    256;   APACO  = 16.0  distance and # of slots for P.C.
   PSTRESS=    0.0 pullay stress

  Mass of Ions in am
   POMASS = 196.97
  Ionic Valenz
   ZVAL   =  11.00
  Atomic Wigner-Seitz radii
   RWIGS  =   1.34
   NELECT =     352.0000    total number of electrons
   NUPDOWN=      -1.0000    fix difference up-down

 DOS related values:
   EMIN   =  10.00;   EMAX   =-10.00  energy-range for DOS
   ISMEAR =     1;   SIGMA  =   0.20  broadening in eV -4-tet -1-fermi 0-gaus

 Electronic relaxation 2 (details)
   IALGO  =     48    algorithm
   LDIAG  =      T    sub-space diagonalisation
   IMIX   =      4    mixing-type and parameters
     AMIX     =   0.40;   BMIX     =  1.00
     AMIX_MAG =   1.60;   BMIX_MAG =  1.00
     AMIN     =   0.10
     WC   =   100.;   INIMIX=   1;  MIXPRE=   1

 Intra band minimization:
   WEIMIN = 0.0010     energy-eigenvalue tresh-hold
   EBREAK =  0.12E-07  absolut break condition
   DEPER  =   0.30     relativ break condition  

   TIME   =   0.10     timestep for ELM

  volume/ion in A,a.u.               =      17.58       118.64
  Fermi-wavevector in a.u.,eV,Ry     =   1.400215 26.675613  1.960602

 Second variation
   LSECVAR=     F    do a second variation
 
 Write flags
   LWAVE  =      T    write WAVECAR
   LCHARG =      F    write CHGCAR
   LVTOT  =      F    write LOCPOT, local potential
   LELF   =      F    write electronic localiz. function (ELF)
   LORBIT =      0    0 simple, 1 ext, 2 COOP (PROOUT)


 Dipole corrections
   IDIPOL =      0    1-x, 2-y, 3-z
   LDIPOL =      F    correct potential



--------------------------------------------------------------------------------------------------------


 conjugate gradient relaxation of ions
 charge density will be updated during run
 non-spin polarized calculation
 RMM-DIIS sequential band-by-band
 performe sub-space diagonalisation
    before iterative eigenvector-optimisation
 modified Broyden-mixing scheme, WC =      100.0
 initial mixing is a Kerker type mixing with AMIX =  0.4000 and BMIX =      1.0000
 Hartree-type preconditioning will be used
 using additional bands           36
 reciprocal scheme for non local part
 use partial core corrections
 calculate Harris-corrections to forces 
   (improved forces if not selfconsistent)
 use gradient corrections 
 use of overlap-Matrix (Vanderbilt PP)
 Methfessel and Paxton  Order N= 1 SIGMA  =   0.20


--------------------------------------------------------------------------------------------------------


  energy-cutoff  :      600.00
  volume of cell :      562.58
      direct lattice vectors                 reciprocal lattice vectors
     8.255200780  0.000000000  0.000000000     0.121135758 -0.000000002 -0.000000002
     0.000000150  8.255200780  0.000000000     0.000000000  0.121135758 -0.000000002
     0.000000150  0.000000150  8.255200780     0.000000000  0.000000000  0.121135758

  length of vectors
     8.255200780  8.255200780  8.255200780     0.121135758  0.121135758  0.121135758


 
 k-points in units of 2pi/SCALE and weight: Automatic mesh                          
   0.00757098  0.00757098  0.00757098       0.016
   0.02271295  0.00757098  0.00757098       0.047
   0.03785492  0.00757098  0.00757098       0.047
   0.05299689  0.00757098  0.00757098       0.047
   0.02271295  0.02271295  0.00757098       0.047
   0.03785492  0.02271295  0.00757098       0.094
   0.05299689  0.02271295  0.00757098       0.094
   0.03785492  0.03785492  0.00757098       0.047
   0.05299689  0.03785492  0.00757098       0.094
   0.05299689  0.05299689  0.00757098       0.047
   0.02271295  0.02271295  0.02271295       0.016
   0.03785492  0.02271295  0.02271295       0.047
   0.05299689  0.02271295  0.02271295       0.047
   0.03785492  0.03785492  0.02271295       0.047
   0.05299689  0.03785492  0.02271295       0.094
   0.05299689  0.05299689  0.02271295       0.047
   0.03785492  0.03785492  0.03785492       0.016
   0.05299689  0.03785492  0.03785492       0.047
   0.05299689  0.05299689  0.03785492       0.047
   0.05299689  0.05299689  0.05299689       0.016
 
 k-points in reciprocal lattice and weights: Automatic mesh                          
   0.06250000  0.06250000  0.06250000       0.016
   0.18750000  0.06250000  0.06250000       0.047
   0.31250000  0.06250000  0.06250000       0.047
   0.43750000  0.06250000  0.06250000       0.047
   0.18750000  0.18750000  0.06250000       0.047
   0.31250000  0.18750000  0.06250000       0.094
   0.43750000  0.18750000  0.06250000       0.094
   0.31250000  0.31250000  0.06250000       0.047
   0.43750000  0.31250000  0.06250000       0.094
   0.43750000  0.43750000  0.06250000       0.047
   0.18750000  0.18750000  0.18750000       0.016
   0.31250000  0.18750000  0.18750000       0.047
   0.43750000  0.18750000  0.18750000       0.047
   0.31250000  0.31250000  0.18750000       0.047
   0.43750000  0.31250000  0.18750000       0.094
   0.43750000  0.43750000  0.18750000       0.047
   0.31250000  0.31250000  0.31250000       0.016
   0.43750000  0.31250000  0.31250000       0.047
   0.43750000  0.43750000  0.31250000       0.047
   0.43750000  0.43750000  0.43750000       0.016
 
 position of ions in fractional coordinates (direct lattice) 
   0.75000000  0.75000000  0.50000000
   0.75000000  0.75000000  0.00000000
   0.75000000  0.00000000  0.25000000
   0.75000000  0.25000000  0.50000000
   0.00000000  0.75000000  0.25000000
   0.00000000  0.00000000  0.50000000
   0.25000000  0.75000000  0.50000000
   0.75000000  0.00000000  0.75000000
   0.75000000  0.25000000  0.00000000
   0.75000000  0.50000000  0.25000000
   0.00000000  0.75000000  0.75000000
   0.00000000  0.00000000  0.00000000
   0.00000000  0.25000000  0.25000000
   0.00000000  0.50000000  0.50000000
   0.25000000  0.75000000  0.00000000
   0.25000000  0.00000000  0.25000000
   0.25000000  0.25000000  0.50000000
   0.50000000  0.75000000  0.25000000
   0.50000000  0.00000000  0.50000000
   0.75000000  0.50000000  0.75000000
   0.00000000  0.25000000  0.75000000
   0.00000000  0.50000000  0.00000000
   0.25000000  0.00000000  0.75000000
   0.25000000  0.25000000  0.00000000
   0.25000000  0.50000000  0.25000000
   0.50000000  0.75000000  0.75000000
   0.50000000  0.00000000  0.00000000
   0.50000000  0.25000000  0.25000000
   0.50000000  0.50000000  0.50000000
   0.25000000  0.50000000  0.75000000
   0.50000000  0.25000000  0.75000000
   0.50000000  0.50000000  0.00000000
 
 position of ions in cartesian coordinates  (Angst):
   6.19140077  6.19140066  4.12760039
   6.19140070  6.19140058  0.00000000
   6.19140062  0.00000004  2.06380019
   6.19140070  2.06380027  4.12760039
   0.00000015  6.19140062  2.06380019
   0.00000007  0.00000007  4.12760039
   2.06380038  6.19140066  4.12760039
   6.19140070  0.00000011  6.19140058
   6.19140062  2.06380019  0.00000000
   6.19140070  4.12760043  2.06380019
   0.00000022  6.19140070  6.19140058
   0.00000000  0.00000000  0.00000000
   0.00000007  2.06380023  2.06380019
   0.00000015  4.12760046  4.12760039
   2.06380031  6.19140058  0.00000000
   2.06380023  0.00000004  2.06380019
   2.06380031  2.06380027  4.12760039
   4.12760054  6.19140062  2.06380019
   4.12760046  0.00000007  4.12760039
   6.19140077  4.12760050  6.19140058
   0.00000015  2.06380031  6.19140058
   0.00000007  4.12760039  0.00000000
   2.06380031  0.00000011  6.19140058
   2.06380023  2.06380019  0.00000000
   2.06380031  4.12760043  2.06380019
   4.12760062  6.19140070  6.19140058
   4.12760039  0.00000000  0.00000000
   4.12760047  2.06380023  2.06380019
   4.12760054  4.12760046  4.12760039
   2.06380038  4.12760050  6.19140058
   4.12760054  2.06380031  6.19140058
   4.12760046  4.12760039  0.00000000
 


--------------------------------------------------------------------------------------------------------


 k-point  1 :  0.06250.06250.0625  plane waves:  18826
 k-point  2 :  0.18750.06250.0625  plane waves:  18811
 k-point  3 :  0.31250.06250.0625  plane waves:  18777
 k-point  4 :  0.43750.06250.0625  plane waves:  18765
 k-point  5 :  0.18750.18750.0625  plane waves:  18790
 k-point  6 :  0.31250.18750.0625  plane waves:  18786
 k-point  7 :  0.43750.18750.0625  plane waves:  18774
 k-point  8 :  0.31250.31250.0625  plane waves:  18786
 k-point  9 :  0.43750.31250.0625  plane waves:  18780
 k-point 10 :  0.43750.43750.0625  plane waves:  18773
 k-point 11 :  0.18750.18750.1875  plane waves:  18808
 k-point 12 :  0.31250.18750.1875  plane waves:  18797
 k-point 13 :  0.43750.18750.1875  plane waves:  18758
 k-point 14 :  0.31250.31250.1875  plane waves:  18766
 k-point 15 :  0.43750.31250.1875  plane waves:  18759
 k-point 16 :  0.43750.43750.1875  plane waves:  18761
 k-point 17 :  0.31250.31250.3125  plane waves:  18778
 k-point 18 :  0.43750.31250.3125  plane waves:  18764
 k-point 19 :  0.43750.43750.3125  plane waves:  18742
 k-point 20 :  0.43750.43750.4375  plane waves:  18754

 maximum and minimum number of plane-waves per node :  18826 18742

 maximum number of plane-waves:  18826
 maximal index in each direction: 
   IXMAX= 16   IYMAX= 16   IZMAX= 16
   IXMIN=-16   IYMIN=-16   IZMIN=-16

 NGX is ok and might be reduce to  66
 NGY is ok and might be reduce to  66
 NGZ is ok and might be reduce to  66

 parallel 3dFFT wavefunction:
    minimum data exchange during FFTs selected (reduces bandwidth)
 parallel 3dFFT charge:
    minimum data exchange during FFTs selected (reduces bandwidth)

 For storing wavefunctions 1273.88 MBYTES are necessary
 For predicting wavefunctions  138.44 MBYTES are necessary
Broyden mixing: mesh for mixing (old mesh)
   NGX = 33   NGY = 33   NGZ = 33
  (NGX  =140   NGY  =140   NGZ  =140)
 gives a total of  35937 points
 initial charge density was supplied:
 charge density of overlapping atoms calculated
 number of electron  352.0000000 magnetization 
 keeping initial charge density in first step


--------------------------------------------------------------------------------------------------------


 Maximum index for augmentation-charges        72325 (set IRDMAX)


--------------------------------------------------------------------------------------------------------


 First call to EWALD:  gamma=   0.215
 Maximum number of real-space cells 3x 3x 3
 Maximum number of reciprocal cells 3x 3x 3

    FEWALD:  VPU time    0.01: CPU time    0.01


----------------------------------------- Iteration    1(   1)  ---------------------------------------


    POTLOK:  VPU time    1.22: CPU time    1.22
    SETDIJ:  VPU time    2.59: CPU time    2.59
    EDDIAG:  VPU time   43.57: CPU time   43.58
  RMM-DIIS:  VPU time  125.54: CPU time  125.57
    ORTHCH:  VPU time   10.34: CPU time   10.34
    DOS   :  VPU time    0.00: CPU time   -0.00
    ------------------------------------------
      LOOP:  VPU time  183.32: CPU time  183.37

 eigenvalue-minimisations  :  4240
 total energy-change (2. order) : 0.4469745E+04  (-0.1625021E+05)
 number of electron  352.0000000 magnetization 
 augmentation part   352.0000000 magnetization 

 Free energy of the ion-electron system (eV)
  ---------------------------------------------------
  alpha Z        PSCENC =      3408.89140614
  Ewald energy   TEWEN  =    -30966.35640272
  -1/2 Hartree   DENC   =     -4093.49233097
  -V(xc)+E(xc)   XCENC  =       488.22872475
  PAW double counting   =     23920.39735419   -23172.13309131
  entropy T*S    EENTRO =        -0.00785405
  eigenvalues    EBANDS =      5250.44365787
  atomic energy  EATOM  =     29633.77399530
  ---------------------------------------------------
  free energy    TOTEN  =      4469.74545921 eV

  energy without entropy =     4469.75331325  energy(sigma->0) =     4469.74807722


--------------------------------------------------------------------------------------------------------




----------------------------------------- Iteration    1(   2)  ---------------------------------------


    EDDIAG:  VPU time  100.60: CPU time  100.63
  RMM-DIIS:  VPU time  368.63: CPU time  368.74
    ORTHCH:  VPU time   11.55: CPU time   11.55
    DOS   :  VPU time    0.00: CPU time   -0.00
    ------------------------------------------
      LOOP:  VPU time  480.85: CPU time  481.01

 eigenvalue-minimisations  :  4240
 total energy-change (2. order) :-0.3540357E+04  (-0.3826571E+04)
 number of electron  352.0000000 magnetization 
 augmentation part   352.0000000 magnetization 

 Free energy of the ion-electron system (eV)
  ---------------------------------------------------
  alpha Z        PSCENC =      3408.89140614
  Ewald energy   TEWEN  =    -30966.35640272
  -1/2 Hartree   DENC   =     -4093.49233097
  -V(xc)+E(xc)   XCENC  =       488.22872475
  PAW double counting   =     23920.39735419   -23172.13309131
  entropy T*S    EENTRO =         0.00549100
  eigenvalues    EBANDS =      1710.07317360
  atomic energy  EATOM  =     29633.77399530
  ---------------------------------------------------
  free energy    TOTEN  =       929.38831998 eV

  energy without entropy =      929.38282898  energy(sigma->0) =      929.38648965


--------------------------------------------------------------------------------------------------------




----------------------------------------- Iteration    1(   3)  ---------------------------------------


    EDDIAG:  VPU time  105.43: CPU time  105.46
  RMM-DIIS:  VPU time  364.10: CPU time  364.21
    ORTHCH:  VPU time   11.55: CPU time   11.55
    DOS   :  VPU time    0.00: CPU time   -0.00
    ------------------------------------------
      LOOP:  VPU time  481.14: CPU time  481.30

 eigenvalue-minimisations  :  4240
 total energy-change (2. order) :-0.7235835E+03  (-0.7859350E+03)
 number of electron  352.0000000 magnetization 
 augmentation part   352.0000000 magnetization 

 Free energy of the ion-electron system (eV)
  ---------------------------------------------------
  alpha Z        PSCENC =      3408.89140614
  Ewald energy   TEWEN  =    -30966.35640272
  -1/2 Hartree   DENC   =     -4093.49233097
  -V(xc)+E(xc)   XCENC  =       488.22872475
  PAW double counting   =     23920.39735419   -23172.13309131
  entropy T*S    EENTRO =        -0.00178207
  eigenvalues    EBANDS =       986.49691768
  atomic energy  EATOM  =     29633.77399530
  ---------------------------------------------------
  free energy    TOTEN  =       205.80479099 eV

  energy without entropy =      205.80657306  energy(sigma->0) =      205.80538502


--------------------------------------------------------------------------------------------------------




----------------------------------------- Iteration    1(   4)  ---------------------------------------


    EDDIAG:  VPU time  105.49: CPU time  105.53
  RMM-DIIS:  VPU time  399.93: CPU time  400.05
    ORTHCH:  VPU time   10.42: CPU time   10.43
    DOS   :  VPU time   -0.00: CPU time   -0.00
    ------------------------------------------
      LOOP:  VPU time  515.91: CPU time  516.07

 eigenvalue-minimisations  :  4240
 total energy-change (2. order) :-0.2068966E+03  (-0.1608426E+03)
 number of electron  352.0000000 magnetization 
 augmentation part   352.0000000 magnetization 

 Free energy of the ion-electron system (eV)
  ---------------------------------------------------
  alpha Z        PSCENC =      3408.89140614
  Ewald energy   TEWEN  =    -30966.35640272
  -1/2 Hartree   DENC   =     -4093.49233097
  -V(xc)+E(xc)   XCENC  =       488.22872475
  PAW double counting   =     23920.39735419   -23172.13309131
  entropy T*S    EENTRO =        -0.01189040
  eigenvalues    EBANDS =       779.61040610
  atomic energy  EATOM  =     29633.77399530
  ---------------------------------------------------
  free energy    TOTEN  =        -1.09182891 eV

  energy without entropy =       -1.07993852  energy(sigma->0) =       -1.08786545


--------------------------------------------------------------------------------------------------------




----------------------------------------- Iteration    1(   5)  ---------------------------------------


    EDDIAG:  VPU time   98.60: CPU time   98.64
  RMM-DIIS:  VPU time  452.00: CPU time  452.14
    ORTHCH:  VPU time   11.67: CPU time   11.68
    DOS   :  VPU time    0.00: CPU time   -0.00
    ------------------------------------------
      LOOP:  VPU time  562.34: CPU time  562.52

 eigenvalue-minimisations  :  4240
 total energy-change (2. order) :-0.7375763E+02  (-0.5197233E+02)
 number of electron  352.0000000 magnetization 
 augmentation part   352.0000000 magnetization 

 Free energy of the ion-electron system (eV)
  ---------------------------------------------------
  alpha Z        PSCENC =      3408.89140614
  Ewald energy   TEWEN  =    -30966.35640272
  -1/2 Hartree   DENC   =     -4093.49233097
  -V(xc)+E(xc)   XCENC  =       488.22872475
  PAW double counting   =     23920.39735419   -23172.13309131
  entropy T*S    EENTRO =        -0.01838089
  eigenvalues    EBANDS =       705.85926433
  atomic energy  EATOM  =     29633.77399530
  ---------------------------------------------------
  free energy    TOTEN  =       -74.84946118 eV

  energy without entropy =      -74.83108029  energy(sigma->0) =      -74.84333422


--------------------------------------------------------------------------------------------------------




----------------------------------------- Iteration    1(   6)  ---------------------------------------


    EDDIAG:  VPU time  103.74: CPU time  103.87
  RMM-DIIS:  VPU time  397.36: CPU time  397.54
    ORTHCH:  VPU time   10.36: CPU time   10.36
    DOS   :  VPU time    0.00: CPU time   -0.00
    ------------------------------------------
      LOOP:  VPU time  511.53: CPU time  512.02

 eigenvalue-minimisations  :  4240
 total energy-change (2. order) :-0.2385570E+02  (-0.1874128E+02)
 number of electron  352.0000000 magnetization 
 augmentation part   352.0000000 magnetization 

 Free energy of the ion-electron system (eV)
  ---------------------------------------------------
  alpha Z        PSCENC =      3408.89140614
  Ewald energy   TEWEN  =    -30966.35640272
  -1/2 Hartree   DENC   =     -4093.49233097
  -V(xc)+E(xc)   XCENC  =       488.22872475
  PAW double counting   =     23920.39735419   -23172.13309131
  entropy T*S    EENTRO =        -0.00498555
  eigenvalues    EBANDS =       681.99017187
  atomic energy  EATOM  =     29633.77399530
  ---------------------------------------------------
  free energy    TOTEN  =       -98.70515830 eV

  energy without entropy =      -98.70017275  energy(sigma->0) =      -98.70349645


--------------------------------------------------------------------------------------------------------




----------------------------------------- Iteration    1(   7)  ---------------------------------------


    EDDIAG:  VPU time   97.93: CPU time   97.95
  RMM-DIIS:  VPU time  363.26: CPU time  363.34
    ORTHCH:  VPU time   11.62: CPU time   11.62
    DOS   :  VPU time    0.00: CPU time   -0.00
    ------------------------------------------
      LOOP:  VPU time  472.88: CPU time  473.00

 eigenvalue-minimisations  :  4240
 total energy-change (2. order) :-0.8944799E+01  (-0.7346824E+01)
 number of electron  352.0000000 magnetization 
 augmentation part   352.0000000 magnetization 

 Free energy of the ion-electron system (eV)
  ---------------------------------------------------
  alpha Z        PSCENC =      3408.89140614
  Ewald energy   TEWEN  =    -30966.35640272
  -1/2 Hartree   DENC   =     -4093.49233097
  -V(xc)+E(xc)   XCENC  =       488.22872475
  PAW double counting   =     23920.39735419   -23172.13309131
  entropy T*S    EENTRO =         0.01509062
  eigenvalues    EBANDS =       673.02529661
  atomic energy  EATOM  =     29633.77399530
  ---------------------------------------------------
  free energy    TOTEN  =      -107.64995739 eV

  energy without entropy =     -107.66504801  energy(sigma->0) =     -107.65498760


--------------------------------------------------------------------------------------------------------




----------------------------------------- Iteration    1(   8)  ---------------------------------------


    EDDIAG:  VPU time  115.35: CPU time  115.39
  RMM-DIIS:  VPU time  442.79: CPU time  442.92
    ORTHCH:  VPU time   10.36: CPU time   10.36
    DOS   :  VPU time    0.00: CPU time   -0.00
    ------------------------------------------
      LOOP:  VPU time  568.56: CPU time  568.73

 eigenvalue-minimisations  :  4240
 total energy-change (2. order) :-0.2958122E+01  (-0.2683025E+01)
 number of electron  352.0000000 magnetization 
 augmentation part   352.0000000 magnetization 

 Free energy of the ion-electron system (eV)
  ---------------------------------------------------
  alpha Z        PSCENC =      3408.89140614
  Ewald energy   TEWEN  =    -30966.35640272
  -1/2 Hartree   DENC   =     -4093.49233097
  -V(xc)+E(xc)   XCENC  =       488.22872475
  PAW double counting   =     23920.39735419   -23172.13309131
  entropy T*S    EENTRO =         0.01985750
  eigenvalues    EBANDS =       670.06240752
  atomic energy  EATOM  =     29633.77399530
  ---------------------------------------------------
  free energy    TOTEN  =      -110.60807959 eV

  energy without entropy =     -110.62793710  energy(sigma->0) =     -110.61469876


--------------------------------------------------------------------------------------------------------




----------------------------------------- Iteration    1(   9)  ---------------------------------------


    EDDIAG:  VPU time   92.54: CPU time   92.57
  RMM-DIIS:  VPU time  730.84: CPU time  731.08
    ORTHCH:  VPU time    7.96: CPU time    7.96
    DOS   :  VPU time   -0.00: CPU time   -0.00
    ------------------------------------------
      LOOP:  VPU time  831.41: CPU time  831.67

 eigenvalue-minimisations  :  8840
 total energy-change (2. order) :-0.1601360E+01  (-0.1504471E+01)
 number of electron  352.0000000 magnetization 
 augmentation part   352.0000000 magnetization 

 Free energy of the ion-electron system (eV)
  ---------------------------------------------------
  alpha Z        PSCENC =      3408.89140614
  Ewald energy   TEWEN  =    -30966.35640272
  -1/2 Hartree   DENC   =     -4093.49233097
  -V(xc)+E(xc)   XCENC  =       488.22872475
  PAW double counting   =     23920.39735419   -23172.13309131
  entropy T*S    EENTRO =         0.02317379
  eigenvalues    EBANDS =       668.45773085
  atomic energy  EATOM  =     29633.77399530
  ---------------------------------------------------
  free energy    TOTEN  =      -112.20943998 eV

  energy without entropy =     -112.23261376  energy(sigma->0) =     -112.21716457


--------------------------------------------------------------------------------------------------------




----------------------------------------- Iteration    1(  10)  ---------------------------------------


    EDDIAG:  VPU time   95.20: CPU time   95.23
  RMM-DIIS:  VPU time  778.16: CPU time  778.41
    ORTHCH:  VPU time    8.89: CPU time    8.89
    DOS   :  VPU time    0.00: CPU time   -0.00
    ------------------------------------------
      LOOP:  VPU time  882.31: CPU time  882.59

 eigenvalue-minimisations  :  9583
 total energy-change (2. order) :-0.1931566E+00  (-0.1879191E+00)
 number of electron  352.0000000 magnetization 
 augmentation part   352.0000000 magnetization 

 Free energy of the ion-electron system (eV)
  ---------------------------------------------------
  alpha Z        PSCENC =      3408.89140614
  Ewald energy   TEWEN  =    -30966.35640272
  -1/2 Hartree   DENC   =     -4093.49233097
  -V(xc)+E(xc)   XCENC  =       488.22872475
  PAW double counting   =     23920.39735419   -23172.13309131
  entropy T*S    EENTRO =         0.02293528
  eigenvalues    EBANDS =       668.26481273
  atomic energy  EATOM  =     29633.77399530
  ---------------------------------------------------
  free energy    TOTEN  =      -112.40259661 eV

  energy without entropy =     -112.42553188  energy(sigma->0) =     -112.41024170


--------------------------------------------------------------------------------------------------------




----------------------------------------- Iteration    1(  11)  ---------------------------------------


    EDDIAG:  VPU time  111.44: CPU time  111.51
  RMM-DIIS:  VPU time  715.77: CPU time  716.56
    ORTHCH:  VPU time    8.88: CPU time    8.88
    DOS   :  VPU time    0.00: CPU time   -0.00
    ------------------------------------------
      LOOP:  VPU time  836.15: CPU time  837.02

 eigenvalue-minimisations  :  8932
 total energy-change (2. order) :-0.6357961E-02  (-0.5277245E-02)
 number of electron  352.0000000 magnetization 
 augmentation part   352.0000000 magnetization 

 Free energy of the ion-electron system (eV)
  ---------------------------------------------------
  alpha Z        PSCENC =      3408.89140614
  Ewald energy   TEWEN  =    -30966.35640272
  -1/2 Hartree   DENC   =     -4093.49233097
  -V(xc)+E(xc)   XCENC  =       488.22872475
  PAW double counting   =     23920.39735419   -23172.13309131
  entropy T*S    EENTRO =         0.02293966
  eigenvalues    EBANDS =       668.25845039
  atomic energy  EATOM  =     29633.77399530
  ---------------------------------------------------
  free energy    TOTEN  =      -112.40895457 eV

  energy without entropy =     -112.43189423  energy(sigma->0) =     -112.41660112


--------------------------------------------------------------------------------------------------------




----------------------------------------- Iteration    1(  12)  ---------------------------------------


    EDDIAG:  VPU time  113.20: CPU time  113.24
  RMM-DIIS:  VPU time  719.16: CPU time  719.40
    ORTHCH:  VPU time   11.02: CPU time   11.02
    DOS   :  VPU time   -0.00: CPU time   -0.00
    CHARGE:  VPU time   66.72: CPU time   66.75
    MIXING:  VPU time    0.07: CPU time    0.07
    ------------------------------------------
      LOOP:  VPU time  910.23: CPU time  910.54

 eigenvalue-minimisations  :  8628
 total energy-change (2. order) :-0.1077411E-02  (-0.1017411E-02)
 number of electron  352.0000007 magnetization 
 augmentation part   124.0154256 magnetization 

 Broyden mixing:
  rms(total) = 0.16370E+01    rms(broyden)= 0.16370E+01
  rms(prec ) = 0.25085E+01
  weight for this iteration     100.00

 Free energy of the ion-electron system (eV)
  ---------------------------------------------------
  alpha Z        PSCENC =      3408.89140614
  Ewald energy   TEWEN  =    -30966.35640272
  -1/2 Hartree   DENC   =     -4093.49233097
  -V(xc)+E(xc)   XCENC  =       488.22872475
  PAW double counting   =     23920.39735419   -23172.13309131
  entropy T*S    EENTRO =         0.02294563
  eigenvalues    EBANDS =       668.25736701
  atomic energy  EATOM  =     29633.77399530
  ---------------------------------------------------
  free energy    TOTEN  =      -112.41003198 eV

  energy without entropy =     -112.43297760  energy(sigma->0) =     -112.41768052


--------------------------------------------------------------------------------------------------------




----------------------------------------- Iteration    1(  13)  ---------------------------------------


    POTLOK:  VPU time    2.44: CPU time    2.44
    SETDIJ:  VPU time    6.81: CPU time    6.82
    EDDIAG:  VPU time  117.05: CPU time  117.09
  RMM-DIIS:  VPU time  816.09: CPU time  816.35
    ORTHCH:  VPU time   10.93: CPU time   10.93
    DOS   :  VPU time    0.00: CPU time   -0.00
    CHARGE:  VPU time   66.39: CPU time   66.41
    MIXING:  VPU time    0.08: CPU time    0.08
    ------------------------------------------
      LOOP:  VPU time 1019.86: CPU time 1020.20

 eigenvalue-minimisations  :  8480
 total energy-change (2. order) : 0.7382136E+01  (-0.1942289E+01)
 number of electron  352.0000008 magnetization 
 augmentation part   128.0673948 magnetization 

 Broyden mixing:
  rms(total) = 0.46727E+00    rms(broyden)= 0.46727E+00
  rms(prec ) = 0.70395E+00
  weight for this iteration     100.00

 eigenvalues of (default mixing * dielectric matrix)
  average eigenvalue GAMMA=   1.2734
  1.2734

 Free energy of the ion-electron system (eV)
  ---------------------------------------------------
  alpha Z        PSCENC =      3408.89140614
  Ewald energy   TEWEN  =    -30966.35640272
  -1/2 Hartree   DENC   =     -3851.47908081
  -V(xc)+E(xc)   XCENC  =       477.57923330
  PAW double counting   =     23745.20395642   -23035.50009673
  entropy T*S    EENTRO =         0.01622512
  eigenvalues    EBANDS =       482.84286795
  atomic energy  EATOM  =     29633.77399530
  ---------------------------------------------------
  free energy    TOTEN  =      -105.02789604 eV

  energy without entropy =     -105.04412115  energy(sigma->0) =     -105.03330441


--------------------------------------------------------------------------------------------------------




----------------------------------------- Iteration    1(  14)  ---------------------------------------


    POTLOK:  VPU time    2.45: CPU time    2.45
    SETDIJ:  VPU time    6.86: CPU time    6.86
    EDDIAG:  VPU time  116.76: CPU time  116.81
  RMM-DIIS:  VPU time  837.39: CPU time  837.66
    ORTHCH:  VPU time   10.40: CPU time   10.40
    DOS   :  VPU time    0.00: CPU time   -0.00
    CHARGE:  VPU time   50.13: CPU time   50.15
    MIXING:  VPU time    0.10: CPU time    0.10
    ------------------------------------------
      LOOP:  VPU time 1024.17: CPU time 1024.52

 eigenvalue-minimisations  :  8481
 total energy-change (2. order) : 0.5185300E+00  (-0.2515702E+00)
 number of electron  352.0000008 magnetization 
 augmentation part   129.2793977 magnetization 

 Broyden mixing:
  rms(total) = 0.16874E+00    rms(broyden)= 0.16874E+00
  rms(prec ) = 0.19217E+00
  weight for this iteration     100.00

 eigenvalues of (default mixing * dielectric matrix)
  average eigenvalue GAMMA=   1.7773
  1.2967  2.2578

 Free energy of the ion-electron system (eV)
  ---------------------------------------------------
  alpha Z        PSCENC =      3408.89140614
  Ewald energy   TEWEN  =    -30966.35640272
  -1/2 Hartree   DENC   =     -3766.65317361
  -V(xc)+E(xc)   XCENC  =       473.76634058
  PAW double counting   =     23826.75802573   -23142.35977338
  entropy T*S    EENTRO =         0.01305785
  eigenvalues    EBANDS =       427.65715804
  atomic energy  EATOM  =     29633.77399530
  ---------------------------------------------------
  free energy    TOTEN  =      -104.50936607 eV

  energy without entropy =     -104.52242392  energy(sigma->0) =     -104.51371869


--------------------------------------------------------------------------------------------------------




----------------------------------------- Iteration    1(  15)  ---------------------------------------


    POTLOK:  VPU time    2.04: CPU time    2.04
    SETDIJ:  VPU time    5.68: CPU time    5.68
    EDDIAG:  VPU time  103.08: CPU time  103.12
  RMM-DIIS:  VPU time  768.21: CPU time  768.46
    ORTHCH:  VPU time   10.86: CPU time   10.86
    DOS   :  VPU time    0.00: CPU time   -0.00
    CHARGE:  VPU time   66.07: CPU time   66.10
    MIXING:  VPU time    0.07: CPU time    0.07
    ------------------------------------------
      LOOP:  VPU time  956.09: CPU time  956.42

 eigenvalue-minimisations  :  8489
 total energy-change (2. order) : 0.9558618E-01  (-0.1012899E-01)
 number of electron  352.0000008 magnetization 
 augmentation part   129.1531242 magnetization 

 Broyden mixing:
  rms(total) = 0.24818E-01    rms(broyden)= 0.24818E-01
  rms(prec ) = 0.37847E-01
  weight for this iteration     100.00

 eigenvalues of (default mixing * dielectric matrix)
  average eigenvalue GAMMA=   1.7616
  2.6848  1.3000  1.3000

 Free energy of the ion-electron system (eV)
  ---------------------------------------------------
  alpha Z        PSCENC =      3408.89140614
  Ewald energy   TEWEN  =    -30966.35640272
  -1/2 Hartree   DENC   =     -3752.90278775
  -V(xc)+E(xc)   XCENC  =       473.01796804
  PAW double counting   =     24034.39924433   -23367.52073754
  entropy T*S    EENTRO =         0.01344872
  eigenvalues    EBANDS =       432.27008559
  atomic energy  EATOM  =     29633.77399530
  ---------------------------------------------------
  free energy    TOTEN  =      -104.41377989 eV

  energy without entropy =     -104.42722861  energy(sigma->0) =     -104.41826280


--------------------------------------------------------------------------------------------------------




----------------------------------------- Iteration    1(  16)  ---------------------------------------


    POTLOK:  VPU time    2.43: CPU time    2.44
    SETDIJ:  VPU time    6.85: CPU time    6.85
    EDDIAG:  VPU time  116.71: CPU time  116.75
  RMM-DIIS:  VPU time  713.27: CPU time  713.71
    ORTHCH:  VPU time   10.77: CPU time   10.78
    DOS   :  VPU time    0.00: CPU time   -0.00
    CHARGE:  VPU time   66.04: CPU time   66.09
    MIXING:  VPU time    0.08: CPU time    0.08
    ------------------------------------------
      LOOP:  VPU time  916.23: CPU time  916.79

 eigenvalue-minimisations  :  8555
 total energy-change (2. order) : 0.3805847E-03  (-0.1413462E-02)
 number of electron  352.0000008 magnetization 
 augmentation part   129.2392697 magnetization 

 Broyden mixing:
  rms(total) = 0.92420E-02    rms(broyden)= 0.92417E-02
  rms(prec ) = 0.12698E-01
  weight for this iteration     100.00

 eigenvalues of (default mixing * dielectric matrix)
  average eigenvalue GAMMA=   1.8788
  1.0230  1.2112  2.6405  2.6405

 Free energy of the ion-electron system (eV)
  ---------------------------------------------------
  alpha Z        PSCENC =      3408.89140614
  Ewald energy   TEWEN  =    -30966.35640272
  -1/2 Hartree   DENC   =     -3745.86235878
  -V(xc)+E(xc)   XCENC  =       472.69200300
  PAW double counting   =     24060.37699393   -23395.72296042
  entropy T*S    EENTRO =         0.01321074
  eigenvalues    EBANDS =       427.78071350
  atomic energy  EATOM  =     29633.77399530
  ---------------------------------------------------
  free energy    TOTEN  =      -104.41339931 eV

  energy without entropy =     -104.42661005  energy(sigma->0) =     -104.41780289


--------------------------------------------------------------------------------------------------------




----------------------------------------- Iteration    1(  17)  ---------------------------------------


    POTLOK:  VPU time    2.48: CPU time    2.48
    SETDIJ:  VPU time    6.85: CPU time    6.85
    EDDIAG:  VPU time  116.96: CPU time  117.06
  RMM-DIIS:  VPU time  732.23: CPU time  732.82
    ORTHCH:  VPU time   10.92: CPU time   10.93
    DOS   :  VPU time   -0.00: CPU time   -0.00
    CHARGE:  VPU time   66.17: CPU time   66.23
    MIXING:  VPU time    0.08: CPU time    0.08
    ------------------------------------------
      LOOP:  VPU time  935.77: CPU time  936.52

 eigenvalue-minimisations  :  8589
 total energy-change (2. order) : 0.7473693E-04  (-0.4775201E-04)
 number of electron  352.0000008 magnetization 
 augmentation part   129.2391644 magnetization 

 Broyden mixing:
  rms(total) = 0.39320E-02    rms(broyden)= 0.39319E-02
  rms(prec ) = 0.52997E-02
  weight for this iteration     100.00

 eigenvalues of (default mixing * dielectric matrix)
  average eigenvalue GAMMA=   1.7082
  2.8014  2.4063  1.0379  1.1477  1.1477

 Free energy of the ion-electron system (eV)
  ---------------------------------------------------
  alpha Z        PSCENC =      3408.89140614
  Ewald energy   TEWEN  =    -30966.35640272
  -1/2 Hartree   DENC   =     -3747.54182178
  -V(xc)+E(xc)   XCENC  =       472.76121902
  PAW double counting   =     24067.62943994   -23401.78754661
  entropy T*S    EENTRO =         0.01323634
  eigenvalues    EBANDS =       428.20314980
  atomic energy  EATOM  =     29633.77399530
  ---------------------------------------------------
  free energy    TOTEN  =      -104.41332457 eV

  energy without entropy =     -104.42656091  energy(sigma->0) =     -104.41773668


--------------------------------------------------------------------------------------------------------




----------------------------------------- Iteration    1(  18)  ---------------------------------------


    POTLOK:  VPU time    2.47: CPU time    2.47
    SETDIJ:  VPU time    6.90: CPU time    6.91
    EDDIAG:  VPU time  100.48: CPU time  100.56
  RMM-DIIS:  VPU time  815.53: CPU time  816.17
    ORTHCH:  VPU time   11.00: CPU time   11.01
    DOS   :  VPU time    0.00: CPU time   -0.00
    CHARGE:  VPU time   66.37: CPU time   66.43
    MIXING:  VPU time    0.06: CPU time    0.06
    ------------------------------------------
      LOOP:  VPU time 1002.91: CPU time 1003.70

 eigenvalue-minimisations  :  8486
 total energy-change (2. order) : 0.1953984E-04  (-0.1949957E-04)
 number of electron  352.0000008 magnetization 
 augmentation part   129.2273291 magnetization 

 Broyden mixing:
  rms(total) = 0.14985E-03    rms(broyden)= 0.14979E-03
  rms(prec ) = 0.17463E-03
  weight for this iteration     100.00

 eigenvalues of (default mixing * dielectric matrix)
  average eigenvalue GAMMA=   1.8831
  2.8822  2.7779  2.4065  0.9744  1.1288  1.1288

 Free energy of the ion-electron system (eV)
  ---------------------------------------------------
  alpha Z        PSCENC =      3408.89140614
  Ewald energy   TEWEN  =    -30966.35640272
  -1/2 Hartree   DENC   =     -3748.00477458
  -V(xc)+E(xc)   XCENC  =       472.77986811
  PAW double counting   =     24069.39180971   -23403.64506620
  entropy T*S    EENTRO =         0.01326817
  eigenvalues    EBANDS =       428.74259104
  atomic energy  EATOM  =     29633.77399530
  ---------------------------------------------------
  free energy    TOTEN  =      -104.41330503 eV

  energy without entropy =     -104.42657320  energy(sigma->0) =     -104.41772775


--------------------------------------------------------------------------------------------------------




----------------------------------------- Iteration    1(  19)  ---------------------------------------


    POTLOK:  VPU time    2.46: CPU time    2.47
    SETDIJ:  VPU time    6.90: CPU time    6.91
    EDDIAG:  VPU time  117.34: CPU time  117.43
  RMM-DIIS:  VPU time  418.34: CPU time  418.67
    ORTHCH:  VPU time    9.21: CPU time    9.22
    DOS   :  VPU time    0.00: CPU time   -0.00
    ------------------------------------------
      LOOP:  VPU time  554.33: CPU time  554.77

 eigenvalue-minimisations  :  4764
 total energy-change (2. order) : 0.3235480E-05  (-0.4341830E-06)
 number of electron  352.0000008 magnetization 
 augmentation part   129.2273291 magnetization 

 Free energy of the ion-electron system (eV)
  ---------------------------------------------------
  alpha Z        PSCENC =      3408.89140614
  Ewald energy   TEWEN  =    -30966.35640272
  -1/2 Hartree   DENC   =     -3748.01826441
  -V(xc)+E(xc)   XCENC  =       472.78044601
  PAW double counting   =     24068.73456717   -23402.97935276
  entropy T*S    EENTRO =         0.01326885
  eigenvalues    EBANDS =       428.74703463
  atomic energy  EATOM  =     29633.77399530
  ---------------------------------------------------
  free energy    TOTEN  =      -104.41330179 eV

  energy without entropy =     -104.42657065  energy(sigma->0) =     -104.41772475


--------------------------------------------------------------------------------------------------------




 average (electrostatic) potential at core
  the test charge radii are     1.2098
  (the norm of the test charge is              1.0000)
       1 -45.8516       2 -45.8516       3 -45.8516       4 -45.8516       5 -45.8516
       6 -45.8516       7 -45.8516       8 -45.8516       9 -45.8516      10 -45.8516
      11 -45.8516      12 -45.8516      13 -45.8516      14 -45.8516      15 -45.8516
      16 -45.8516      17 -45.8516      18 -45.8516      19 -45.8516      20 -45.8516
      21 -45.8516      22 -45.8516      23 -45.8516      24 -45.8516      25 -45.8516
      26 -45.8516      27 -45.8516      28 -45.8516      29 -45.8516      30 -45.8516
      31 -45.8516      32 -45.8516
 
 
 
 E-fermi :   5.3737     XC(G=0): -12.5338     alpha+bet : -9.8712
   add alpha+bet to get absolut eigen values

 k-point   1 :       0.0625    0.0625    0.0625
  band No.  band energies     occupation 
      1      -4.1379      2.00000
      2      -2.0005      2.00000
      3      -2.0005      2.00000
      4      -2.0005      2.00000
      5      -1.7112      2.00000
      6      -1.6869      2.00000
      7      -1.6869      2.00000
      8      -1.6869      2.00000
      9      -1.6145      2.00000
     10      -1.6145      2.00000
     11      -1.6145      2.00000
     12      -1.4507      2.00000
     13      -1.4507      2.00000
     14      -1.4507      2.00000
     15      -1.1618      2.00000
     16      -1.1618      2.00000
     17      -1.1618      2.00000
     18      -0.7364      2.00000
     19      -0.7364      2.00000
     20      -0.7364      2.00000
     21      -0.5408      2.00000
     22      -0.5408      2.00000
     23      -0.5408      2.00000
     24      -0.5408      2.00000
     25      -0.5408      2.00000
     26      -0.5408      2.00000
     27      -0.4506      2.00000
     28      -0.4506      2.00000
     29      -0.4506      2.00000
     30      -0.4189      2.00000
     31      -0.4189      2.00000
     32      -0.4189      2.00000
     33      -0.4189      2.00000
     34      -0.4189      2.00000
     35      -0.4189      2.00000
     36      -0.3685      2.00000
     37      -0.3685      2.00000
     38      -0.3685      2.00000
     39      -0.1801      2.00000
     40      -0.1801      2.00000
     41      -0.1801      2.00000
     42       0.1655      2.00000
     43       0.1655      2.00000
     44       0.1655      2.00000
     45       0.1655      2.00000
     46       0.1655      2.00000
     47       0.1655      2.00000
     48       0.2650      2.00000
     49       0.2650      2.00000
     50       0.2650      2.00000
     51       0.2917      2.00000
     52       0.2917      2.00000
     53       0.2917      2.00000
     54       0.2917      2.00000
     55       0.2917      2.00000
     56       0.2917      2.00000
     57       0.3641      2.00000
     58       0.3641      2.00000
     59       0.3641      2.00000
     60       0.5343      2.00000
     61       0.5343      2.00000
     62       0.5343      2.00000
     63       0.5343      2.00000
     64       0.5343      2.00000
     65       0.5343      2.00000
     66       0.5905      2.00000
     67       0.5905      2.00000
     68       0.5905      2.00000
     69       0.5927      2.00000
     70       0.5927      2.00000
     71       0.5927      2.00000
     72       0.5927      2.00000
     73       0.5927      2.00000
     74       0.5927      2.00000
     75       0.7051      2.00000
     76       0.7051      2.00000
     77       0.7051      2.00000
     78       0.7308      2.00000
     79       0.7308      2.00000
     80       0.7308      2.00000
     81       0.7536      2.00000
     82       0.7536      2.00000
     83       0.7664      2.00000
     84       0.7664      2.00000
     85       0.7664      2.00000
     86       0.7681      2.00000
     87       0.7904      2.00000
     88       0.7904      2.00000
     89       1.3892      2.00000
     90       1.3892      2.00000
     91       1.3892      2.00000
     92       1.4615      2.00000
     93       1.4615      2.00000
     94       1.4615      2.00000
     95       1.5984      2.00000
     96       1.5984      2.00000
     97       1.5984      2.00000
     98       1.6779      2.00000
     99       1.6779      2.00000
    100       1.6779      2.00000
    101       1.6779      2.00000
    102       1.6779      2.00000
    103       1.6779      2.00000
    104       1.6849      2.00000
    105       1.6849      2.00000
    106       1.6849      2.00000
    107       1.8065      2.00000
    108       1.8065      2.00000
    109       1.8065      2.00000
    110       1.8899      2.00000
    111       1.8899      2.00000
    112       1.8899      2.00000
    113       2.0672      2.00000
    114       2.0672      2.00000
    115       2.0672      2.00000
    116       2.1044      2.00000
    117       2.1044      2.00000
    118       2.1044      2.00000
    119       2.1161      2.00000
    120       2.1161      2.00000
    121       2.1161      2.00000
    122       2.1161      2.00000
    123       2.1161      2.00000
    124       2.1161      2.00000
    125       2.1652      2.00000
    126       2.1652      2.00000
    127       2.1652      2.00000
    128       2.2115      2.00000
    129       2.2115      2.00000
    130       2.2656      2.00000
    131       2.2656      2.00000
    132       2.2656      2.00000
    133       2.2656      2.00000
    134       2.2656      2.00000
    135       2.2656      2.00000
    136       2.3798      2.00000
    137       2.3798      2.00000
    138       2.3798      2.00000
    139       2.6996      2.00000
    140       2.6996      2.00000
    141       2.6996      2.00000
    142       2.8122      2.00000
    143       2.8122      2.00000
    144       2.8122      2.00000
    145       3.1750      2.00000
    146       3.1750      2.00000
    147       3.1750      2.00000
    148       3.2908      2.00000
    149       3.2908      2.00000
    150       3.2908      2.00000
    151       3.3304      2.00000
    152       3.3304      2.00000
    153       3.3551      2.00000
    154       3.3551      2.00000
    155       3.3551      2.00000
    156       3.5713      2.00000
    157       3.5713      2.00000
    158       3.5713      2.00000
    159       3.6366      2.00000
    160       3.6366      2.00000
    161       3.6366      2.00000
    162       3.6366      2.00000
    163       3.6366      2.00000
    164       3.6366      2.00000
    165       3.6411      2.00000
    166       3.6411      2.00000
    167       3.6411      2.00000
    168       4.2784      2.00000
    169       4.5858      2.00000
    170       4.5858      2.00000
    171       4.5858      2.00000
    172       4.6962      2.00002
    173       4.6962      2.00002
    174       4.6962      2.00002
    175       5.0264      2.03398
    176       5.0264      2.03398
    177       5.0264      2.03398
    178       5.0264      2.03398
    179       5.0264      2.03398
    180       5.0264      2.03398
    181       5.4842      0.20495
    182       5.4842      0.20495
    183       5.4842      0.20495
    184       6.4769     -0.00000
    185       6.4769     -0.00000
    186       6.4769     -0.00000
    187       8.3175     -0.00000
    188       8.3175     -0.00000
    189       8.3175     -0.00000
    190       8.5959     -0.00000
    191       9.8390     -0.00000
    192       9.8390     -0.00000
    193       9.8390     -0.00000
    194       9.8390     -0.00000
    195       9.8390     -0.00000
    196       9.8391     -0.00000
    197      11.0212      0.00000
    198      11.0218      0.00000
    199      11.0345      0.00000
    200      11.2429      0.00000
    201      11.2430      0.00000
    202      11.2431      0.00000
    203      11.2435      0.00000
    204      11.2463      0.00000
    205      11.2600      0.00000
    206      12.0363      0.00000
    207      12.0382      0.00000
    208      12.0406      0.00000
    209      12.0552      0.00000
    210      12.1886      0.00000
    211      13.2767      0.00000
    212      13.3885      0.00000

 k-point   2 :       0.1875    0.0625    0.0625
  band No.  band energies     occupation 
      1      -4.0492      2.00000
      2      -2.4440      2.00000
      3      -1.9370      2.00000
      4      -1.9370      2.00000
      5      -1.6863      2.00000
      6      -1.6376      2.00000
      7      -1.6376      2.00000
      8      -1.6140      2.00000
      9      -1.5519      2.00000
     10      -1.5519      2.00000
     11      -1.4205      2.00000
     12      -1.3931      2.00000
     13      -1.3931      2.00000
     14      -1.3549      2.00000
     15      -1.1300      2.00000
     16      -1.1126      2.00000
     17      -1.1126      2.00000
     18      -0.9550      2.00000
     19      -0.9550      2.00000
     20      -0.9101      2.00000
     21      -0.7420      2.00000
     22      -0.7420      2.00000
     23      -0.6747      2.00000
     24      -0.6747      2.00000
     25      -0.6431      2.00000
     26      -0.5475      2.00000
     27      -0.5352      2.00000
     28      -0.5352      2.00000
     29      -0.3861      2.00000
     30      -0.3861      2.00000
     31      -0.3852      2.00000
     32      -0.3852      2.00000
     33      -0.3725      2.00000
     34      -0.3725      2.00000
     35      -0.3643      2.00000
     36      -0.3643      2.00000
     37      -0.3376      2.00000
     38      -0.3376      2.00000
     39      -0.1568      2.00000
     40      -0.1568      2.00000
     41      -0.1544      2.00000
     42      -0.1544      2.00000
     43       0.0108      2.00000
     44       0.1382      2.00000
     45       0.1382      2.00000
     46       0.1658      2.00000
     47       0.1658      2.00000
     48       0.1828      2.00000
     49       0.1828      2.00000
     50       0.2100      2.00000
     51       0.2100      2.00000
     52       0.2827      2.00000
     53       0.2827      2.00000
     54       0.3729      2.00000
     55       0.3729      2.00000
     56       0.3900      2.00000
     57       0.4248      2.00000
     58       0.4248      2.00000
     59       0.4391      2.00000
     60       0.4391      2.00000
     61       0.4552      2.00000
     62       0.4749      2.00000
     63       0.4749      2.00000
     64       0.5416      2.00000
     65       0.5416      2.00000
     66       0.5549      2.00000
     67       0.5549      2.00000
     68       0.5780      2.00000
     69       0.5780      2.00000
     70       0.6882      2.00000
     71       0.7079      2.00000
     72       0.7079      2.00000
     73       0.7275      2.00000
     74       0.7544      2.00000
     75       0.7544      2.00000
     76       0.7549      2.00000
     77       0.7549      2.00000
     78       0.7555      2.00000
     79       0.7810      2.00000
     80       0.7964      2.00000
     81       0.8093      2.00000
     82       0.8093      2.00000
     83       0.8188      2.00000
     84       0.8261      2.00000
     85       0.8289      2.00000
     86       0.8415      2.00000
     87       0.9422      2.00000
     88       0.9422      2.00000
     89       1.2451      2.00000
     90       1.2451      2.00000
     91       1.2852      2.00000
     92       1.2852      2.00000
     93       1.4150      2.00000
     94       1.4399      2.00000
     95       1.5268      2.00000
     96       1.5268      2.00000
     97       1.5472      2.00000
     98       1.5663      2.00000
     99       1.6216      2.00000
    100       1.6216      2.00000
    101       1.6773      2.00000
    102       1.7241      2.00000
    103       1.7605      2.00000
    104       1.7605      2.00000
    105       1.7851      2.00000
    106       1.7851      2.00000
    107       1.7873      2.00000
    108       1.7873      2.00000
    109       1.8270      2.00000
    110       1.8270      2.00000
    111       1.9990      2.00000
    112       1.9990      2.00000
    113       2.0201      2.00000
    114       2.0201      2.00000
    115       2.0388      2.00000
    116       2.0388      2.00000
    117       2.1226      2.00000
    118       2.1226      2.00000
    119       2.1389      2.00000
    120       2.1389      2.00000
    121       2.1646      2.00000
    122       2.2010      2.00000
    123       2.2010      2.00000
    124       2.2316      2.00000
    125       2.2436      2.00000
    126       2.2436      2.00000
    127       2.2856      2.00000
    128       2.3018      2.00000
    129       2.3018      2.00000
    130       2.3401      2.00000
    131       2.4352      2.00000
    132       2.4352      2.00000
    133       2.4702      2.00000
    134       2.4702      2.00000
    135       2.4785      2.00000
    136       2.5275      2.00000
    137       2.5411      2.00000
    138       2.5411      2.00000
    139       2.5917      2.00000
    140       2.7526      2.00000
    141       2.7526      2.00000
    142       2.8511      2.00000
    143       2.8873      2.00000
    144       2.8873      2.00000
    145       2.8937      2.00000
    146       2.8937      2.00000
    147       2.9260      2.00000
    148       3.0923      2.00000
    149       3.2127      2.00000
    150       3.2127      2.00000
    151       3.2494      2.00000
    152       3.2611      2.00000
    153       3.3027      2.00000
    154       3.3027      2.00000
    155       3.3221      2.00000
    156       3.3226      2.00000
    157       3.3226      2.00000
    158       3.4806      2.00000
    159       3.5493      2.00000
    160       3.5493      2.00000
    161       3.5504      2.00000
    162       3.5504      2.00000
    163       3.5668      2.00000
    164       3.6365      2.00000
    165       3.6365      2.00000
    166       3.6368      2.00000
    167       3.6368      2.00000
    168       4.1584      2.00000
    169       4.1856      2.00000
    170       4.1856      2.00000
    171       4.5663      2.00000
    172       4.6010      2.00000
    173       4.6010      2.00000
    174       4.7846      2.00025
    175       4.7846      2.00025
    176       5.0225      2.03235
    177       5.0225      2.03235
    178       5.1207      2.07045
    179       5.4972      0.14453
    180       5.5276      0.03626
    181       5.5276      0.03626
    182       5.8614     -0.00303
    183       5.9937     -0.00011
    184       5.9937     -0.00011
    185       6.8195     -0.00000
    186       6.8195     -0.00000
    187       8.3149     -0.00000
    188       8.6046     -0.00000
    189       8.6046     -0.00000
    190       9.0834     -0.00000
    191       9.1972     -0.00000
    192       9.1972     -0.00000
    193       9.4226     -0.00000
    194       9.4226     -0.00000
    195       9.7559     -0.00000
    196       9.7559     -0.00000
    197      10.6724     -0.00000
    198      10.6725     -0.00000
    199      10.9441      0.00000
    200      10.9451      0.00000
    201      11.1744      0.00000
    202      11.1767      0.00000
    203      11.4109      0.00000
    204      11.4135      0.00000
    205      11.8415      0.00000
    206      12.2130      0.00000
    207      12.3679      0.00000
    208      12.3913      0.00000
    209      12.5429      0.00000
    210      12.6054      0.00000
    211      12.7214      0.00000
    212      12.7929      0.00000

 k-point   3 :       0.3125    0.0625    0.0625
  band No.  band energies     occupation 
      1      -3.8738      2.00000
      2      -2.8837      2.00000
      3      -1.8138      2.00000
      4      -1.8138      2.00000
      5      -1.6127      2.00000
      6      -1.5399      2.00000
      7      -1.5399      2.00000
      8      -1.4939      2.00000
      9      -1.4313      2.00000
     10      -1.4313      2.00000
     11      -1.3658      2.00000
     12      -1.2814      2.00000
     13      -1.2814      2.00000
     14      -1.2454      2.00000
     15      -1.1903      2.00000
     16      -1.1903      2.00000
     17      -1.1272      2.00000
     18      -1.0672      2.00000
     19      -1.0143      2.00000
     20      -1.0143      2.00000
     21      -0.9843      2.00000
     22      -0.9843      2.00000
     23      -0.8889      2.00000
     24      -0.8554      2.00000
     25      -0.8554      2.00000
     26      -0.7225      2.00000
     27      -0.7225      2.00000
     28      -0.7114      2.00000
     29      -0.4364      2.00000
     30      -0.4364      2.00000
     31      -0.3325      2.00000
     32      -0.3325      2.00000
     33      -0.3313      2.00000
     34      -0.3313      2.00000
     35      -0.2825      2.00000
     36      -0.2825      2.00000
     37      -0.2768      2.00000
     38      -0.2768      2.00000
     39      -0.2004      2.00000
     40      -0.2004      2.00000
     41      -0.1049      2.00000
     42      -0.1049      2.00000
     43       0.0528      2.00000
     44       0.0528      2.00000
     45       0.1043      2.00000
     46       0.1043      2.00000
     47       0.1334      2.00000
     48       0.1334      2.00000
     49       0.1538      2.00000
     50       0.1538      2.00000
     51       0.1837      2.00000
     52       0.1837      2.00000
     53       0.1967      2.00000
     54       0.2855      2.00000
     55       0.2855      2.00000
     56       0.3422      2.00000
     57       0.3422      2.00000
     58       0.3853      2.00000
     59       0.3853      2.00000
     60       0.4353      2.00000
     61       0.5033      2.00000
     62       0.5033      2.00000
     63       0.5491      2.00000
     64       0.5491      2.00000
     65       0.5511      2.00000
     66       0.5511      2.00000
     67       0.5933      2.00000
     68       0.6108      2.00000
     69       0.6108      2.00000
     70       0.6301      2.00000
     71       0.6424      2.00000
     72       0.6694      2.00000
     73       0.6694      2.00000
     74       0.7380      2.00000
     75       0.7840      2.00000
     76       0.7840      2.00000
     77       0.8479      2.00000
     78       0.8896      2.00000
     79       0.8896      2.00000
     80       0.9034      2.00000
     81       0.9056      2.00000
     82       0.9094      2.00000
     83       1.0674      2.00000
     84       1.0674      2.00000
     85       1.0799      2.00000
     86       1.0799      2.00000
     87       1.0876      2.00000
     88       1.0935      2.00000
     89       1.0935      2.00000
     90       1.2057      2.00000
     91       1.2573      2.00000
     92       1.3327      2.00000
     93       1.3524      2.00000
     94       1.3527      2.00000
     95       1.3527      2.00000
     96       1.3670      2.00000
     97       1.3879      2.00000
     98       1.3879      2.00000
     99       1.6706      2.00000
    100       1.6973      2.00000
    101       1.6973      2.00000
    102       1.7765      2.00000
    103       1.7765      2.00000
    104       1.8724      2.00000
    105       1.8724      2.00000
    106       1.9185      2.00000
    107       1.9185      2.00000
    108       1.9614      2.00000
    109       1.9614      2.00000
    110       1.9825      2.00000
    111       1.9825      2.00000
    112       2.0212      2.00000
    113       2.0212      2.00000
    114       2.0745      2.00000
    115       2.0914      2.00000
    116       2.0914      2.00000
    117       2.1230      2.00000
    118       2.1230      2.00000
    119       2.1624      2.00000
    120       2.1624      2.00000
    121       2.1748      2.00000
    122       2.1883      2.00000
    123       2.1883      2.00000
    124       2.2712      2.00000
    125       2.3489      2.00000
    126       2.3489      2.00000
    127       2.4532      2.00000
    128       2.4532      2.00000
    129       2.4601      2.00000
    130       2.4720      2.00000
    131       2.4720      2.00000
    132       2.4919      2.00000
    133       2.5109      2.00000
    134       2.5878      2.00000
    135       2.6136      2.00000
    136       2.6527      2.00000
    137       2.6527      2.00000
    138       2.7023      2.00000
    139       2.7023      2.00000
    140       2.7254      2.00000
    141       2.7397      2.00000
    142       2.7397      2.00000
    143       2.8450      2.00000
    144       2.8450      2.00000
    145       2.8487      2.00000
    146       2.9012      2.00000
    147       2.9012      2.00000
    148       3.0387      2.00000
    149       3.1036      2.00000
    150       3.1036      2.00000
    151       3.1122      2.00000
    152       3.1122      2.00000
    153       3.1173      2.00000
    154       3.1960      2.00000
    155       3.2192      2.00000
    156       3.2192      2.00000
    157       3.2340      2.00000
    158       3.3038      2.00000
    159       3.3905      2.00000
    160       3.3905      2.00000
    161       3.3915      2.00000
    162       3.3915      2.00000
    163       3.4336      2.00000
    164       3.6361      2.00000
    165       3.6361      2.00000
    166       3.6363      2.00000
    167       3.6363      2.00000
    168       3.8130      2.00000
    169       3.8130      2.00000
    170       4.1949      2.00000
    171       4.1949      2.00000
    172       4.2542      2.00000
    173       4.5257      2.00000
    174       4.8818      2.00277
    175       4.8818      2.00277
    176       4.9948      2.02215
    177       5.0123      2.02833
    178       5.0123      2.02833
[...]
    111       1.8365      2.00000
    112       1.8365      2.00000
    113       1.8365      2.00000
    114       1.8541      2.00000
    115       1.8541      2.00000
    116       1.8541      2.00000
    117       1.9650      2.00000
    118       1.9650      2.00000
    119       1.9650      2.00000
    120       2.0321      2.00000
    121       2.0321      2.00000
    122       2.0321      2.00000
    123       2.0321      2.00000
    124       2.0321      2.00000
    125       2.0321      2.00000
    126       2.1670      2.00000
    127       2.1670      2.00000
    128       2.1670      2.00000
    129       2.2463      2.00000
    130       2.2463      2.00000
    131       2.2463      2.00000
    132       2.2669      2.00000
    133       2.2669      2.00000
    134       2.3100      2.00000
    135       2.3100      2.00000
    136       2.3100      2.00000
    137       2.4457      2.00000
    138       2.4457      2.00000
    139       2.4457      2.00000
    140       2.5246      2.00000
    141       2.5246      2.00000
    142       2.5610      2.00000
    143       2.5610      2.00000
    144       2.5610      2.00000
    145       3.3833      2.00000
    146       3.3833      2.00000
    147       3.3833      2.00000
    148       3.4121      2.00000
    149       3.4121      2.00000
    150       3.4121      2.00000
    151       3.4121      2.00000
    152       3.4121      2.00000
    153       3.4121      2.00000
    154       3.4133      2.00000
    155       3.4133      2.00000
    156       3.4133      2.00000
    157       3.4133      2.00000
    158       3.4133      2.00000
    159       3.4133      2.00000
    160       3.4200      2.00000
    161       3.4200      2.00000
    162       3.4200      2.00000
    163       3.4422      2.00000
    164       3.4422      2.00000
    165       3.4422      2.00000
    166       3.4567      2.00000
    167       3.4567      2.00000
    168       3.4567      2.00000
    169       5.5230      0.04996
    170       5.5230      0.04996
    171       5.5230      0.04996
    172       5.9112     -0.00096
    173       5.9112     -0.00096
    174       5.9112     -0.00096
    175       5.9112     -0.00096
    176       5.9112     -0.00096
    177       5.9112     -0.00096
    178       6.2426     -0.00000
    179       6.2426     -0.00000
    180       6.2426     -0.00000
    181       6.4017     -0.00000
    182       6.4017     -0.00000
    183       6.4017     -0.00000
    184       6.8229     -0.00000
    185       6.8229     -0.00000
    186       6.8229     -0.00000
    187       6.8229     -0.00000
    188       6.8229     -0.00000
    189       6.8229     -0.00000
    190       7.2059     -0.00000
    191       7.2059     -0.00000
    192       7.2059     -0.00000
    193       9.7152     -0.00000
    194       9.7153     -0.00000
    195       9.7173     -0.00000
    196      10.2007     -0.00000
    197      10.2010     -0.00000
    198      10.2047     -0.00000
    199      10.5053     -0.00000
    200      10.5053     -0.00000
    201      10.5055     -0.00000
    202      10.5063     -0.00000
    203      10.5143     -0.00000
    204      10.5332     -0.00000
    205      11.0239      0.00000
    206      11.0239      0.00000
    207      11.0259      0.00000
    208      11.0513      0.00000
    209      11.0644      0.00000
    210      11.1998      0.00000
    211      11.2404      0.00000
    212      11.6266      0.00000


--------------------------------------------------------------------------------------------------------


 soft charge-density along one line, spin component           1
         0         1         2         3         4         5         6         7         8         9
 total charge-density along one line
 
 pseudopotential strength for first ion, spin component:           1
 -9.924   0.000  -0.000   0.000  -0.000  -0.086  -0.000   0.000
  0.000  -9.924   0.000   0.000  -0.000  -0.000  -0.086  -0.000
 -0.000   0.000  -9.909   0.000  -0.000   0.000  -0.000  -0.088
  0.000   0.000   0.000  -9.924   0.000  -0.000  -0.000  -0.000
 -0.000  -0.000  -0.000   0.000  -9.909   0.000   0.000   0.000
 -0.086  -0.000   0.000  -0.000   0.000   0.282   0.000  -0.000
 -0.000  -0.086  -0.000  -0.000   0.000   0.000   0.282   0.000
  0.000  -0.000  -0.088  -0.000   0.000  -0.000   0.000   0.282
 -0.000  -0.000  -0.000  -0.086  -0.000   0.000   0.000   0.000
  0.000   0.000   0.000  -0.000  -0.088  -0.000  -0.000  -0.000
 -0.000  -0.000  -0.000  -0.000  -0.000   0.000   0.000  -0.000
  0.000   0.000   0.000   0.000   0.000  -0.000  -0.000  -0.000
  0.000  -0.000  -0.000   0.000  -0.000  -0.000   0.000   0.000
  0.000   0.000  -0.000   0.000   0.000  -0.000  -0.000   0.000
  0.000   0.000  -0.000  -0.000   0.000  -0.000  -0.000   0.000
 -0.000   0.000   0.000  -0.000   0.000   0.000  -0.000  -0.000
 -0.000  -0.000   0.000  -0.000  -0.000   0.000   0.000  -0.000
 -0.000  -0.000   0.000   0.000  -0.000   0.000   0.000  -0.000
 total augmentation occupancy for first ion, spin component:           1
  1.897  -0.001  -0.005   0.000   0.001  -0.035   0.001   0.001  -0.001  -0.001   0.008   0.001   0.000  -0.000  -0.000   0.000
 -0.001   1.917  -0.004  -0.002  -0.001   0.001  -0.055   0.005   0.002  -0.002   0.001  -0.002  -0.000   0.000  -0.000  -0.000
 -0.005  -0.004   1.965  -0.001   0.005   0.001   0.005  -0.096   0.002  -0.003   0.021   0.006  -0.000  -0.000   0.000  -0.000
  0.000  -0.002  -0.001   1.910   0.003  -0.001   0.002   0.002  -0.042  -0.002   0.006   0.001   0.000  -0.000  -0.000   0.000
  0.001  -0.001   0.005   0.003   1.943  -0.001  -0.002  -0.003  -0.002  -0.078  -0.007  -0.003   0.000  -0.000  -0.000   0.000
 -0.035   0.001   0.001  -0.001  -0.001   0.197  -0.001   0.002   0.001   0.000  -0.003   0.002  -0.000   0.000   0.000  -0.000
  0.001  -0.055   0.005   0.002  -0.002  -0.001   0.213  -0.006  -0.001   0.004   0.003   0.004   0.000  -0.000   0.000   0.000
  0.001   0.005  -0.096   0.002  -0.003   0.002  -0.006   0.165  -0.003   0.000  -0.014  -0.002   0.000   0.000  -0.000   0.000
 -0.001   0.002   0.002  -0.042  -0.002   0.001  -0.001  -0.003   0.196  -0.001  -0.003   0.001  -0.000   0.000   0.000  -0.000
 -0.001  -0.002  -0.003  -0.002  -0.078   0.000   0.004   0.000  -0.001   0.154   0.007   0.002   0.000  -0.000   0.000  -0.000
  0.008   0.001   0.021   0.006  -0.007  -0.003   0.003  -0.014  -0.003   0.007   1.063  -0.371  -0.000   0.000   0.000   0.000
  0.001  -0.002   0.006   0.001  -0.003   0.002   0.004  -0.002   0.001   0.002  -0.371   0.238  -0.000   0.000   0.000   0.000
  0.000  -0.000  -0.000   0.000   0.000  -0.000   0.000   0.000  -0.000   0.000  -0.000  -0.000   0.151  -0.001   0.003  -0.011
 -0.000   0.000  -0.000  -0.000  -0.000   0.000  -0.000   0.000   0.000  -0.000   0.000   0.000  -0.001   0.155   0.000  -0.000
 -0.000  -0.000   0.000  -0.000  -0.000   0.000   0.000  -0.000   0.000   0.000   0.000   0.000   0.003   0.000   0.156  -0.000
  0.000  -0.000  -0.000   0.000   0.000  -0.000   0.000   0.000  -0.000  -0.000   0.000   0.000  -0.011  -0.000  -0.000   0.001
 -0.000   0.000  -0.000  -0.000   0.000   0.000  -0.000   0.000   0.000   0.000   0.000  -0.000  -0.000  -0.011  -0.000   0.000
 -0.000  -0.000   0.000  -0.000  -0.000   0.000   0.000  -0.000   0.000   0.000   0.000  -0.000  -0.000  -0.000  -0.011   0.000


------------------------ aborting loop because EDIFF is reached ----------------------------------------




--------------------------------------------------------------------------------------------------------


    CHARGE:  VPU time   54.82: CPU time   54.88
    FORLOC:  VPU time    0.35: CPU time    0.35
    FORNL :  VPU time  144.25: CPU time  144.35
    STRESS:  VPU time  986.77: CPU time  987.57
    FORCOR:  VPU time    2.59: CPU time    2.59
    FORHAR:  VPU time    0.91: CPU time    0.91
    MIXING:  VPU time    0.07: CPU time    0.07


--------------------------------------------------------------------------------------------------------



  FREE ENERGIE OF THE ION-ELECTRON SYSTEM (eV)
  ---------------------------------------------------
  free  energy   TOTEN  =      -104.413302 eV

  energy  without entropy=     -104.426571  energy(sigma->0) =     -104.417725
 

  FORCE on cell =-STRESS in cart. coord.  units (eV/reduce length):
  Direction    X        Y        Z        XY       YZ       ZX
  --------------------------------------------------------------------------------------
  Alpha Z   3408.89   3408.89   3408.89
  Ewald   -10322.16 -10322.16 -10322.16     -0.00     -0.00     -0.00
  Hartree   1249.33   1249.33   1249.33     -0.00     -0.00     -0.00
  E(xc)    -1589.31  -1589.31  -1589.31     -0.00     -0.00     -0.00
  Local     2582.40   2582.40   2582.40      0.00      0.00      0.00
  n-local  -1591.72  -1588.02  -1574.87      5.53      0.59      3.50
  augment   1374.14   1374.14   1374.14     -0.00     -0.00     -0.00
  Kinetic   4891.87   4896.62   4908.38      1.51     -4.33     -0.22
  -------------------------------------------------------------------------------------
  Total       17.37     17.37     17.37      0.00      0.00      0.00
  in kB       49.47     49.47     49.47      0.00      0.00      0.00
  external pressure =       49.47 kB  Pullay stress =        0.00 kB


 VOLUME and BASIS-vectors are now :
 -----------------------------------------------------------------------------
  energy-cutoff  :      600.00
  volume of cell :      562.58
      direct lattice vectors                 reciprocal lattice vectors
     8.255200780  0.000000000  0.000000000     0.121135758 -0.000000002 -0.000000002
     0.000000150  8.255200780  0.000000000     0.000000000  0.121135758 -0.000000002
     0.000000150  0.000000150  8.255200780     0.000000000  0.000000000  0.121135758

  length of vectors
     8.255200780  8.255200780  8.255200780     0.121135758  0.121135758  0.121135758


 FORCES acting on ions
    electron-ion (+dipol)            ewald-force                    non-local-force                 convergence-correction
 -----------------------------------------------------------------------------------------------
   0.420E-12 -.122E-10 0.171E-11   -.764E-13 -.986E-13 -.625E-13   0.528E-22 -.325E-22 -.141E-22   0.688E-14 0.895E-14 -.659E-12
   0.407E-12 -.502E-12 0.111E-13   -.995E-13 0.213E-13 -.635E-13   -.125E-22 0.181E-22 0.579E-23   -.111E-12 -.373E-12 0.885E-12
   0.420E-12 -.565E-13 -.520E-11   -.462E-13 0.103E-12 -.888E-15   -.848E-22 0.240E-22 0.215E-22   -.221E-12 -.339E-12 -.108E-12
   0.420E-12 0.375E-11 0.142E-11   -.204E-13 -.933E-13 -.192E-13   -.571E-22 0.647E-22 0.558E-23   -.239E-13 -.382E-13 -.259E-12
   -.291E-13 0.410E-12 0.154E-12   -.832E-14 0.293E-13 -.114E-12   0.223E-22 0.719E-23 0.910E-23   -.145E-12 -.822E-13 -.253E-12
   -.175E-13 -.439E-13 0.255E-12   0.587E-13 -.716E-13 -.278E-13   0.487E-22 0.192E-22 -.343E-22   -.996E-14 -.157E-12 -.380E-12
   0.116E-12 -.110E-11 0.115E-11   0.453E-13 -.240E-13 0.197E-13   -.307E-22 0.272E-22 0.199E-22   -.178E-13 -.175E-13 -.346E-12
   0.421E-12 0.150E-13 0.228E-11   -.161E-12 0.785E-13 -.453E-13   0.417E-22 -.279E-22 0.221E-22   -.431E-13 0.543E-13 -.212E-12
   0.407E-12 -.800E-11 -.605E-13   -.799E-14 0.122E-12 0.346E-13   0.464E-22 -.190E-22 0.827E-23   -.272E-12 0.364E-12 0.502E-12
   0.408E-12 -.133E-11 0.659E-11   0.409E-13 0.532E-13 -.391E-13   -.122E-22 -.180E-22 0.393E-22   -.101E-12 0.390E-12 -.502E-12
   -.290E-13 0.422E-12 0.378E-12   0.205E-13 -.986E-13 0.622E-14   -.679E-23 0.396E-22 -.199E-22   0.165E-12 -.180E-12 -.456E-13
   -.238E-13 -.366E-13 -.929E-14   -.865E-13 0.104E-12 -.809E-13   -.226E-22 0.365E-22 -.186E-22   0.312E-12 -.872E-13 0.617E-12
   -.241E-13 0.135E-12 0.148E-12   0.574E-13 0.204E-13 0.577E-13   -.181E-23 0.409E-22 -.910E-23   0.154E-12 0.689E-13 -.325E-12
   -.306E-13 0.291E-12 0.242E-12   -.168E-13 -.205E-13 0.288E-13   -.433E-22 0.162E-22 0.910E-23   0.173E-13 0.213E-12 -.286E-12
   0.130E-12 0.194E-11 0.868E-12   -.346E-13 0.631E-13 -.992E-13   0.156E-22 -.283E-22 0.118E-22   0.987E-13 -.835E-13 0.574E-12
   0.117E-12 -.298E-13 -.122E-11   0.719E-13 0.695E-13 -.104E-12   0.470E-23 -.456E-22 0.285E-22   0.203E-12 -.366E-13 -.421E-12
   0.117E-12 0.163E-11 0.113E-11   -.266E-13 -.719E-13 0.563E-13   0.480E-22 0.395E-22 -.281E-22   0.170E-13 -.163E-13 -.276E-12
   0.269E-12 -.329E-11 -.248E-12   -.152E-12 0.302E-13 0.444E-13   -.115E-21 0.220E-22 0.931E-23   0.190E-12 0.222E-13 -.379E-12
   0.256E-12 -.350E-13 -.243E-11   0.745E-13 -.305E-13 0.137E-13   -.344E-22 0.416E-22 0.116E-22   0.546E-13 -.117E-12 -.546E-12
   0.408E-12 -.110E-11 -.935E-11   0.755E-13 -.134E-13 0.284E-13   -.227E-22 0.356E-22 -.207E-22   -.539E-13 -.202E-14 0.179E-12
   -.240E-13 0.121E-12 0.385E-12   -.157E-12 0.417E-13 -.284E-13   0.762E-22 0.786E-23 -.163E-22   0.138E-12 0.166E-12 0.345E-13
   -.373E-13 0.285E-12 0.454E-14   -.109E-13 0.365E-13 0.319E-13   -.169E-22 0.215E-22 0.227E-22   0.117E-13 0.132E-12 0.516E-12
   0.117E-12 -.431E-13 0.205E-11   0.167E-12 -.193E-13 0.933E-13   -.794E-23 0.266E-22 -.496E-23   0.262E-13 0.261E-13 0.122E-12
   0.130E-12 -.138E-11 0.882E-12   -.426E-13 0.639E-13 0.571E-14   -.153E-22 0.131E-22 -.993E-23   0.266E-12 0.451E-13 0.518E-12
   0.130E-12 0.279E-12 0.179E-11   -.444E-14 0.114E-12 0.284E-13   -.380E-22 -.244E-22 -.155E-22   0.828E-13 0.967E-13 -.484E-12
   0.269E-12 0.256E-11 0.443E-11   -.998E-13 0.373E-13 0.551E-13   0.500E-23 0.122E-22 -.724E-23   -.120E-12 -.205E-12 0.627E-13
   0.262E-12 0.167E-13 0.196E-11   0.125E-15 -.666E-13 -.267E-13   0.184E-22 -.181E-22 0.248E-22   -.265E-12 0.912E-13 0.808E-12
   0.263E-12 -.217E-11 -.308E-12   0.140E-12 -.231E-13 -.835E-13   -.412E-23 -.455E-22 0.248E-23   -.112E-12 -.655E-13 -.585E-12
   0.269E-12 -.266E-11 -.231E-11   0.146E-12 -.764E-13 0.690E-13   0.235E-22 0.320E-22 -.910E-23   0.313E-13 0.178E-12 -.330E-12
   0.131E-12 0.291E-12 -.957E-12   -.693E-13 -.174E-13 -.178E-13   0.101E-22 0.505E-22 0.414E-23   0.353E-13 0.326E-13 0.188E-12
   0.263E-12 -.202E-11 -.154E-11   0.107E-12 0.693E-13 0.551E-13   -.432E-22 0.362E-23 -.248E-23   -.947E-13 0.163E-12 0.272E-12
   0.275E-12 -.269E-11 0.175E-11   0.225E-12 -.691E-13 -.407E-13   -.172E-23 0.165E-22 -.269E-22   0.367E-13 -.288E-13 0.566E-12
 -----------------------------------------------------------------------------------------------
   0.621E-11 -.265E-10 0.595E-11   0.109E-12 0.263E-12 -.225E-12   -.158E-21 0.357E-21 0.188E-22   0.255E-12 0.224E-12 -.553E-12
 
 
 POSITION                                       TOTAL-FORCE (eV/Angst)
 -----------------------------------------------------------------------------------
      6.19140      6.19140      4.12760        -0.000000      0.000000      0.000000
      6.19140      6.19140      0.00000        -0.000000      0.000000     -0.000000
      6.19140      0.00000      2.06380        -0.000000     -0.000000     -0.000000
      6.19140      2.06380      4.12760        -0.000000     -0.000000     -0.000000
      0.00000      6.19140      2.06380        -0.000000     -0.000000     -0.000000
      0.00000      0.00000      4.12760         0.000000      0.000000     -0.000000
      2.06380      6.19140      4.12760        -0.000000     -0.000000      0.000000
      6.19140      0.00000      6.19140         0.000000      0.000000      0.000000
      6.19140      2.06380      0.00000        -0.000000     -0.000000     -0.000000
      6.19140      4.12760      2.06380        -0.000000     -0.000000     -0.000000
      0.00000      6.19140      6.19140         0.000000      0.000000     -0.000000
      0.00000      0.00000      0.00000        -0.000000      0.000000     -0.000000
      0.00000      2.06380      2.06380        -0.000000     -0.000000     -0.000000
      0.00000      4.12760      4.12760         0.000000     -0.000000      0.000000
      2.06380      6.19140      0.00000        -0.000000     -0.000000      0.000000
      2.06380      0.00000      2.06380        -0.000000     -0.000000      0.000000
      2.06380      2.06380      4.12760         0.000000      0.000000     -0.000000
      4.12760      6.19140      2.06380        -0.000000     -0.000000     -0.000000
      4.12760      0.00000      4.12760        -0.000000     -0.000000     -0.000000
      6.19140      4.12760      6.19140        -0.000000      0.000000      0.000000
      0.00000      2.06380      6.19140         0.000000      0.000000      0.000000
      0.00000      4.12760      0.00000        -0.000000     -0.000000     -0.000000
      2.06380      0.00000      6.19140        -0.000000      0.000000      0.000000
      2.06380      2.06380      0.00000        -0.000000      0.000000     -0.000000
      2.06380      4.12760      2.06380        -0.000000      0.000000     -0.000000
      4.12760      6.19140      6.19140        -0.000000      0.000000      0.000000
      4.12760      0.00000      0.00000         0.000000     -0.000000      0.000000
      4.12760      2.06380      2.06380        -0.000000     -0.000000     -0.000000
      4.12760      4.12760      4.12760         0.000000      0.000000     -0.000000
      2.06380      4.12760      6.19140         0.000000     -0.000000      0.000000
      4.12760      2.06380      6.19140         0.000000      0.000000      0.000000
      4.12760      4.12760      0.00000         0.000000      0.000000     -0.000000
 -----------------------------------------------------------------------------------
    total drift:                                0.000000     -0.000000      0.000000


--------------------------------------------------------------------------------------------------------




--------------------------------------------------------------------------------------------------------


  
 reached required accuracy - stopping structural energy minimisation
 writing wavefunctions
     LOOP+:  VPU time14848.11: CPU time14861.16

 ----------------------------------------------------------------------------- 
|                                                                             |
|           W    W    AA    RRRRR   N    N  II  N    N   GGGG   !!!           |
|           W    W   A  A   R    R  NN   N  II  NN   N  G    G  !!!           |
|           W    W  A    A  R    R  N N  N  II  N N  N  G       !!!           |
|           W WW W  AAAAAA  RRRRR   N  N N  II  N  N N  G  GGG   !            |
|           WW  WW  A    A  R   R   N   NN  II  N   NN  G    G                |
|           W    W  A    A  R    R  N    N  II  N    N   GGGG   !!!           |
|                                                                             |
|      The partial DOS and the PROCAR file are not evaluated for NPAR/=1      |
|      please rerun with NPAR=1                                               |
|                                                                             |
 ----------------------------------------------------------------------------- 

  
  
 General timing and accounting informations for this job:
 ========================================================
  
                  Total CPU time used (sec):    14892.520
                            User time (sec):    14638.109
                          System time (sec):      254.411
                         Elapsed time (sec):    14905.605
  
                   Maximum memory used (kb):     1867892.
                   Average memory used (kb):           0.
  
                          Minor page faults:       378833
                          Major page faults:            0
                 Voluntary context switches:         8180
