    4    4    1    1
  0.1392114E+02  0.3818665E-09  0.3818665E-09  0.3818665E-09  0.5000000E-15
  1.000000000000000E-004
  CAR 
 unknown system                          
   44 1330   32
 
  0.0000000E+00  0.0000000E+00  0.0000000E+00  0.2143347E-04
   1       -5.6701
   2       -1.5253
   3       -1.5253
   4       -1.5253
   5       -1.1698
   6       -1.1698
   7       -1.1698
   8       -0.0957
   9       -0.0957
  10       -0.0957
  11        0.5450
  12        0.5450
  13        0.9720
  14        0.9720
  15        0.9720
  16        1.0914
  17        1.0914
  18        1.0914
  19        1.0914
  20        1.0914
  21        1.0914
  22        4.1277
  23        4.1277
  24        4.1277
  25        8.5323
  26        8.5323
  27        8.5323
  28       14.4209
  29       14.4209
  30       14.4209
  31       14.4209
  32       14.4209
 
  0.2777778E-01  0.0000000E+00  0.0000000E+00  0.1286008E-03
   1       -5.6618
   2       -1.5255
   3       -1.5216
   4       -1.5216
   5       -1.1678
   6       -1.1677
   7       -1.1677
   8       -0.0978
   9       -0.0939
  10       -0.0939
  11        0.5431
  12        0.5458
  13        0.9695
  14        0.9695
  15        0.9712
  16        1.0792
  17        1.0792
  18        1.0884
  19        1.0884
  20        1.0914
  21        1.0914
  22        4.0605
  23        4.1476
  24        4.1476
  25        8.5359
  26        8.5359
  27        8.6168
  28       14.3550
  29       14.3550
  30       14.3763
  31       14.3763
  32       14.4327
 
  0.5555556E-01  0.0000000E+00  0.0000000E+00  0.1286008E-03
   1       -5.6367
   2       -1.5264
   3       -1.5108
   4       -1.5108
   5       -1.1620
   6       -1.1615
   7       -1.1615
   8       -0.1042
   9       -0.0887
  10       -0.0887
  11        0.5374
  12        0.5482
  13        0.9621
  14        0.9621
  15        0.9687
  16        1.0435
  17        1.0435
  18        1.0796
  19        1.0796
  20        1.0914
  21        1.0914
  22        3.8732
  23        4.2063
  24        4.2063
  25        8.5469
  26        8.5469
  27        8.8562
  28       14.1705
  29       14.1705
  30       14.2482
  31       14.2482
  32       14.4682
 
  0.8333333E-01  0.0000000E+00  0.0000000E+00  0.1286008E-03
   1       -5.5950
   2       -1.5283
   3       -1.4930
   4       -1.4930
   5       -1.1522
   6       -1.1511
   7       -1.1511
   8       -0.1147
   9       -0.0800
  10       -0.0800
  11        0.5279
  12        0.5522
  13        0.9498
  14        0.9498
  15        0.9646
  16        0.9871
  17        0.9871
  18        1.0650
  19        1.0650
  20        1.0914
  21        1.0914
  22        3.5982
  23        4.3013
  24        4.3013
  25        8.5651
  26        8.5651
  27        9.2186
  28       13.8968
  29       13.8968
  30       14.0511
  31       14.0511
  32       14.5272
 
  0.1111111E+00  0.0000000E+00  0.0000000E+00  0.1286008E-03
   1       -5.5367
   2       -1.5324
   3       -1.4685
   4       -1.4685
   5       -1.1386
   6       -1.1365
   7       -1.1365
   8       -0.1293
   9       -0.0678
  10       -0.0678
  11        0.5147
  12        0.5577
  13        0.9134
  14        0.9134
  15        0.9328
  16        0.9328
  17        0.9589
  18        1.0448
  19        1.0448
  20        1.0914
  21        1.0914
  22        3.2686
  23        4.4288
  24        4.4288
  25        8.5910
  26        8.5910
  27        9.6716
  28       13.5638
  29       13.5638
  30       13.8027
  31       13.8027
  32       14.6095
 
  0.1388889E+00  0.0000000E+00  0.0000000E+00  0.1286008E-03
   1       -5.4620
   2       -1.5398
   3       -1.4376
   4       -1.4376
   5       -1.1213
   6       -1.1177
   7       -1.1177
   8       -0.1478
   9       -0.0522
  10       -0.0522
  11        0.4981
  12        0.5647
  13        0.8265
  14        0.8265
  15        0.9112
  16        0.9112
  17        0.9517
  18        1.0195
  19        1.0195
  20        1.0915
  21        1.0915
  22        2.9103
  23        4.5850
  24        4.5850
  25        8.6246
  26        8.6246
  27       10.1905
  28       13.1941
  29       13.1941
  30       13.5198
  31       13.5198
  32       14.7147
 
  0.1666667E+00  0.0000000E+00  0.0000000E+00  0.1286008E-03
   1       -5.3710
   2       -1.5526
   3       -1.4009
   4       -1.4009
   5       -1.1004
   6       -1.0946
   7       -1.0946
   8       -0.1702
   9       -0.0333
  10       -0.0333
  11        0.4783
  12        0.5732
  13        0.7299
  14        0.7299
  15        0.8853
  16        0.8853
  17        0.9429
  18        0.9893
  19        0.9893
  20        1.0915
  21        1.0915
  22        2.5418
  23        4.7661
  24        4.7661
  25        8.6663
  26        8.6663
  27       10.7585
  28       12.8031
  29       12.8031
  30       13.2161
  31       13.2161
  32       14.8423
 
  0.1944444E+00  0.0000000E+00  0.0000000E+00  0.1286008E-03
   1       -5.2638
   2       -1.5732
   3       -1.3591
   4       -1.3591
   5       -1.0760
   6       -1.0672
   7       -1.0672
   8       -0.1962
   9       -0.0110
  10       -0.0110
  11        0.4555
  12        0.5831
  13        0.6269
  14        0.6269
  15        0.8553
  16        0.8553
  17        0.9328
  18        0.9546
  19        0.9546
  20        1.0915
  21        1.0915
  22        2.1764
  23        4.9689
  24        4.9689
  25        8.7165
  26        8.7165
  27       11.3645
  28       12.4006
  29       12.4006
  30       12.9021
  31       12.9021
  32       14.9920
 
  0.2222222E+00  0.0000000E+00  0.0000000E+00  0.1286008E-03
   1       -5.1409
   2       -1.6051
   3       -1.3129
   4       -1.3129
   5       -1.0484
   6       -1.0355
   7       -1.0355
   8       -0.2255
   9        0.0145
  10        0.0145
  11        0.4301
  12        0.5201
  13        0.5201
  14        0.5942
  15        0.8219
  16        0.8219
  17        0.9159
  18        0.9159
  19        0.9213
  20        1.0916
  21        1.0916
  22        1.8245
  23        5.1906
  24        5.1906
  25        8.7756
  26        8.7756
  27       11.9929
  28       11.9929
  29       12.0012
  30       12.5855
  31       12.5855
  32       15.1631
 
  0.2500000E+00  0.0000000E+00  0.0000000E+00  0.1286008E-03
   1       -5.0024
   2       -1.6526
   3       -1.2634
   4       -1.2634
   5       -1.0176
   6       -0.9994
   7       -0.9994
   8       -0.2581
   9        0.0432
  10        0.0432
  11        0.4026
  12        0.4115
  13        0.4115
  14        0.6067
  15        0.7855
  16        0.7855
  17        0.8738
  18        0.8738
  19        0.9086
  20        1.0916
  21        1.0916
  22        1.4948
  23        5.4292
  24        5.4292
  25        8.8440
  26        8.8440
  27       11.5842
  28       11.5842
  29       12.2720
  30       12.2720
  31       12.6638
  32       15.3551
 
  0.2777778E+00  0.0000000E+00  0.0000000E+00  0.1286008E-03
   1       -4.8488
   2       -1.7206
   3       -1.2117
   4       -1.2117
   5       -0.9839
   6       -0.9587
   7       -0.9587
   8       -0.2935
   9        0.0750
  10        0.0750
  11        0.3028
  12        0.3028
  13        0.3735
  14        0.6202
  15        0.7469
  16        0.7469
  17        0.8286
  18        0.8286
  19        0.8947
  20        1.0917
  21        1.0917
  22        1.1954
  23        5.6830
  24        5.6830
  25        8.9222
  26        8.9222
  27       11.1774
  28       11.1774
  29       11.9656
  30       11.9656
  31       13.3486
  32       15.5674
 
  0.3055556E+00  0.0000000E+00  0.0000000E+00  0.1286008E-03
   1       -4.6806
   2       -1.8140
   3       -1.1592
   4       -1.1592
   5       -0.9476
   6       -0.9136
   7       -0.9136
   8       -0.3315
   9        0.1097
  10        0.1097
  11        0.1953
  12        0.1953
  13        0.3435
  14        0.6349
  15        0.7072
  16        0.7072
  17        0.7810
  18        0.7810
  19        0.8797
  20        0.9331
  21        1.0917
  22        1.0917
  23        5.9505
  24        5.9505
  25        9.0109
  26        9.0109
  27       10.7745
  28       10.7745
  29       11.6694
  30       11.6694
  31       14.0532
  32       15.7992
 
  0.3333333E+00  0.0000000E+00  0.0000000E+00  0.1286008E-03
   1       -4.4984
   2       -1.9368
   3       -1.1075
   4       -1.1075
   5       -0.9089
   6       -0.8639
   7       -0.8639
   8       -0.3718
   9        0.0899
  10        0.0899
  11        0.1472
  12        0.1472
  13        0.3133
  14        0.6504
  15        0.6674
  16        0.6674
  17        0.7132
  18        0.7314
  19        0.7314
  20        0.8639
  21        1.0918
  22        1.0918
  23        6.2307
  24        6.2307
  25        9.1105
  26        9.1105
  27       10.3767
  28       10.3767
  29       11.3854
  30       11.3854
  31       14.7755
  32       16.0500
 
  0.3611111E+00  0.0000000E+00  0.0000000E+00  0.1286008E-03
   1       -4.3031
   2       -2.0904
   3       -1.0583
   4       -1.0583
   5       -0.8681
   6       -0.8096
   7       -0.8096
   8       -0.4141
   9       -0.0127
  10       -0.0127
  11        0.1873
  12        0.1873
  13        0.2839
  14        0.5382
  15        0.6291
  16        0.6291
  17        0.6668
  18        0.6805
  19        0.6805
  20        0.8472
  21        1.0918
  22        1.0918
  23        6.5228
  24        6.5228
  25        9.2217
  26        9.2217
  27        9.9851
  28        9.9851
  29       11.1152
  30       11.1152
  31       15.5137
  32       16.3191
 
  0.3888889E+00  0.0000000E+00  0.0000000E+00  0.1286008E-03
   1       -4.0955
   2       -2.2728
   3       -1.0138
   4       -1.0138
   5       -0.8254
   6       -0.7506
   7       -0.7506
   8       -0.4580
   9       -0.1118
  10       -0.1118
  11        0.2299
  12        0.2299
  13        0.2565
  14        0.4065
  15        0.5939
  16        0.5939
  17        0.6285
  18        0.6285
  19        0.6839
  20        0.8299
  21        1.0918
  22        1.0918
  23        6.8261
  24        6.8261
  25        9.3450
  26        9.3450
  27        9.6004
  28        9.6004
  29       10.8599
  30       10.8599
  31       16.2662
  32       16.6059
 
  0.4166667E+00  0.0000000E+00  0.0000000E+00  0.1286008E-03
   1       -3.8771
   2       -2.4792
   3       -0.9760
   4       -0.9760
   5       -0.7812
   6       -0.6869
   7       -0.6869
   8       -0.5032
   9       -0.2072
  10       -0.2072
  11        0.2327
  12        0.2748
  13        0.2748
  14        0.3136
  15        0.5636
  16        0.5636
  17        0.5761
  18        0.5761
  19        0.7016
  20        0.8121
  21        1.0919
  22        1.0919
  23        7.1400
  24        7.1400
  25        9.2231
  26        9.2231
  27        9.4805
  28        9.4805
  29       10.6203
  30       10.6203
  31       16.9096
  32       16.9100
 
  0.4444444E+00  0.0000000E+00  0.0000000E+00  0.1286008E-03
   1       -3.6494
   2       -2.7029
   3       -0.9470
   4       -0.9470
   5       -0.7359
   6       -0.6185
   7       -0.6185
   8       -0.5494
   9       -0.2984
  10       -0.2984
  11        0.2142
  12        0.2532
  13        0.3217
  14        0.3217
  15        0.5237
  16        0.5237
  17        0.5403
  18        0.5403
  19        0.7197
  20        0.7938
  21        1.0919
  22        1.0919
  23        7.4640
  24        7.4640
  25        8.8539
  26        8.8539
  27        9.6281
  28        9.6281
  29       10.3979
  30       10.3979
  31       17.2298
  32       17.2298
 
  0.4722222E+00  0.0000000E+00  0.0000000E+00  0.1286008E-03
   1       -3.4148
   2       -2.9372
   3       -0.9288
   4       -0.9288
   5       -0.6897
   6       -0.5960
   7       -0.5455
   8       -0.5455
   9       -0.3853
  10       -0.3853
  11        0.2035
  12        0.2186
  13        0.3703
  14        0.3703
  15        0.4717
  16        0.4717
  17        0.5255
  18        0.5255
  19        0.7381
  20        0.7753
  21        1.0919
  22        1.0919
  23        7.7977
  24        7.7977
  25        8.4930
  26        8.4930
  27        9.7839
  28        9.7839
  29       10.1969
  30       10.1969
  31       17.5657
  32       17.5657
 
  0.5000000E+00  0.0000000E+00  0.0000000E+00  0.6430041E-04
   1       -3.1761
   2       -3.1761
   3       -0.9226
   4       -0.9226
   5       -0.6429
   6       -0.6429
   7       -0.4677
   8       -0.4677
   9       -0.4677
  10       -0.4677
  11        0.2036
  12        0.2036
  13        0.4204
  14        0.4204
  15        0.4204
  16        0.4204
  17        0.5204
  18        0.5204
  19        0.7567
  20        0.7567
  21        1.0919
  22        1.0919
  23        8.1408
  24        8.1408
  25        8.1408
  26        8.1408
  27        9.8959
  28        9.8959
  29       10.0698
  30       10.0698
  31       17.9167
  32       17.9167
 
  0.2777778E-01  0.2777778E-01  0.0000000E+00  0.2572016E-03
   1       -5.6534
   2       -1.5219
   3       -1.5219
   4       -1.5180
   5       -1.1658
   6       -1.1658
   7       -1.1657
   8       -0.0990
   9       -0.0931
  10       -0.0922
  11        0.5426
  12        0.5453
  13        0.9671
  14        0.9686
  15        0.9686
  16        1.0690
  17        1.0762
  18        1.0762
  19        1.0884
  20        1.0884
  21        1.0895
  22        4.0803
  23        4.0803
  24        4.1673
  25        8.5396
  26        8.6206
  27        8.6206
  28       14.1864
  29       14.3668
  30       14.3668
  31       14.3881
  32       14.3881
 
  0.5555556E-01  0.2777778E-01  0.0000000E+00  0.5144033E-03
   1       -5.6284
   2       -1.5227
   3       -1.5110
   4       -1.5073
   5       -1.1599
   6       -1.1596
   7       -1.1595
   8       -0.1049
   9       -0.0884
  10       -0.0870
  11        0.5374
  12        0.5472
  13        0.9597
  14        0.9607
  15        0.9658
  16        1.0349
  17        1.0409
  18        1.0675
  19        1.0796
  20        1.0884
  21        1.0884
  22        3.8928
  23        4.1387
  24        4.2257
  25        8.5505
  26        8.6321
  27        8.8605
  28       13.9271
  29       14.1820
  30       14.2598
  31       14.4021
  32       14.4141
 
  0.8333333E-01  0.2777778E-01  0.0000000E+00  0.5144033E-03
   1       -5.5867
   2       -1.5246
   3       -1.4932
   4       -1.4895
   5       -1.1502
   6       -1.1492
   7       -1.1491
   8       -0.1152
   9       -0.0798
  10       -0.0784
  11        0.5280
  12        0.5511
  13        0.9464
  14        0.9475
  15        0.9611
  16        0.9793
  17        0.9862
  18        1.0532
  19        1.0650
  20        1.0881
  21        1.0884
  22        3.6176
  23        4.2330
  24        4.3200
  25        8.5688
  26        8.6513
  27        9.2234
  28       13.6103
  29       13.9079
  30       14.0623
  31       14.2846
  32       14.4609
 
  0.1111111E+00  0.2777778E-01  0.0000000E+00  0.5144033E-03
   1       -5.5284
   2       -1.5286
   3       -1.4685
   4       -1.4650
   5       -1.1366
   6       -1.1346
   7       -1.1345
   8       -0.1298
   9       -0.0676
  10       -0.0664
  11        0.5149
  12        0.5567
  13        0.9037
  14        0.9065
  15        0.9305
  16        0.9380
  17        0.9542
  18        1.0336
  19        1.0448
  20        1.0881
  21        1.0884
  22        3.2881
  23        4.3594
  24        4.4468
  25        8.5947
  26        8.6785
  27        9.6769
  28       13.2562
  29       13.5746
  30       13.8135
  31       14.0782
  32       14.5418
 
  0.1388889E+00  0.2777778E-01  0.0000000E+00  0.5144033E-03
   1       -5.4537
   2       -1.5359
   3       -1.4375
   4       -1.4342
   5       -1.1193
   6       -1.1158
   7       -1.1158
   8       -0.1482
   9       -0.0521
  10       -0.0510
  11        0.4984
  12        0.5638
  13        0.8197
  14        0.8204
  15        0.9090
  16        0.9132
  17        0.9448
  18        1.0094
  19        1.0195
  20        1.0881
  21        1.0885
  22        2.9303
  23        4.5141
  24        4.6022
  25        8.6285
  26        8.7139
  27       10.1962
  28       12.8793
  29       13.2047
  30       13.5302
  31       13.8178
  32       14.6460
 
  0.1666667E+00  0.2777778E-01  0.0000000E+00  0.5144033E-03
   1       -5.3627
   2       -1.5485
   3       -1.4007
   4       -1.3977
   5       -1.0985
   6       -1.0928
   7       -1.0928
   8       -0.1705
   9       -0.0331
  10       -0.0322
  11        0.4787
  12        0.5724
  13        0.7235
  14        0.7246
  15        0.8832
  16        0.8867
  17        0.9317
  18        0.9822
  19        0.9893
  20        1.0881
  21        1.0885
  22        2.5628
  23        4.6931
  24        4.7825
  25        8.6703
  26        8.7578
  27       10.7644
  28       12.4897
  29       12.8135
  30       13.2262
  31       13.5230
  32       14.7729
 
  0.1944444E+00  0.2777778E-01  0.0000000E+00  0.5144033E-03
   1       -5.2556
   2       -1.5690
   3       -1.3588
   4       -1.3560
   5       -1.0742
   6       -1.0655
   7       -1.0655
   8       -0.1964
   9       -0.0109
  10       -0.0103
  11        0.4561
  12        0.5824
  13        0.6207
  14        0.6224
  15        0.8534
  16        0.8565
  17        0.9114
  18        0.9546
  19        0.9556
  20        1.0881
  21        1.0885
  22        2.1992
  23        4.8933
  24        4.9846
  25        8.7206
  26        8.8106
  27       11.3707
  28       12.0942
  29       12.4109
  30       12.9118
  31       13.2090
  32       14.9207
 
  0.2222222E+00  0.2777778E-01  0.0000000E+00  0.5144033E-03
   1       -5.1327
   2       -1.6008
   3       -1.3125
   4       -1.3099
   5       -1.0466
   6       -1.0339
   7       -1.0338
   8       -0.2257
   9        0.0146
  10        0.0149
  11        0.4309
  12        0.5140
  13        0.5163
  14        0.5937
  15        0.8201
  16        0.8230
  17        0.8797
  18        0.9159
  19        0.9340
  20        1.0882
  21        1.0886
  22        1.8503
  23        5.1119
  24        5.2056
  25        8.7797
  26        8.8728
  27       11.6972
  28       12.0031
  29       12.0076
  30       12.5949
  31       12.8864
  32       15.0897
 
  0.2500000E+00  0.2777778E-01  0.0000000E+00  0.5144033E-03
   1       -4.9943
   2       -1.6481
   3       -1.2628
   4       -1.2606
   5       -1.0158
   6       -0.9980
   7       -0.9978
   8       -0.2582
   9        0.0431
  10        0.0433
  11        0.4038
  12        0.4055
  13        0.4083
  14        0.6063
  15        0.7838
  16        0.7865
  17        0.8371
  18        0.8737
  19        0.9163
  20        1.0882
  21        1.0886
  22        1.5259
  23        5.3467
  24        5.4436
  25        8.8483
  26        8.9448
  27       11.3017
  28       11.5944
  29       12.2811
  30       12.5629
  31       12.6702
  32       15.2793
 
  0.2777778E+00  0.2777778E-01  0.0000000E+00  0.5144033E-03
   1       -4.8408
   2       -1.7158
   3       -1.2109
   4       -1.2090
   5       -0.9823
   6       -0.9576
   7       -0.9572
   8       -0.2935
   9        0.0741
  10        0.0751
  11        0.2970
  12        0.3002
  13        0.3752
  14        0.6201
  15        0.7454
  16        0.7479
  17        0.7845
  18        0.8286
  19        0.8993
  20        1.0883
  21        1.0886
  22        1.2367
  23        5.5960
  24        5.6968
  25        8.9267
  26        9.0273
  27       10.9097
  28       11.1876
  29       11.9745
  30       12.2440
  31       13.3552
  32       15.4891
 
  0.3055556E+00  0.2777778E-01  0.0000000E+00  0.5144033E-03
   1       -4.6727
   2       -1.8089
   3       -1.1582
   4       -1.1566
   5       -0.9460
   6       -0.9128
   7       -0.9122
   8       -0.3314
   9        0.1077
  10        0.1098
  11        0.1897
  12        0.1932
  13        0.3460
  14        0.6349
  15        0.7058
  16        0.7081
  17        0.7165
  18        0.7810
  19        0.8802
  20        0.9988
  21        1.0884
  22        1.0887
  23        5.8584
  24        5.9638
  25        9.0156
  26        9.1208
  27       10.5223
  28       10.7846
  29       11.6781
  30       11.9337
  31       14.0598
  32       15.7409
 
  0.3333333E+00  0.2777778E-01  0.0000000E+00  0.5144033E-03
   1       -4.4906
   2       -1.9314
   3       -1.1062
   4       -1.1048
   5       -0.9074
   6       -0.8635
   7       -0.8626
   8       -0.3716
   9        0.0846
  10        0.0883
  11        0.1432
  12        0.1472
  13        0.3176
  14        0.6174
  15        0.6507
  16        0.6663
  17        0.6683
  18        0.7314
  19        0.8167
  20        0.8760
  21        1.0884
  22        1.0887
  23        6.1328
  24        6.2436
  25        9.1154
  26        9.2259
  27       10.1404
  28       10.3869
  29       11.3939
  30       11.6348
  31       14.7822
  32       15.9659
 
  0.3611111E+00  0.2777778E-01  0.0000000E+00  0.5144033E-03
   1       -4.2953
   2       -2.0848
   3       -1.0568
   4       -1.0557
   5       -0.8667
   6       -0.8096
   7       -0.8084
   8       -0.4138
   9       -0.0177
  10       -0.0139
  11        0.1789
  12        0.1874
  13        0.2924
  14        0.4924
  15        0.6281
  16        0.6299
  17        0.6674
  18        0.6804
  19        0.7217
  20        0.8532
  21        1.0885
  22        1.0887
  23        6.4183
  24        6.5353
  25        9.2269
  26        9.3433
  27        9.7647
  28        9.9954
  29       11.1235
  30       11.3495
  31       15.5204
  32       16.2302
 
  0.3888889E+00  0.2777778E-01  0.0000000E+00  0.5144033E-03
   1       -4.0879
   2       -2.2669
   3       -1.0120
   4       -1.0110
   5       -0.8241
   6       -0.7512
   7       -0.7496
   8       -0.4576
   9       -0.1166
  10       -0.1127
  11        0.2076
  12        0.2300
  13        0.2787
  14        0.3793
  15        0.5931
  16        0.5947
  17        0.6285
  18        0.6525
  19        0.6847
  20        0.8344
  21        1.0885
  22        1.0887
  23        6.7141
  24        6.8382
  25        9.3499
  26        9.3960
  27        9.4733
  28        9.6108
  29       10.8682
  30       11.0791
  31       16.2724
  32       16.5123
 
  0.4166667E+00  0.2777778E-01  0.0000000E+00  0.5144033E-03
   1       -3.8696
   2       -2.4730
   3       -0.9739
   4       -0.9732
   5       -0.7800
   6       -0.6882
   7       -0.6861
   8       -0.5027
   9       -0.2116
  10       -0.2077
  11        0.2115
  12        0.2748
  13        0.2948
  14        0.2956
  15        0.5631
  16        0.5643
  17        0.5761
  18        0.5925
  19        0.7027
  20        0.8157
  21        1.0886
  22        1.0887
  23        7.0197
  24        7.1517
  25        9.0331
  26        9.2337
  27        9.4866
  28        9.6163
  29       10.6290
  30       10.8250
  31       16.8106
  32       16.8422
 
  0.4444444E+00  0.2777778E-01  0.0000000E+00  0.5144033E-03
   1       -3.6422
   2       -2.6965
   3       -0.9447
   4       -0.9442
   5       -0.7348
   6       -0.6204
   7       -0.6178
   8       -0.5487
   9       -0.3024
  10       -0.2986
  11        0.2005
  12        0.2387
  13        0.3217
  14        0.3347
  15        0.5236
  16        0.5363
  17        0.5400
  18        0.5408
  19        0.7211
  20        0.7968
  21        1.0886
  22        1.0887
  23        7.3345
  24        7.4755
  25        8.6779
  26        8.8646
  27        9.6351
  28        9.7710
  29       10.4080
  30       10.5881
  31       17.1245
  32       17.1602
 
  0.4722222E+00  0.2777778E-01  0.0000000E+00  0.5144033E-03
   1       -3.4077
   2       -2.9305
   3       -0.9263
   4       -0.9260
   5       -0.6887
   6       -0.5953
   7       -0.5479
   8       -0.5449
   9       -0.3889
  10       -0.3853
  11        0.1920
  12        0.2063
  13        0.3703
  14        0.3809
  15        0.4716
  16        0.4824
  17        0.5254
  18        0.5258
  19        0.7398
  20        0.7778
  21        1.0887
  22        1.0887
  23        7.6582
  24        7.8090
  25        8.3302
  26        8.5038
  27        9.7944
  28        9.9270
  29       10.2164
  30       10.3711
  31       17.4532
  32       17.4927
 
  0.5000000E+00  0.2777778E-01  0.0000000E+00  0.2572016E-03
   1       -3.1692
   2       -3.1692
   3       -0.9199
   4       -0.9199
   5       -0.6420
   6       -0.6420
   7       -0.4707
   8       -0.4707
   9       -0.4674
  10       -0.4674
  11        0.1923
  12        0.1923
  13        0.4204
  14        0.4204
  15        0.4305
  16        0.4305
  17        0.5205
  18        0.5205
  19        0.7588
  20        0.7588
  21        1.0887
  22        1.0887
  23        7.9901
  24        7.9901
  25        8.1519
  26        8.1519
  27        9.9481
  28        9.9481
  29       10.1908
  30       10.1908
  31       17.7967
  32       17.8301
 
  0.5555556E-01  0.5555556E-01  0.0000000E+00  0.2572016E-03
   1       -5.6034
   2       -1.5118
   3       -1.5118
   4       -1.4966
   5       -1.1537
   6       -1.1537
   7       -1.1533
   8       -0.1089
   9       -0.0854
  10       -0.0820
  11        0.5352
  12        0.5462
  13        0.9524
  14        0.9565
  15        0.9565
  16        1.0055
  17        1.0330
  18        1.0330
  19        1.0796
  20        1.0796
  21        1.0838
  22        3.9504
  23        3.9504
  24        4.2828
  25        8.5615
  26        8.8733
  27        8.8733
  28       13.5948
  29       14.2163
  30       14.2163
  31       14.2943
  32       14.2943
 
  0.8333333E-01  0.5555556E-01  0.0000000E+00  0.5144033E-03
   1       -5.5617
   2       -1.5135
   3       -1.4937
   4       -1.4790
   5       -1.1440
   6       -1.1434
   7       -1.1430
   8       -0.1180
   9       -0.0780
  10       -0.0737
  11        0.5274
  12        0.5488
  13        0.9361
  14        0.9404
  15        0.9488
  16        0.9542
  17        0.9836
  18        1.0205
  19        1.0649
  20        1.0796
  21        1.0810
  22        3.6747
  23        4.0432
  24        4.3754
  25        8.5800
  26        8.8948
  27        9.2378
  28       13.2266
  29       13.9413
  30       14.0959
  31       14.2734
  32       14.3517
 
  0.1111111E+00  0.5555556E-01  0.0000000E+00  0.5144033E-03
   1       -5.5035
   2       -1.5173
   3       -1.4689
   4       -1.4548
   5       -1.1306
   6       -1.1289
   7       -1.1286
   8       -0.1318
   9       -0.0665
  10       -0.0621
  11        0.5150
  12        0.5541
  13        0.8837
  14        0.8848
  15        0.9236
  16        0.9368
  17        0.9442
  18        1.0044
  19        1.0448
  20        1.0796
  21        1.0796
  22        3.3453
  23        4.1672
  24        4.5002
  25        8.6061
  26        8.9252
  27        9.6928
  28       12.8374
  29       13.6071
  30       13.8460
  31       14.3529
  32       14.3952
 
  0.1388889E+00  0.5555556E-01  0.0000000E+00  0.5144033E-03
   1       -5.4289
   2       -1.5243
   3       -1.4376
   4       -1.4243
   5       -1.1134
   6       -1.1103
   7       -1.1101
   8       -0.1499
   9       -0.0512
  10       -0.0472
  11        0.4990
  12        0.5613
  13        0.8010
  14        0.8016
  15        0.9024
  16        0.9174
  17        0.9188
  18        0.9865
  19        1.0194
  20        1.0790
  21        1.0796
  22        2.9887
  23        4.3183
  24        4.6533
  25        8.6400
  26        8.9648
  27       10.2132
  28       12.4374
  29       13.2365
  30       13.5616
  31       14.2046
  32       14.4544
 
  0.1666667E+00  0.5555556E-01  0.0000000E+00  0.5144033E-03
   1       -5.3380
   2       -1.5365
   3       -1.4004
   4       -1.3880
   5       -1.0927
   6       -1.0874
   7       -1.0873
   8       -0.1718
   9       -0.0324
  10       -0.0292
  11        0.4797
  12        0.5702
  13        0.7053
  14        0.7085
  15        0.8769
  16        0.8899
  17        0.8930
  18        0.9686
  19        0.9892
  20        1.0786
  21        1.0796
  22        2.6237
  23        4.4926
  24        4.8314
  25        8.6821
  26        9.0138
  27       10.7823
  28       12.0333
  29       12.8447
  30       13.2564
  31       13.9572
  32       14.5776
 
  0.1944444E+00  0.5555556E-01  0.0000000E+00  0.5144033E-03
   1       -5.2311
   2       -1.5565
   3       -1.3581
   4       -1.3467
   5       -1.0685
   6       -1.0604
   7       -1.0602
   8       -0.1974
   9       -0.0103
  10       -0.0081
  11        0.4576
  12        0.5806
  13        0.6027
  14        0.6087
  15        0.8475
  16        0.8583
  17        0.8594
  18        0.9514
  19        0.9545
  20        1.0785
  21        1.0796
  22        2.2643
  23        4.6867
  24        5.0313
  25        8.7327
  26        9.0728
  27       11.3892
  28       11.6297
  29       12.4417
  30       12.9411
  31       13.6734
  32       14.7218
 
  0.2222222E+00  0.5555556E-01  0.0000000E+00  0.5144033E-03
   1       -5.1083
   2       -1.5877
   3       -1.3113
   4       -1.3011
   5       -1.0411
   6       -1.0292
   7       -1.0288
   8       -0.2264
   9        0.0151
  10        0.0159
  11        0.4331
  12        0.4961
  13        0.5047
  14        0.5924
  15        0.8145
  16        0.8147
  17        0.8257
  18        0.9158
  19        0.9345
  20        1.0784
  21        1.0796
  22        1.9219
  23        4.8979
  24        5.2503
  25        8.7923
  26        9.1422
  27       11.2296
  28       12.0266
  29       12.0337
  30       12.6232
  31       13.3687
  32       14.8865
 
  0.2500000E+00  0.5555556E-01  0.0000000E+00  0.5144033E-03
   1       -4.9701
   2       -1.6344
   3       -1.2611
   4       -1.2521
   5       -1.0106
   6       -0.9937
   7       -0.9929
   8       -0.2586
   9        0.0426
  10        0.0437
  11        0.3880