 vasp.4.6.28 25Jul05 complex 
 executed on             LinuxIFC date 2016.08.29  19:02:17
 running on    4 nodes
 distr:  one band on    1 nodes,    4 groups


--------------------------------------------------------------------------------------------------------


 INCAR:
 POTCAR:   PAW_PBE Cu 05Jan2001                   
 POTCAR:   PAW_PBE Cu 05Jan2001                   
   VRHFIN =Cu: d10 p1                                                           
   LEXCH  = PE                                                                  
   EATOM  =  1390.9800 eV,  102.2341 Ry                                         
                                                                                
   TITEL  = PAW_PBE Cu 05Jan2001                                                
   LULTRA =        F    use ultrasoft PP ?                                      
   IUNSCR =        1    unscreen: 0-lin 1-nonlin 2-no                           
   RPACOR =    2.000    partial core radius                                     
   POMASS =   63.546; ZVAL   =   11.000    mass and valenz                      
   RCORE  =    2.300    outmost cutoff radius                                   
   RWIGS  =    2.480; RWIGS  =    1.312    wigner-seitz radius (au A)           
   ENMAX  =  273.214; ENMIN  =  204.910 eV                                      
   RCLOC  =    1.712    cutoff for local pot                                    
   LCOR   =        T    correct aug charges                                     
   LPAW   =        T    paw PP                                                  
   EAUG   =  516.456                                                            
   DEXC   =    -.008                                                            
   RMAX   =    2.789    core radius for proj-oper                               
   RAUG   =    1.300    factor for augmentation sphere                          
   RDEP   =    2.302    radius for radial grids                                 
   QCUT   =   -4.481; QGAM   =    8.962    optimization parameters              
                                                                                
   Description                                                                  
     l     E      TYP  RCUT    TYP  RCUT                                        
     2   .000     23  2.300                                                     
     2   .000     23  2.300                                                     
     0   .000     23  2.300                                                     
     0   .000     23  2.300                                                     
     1  -.200     23  2.300                                                     
     1   .000     23  2.300                                                     
     3   .000      7   .000                                                     
  local pseudopotential read in
  partial core-charges read in
  atomic valenz-charges read in
  non local Contribution for L=           2  read in
    real space projection operators read in
  non local Contribution for L=           2  read in
    real space projection operators read in
  non local Contribution for L=           0  read in
    real space projection operators read in
  non local Contribution for L=           0  read in
    real space projection operators read in
  non local Contribution for L=           1  read in
    real space projection operators read in
  non local Contribution for L=           1  read in
    real space projection operators read in
    PAW grid and wavefunctions read in
 
   number of l-projection  operators is LMAX  =           6
   number of lm-projection operators is LMMAX =          18
 

 ----------------------------------------------------------------------------- 
|                                                                             |
|  ADVICE TO THIS USER RUNNING 'VASP/VAMP'   (HEAR YOUR MASTER'S VOICE ...):  |
|                                                                             |
|      You have a (more or less) 'large supercell' and for larger cells       |
|      it might be more efficient to use real space projection operators      |
|      So try LREAL= Auto  in the INCAR   file.                               |
|      Mind: If you want to do an extremely accurate calculations keep the    |
|      reciprocal projection scheme          (i.e. LREAL=.FALSE.)             |
|                                                                             |
 ----------------------------------------------------------------------------- 

 PAW_PBE Cu 05Jan2001                   :
 energy of atom  1       EATOM=-1390.9800
 kinetic energy error for atom=    0.0395 (will be added to EATOM!!)
 
 EXHCAR: internal setup
 exchange correlation table for  LEXCH =        8
   RHO(1)=    0.500       N(1)  =     2000
   RHO(2)=  100.500       N(2)  =     4000
 
 POSCAR: No title                                
  positions in direct lattice
  No initial velocities read in
 


--------------------------------------------------------------------------------------------------------


 ion  position               nearest neighbor table
   1  0.667  0.667  0.333-   5 2.62   8 2.62   9 2.62  43 2.62  60 2.62  59 2.62   3 2.62  38 2.62
                             2 2.62  19 2.62  34 2.62 101 2.62
   2  0.667  0.833  0.500-   3 2.62   9 2.62  14 2.62  10 2.62  34 2.62  39 2.62   1 2.62   6 2.62
                            61 2.62  97 2.62  60 2.62  35 2.62
   3  0.833  0.667  0.500-   2 2.62   9 2.62  14 2.62  12 2.62  19 2.62   1 2.62  39 2.62  49 2.62
                            87 2.62  11 2.62  44 2.62  43 2.62
   4  0.667  0.667  0.000-  21 2.62  20 2.62  15 2.62  66 2.62  83 2.62   8 2.62   5 2.62  38 2.62
                            59 2.62  82 2.62 107 2.62  63 2.62
   5  0.667  0.833  0.167-   1 2.62   8 2.62   9 2.62  21 2.62  60 2.62  59 2.62  22 2.62   4 2.62
                             6 2.62  16 2.62  84 2.62  83 2.62
   6  0.667  0.000  0.333-  22 2.62  17 2.62   9 2.62  23 2.62  10 2.62  84 2.62   5 2.62   2 2.62
                            85 2.62  61 2.62  60 2.62   7 2.62
   7  0.667  0.167  0.500-  24 2.62  18 2.62  23 2.62  10 2.62  86 2.62  64 2.62  62 2.62  35 2.62
                           105 2.62  61 2.62  85 2.62   6 2.62
   8  0.833  0.667  0.167-   5 2.62   1 2.62   9 2.62  21 2.62  43 2.62  38 2.62  26 2.62   4 2.62
                            11 2.62  70 2.62  25 2.62  66 2.62
   9  0.833  0.833  0.333-   1 2.62   5 2.62   8 2.62   2 2.62   6 2.62   3 2.62  11 2.62  22 2.62
                            26 2.62  12 2.62  27 2.62  10 2.62
  10  0.833  0.000  0.500-   7 2.62  35 2.62   2 2.62   6 2.62  23 2.62  12 2.62  39 2.62  27 2.62
                            28 2.62  67 2.62  64 2.62   9 2.62
  11  0.000  0.667  0.333-  26 2.62   9 2.62  29 2.62  30 2.62   8 2.62  12 2.62  70 2.62  49 2.62
                            75 2.62   3 2.62  43 2.62  13 2.62
  12  0.000  0.833  0.500-  13 2.62  44 2.62   3 2.62  11 2.62  27 2.62  10 2.62  39 2.62  30 2.62
                             9 2.62  31 2.62  71 2.62  67 2.62
  13  0.167  0.667  0.500-  33 2.62  30 2.62  32 2.62  12 2.62  81 2.62  76 2.62  71 2.62 102 2.62
                            44 2.62  11 2.62  49 2.62  75 2.62
  14  0.667  0.667  0.667-  20 2.62  39 2.62  15 2.62   3 2.62   2 2.62  63 2.62  82 2.62  87 2.62
                            97 2.62  34 2.62 108 2.62  19 2.62
  15  0.667  0.833  0.833-  20 2.62  39 2.62  14 2.62  35 2.62   4 2.62  40 2.62  82 2.62  21 2.62
                            97 2.62  98 2.62  83 2.62  16 2.62
  16  0.667  0.000  0.000-  21 2.62  40 2.62  41 2.62  22 2.62   5 2.62  36 2.62  99 2.62  84 2.62
                            98 2.62  83 2.62  17 2.62  15 2.62
  17  0.667  0.167  0.167-  23 2.62  42 2.62  18 2.62   6 2.62  37 2.62  41 2.62  22 2.62  85 2.62
                           100 2.62  99 2.62  84 2.62  16 2.62
  18  0.667  0.333  0.333-  23 2.62  42 2.62  17 2.62  38 2.62   7 2.62  43 2.62  85 2.62  24 2.62
                           100 2.62 101 2.62  86 2.62  19 2.62
  19  0.667  0.500  0.500-  24 2.62  43 2.62   3 2.62  87 2.62   1 2.62  62 2.62  34 2.62 108 2.62
                           101 2.62  86 2.62  14 2.62  18 2.62
  20  0.833  0.667  0.833-  15 2.62  39 2.62  14 2.62   4 2.62  44 2.62  45 2.62  63 2.62  21 2.62
                            87 2.62  66 2.62  89 2.62  25 2.62
  21  0.833  0.833  0.000-  46 2.61   4 2.62   8 2.62  16 2.62  25 2.62   5 2.62  15 2.62  20 2.62
                            40 2.62  45 2.62  26 2.62  22 2.62
  22  0.833  0.000  0.167-  46 2.61   6 2.62  17 2.62   9 2.62   5 2.62  27 2.62  16 2.62  23 2.62
                            41 2.62  26 2.62  47 2.62  21 2.62
  23  0.833  0.167  0.333-  18 2.62  42 2.62  17 2.62   7 2.62  47 2.62   6 2.62  48 2.62  24 2.62
                            22 2.62  27 2.62  10 2.62  28 2.62
  24  0.833  0.333  0.500-   7 2.62  19 2.62  28 2.62  62 2.62  64 2.62  18 2.62  23 2.62  43 2.62
                            48 2.62  49 2.62  88 2.62  87 2.62
  25  0.000  0.667  0.000-  21 2.62  45 2.62  51 2.62  26 2.62  70 2.62  92 2.62  50 2.62   8 2.62
                            66 2.62  29 2.62  20 2.62  89 2.62
  26  0.000  0.833  0.167-  11 2.62   9 2.62  29 2.62   8 2.62  30 2.62  25 2.62  27 2.62  22 2.62
                            51 2.62  21 2.62  52 2.62  46 2.62
  27  0.000  0.000  0.333-  47 2.62  52 2.62  22 2.62  26 2.62  30 2.62  23 2.62  12 2.62  10 2.62
                             9 2.62  31 2.62  53 2.62  28 2.62
  28  0.000  0.167  0.500-  24 2.62  48 2.62  54 2.62  88 2.62  67 2.62  31 2.62  53 2.62  64 2.62
                            10 2.62  23 2.62  90 2.62  27 2.62
  29  0.167  0.667  0.167-  32 2.62  56 2.62  30 2.62  26 2.62  51 2.62  55 2.62  11 2.62  75 2.62
                            96 2.62  25 2.62  70 2.62  92 2.62
  30  0.167  0.833  0.333-  32 2.62  56 2.62  29 2.62  52 2.62  13 2.62  11 2.62  57 2.62  33 2.62
                            26 2.62  27 2.62  12 2.62  31 2.62
  31  0.167  0.000  0.500-  33 2.62  57 2.62  58 2.62  93 2.62  53 2.62  71 2.62  28 2.62  67 2.62
                            12 2.62  27 2.62  90 2.62  30 2.62
  32  0.333  0.667  0.333-  30 2.62  56 2.62  29 2.62  13 2.62  59 2.62  60 2.62  75 2.62  33 2.62
                            96 2.62  81 2.62 101 2.62  34 2.62
  33  0.333  0.833  0.500-  13 2.62  31 2.62  34 2.62  71 2.62  76 2.62  30 2.62  32 2.62  57 2.62
                            60 2.62  61 2.62  97 2.62  93 2.62
  34  0.500  0.667  0.500-  33 2.62  60 2.62   2 2.62  97 2.62  19 2.62 108 2.62   1 2.62  76 2.62
                            81 2.62  32 2.62  14 2.62 101 2.62
  35  0.667  0.000  0.667-  40 2.62  15 2.62  39 2.62  10 2.62  98 2.62  64 2.62  36 2.62   7 2.62
                           105 2.62  61 2.62  97 2.62   2 2.62
  36  0.667  0.167  0.833-  62 2.62  64 2.62  65 2.62  40 2.62 106 2.62 105 2.62  41 2.62  37 2.62
                            35 2.62  16 2.62  99 2.62  98 2.62
  37  0.667  0.333  0.000-  41 2.62  17 2.62  65 2.62  66 2.62  99 2.62  42 2.62  36 2.62  63 2.62
                           107 2.62 100 2.62 106 2.62  38 2.62
  38  0.667  0.500  0.167-  43 2.62  42 2.62  18 2.62  66 2.62 101 2.62   8 2.62   1 2.62   4 2.62
                            59 2.62 100 2.62 107 2.62  37 2.62
  39  0.833  0.833  0.667-  20 2.62  15 2.62  14 2.62  35 2.62  44 2.62   2 2.62  45 2.62   3 2.62
                            40 2.62  10 2.62  12 2.62  67 2.62
  40  0.833  0.000  0.833-  46 2.61  35 2.62  36 2.62  16 2.62  64 2.62  67 2.62  15 2.62  39 2.62
                            45 2.62  21 2.62  68 2.62  41 2.62
  41  0.833  0.167  0.000-  46 2.61  37 2.62  17 2.62  65 2.62  16 2.62  69 2.62  36 2.62  42 2.62
                            22 2.62  68 2.62  47 2.62  40 2.62
  42  0.833  0.333  0.167-  23 2.62  18 2.62  17 2.62  38 2.62  47 2.62  37 2.62  48 2.62  41 2.62
                            43 2.62  66 2.62  69 2.62  70 2.62
  43  0.833  0.500  0.333-  38 2.62   8 2.62  19 2.62   1 2.62  70 2.62  18 2.62  42 2.62  48 2.62
                            24 2.62  49 2.62  11 2.62   3 2.62
  44  0.000  0.667  0.667-  45 2.62  20 2.62  39 2.62  12 2.62  89 2.62  71 2.62  50 2.62 102 2.62
                            13 2.62   3 2.62  87 2.62  49 2.62
  45  0.000  0.833  0.833-  44 2.62  25 2.62  50 2.62  67 2.62  71 2.62  20 2.62  39 2.62  40 2.62
                            21 2.62  51 2.62  72 2.62  46 2.62
  46  0.998  0.000  0.000-  41 2.61  22 2.61  21 2.61  40 2.61  26 2.62  68 2.62  45 2.62  47 2.62
                            51 2.64  72 2.64  73 2.64  52 2.64
  47  0.000  0.167  0.167-  48 2.62  27 2.62  42 2.62  23 2.62  69 2.62  74 2.62  53 2.62  52 2.62
                            73 2.62  41 2.62  22 2.62  46 2.62
  48  0.000  0.333  0.333-  47 2.62  28 2.62  53 2.62  70 2.62  74 2.62  23 2.62  42 2.62  43 2.62
                            24 2.62  54 2.62  75 2.62  49 2.62
  49  0.000  0.500  0.500-   3 2.62  11 2.62  54 2.62  88 2.62  87 2.62  75 2.62  24 2.62  43 2.62
                            13 2.62 102 2.62  48 2.62  44 2.62
  50  0.167  0.667  0.833-  71 2.62  76 2.62  77 2.62  45 2.62 104 2.62  44 2.62  55 2.62 102 2.62
                            51 2.62  92 2.62  25 2.62  89 2.62
  51  0.167  0.833  0.000-  55 2.62  29 2.62  77 2.62  25 2.62  78 2.62  56 2.62  50 2.62  72 2.62
                            26 2.62  45 2.62  52 2.62  46 2.64
  52  0.167  0.000  0.167-  57 2.62  30 2.62  56 2.62  27 2.62  78 2.62  79 2.62  53 2.62  47 2.62
                            73 2.62  26 2.62  51 2.62  46 2.64
  53  0.167  0.167  0.333-  74 2.62  79 2.62  80 2.62  57 2.62  48 2.62  58 2.62  47 2.62  54 2.62
                            52 2.62  31 2.62  28 2.62  27 2.62
  54  0.167  0.333  0.500-  58 2.62  80 2.62  90 2.62  81 2.62  28 2.62 103 2.62  53 2.62  49 2.62
                            75 2.62  88 2.62  48 2.62 102 2.62
  55  0.333  0.667  0.000-  51 2.62  29 2.62  77 2.62  83 2.62  92 2.62  50 2.62  56 2.62  96 2.62
                           107 2.62  82 2.62  59 2.62 104 2.62
  56  0.333  0.833  0.167-  32 2.62  30 2.62  29 2.62  52 2.62  59 2.62  51 2.62  60 2.62  55 2.62
                            57 2.62  78 2.62  83 2.62  84 2.62
  57  0.333  0.000  0.333-  52 2.62  31 2.62  53 2.62  79 2.62  84 2.62  30 2.62  56 2.62  33 2.62
                            60 2.62  61 2.62  85 2.62  58 2.62
  58  0.333  0.167  0.500-  54 2.62  80 2.62  90 2.62  86 2.62  31 2.62  53 2.62 103 2.62  93 2.62
                            61 2.62  85 2.62 105 2.62  57 2.62
  59  0.500  0.667  0.167-  60 2.62  56 2.62  32 2.62  83 2.62 101 2.62   5 2.62   1 2.62  38 2.62
                             4 2.62  96 2.62  55 2.62 107 2.62
  60  0.500  0.833  0.333-  59 2.62   5 2.62  34 2.62   1 2.62  84 2.62  32 2.62  56 2.62  57 2.62
                            33 2.62   6 2.62   2 2.62  61 2.62
  61  0.500  0.000  0.500-   2 2.62  58 2.62  85 2.62  97 2.62  93 2.62   6 2.62   7 2.62  33 2.62
                            35 2.62  57 2.62  60 2.62 105 2.62
  62  0.667  0.333  0.667-  36 2.62  64 2.62  65 2.62  24 2.62 106 2.62 105 2.62  87 2.62  63 2.62
                             7 2.62  19 2.62 108 2.62  86 2.62
  63  0.667  0.500  0.833-  87 2.62  65 2.62  14 2.62  20 2.62  66 2.62 108 2.62  62 2.62  37 2.62
                            82 2.62 107 2.62 106 2.62   4 2.62
  64  0.833  0.167  0.667-  62 2.62  36 2.62  65 2.62  24 2.62  40 2.62  35 2.62  88 2.62  68 2.62
                             7 2.62  67 2.62  28 2.62  10 2.62
  65  0.833  0.333  0.833-  36 2.62  62 2.62  64 2.62  37 2.62  63 2.62  41 2.62  68 2.62  87 2.62
                            88 2.62  69 2.62  89 2.62  66 2.62
  66  0.833  0.500  0.000-   4 2.62  38 2.62  37 2.62  63 2.62  42 2.62  20 2.62  69 2.62  89 2.62
                            70 2.62  25 2.62  65 2.62   8 2.62
  67  0.000  0.000  0.667-  40 2.62  45 2.62  72 2.62  68 2.62  28 2.62  71 2.62  64 2.62  31 2.62
                            10 2.62  39 2.62  90 2.62  12 2.62
  68  0.000  0.167  0.833-  88 2.62  65 2.62  90 2.62  91 2.62  64 2.62  69 2.62  67 2.62  72 2.62
                            41 2.62  73 2.62  40 2.62  46 2.62
  69  0.000  0.333  0.000-  47 2.62  73 2.62  41 2.62  68 2.62  66 2.62  89 2.62  42 2.62  91 2.62
                            65 2.62  74 2.62  92 2.62  70 2.62
  70  0.000  0.500  0.167-  43 2.62  48 2.62  75 2.62  11 2.62  25 2.62  74 2.62   8 2.62  92 2.62
                            29 2.62  42 2.62  66 2.62  69 2.62
  71  0.167  0.833  0.667-  50 2.62  76 2.62  77 2.62  45 2.62  33 2.62  44 2.62  93 2.62  72 2.62
                            13 2.62  31 2.62  67 2.62  12 2.62
  72  0.167  0.000  0.833-  93 2.62  90 2.62  77 2.62  94 2.62  78 2.62  67 2.62  71 2.62  51 2.62
                            68 2.62  45 2.62  73 2.62  46 2.64
  73  0.167  0.167  0.000-  95 2.62  78 2.62  91 2.62  94 2.62  69 2.62  79 2.62  74 2.62  52 2.62
                            47 2.62  68 2.62  72 2.62  46 2.64
  74  0.167  0.333  0.167-  53 2.62  79 2.62  80 2.62  48 2.62  95 2.62  47 2.62  96 2.62  73 2.62
                            75 2.62  70 2.62  92 2.62  69 2.62
  75  0.167  0.500  0.333-  96 2.62  80 2.62  29 2.62  32 2.62  81 2.62  70 2.62  74 2.62  54 2.62
                            11 2.62  49 2.62  48 2.62  13 2.62
  76  0.333  0.667  0.667-  71 2.62  50 2.62  77 2.62  33 2.62 104 2.62 102 2.62  97 2.62  82 2.62
                            13 2.62 108 2.62  34 2.62  81 2.62
  77  0.333  0.833  0.833-  50 2.62  71 2.62  76 2.62  51 2.62  72 2.62  55 2.62  82 2.62  93 2.62
                            97 2.62  83 2.62  98 2.62  78 2.62
  78  0.333  0.000  0.000-  52 2.62  73 2.62  51 2.62  72 2.62  56 2.62  83 2.62  94 2.62  98 2.62
                            84 2.62  99 2.62  79 2.62  77 2.62
  79  0.333  0.167  0.167-  74 2.62  53 2.62  80 2.62  57 2.62  95 2.62  52 2.62 100 2.62  73 2.62
                            85 2.62  84 2.62  99 2.62  78 2.62
  80  0.333  0.333  0.333-  53 2.62  74 2.62  79 2.62  54 2.62  75 2.62  58 2.62  85 2.62  96 2.62
                           100 2.62  86 2.62 101 2.62  81 2.62
  81  0.333  0.500  0.500-  13 2.62 102 2.62  54 2.62  75 2.62  86 2.62  32 2.62 103 2.62 101 2.62
                            34 2.62 108 2.62  80 2.62  76 2.62
  82  0.500  0.667  0.833-  97 2.62  77 2.62  14 2.62  15 2.62  76 2.62  83 2.62 108 2.62 107 2.62
                            63 2.62  55 2.62   4 2.62 104 2.62
  83  0.500  0.833  0.000-   4 2.62  59 2.62  55 2.62  82 2.62  78 2.62  98 2.62  15 2.62  56 2.62
                            16 2.62   5 2.62  77 2.62  84 2.62
  84  0.500  0.000  0.167-  57 2.62  60 2.62   6 2.62  85 2.62  79 2.62   5 2.62  99 2.62  16 2.62
                            17 2.62  56 2.62  78 2.62  83 2.62
  85  0.500  0.167  0.333- 100 2.62  80 2.62  17 2.62  18 2.62  79 2.62  86 2.62  84 2.62  61 2.62
                             6 2.62  58 2.62  57 2.62   7 2.62
  86  0.500  0.333  0.500-   7 2.62 105 2.62  58 2.62  85 2.62 101 2.62  81 2.62 103 2.62  18 2.62
                            80 2.62  19 2.62  62 2.62 108 2.62
  87  0.833  0.500  0.667-  63 2.62  14 2.62  65 2.62  62 2.62  19 2.62  89 2.62  20 2.62  88 2.62
                             3 2.62  49 2.62  44 2.62  24 2.62
  88  0.000  0.333  0.667-  68 2.62  65 2.62  90 2.62  64 2.62  91 2.62  28 2.62  89 2.62  87 2.62
                            49 2.62  54 2.62  24 2.62 102 2.62
  89  0.000  0.500  0.833-  44 2.62 102 2.62  87 2.62  88 2.62  69 2.62  91 2.62  20 2.62  66 2.62
                            50 2.62  92 2.62  65 2.62  25 2.62
  90  0.167  0.167  0.667-  94 2.62 103 2.62  91 2.62  72 2.62  88 2.62  54 2.62  93 2.62  58 2.62
                            68 2.62  67 2.62  28 2.62  31 2.62
  91  0.167  0.333  0.833-  94 2.62 103 2.62  90 2.62 102 2.62  73 2.62  68 2.62 104 2.62  95 2.62
                            88 2.62  89 2.62  69 2.62  92 2.62
  92  0.167  0.500  0.000-  95 2.62 104 2.62  55 2.62  96 2.62  50 2.62  25 2.62  74 2.62  70 2.62
                            89 2.62  69 2.62  91 2.62  29 2.62
  93  0.333  0.000  0.667-  72 2.62  77 2.62  90 2.62  71 2.62  31 2.62  98 2.62  94 2.62  97 2.62
                            58 2.62  61 2.62 105 2.62  33 2.62
  94  0.333  0.167  0.833-  91 2.62 103 2.62  90 2.62  73 2.62 105 2.62  72 2.62 106 2.62  95 2.62
                            93 2.62  98 2.62  78 2.62  99 2.62
  95  0.333  0.333  0.000-  73 2.62  74 2.62  79 2.62  92 2.62  99 2.62  91 2.62  94 2.62 104 2.62
                           106 2.62 100 2.62 107 2.62  96 2.62
  96  0.333  0.500  0.167-  75 2.62  29 2.62  80 2.62  74 2.62  92 2.62 101 2.62  32 2.62 100 2.62
                            55 2.62 107 2.62  59 2.62  95 2.62
  97  0.500  0.833  0.667-  82 2.62  77 2.62  14 2.62  76 2.62  15 2.62  34 2.62  98 2.62  93 2.62
                            61 2.62   2 2.62  33 2.62  35 2.62
  98  0.500  0.000  0.833-  35 2.62 105 2.62  93 2.62  97 2.62  94 2.62  83 2.62  15 2.62  78 2.62
                            16 2.62  36 2.62  77 2.62  99 2.62
  99  0.500  0.167  0.000-  95 2.62 106 2.62  37 2.62 100 2.62  84 2.62  16 2.62  36 2.62  79 2.62
                            17 2.62  78 2.62  94 2.62  98 2.62
 100  0.500  0.333  0.167-  85 2.62  80 2.62  17 2.62  79 2.62  18 2.62  99 2.62 101 2.62  96 2.62
                           107 2.62  37 2.62  38 2.62  95 2.62
 101  0.500  0.500  0.333-  38 2.62  59 2.62  96 2.62 100 2.62  86 2.62  18 2.62  32 2.62  81 2.62
                             1 2.62  80 2.62  19 2.62  34 2.62
 102  0.167  0.500  0.667- 104 2.62  89 2.62  91 2.62 103 2.62  81 2.62  76 2.62  50 2.62  44 2.62
                            13 2.62  49 2.62  88 2.62  54 2.62
 103  0.333  0.333  0.667-  94 2.62  91 2.62  90 2.62 102 2.62 105 2.62  54 2.62 106 2.62  58 2.62
                           104 2.62  81 2.62  86 2.62 108 2.62
 104  0.333  0.500  0.833- 102 2.62  76 2.62  92 2.62  50 2.62 108 2.62  91 2.62 103 2.62 106 2.62
                            95 2.62 107 2.62  82 2.62  55 2.62
 105  0.500  0.167  0.667- 106 2.62  94 2.62  98 2.62 103 2.62  86 2.62  62 2.62  36 2.62  35 2.62
                             7 2.62  58 2.62  93 2.62  61 2.62
 106  0.500  0.333  0.833- 105 2.62  62 2.62  99 2.62  36 2.62 108 2.62  94 2.62 103 2.62 104 2.62
                            95 2.62  63 2.62  37 2.62 107 2.62
 107  0.500  0.500  0.000-  37 2.62  55 2.62  82 2.62 100 2.62  96 2.62  63 2.62  95 2.62  38 2.62
                             4 2.62 104 2.62  59 2.62 106 2.62
 108  0.500  0.500  0.667- 104 2.62 106 2.62  63 2.62  82 2.62  62 2.62  34 2.62  76 2.62  19 2.62
                           103 2.62  81 2.62  14 2.62  86 2.62
 
  LATTYP: Found a simple cubic cell.
 ALAT       =    11.1314461800
  
  Lattice vectors:
  
 A1 = (  11.1314461800,   0.0000000000,   0.0000000000)
 A2 = (   0.0000002000,  11.1314461800,   0.0000000000)
 A3 = (   0.0000002000,   0.0000002000,  11.1314461800)
 Subroutine PRICEL returns:
 Original cell was already a primitive cell.
 

Analysis of symmetry for initial positions (statically):

 Routine SETGRP: Setting up the symmetry group for a 
 simple cubic supercell.


 Subroutine GETGRP returns: Found  8 space group operations
 (whereof  8 operations were pure point group operations)
 out of a pool of 48 trial point group operations.


The static configuration has the point symmetry C_4v.

Analysis of symmetry for dynamics (positions and initial velocities):

 Subroutine DYNSYM returns: Found  8 space group operations
 (whereof  8 operations were pure point group operations)
 out of a pool of  8 trial space group operations
 (whereof  8 operations were pure point group operations)
 and found also     1 'primitive' translations


The dynamic configuration has the point symmetry C_4v.
 
 
 KPOINTS: Automatic mesh                          

Automatic generation of k-mesh.
 
 Subroutine IBZKPT returns following result:
 ===========================================
 
 Found      1 irreducible k-points:
 
 Following reciprocal coordinates:
            Coordinates               Weight
  0.250000  0.250000  0.250000      8.000000
 
 Following cartesian coordinates:
            Coordinates               Weight
  0.022459  0.022459  0.022459      8.000000
 


--------------------------------------------------------------------------------------------------------




 Dimension of arrays:
   k-Points           NKPTS =      1   number of bands    NBANDS=    712
   number of dos      NEDOS =    301   number of ions     NIONS =    108
   non local maximal  LDIM  =      6   non local SUM 2l+1 LMDIM =     18
   total plane-waves  NPLWV = 110592
   max r-space proj   IRMAX =      1   max aug-charges    IRDMAX=   3013
   dimension x,y,z NGX =    48 NGY =   48 NGZ =   48
   dimension x,y,z NGXF=    96 NGYF=   96 NGZF=   96
   support grid    NGXF=    96 NGYF=   96 NGZF=   96
   ions per type =             108
 NGX,Y,Z   is equivalent  to a cutoff of   7.17,  7.17,  7.17 a.u.
 NGXF,Y,Z  is equivalent  to a cutoff of  14.34, 14.34, 14.34 a.u.


 I would recommend the setting:
   dimension x,y,z NGX =    45 NGY =   45 NGZ =   45
 SYSTEM =  No title                                
 POSCAR =  No title                                

 Startparameter for this run:
   NWRITE =      2    write-flag & timer
   PREC   = normal    medium, high low
   ISTART =      1    job   : 0-new  1-cont  2-samecut
   ICHARG =      0    charge: 1-file 2-atom 10-const
   ISPIN  =      1    spin polarized calculation?
   LNONCOLLINEAR =      F non collinear calculations
   LSORBIT =      F    spin-orbit coupling
   INIWAV =      1    electr: 0-lowe 1-rand  2-diag
   LASPH  =      F    aspherical Exc in radial PAW
   METAGGA=      F    non-selfconsistent MetaGGA calc.

 Electronic Relaxation 1
   ENCUT  =  273.2 eV  20.08 Ry    4.48 a.u.  15.00 15.00 15.00*2*pi/ulx,y,z
   ENINI  =  273.2     initial cutoff
   ENAUG  =  516.5 eV  augmentation charge cutoff
   NELM   =     60;   NELMIN=  2; NELMDL=  0     # of ELM steps 
   EDIFF  = 0.1E-04   stopping-criterion for ELM
   LREAL  =      F    real-space projection
   LCOMPAT=      F    compatible to vasp.4.4
   LREAL_COMPAT= F    compatible to vasp.4.5.1-3
   GGA_COMPAT  = T    GGA compatible to vasp.4.4-vasp.4.6
   LMAXPAW     = -100 max onsite density
   LMAXMIX     =    2 max onsite mixed and CHGCAR
   VOSKOWN=      1    Vosko Wilk Nusair interpolation
   ROPT   =    0.00000
 Ionic relaxation
   EDIFFG = -.2E-01   stopping-criterion for IOM
   NSW    =      0    number of steps for IOM
   NBLOCK =      1;   KBLOCK =      1    inner block; outer block 
   IBRION =     -1    ionic relax: 0-MD 1-quasi-New 2-CG
   NFREE  =      0    steps in history (QN), initial steepest desc. (CG)
   ISIF   =      2    stress and relaxation
   IWAVPR =     10    prediction:  0-non 1-charg 2-wave 3-comb
   ISYM   =      2    0-nonsym 1-usesym 2-fastsym
   LCORR  =      T    Harris-Foulkes like correction to forces

   POTIM  =   0.50    time-step for ionic-motion
   TEIN   =    0.0    initial temperature
   TEBEG  =    0.0;   TEEND  =   0.0 temperature during run
   SMASS  =  -3.00    Nose mass-parameter (am)
   estimated Nose-frequenzy (Omega)   =  0.10E-29 period in steps =****** mass=  -0.283E-26a.u.
   NPACO  =    256;   APACO  = 16.0  distance and # of slots for P.C.
   PSTRESS=    0.0 pullay stress

  Mass of Ions in am
   POMASS =  63.55
  Ionic Valenz
   ZVAL   =  11.00
  Atomic Wigner-Seitz radii
   RWIGS  =   1.17
   NELECT =    1188.0000    total number of electrons
   NUPDOWN=      -1.0000    fix difference up-down

 DOS related values:
   EMIN   =  10.00;   EMAX   =-10.00  energy-range for DOS
   ISMEAR =     1;   SIGMA  =   0.20  broadening in eV -4-tet -1-fermi 0-gaus

 Electronic relaxation 2 (details)
   IALGO  =     38    algorithm
   LDIAG  =      T    sub-space diagonalisation
   IMIX   =      4    mixing-type and parameters
     AMIX     =   0.40;   BMIX     =  1.00
     AMIX_MAG =   1.60;   BMIX_MAG =  1.00
     AMIN     =   0.10
     WC   =   100.;   INIMIX=   1;  MIXPRE=   1

 Intra band minimization:
   WEIMIN = 0.0000     energy-eigenvalue tresh-hold
   EBREAK =  0.35E-08  absolut break condition
   DEPER  =   0.30     relativ break condition  

   TIME   =   0.10     timestep for ELM

  volume/ion in A,a.u.               =      12.77        86.18
  Fermi-wavevector in a.u.,eV,Ry     =   1.557622 33.010266  2.426186

 Second variation
   LSECVAR=     F    do a second variation
 
 Write flags
   LWAVE  =      F    write WAVECAR
   LCHARG =      F    write CHGCAR
   LVTOT  =      F    write LOCPOT, local potential
   LELF   =      F    write electronic localiz. function (ELF)
   LORBIT =      0    0 simple, 1 ext, 2 COOP (PROOUT)


 Dipole corrections
   IDIPOL =      0    1-x, 2-y, 3-z
   LDIPOL =      F    correct potential



--------------------------------------------------------------------------------------------------------


 Static calculation
 charge density will be updated during run
 non-spin polarized calculation
 Variant of blocked Davidson
 Davidson routine will perform the subspace rotation
 performe sub-space diagonalisation
    after iterative eigenvector-optimisation
 modified Broyden-mixing scheme, WC =      100.0
 initial mixing is a Kerker type mixing with AMIX =  0.4000 and BMIX =      1.0000
 Hartree-type preconditioning will be used
 using additional bands          118
 reciprocal scheme for non local part
 use partial core corrections
 calculate Harris-corrections to forces 
   (improved forces if not selfconsistent)
 use gradient corrections 
 use of overlap-Matrix (Vanderbilt PP)
 Methfessel and Paxton  Order N= 1 SIGMA  =   0.20


--------------------------------------------------------------------------------------------------------


  energy-cutoff  :      273.21
  volume of cell :     1379.29
      direct lattice vectors                 reciprocal lattice vectors
    11.131446180  0.000000000  0.000000000     0.089835587 -0.000000002 -0.000000002
     0.000000200 11.131446180  0.000000000     0.000000000  0.089835587 -0.000000002
     0.000000200  0.000000200 11.131446180     0.000000000  0.000000000  0.089835587

  length of vectors
    11.131446180 11.131446180 11.131446180     0.089835587  0.089835587  0.089835587


 
 old parameters found on file WAVECAR:
  energy-cutoff  :      273.21
  volume of cell :     1379.29
      direct lattice vectors                 reciprocal lattice vectors
    11.131446180  0.000000000  0.000000000     0.089835587 -0.000000002 -0.000000002
     0.000000200 11.131446180  0.000000000     0.000000000  0.089835587 -0.000000002
     0.000000200  0.000000200 11.131446180     0.000000000  0.000000000  0.089835587

  length of vectors

 
 k-points in units of 2pi/SCALE and weight: Automatic mesh                          
   0.02245890  0.02245890  0.02245890       1.000
 
 k-points in reciprocal lattice and weights: Automatic mesh                          
   0.25000000  0.25000000  0.25000000       1.000
 
 position of ions in fractional coordinates (direct lattice) 
   0.66666667  0.66666667  0.33333333
   0.66666667  0.83333333  0.50000000
   0.83333333  0.66666667  0.50000000
   0.66666667  0.66666667  0.00000000
   0.66666667  0.83333333  0.16666667
   0.66666667  0.00000000  0.33333333
   0.66666667  0.16666667  0.50000000
   0.83333333  0.66666667  0.16666667
   0.83333333  0.83333333  0.33333333
   0.83333333  0.00000000  0.50000000
   0.00000000  0.66666667  0.33333333
   0.00000000  0.83333333  0.50000000
   0.16666667  0.66666667  0.50000000
   0.66666667  0.66666667  0.66666667
   0.66666667  0.83333333  0.83333333
   0.66666667  0.00000000  0.00000000
   0.66666667  0.16666667  0.16666667
   0.66666667  0.33333333  0.33333333
   0.66666667  0.50000000  0.50000000
   0.83333333  0.66666667  0.83333333
   0.83333333  0.83333333  0.00000000
   0.83333333  0.00000000  0.16666667
   0.83333333  0.16666667  0.33333333
   0.83333333  0.33333333  0.50000000
   0.00000000  0.66666667  0.00000000
   0.00000000  0.83333333  0.16666667
   0.00000000  0.00000000  0.33333333
   0.00000000  0.16666667  0.50000000
   0.16666667  0.66666667  0.16666667
   0.16666667  0.83333333  0.33333333
   0.16666667  0.00000000  0.50000000
   0.33333333  0.66666667  0.33333333
   0.33333333  0.83333333  0.50000000
   0.50000000  0.66666667  0.50000000
   0.66666667  0.00000000  0.66666667
   0.66666667  0.16666667  0.83333333
   0.66666667  0.33333333  0.00000000
   0.66666667  0.50000000  0.16666667
   0.83333333  0.83333333  0.66666667
   0.83333333  0.00000000  0.83333333
   0.83333333  0.16666667  0.00000000
   0.83333333  0.33333333  0.16666667
   0.83333333  0.50000000  0.33333333
   0.00000000  0.66666667  0.66666667
   0.00000000  0.83333333  0.83333333
   0.99820300  0.00000000  0.00000000
   0.00000000  0.16666667  0.16666667
   0.00000000  0.33333333  0.33333333
   0.00000000  0.50000000  0.50000000
   0.16666667  0.66666667  0.83333333
   0.16666667  0.83333333  0.00000000
   0.16666667  0.00000000  0.16666667
   0.16666667  0.16666667  0.33333333
   0.16666667  0.33333333  0.50000000
   0.33333333  0.66666667  0.00000000
   0.33333333  0.83333333  0.16666667
   0.33333333  0.00000000  0.33333333
   0.33333333  0.16666667  0.50000000
   0.50000000  0.66666667  0.16666667
   0.50000000  0.83333333  0.33333333
   0.50000000  0.00000000  0.50000000
   0.66666667  0.33333333  0.66666667
   0.66666667  0.50000000  0.83333333
   0.83333333  0.16666667  0.66666667
   0.83333333  0.33333333  0.83333333
   0.83333333  0.50000000  0.00000000
   0.00000000  0.00000000  0.66666667
   0.00000000  0.16666667  0.83333333
   0.00000000  0.33333333  0.00000000
   0.00000000  0.50000000  0.16666667
   0.16666667  0.83333333  0.66666667
   0.16666667  0.00000000  0.83333333
   0.16666667  0.16666667  0.00000000
   0.16666667  0.33333333  0.16666667
   0.16666667  0.50000000  0.33333333
   0.33333333  0.66666667  0.66666667
   0.33333333  0.83333333  0.83333333
   0.33333333  0.00000000  0.00000000
   0.33333333  0.16666667  0.16666667
   0.33333333  0.33333333  0.33333333
   0.33333333  0.50000000  0.50000000
   0.50000000  0.66666667  0.83333333
   0.50000000  0.83333333  0.00000000
   0.50000000  0.00000000  0.16666667
   0.50000000  0.16666667  0.33333333
   0.50000000  0.33333333  0.50000000
   0.83333333  0.50000000  0.66666667
   0.00000000  0.33333333  0.66666667
   0.00000000  0.50000000  0.83333333
   0.16666667  0.16666667  0.66666667
   0.16666667  0.33333333  0.83333333
   0.16666667  0.50000000  0.00000000
   0.33333333  0.00000000  0.66666667
   0.33333333  0.16666667  0.83333333
   0.33333333  0.33333333  0.00000000
   0.33333333  0.50000000  0.16666667
   0.50000000  0.83333333  0.66666667
   0.50000000  0.00000000  0.83333333
   0.50000000  0.16666667  0.00000000
   0.50000000  0.33333333  0.16666667
   0.50000000  0.50000000  0.33333333
   0.16666667  0.50000000  0.66666667
   0.33333333  0.33333333  0.66666667
   0.33333333  0.50000000  0.83333333
   0.50000000  0.16666667  0.66666667
   0.50000000  0.33333333  0.83333333
   0.50000000  0.50000000  0.00000000
   0.50000000  0.50000000  0.66666667
 
 position of ions in cartesian coordinates  (Angst):
   7.42096436  7.42096422  3.71048202
   7.42096442  9.27620521  5.56572309
   9.27620535  7.42096426  5.56572309
   7.42096429  7.42096416  0.00000000
   7.42096436  9.27620515  1.85524107
   7.42096422  0.00000007  3.71048202
   7.42096429  1.85524117  5.56572309
   9.27620528  7.42096419  1.85524107
   9.27620535  9.27620518  3.71048202
   9.27620521  0.00000010  5.56572309
   0.00000020  7.42096422  3.71048202
   0.00000027  9.27620521  5.56572309
   1.85524130  7.42096426  5.56572309
   7.42096442  7.42096429  7.42096416
   7.42096449  9.27620528  9.27620511
   7.42096416  0.00000000  0.00000000
   7.42096422  1.85524110  1.85524107
   7.42096429  3.71048209  3.71048202
   7.42096436  5.56572319  5.56572309
   9.27620541  7.42096432  9.27620511
   9.27620528  9.27620511  0.00000000
   9.27620515  0.00000003  1.85524107
   9.27620521  1.85524113  3.71048202
   9.27620528  3.71048212  5.56572309
   0.00000013  7.42096416  0.00000000
   0.00000020  9.27620515  1.85524107
   0.00000007  0.00000007  3.71048202
   0.00000013  1.85524117  5.56572309
   1.85524123  7.42096419  1.85524107
   1.85524130  9.27620518  3.71048202
   1.85524117  0.00000010  5.56572309
   3.71048222  7.42096422  3.71048202
   3.71048229  9.27620521  5.56572309
   5.56572332  7.42096426  5.56572309
   7.42096429  0.00000013  7.42096416
   7.42096436  1.85524123  9.27620511
   7.42096422  3.71048202  0.00000000
   7.42096429  5.56572312  1.85524107
   9.27620541  9.27620525  7.42096416
   9.27620528  0.00000017  9.27620511
   9.27620515  1.85524107  0.00000000
   9.27620521  3.71048206  1.85524107
   9.27620528  5.56572316  3.71048202
   0.00000027  7.42096429  7.42096416
   0.00000033  9.27620528  9.27620511
  11.11144297  0.00000000  0.00000000
   0.00000007  1.85524110  1.85524107
   0.00000013  3.71048209  3.71048202
   0.00000020  5.56572319  5.56572309
   1.85524137  7.42096432  9.27620511
   1.85524123  9.27620511  0.00000000
   1.85524110  0.00000003  1.85524107
   1.85524117  1.85524113  3.71048202
   1.85524123  3.71048212  5.56572309
   3.71048216  7.42096416  0.00000000
   3.71048222  9.27620515  1.85524107
   3.71048209  0.00000007  3.71048202
   3.71048216  1.85524117  5.56572309
   5.56572326  7.42096419  1.85524107
   5.56572332  9.27620518  3.71048202
   5.56572319  0.00000010  5.56572309
   7.42096436  3.71048216  7.42096416
   7.42096442  5.56572326  9.27620511
   9.27620528  1.85524120  7.42096416
   9.27620535  3.71048219  9.27620511
   9.27620521  5.56572309  0.00000000
   0.00000013  0.00000013  7.42096416
   0.00000020  1.85524123  9.27620511
   0.00000007  3.71048202  0.00000000
   0.00000013  5.56572312  1.85524107
   1.85524137  9.27620525  7.42096416
   1.85524123  0.00000017  9.27620511
   1.85524110  1.85524107  0.00000000
   1.85524117  3.71048206  1.85524107
   1.85524123  5.56572316  3.71048202
   3.71048229  7.42096429  7.42096416
   3.71048236  9.27620528  9.27620511
   3.71048202  0.00000000  0.00000000
   3.71048209  1.85524110  1.85524107
   3.71048216  3.71048209  3.71048202
   3.71048222  5.56572319  5.56572309
   5.56572339  7.42096432  9.27620511
   5.56572326  9.27620511  0.00000000
   5.56572312  0.00000003  1.85524107
   5.56572319  1.85524113  3.71048202
   5.56572326  3.71048212  5.56572309
   9.27620535  5.56572322  7.42096416
   0.00000020  3.71048216  7.42096416
   0.00000027  5.56572326  9.27620511
   1.85524123  1.85524120  7.42096416
   1.85524130  3.71048219  9.27620511
   1.85524117  5.56572309  0.00000000
   3.71048216  0.00000013  7.42096416
   3.71048222  1.85524123  9.27620511
   3.71048209  3.71048202  0.00000000
   3.71048216  5.56572312  1.85524107
   5.56572339  9.27620525  7.42096416
   5.56572326  0.00000017  9.27620511
   5.56572312  1.85524107  0.00000000
   5.56572319  3.71048206  1.85524107
   5.56572326  5.56572316  3.71048202
   1.85524130  5.56572322  7.42096416
   3.71048222  3.71048216  7.42096416
   3.71048229  5.56572326  9.27620511
   5.56572326  1.85524120  7.42096416
   5.56572332  3.71048219  9.27620511
   5.56572319  5.56572309  0.00000000
   5.56572332  5.56572322  7.42096416
 


--------------------------------------------------------------------------------------------------------


 k-point  1 :  0.25000.25000.2500  plane waves:  14138

 maximum and minimum number of plane-waves per node :  14138 14138

 maximum number of plane-waves:  14138
 maximal index in each direction: 
   IXMAX= 14   IYMAX= 14   IZMAX= 14
   IXMIN=-15   IYMIN=-15   IZMIN=-15

 WARNING: wrap around error must be expected set NGX to  60
 WARNING: wrap around error must be expected set NGY to  60
 WARNING: wrap around error must be expected set NGZ to  60

 parallel 3dFFT wavefunction:
    minimum data exchange during FFTs selected (reduces bandwidth)
 parallel 3dFFT charge:
    minimum data exchange during FFTs selected (reduces bandwidth)

 For storing wavefunctions  161.06 MBYTES are necessary
 For predicting wavefunctions  369.28 MBYTES are necessary
Broyden mixing: mesh for mixing (old mesh)
   NGX = 31   NGY = 31   NGZ = 31
  (NGX  = 96   NGY  = 96   NGZ  = 96)
 gives a total of  29791 points
 charge density for first step will be calculated from the start-wavefunctions


--------------------------------------------------------------------------------------------------------


 Maximum index for augmentation-charges          685 (set IRDMAX)


--------------------------------------------------------------------------------------------------------


 initial charge from wavefunction
 First call to EWALD:  gamma=   0.159
 Maximum number of real-space cells 3x 3x 3
 Maximum number of reciprocal cells 3x 3x 3

    FEWALD:  VPU time    0.02: CPU time    0.03


----------------------------------------- Iteration    1(   1)  ---------------------------------------


    POTLOK:  VPU time    0.10: CPU time    0.10
    SETDIJ:  VPU time    0.04: CPU time    0.04
    EDDAV :  VPU time   23.76: CPU time   23.82
    DOS   :  VPU time    0.00: CPU time   -0.00
    CHARGE:  VPU time    0.23: CPU time    0.23
    MIXING:  VPU time    0.00: CPU time    0.00
    ------------------------------------------
      LOOP:  VPU time   24.15: CPU time   24.21

 eigenvalue-minimisations  :  1472
 total energy-change (2. order) :-0.3982635E+03  (-0.2205430E+00)
 number of electron 1187.9983420 magnetization 
 augmentation part   778.2163875 magnetization 

 Broyden mixing:
  rms(total) = 0.75400E-01    rms(broyden)= 0.75308E-01
  rms(prec ) = 0.16757E+00
  weight for this iteration     100.00

 Free energy of the ion-electron system (eV)
  ---------------------------------------------------
  alpha Z        PSCENC =     10804.28794120
  Ewald energy   TEWEN  =   -116260.13251691
  -1/2 Hartree   DENC   =    -34553.14559605
  -V(xc)+E(xc)   XCENC  =      4605.96999887
  PAW double counting   =    117471.12148362  -133058.59729195
  entropy T*S    EENTRO =        -0.41385496
  eigenvalues    EBANDS =       371.07126067
  atomic energy  EATOM  =    150221.57506482
  ---------------------------------------------------
  free energy    TOTEN  =      -398.26351069 eV

  energy without entropy =     -397.84965573  energy(sigma->0) =     -398.12555904


--------------------------------------------------------------------------------------------------------




----------------------------------------- Iteration    1(   2)  ---------------------------------------


    POTLOK:  VPU time    0.10: CPU time    0.10
    SETDIJ:  VPU time    0.04: CPU time    0.04
    EDDAV :  VPU time   24.45: CPU time   24.48
    DOS   :  VPU time    0.00: CPU time   -0.00
    CHARGE:  VPU time    0.24: CPU time    0.24
    MIXING:  VPU time    0.00: CPU time    0.00
    ------------------------------------------
      LOOP:  VPU time   24.83: CPU time   24.87

 eigenvalue-minimisations  :  1576
 total energy-change (2. order) :-0.1564098E-01  (-0.1476711E-01)
 number of electron 1187.9983421 magnetization 
 augmentation part   778.1920452 magnetization 

 Broyden mixing:
  rms(total) = 0.13894E+00    rms(broyden)= 0.13891E+00
  rms(prec ) = 0.24517E+00
  weight for this iteration     100.00

 eigenvalues of (default mixing * dielectric matrix)
  average eigenvalue GAMMA=   0.3025
  0.3025

 Free energy of the ion-electron system (eV)
  ---------------------------------------------------
  alpha Z        PSCENC =     10804.28794120
  Ewald energy   TEWEN  =   -116260.13251691
  -1/2 Hartree   DENC   =    -34553.81473289
  -V(xc)+E(xc)   XCENC  =      4606.00193992
  PAW double counting   =    117472.37520040  -133060.20008001
  entropy T*S    EENTRO =        -0.41104613
  eigenvalues    EBANDS =       372.03907793
  atomic energy  EATOM  =    150221.57506482
  ---------------------------------------------------
  free energy    TOTEN  =      -398.27915167 eV

  energy without entropy =     -397.86810554  energy(sigma->0) =     -398.14213629


--------------------------------------------------------------------------------------------------------




----------------------------------------- Iteration    1(   3)  ---------------------------------------


    POTLOK:  VPU time    0.11: CPU time    0.11
    SETDIJ:  VPU time    0.04: CPU time    0.04
    EDDAV :  VPU time   24.36: CPU time   24.39
    DOS   :  VPU time    0.00: CPU time   -0.00
    CHARGE:  VPU time    0.24: CPU time    0.24
    MIXING:  VPU time    0.00: CPU time    0.00
    ------------------------------------------
      LOOP:  VPU time   24.75: CPU time   24.79

 eigenvalue-minimisations  :  1568
 total energy-change (2. order) : 0.4306883E-01  (-0.8778762E-02)
 number of electron 1187.9983420 magnetization 
 augmentation part   778.2110765 magnetization 

 Broyden mixing:
  rms(total) = 0.33736E-01    rms(broyden)= 0.33687E-01
  rms(prec ) = 0.57087E-01
  weight for this iteration     100.00

 eigenvalues of (default mixing * dielectric matrix)
  average eigenvalue GAMMA=   0.5878
  0.8175  0.3580

 Free energy of the ion-electron system (eV)
  ---------------------------------------------------
  alpha Z        PSCENC =     10804.28794120
  Ewald energy   TEWEN  =   -116260.13251691
  -1/2 Hartree   DENC   =    -34553.63446690
  -V(xc)+E(xc)   XCENC  =      4605.99305877
  PAW double counting   =    117471.97775625  -133059.74704366
  entropy T*S    EENTRO =        -0.41771880
  eigenvalues    EBANDS =       371.86184238
  atomic energy  EATOM  =    150221.57506482
  ---------------------------------------------------
  free energy    TOTEN  =      -398.23608284 eV

  energy without entropy =     -397.81836404  energy(sigma->0) =     -398.09684324


--------------------------------------------------------------------------------------------------------




----------------------------------------- Iteration    1(   4)  ---------------------------------------


    POTLOK:  VPU time    0.10: CPU time    0.10
    SETDIJ:  VPU time    0.04: CPU time    0.04
    EDDAV :  VPU time   29.21: CPU time   29.26
    DOS   :  VPU time    0.00: CPU time   -0.00
    CHARGE:  VPU time    0.24: CPU time    0.24
    MIXING:  VPU time    0.00: CPU time    0.00
    ------------------------------------------
      LOOP:  VPU time   29.60: CPU time   29.66

 eigenvalue-minimisations  :  1960
 total energy-change (2. order) : 0.1462908E-03  (-0.2466818E-02)
 number of electron 1187.9983420 magnetization 
 augmentation part   778.2028874 magnetization 

 Broyden mixing:
  rms(total) = 0.27110E-01    rms(broyden)= 0.27102E-01
  rms(prec ) = 0.39664E-01
  weight for this iteration     100.00

 eigenvalues of (default mixing * dielectric matrix)
  average eigenvalue GAMMA=   0.8467
  1.8035  0.3683  0.3683

 Free energy of the ion-electron system (eV)
  ---------------------------------------------------
  alpha Z        PSCENC =     10804.28794120
  Ewald energy   TEWEN  =   -116260.13251691
  -1/2 Hartree   DENC   =    -34553.84075451
  -V(xc)+E(xc)   XCENC  =      4606.00316599
  PAW double counting   =    117472.29749851  -133060.17176819
  entropy T*S    EENTRO =        -0.41819406
  eigenvalues    EBANDS =       372.16362660
  atomic energy  EATOM  =    150221.57506482
  ---------------------------------------------------
  free energy    TOTEN  =      -398.23593655 eV

  energy without entropy =     -397.81774249  energy(sigma->0) =     -398.09653853


--------------------------------------------------------------------------------------------------------




----------------------------------------- Iteration    1(   5)  ---------------------------------------


    POTLOK:  VPU time    0.10: CPU time    0.10
    SETDIJ:  VPU time    0.04: CPU time    0.04
    EDDAV :  VPU time   26.02: CPU time   26.05
    DOS   :  VPU time    0.00: CPU time   -0.00
    CHARGE:  VPU time    0.24: CPU time    0.24
    MIXING:  VPU time    0.00: CPU time    0.00
    ------------------------------------------
      LOOP:  VPU time   26.41: CPU time   26.45

 eigenvalue-minimisations  :  1704
 total energy-change (2. order) : 0.8523382E-03  (-0.8606717E-03)
 number of electron 1187.9983420 magnetization 
 augmentation part   778.2012217 magnetization 

 Broyden mixing:
  rms(total) = 0.72069E-02    rms(broyden)= 0.71980E-02
  rms(prec ) = 0.98199E-02
  weight for this iteration     100.00

 eigenvalues of (default mixing * dielectric matrix)
  average eigenvalue GAMMA=   0.8513
  1.8822  0.7563  0.3173  0.4492

 Free energy of the ion-electron system (eV)
  ---------------------------------------------------
  alpha Z        PSCENC =     10804.28794120
  Ewald energy   TEWEN  =   -116260.13251691
  -1/2 Hartree   DENC   =    -34553.86423244
  -V(xc)+E(xc)   XCENC  =      4606.00411974
  PAW double counting   =    117472.30486447  -133060.18735734
  entropy T*S    EENTRO =        -0.41827658
  eigenvalues    EBANDS =       372.19530883
  atomic energy  EATOM  =    150221.57506482
  ---------------------------------------------------
  free energy    TOTEN  =      -398.23508421 eV

  energy without entropy =     -397.81680763  energy(sigma->0) =     -398.09565868


--------------------------------------------------------------------------------------------------------




----------------------------------------- Iteration    1(   6)  ---------------------------------------


    POTLOK:  VPU time    0.10: CPU time    0.10
    SETDIJ:  VPU time    0.04: CPU time    0.04
    EDDAV :  VPU time   23.75: CPU time   23.79
    DOS   :  VPU time    0.00: CPU time   -0.00
    CHARGE:  VPU time    0.23: CPU time    0.23
    MIXING:  VPU time    0.00: CPU time    0.00
    ------------------------------------------
      LOOP:  VPU time   24.13: CPU time   24.17

 eigenvalue-minimisations  :  1520
 total energy-change (2. order) :-0.1442247E-03  (-0.1977962E-03)
 number of electron 1187.9983420 magnetization 
 augmentation part   778.2041641 magnetization 

 Broyden mixing:
  rms(total) = 0.68582E-02    rms(broyden)= 0.68568E-02
  rms(prec ) = 0.95980E-02
  weight for this iteration     100.00

 eigenvalues of (default mixing * dielectric matrix)
  average eigenvalue GAMMA=   0.9208
  1.7265  1.7265  0.4461  0.3922  0.3126

 Free energy of the ion-electron system (eV)
  ---------------------------------------------------
  alpha Z        PSCENC =     10804.28794120
  Ewald energy   TEWEN  =   -116260.13251691
  -1/2 Hartree   DENC   =    -34553.73945074
  -V(xc)+E(xc)   XCENC  =      4605.99774033
  PAW double counting   =    117472.07822778  -133059.88637798
  entropy T*S    EENTRO =        -0.41817170
  eigenvalues    EBANDS =       372.00231476
  atomic energy  EATOM  =    150221.57506482
  ---------------------------------------------------
  free energy    TOTEN  =      -398.23522844 eV

  energy without entropy =     -397.81705674  energy(sigma->0) =     -398.09583787


--------------------------------------------------------------------------------------------------------




----------------------------------------- Iteration    1(   7)  ---------------------------------------


    POTLOK:  VPU time    0.10: CPU time    0.10
    SETDIJ:  VPU time    0.04: CPU time    0.04
    EDDAV :  VPU time   23.85: CPU time   23.88
    DOS   :  VPU time    0.00: CPU time   -0.00
    CHARGE:  VPU time    0.23: CPU time    0.24
    MIXING:  VPU time    0.00: CPU time    0.00
    ------------------------------------------
      LOOP:  VPU time   24.24: CPU time   24.27

 eigenvalue-minimisations  :  1520
 total energy-change (2. order) : 0.6058108E-05  (-0.8493806E-04)
 number of electron 1187.9983420 magnetization 
 augmentation part   778.2046937 magnetization 

 Broyden mixing:
  rms(total) = 0.40827E-02    rms(broyden)= 0.40813E-02
  rms(prec ) = 0.55498E-02
  weight for this iteration     100.00

 eigenvalues of (default mixing * dielectric matrix)
  average eigenvalue GAMMA=   0.9338
  2.2672  1.4314  0.8507  0.4198  0.3168  0.3168

 Free energy of the ion-electron system (eV)
  ---------------------------------------------------
  alpha Z        PSCENC =     10804.28794120
  Ewald energy   TEWEN  =   -116260.13251691
  -1/2 Hartree   DENC   =    -34553.71950952
  -V(xc)+E(xc)   XCENC  =      4605.99671468
  PAW double counting   =    117472.05667952  -133059.84762472
  entropy T*S    EENTRO =        -0.41815766
  eigenvalues    EBANDS =       371.96618621
  atomic energy  EATOM  =    150221.57506482
  ---------------------------------------------------
  free energy    TOTEN  =      -398.23522238 eV

  energy without entropy =     -397.81706472  energy(sigma->0) =     -398.09583649


--------------------------------------------------------------------------------------------------------




----------------------------------------- Iteration    1(   8)  ---------------------------------------


    POTLOK:  VPU time    0.10: CPU time    0.10
    SETDIJ:  VPU time    0.04: CPU time    0.04
    EDDAV :  VPU time   24.02: CPU time   24.06
    DOS   :  VPU time    0.00: CPU time   -0.00
    CHARGE:  VPU time    0.24: CPU time    0.24
    MIXING:  VPU time    0.00: CPU time    0.01
    ------------------------------------------
      LOOP:  VPU time   24.41: CPU time   24.45

 eigenvalue-minimisations  :  1536
 total energy-change (2. order) :-0.3435794E-05  (-0.2080537E-04)
 number of electron 1187.9983420 magnetization 
 augmentation part   778.2037721 magnetization 

 Broyden mixing:
  rms(total) = 0.27790E-02    rms(broyden)= 0.27783E-02
  rms(prec ) = 0.39960E-02
  weight for this iteration     100.00

 eigenvalues of (default mixing * dielectric matrix)
  average eigenvalue GAMMA=   0.9080
  2.4911  1.2152  1.2152  0.4262  0.3227  0.3227  0.3625

 Free energy of the ion-electron system (eV)
  ---------------------------------------------------
  alpha Z        PSCENC =     10804.28794120
  Ewald energy   TEWEN  =   -116260.13251691
  -1/2 Hartree   DENC   =    -34553.75762450
  -V(xc)+E(xc)   XCENC  =      4605.99863090
  PAW double counting   =    117472.15756861  -133059.95862770
  entropy T*S    EENTRO =        -0.41818265
  eigenvalues    EBANDS =       372.01252040
  atomic energy  EATOM  =    150221.57506482
  ---------------------------------------------------
  free energy    TOTEN  =      -398.23522582 eV

  energy without entropy =     -397.81704316  energy(sigma->0) =     -398.09583160


--------------------------------------------------------------------------------------------------------




----------------------------------------- Iteration    1(   9)  ---------------------------------------


    POTLOK:  VPU time    0.10: CPU time    0.10
    SETDIJ:  VPU time    0.04: CPU time    0.04
    EDDAV :  VPU time   23.65: CPU time   23.68
    DOS   :  VPU time    0.00: CPU time   -0.00
    ------------------------------------------
      LOOP:  VPU time   23.80: CPU time   23.83

 eigenvalue-minimisations  :  1504
 total energy-change (2. order) : 0.8405681E-05  (-0.8075943E-05)
 number of electron 1187.9983420 magnetization 
 augmentation part   778.2037721 magnetization 

 Free energy of the ion-electron system (eV)
  ---------------------------------------------------
  alpha Z        PSCENC =     10804.28794120
  Ewald energy   TEWEN  =   -116260.13251691
  -1/2 Hartree   DENC   =    -34553.76701683
  -V(xc)+E(xc)   XCENC  =      4605.99909295
  PAW double counting   =    117472.18382263  -133059.98737192
  entropy T*S    EENTRO =        -0.41818999
  eigenvalues    EBANDS =       372.02395665
  atomic energy  EATOM  =    150221.57506482
  ---------------------------------------------------
  free energy    TOTEN  =      -398.23521741 eV

  energy without entropy =     -397.81702742  energy(sigma->0) =     -398.09582074


--------------------------------------------------------------------------------------------------------




 average (electrostatic) potential at core
  the test charge radii are     1.0053
  (the norm of the test charge is              1.0000)
       1 -40.4110       2 -40.4111       3 -40.4110       4 -40.4112       5 -40.4110
       6 -40.4112       7 -40.4111       8 -40.4111       9 -40.4111      10 -40.4112
      11 -40.4113      12 -40.4113      13 -40.4115      14 -40.4110      15 -40.4110
      16 -40.4113      17 -40.4110      18 -40.4110      19 -40.4110      20 -40.4111
      21 -40.4133      22 -40.4133      23 -40.4111      24 -40.4110      25 -40.4114
      26 -40.4113      27 -40.4114      28 -40.4113      29 -40.4113      30 -40.4113
      31 -40.4113      32 -40.4115      33 -40.4114      34 -40.4114      35 -40.4112
      36 -40.4110      37 -40.4112      38 -40.4111      39 -40.4111      40 -40.4133
      41 -40.4133      42 -40.4111      43 -40.4110      44 -40.4113      45 -40.4113
      46 -40.4109      47 -40.4113      48 -40.4113      49 -40.4113      50 -40.4113
      51 -40.4094      52 -40.4094      53 -40.4113      54 -40.4115      55 -40.4114
      56 -40.4115      57 -40.4114      58 -40.4114      59 -40.4113      60 -40.4113
      61 -40.4113      62 -40.4110      63 -40.4111      64 -40.4111      65 -40.4111
      66 -40.4112      67 -40.4114      68 -40.4113      69 -40.4114      70 -40.4113
      71 -40.4113      72 -40.4094      73 -40.4094      74 -40.4113      75 -40.4115
      76 -40.4115      77 -40.4115      78 -40.4115      79 -40.4115      80 -40.4115
      81 -40.4117      82 -40.4113      83 -40.4112      84 -40.4112      85 -40.4113
      86 -40.4114      87 -40.4110      88 -40.4113      89 -40.4113      90 -40.4113
      91 -40.4113      92 -40.4113      93 -40.4114      94 -40.4115      95 -40.4114
      96 -40.4114      97 -40.4113      98 -40.4112      99 -40.4112     100 -40.4113
     101 -40.4114     102 -40.4115     103 -40.4115     104 -40.4114     105 -40.4113
     106 -40.4113     107 -40.4113     108 -40.4114
 
 
 
 E-fermi :   2.9620     XC(G=0): -12.3477     alpha+bet : -8.9062
   add alpha+bet to get absolut eigen values

 k-point   1 :       0.2500    0.2500    0.2500
  band No.  band energies     occupation 
      1      -5.3834      2.00000
      2      -4.7606      2.00000
      3      -4.7597      2.00000
      4      -4.7589      2.00000
      5      -4.1622      2.00000
      6      -4.1613      2.00000
      7      -4.1604      2.00000
      8      -3.6064      2.00000
      9      -3.5854      2.00000
     10      -3.5845      2.00000
     11      -3.5836      2.00000
     12      -3.0515      2.00000
     13      -3.0501      2.00000
     14      -3.0497      2.00000
     15      -3.0497      2.00000
     16      -3.0493      2.00000
     17      -3.0479      2.00000
     18      -2.6139      2.00000
     19      -2.6132      2.00000
     20      -2.6126      2.00000
     21      -2.1563      2.00000
     22      -2.1556      2.00000
     23      -2.1550      2.00000
     24      -2.1150      2.00000
     25      -2.1142      2.00000
     26      -2.1133      2.00000
     27      -1.9312      2.00000
     28      -1.9308      2.00000
     29      -1.9303      2.00000
     30      -1.7455      2.00000
     31      -1.7444      2.00000
     32      -1.7440      2.00000
     33      -1.7440      2.00000
     34      -1.7436      2.00000
     35      -1.7426      2.00000
     36      -1.6893      2.00000
     37      -1.5385      2.00000
     38      -1.5377      2.00000
     39      -1.5370      2.00000
     40      -1.4184      2.00000
     41      -1.4184      2.00000
     42      -1.4183      2.00000
     43      -1.3492      2.00000
     44      -1.3487      2.00000
     45      -1.3483      2.00000
     46      -1.3036      2.00000
     47      -1.3036      2.00000
     48      -1.3030      2.00000
     49      -1.3029      2.00000
     50      -1.3023      2.00000
     51      -1.3023      2.00000
     52      -1.2436      2.00000
     53      -1.2436      2.00000
     54      -1.2436      2.00000
     55      -1.1510      2.00000
     56      -1.1507      2.00000
     57      -1.1502      2.00000
     58      -1.1501      2.00000
     59      -1.1496      2.00000
     60      -1.1493      2.00000
     61      -1.0853      2.00000
     62      -1.0847      2.00000
     63      -1.0841      2.00000
     64      -1.0464      2.00000
     65      -1.0459      2.00000
     66      -1.0456      2.00000
     67      -1.0456      2.00000
     68      -1.0453      2.00000
     69      -1.0448      2.00000
     70      -0.9899      2.00000
     71      -0.9893      2.00000
     72      -0.9890      2.00000
     73      -0.9890      2.00000
     74      -0.9888      2.00000
     75      -0.9882      2.00000
     76      -0.9271      2.00000
     77      -0.9271      2.00000
     78      -0.9270      2.00000
     79      -0.8507      2.00000
     80      -0.8507      2.00000
     81      -0.8506      2.00000
     82      -0.8381      2.00000
     83      -0.8379      2.00000
     84      -0.8375      2.00000
     85      -0.8375      2.00000
     86      -0.8371      2.00000
     87      -0.8370      2.00000
     88      -0.7996      2.00000
     89      -0.7991      2.00000
     90      -0.7987      2.00000
     91      -0.7401      2.00000
     92      -0.7398      2.00000
     93      -0.7395      2.00000
     94      -0.7036      2.00000
     95      -0.7033      2.00000
     96      -0.7030      2.00000
     97      -0.6892      2.00000
     98      -0.6891      2.00000
     99      -0.6888      2.00000
    100      -0.6888      2.00000
    101      -0.6884      2.00000
    102      -0.6883      2.00000
    103      -0.6568      2.00000
    104      -0.6560      2.00000
    105      -0.6559      2.00000
    106      -0.6559      2.00000
    107      -0.6558      2.00000
    108      -0.6550      2.00000
    109      -0.6355      2.00000
    110      -0.6347      2.00000
    111      -0.6344      2.00000
    112      -0.6344      2.00000
    113      -0.6342      2.00000
    114      -0.6334      2.00000
    115      -0.5714      2.00000
    116      -0.5713      2.00000
    117      -0.5711      2.00000
    118      -0.5610      2.00000
    119      -0.5607      2.00000
    120      -0.5604      2.00000
    121      -0.5604      2.00000
    122      -0.5601      2.00000
    123      -0.5598      2.00000
    124      -0.5407      2.00000
    125      -0.5404      2.00000
    126      -0.5401      2.00000
    127      -0.5401      2.00000
    128      -0.5398      2.00000
    129      -0.5395      2.00000
    130      -0.4443      2.00000
    131      -0.4440      2.00000
    132      -0.4436      2.00000
    133      -0.4142      2.00000
    134      -0.4135      2.00000
    135      -0.4134      2.00000
    136      -0.4134      2.00000
    137      -0.4134      2.00000
    138      -0.4127      2.00000
    139      -0.4039      2.00000
    140      -0.4037      2.00000
    141      -0.4036      2.00000
    142      -0.3758      2.00000
    143      -0.3757      2.00000
    144      -0.3754      2.00000
    145      -0.3754      2.00000
    146      -0.3750      2.00000
    147      -0.3750      2.00000
    148      -0.3392      2.00000
    149      -0.3385      2.00000
    150      -0.3383      2.00000
    151      -0.3383      2.00000
    152      -0.3380      2.00000
    153      -0.3375      2.00000
    154      -0.3230      2.00000
    155      -0.3225      2.00000
    156      -0.3223      2.00000
    157      -0.3223      2.00000
    158      -0.3221      2.00000
    159      -0.3215      2.00000
    160      -0.2035      2.00000
    161      -0.2027      2.00000
    162      -0.2026      2.00000
    163      -0.2026      2.00000
    164      -0.2025      2.00000
    165      -0.2018      2.00000
    166      -0.1481      2.00000
    167      -0.1477      2.00000
    168      -0.1473      2.00000
    169      -0.1398      2.00000
    170      -0.1394      2.00000
    171      -0.1391      2.00000
    172      -0.1302      2.00000
    173      -0.1296      2.00000
    174      -0.1294      2.00000
    175      -0.1294      2.00000
    176      -0.1291      2.00000
    177      -0.1287      2.00000
    178      -0.1217      2.00000
    179      -0.1214      2.00000
    180      -0.1211      2.00000
    181      -0.1007      2.00000
    182      -0.1000      2.00000
    183      -0.0998      2.00000
    184      -0.0998      2.00000
    185      -0.0996      2.00000
    186      -0.0989      2.00000
    187      -0.0741      2.00000
    188      -0.0738      2.00000
    189      -0.0734      2.00000
    190      -0.0144      2.00000
    191      -0.0139      2.00000
    192      -0.0135      2.00000
    193      -0.0135      2.00000
    194      -0.0132      2.00000
    195      -0.0126      2.00000
    196       0.0239      2.00000
    197       0.0242      2.00000
    198       0.0245      2.00000
    199       0.0460      2.00000
    200       0.0462      2.00000
    201       0.0466      2.00000
    202       0.0466      2.00000
    203       0.0469      2.00000
    204       0.0472      2.00000
    205       0.0661      2.00000
    206       0.0666      2.00000
    207       0.0670      2.00000
    208       0.0749      2.00000
    209       0.0752      2.00000
    210       0.0756      2.00000
    211       0.0784      2.00000
    212       0.0787      2.00000
    213       0.0790      2.00000
    214       0.1050      2.00000
    215       0.1097      2.00000
    216       0.1101      2.00000
    217       0.1103      2.00000
    218       0.1103      2.00000
    219       0.1105      2.00000
    220       0.1110      2.00000
    221       0.1277      2.00000
    222       0.1279      2.00000
    223       0.1282      2.00000
    224       0.1395      2.00000
    225       0.1397      2.00000
    226       0.1399      2.00000
    227       0.1399      2.00000
    228       0.1401      2.00000
    229       0.1403      2.00000
    230       0.1455      2.00000
    231       0.1455      2.00000
    232       0.1458      2.00000
    233       0.1458      2.00000
    234       0.1461      2.00000
    235       0.1461      2.00000
    236       0.2210      2.00000
    237       0.2210      2.00000
    238       0.2211      2.00000
    239       0.2545      2.00000
    240       0.2549      2.00000
    241       0.2552      2.00000
    242       0.2611      2.00000
    243       0.2617      2.00000
    244       0.2619      2.00000
    245       0.2619      2.00000
    246       0.2622      2.00000
    247       0.2627      2.00000
    248       0.2697      2.00000
    249       0.2697      2.00000
    250       0.2700      2.00000
    251       0.2700      2.00000
    252       0.2703      2.00000
    253       0.2704      2.00000
    254       0.2747      2.00000
    255       0.2850      2.00000
    256       0.2853      2.00000
    257       0.2856      2.00000
    258       0.3184      2.00000
    259       0.3186      2.00000
    260       0.3189      2.00000
    261       0.3235      2.00000
    262       0.3235      2.00000
    263       0.3524      2.00000
    264       0.3525      2.00000
    265       0.3527      2.00000
    266       0.3588      2.00000
    267       0.3588      2.00000
    268       0.3696      2.00000
    269       0.3696      2.00000
    270       0.3697      2.00000
    271       0.3721      2.00000
    272       0.3726      2.00000
    273       0.3731      2.00000
    274       0.3789      2.00000
    275       0.3791      2.00000
    276       0.3792      2.00000
    277       0.3866      2.00000
    278       0.3870      2.00000
    279       0.3872      2.00000
    280       0.3873      2.00000
    281       0.3875      2.00000
    282       0.3879      2.00000
    283       0.4045      2.00000
    284       0.4046      2.00000
    285       0.4048      2.00000
    286       0.4048      2.00000
    287       0.4050      2.00000
    288       0.4051      2.00000
    289       0.4263      2.00000
    290       0.4264      2.00000
    291       0.4264      2.00000
    292       0.4592      2.00000
    293       0.4593      2.00000
    294       0.4618      2.00000
    295       0.4619      2.00000
    296       0.4622      2.00000
    297       0.4622      2.00000
    298       0.4626      2.00000
    299       0.4627      2.00000
    300       0.4725      2.00000
    301       0.4730      2.00000
    302       0.4731      2.00000
    303       0.4731      2.00000
    304       0.4732      2.00000
    305       0.4737      2.00000
    306       0.4776      2.00000
    307       0.4779      2.00000
    308       0.4782      2.00000
    309       0.4932      2.00000
    310       0.4933      2.00000
    311       0.4934      2.00000
    312       0.4991      2.00000
    313       0.4994      2.00000
    314       0.4997      2.00000
    315       0.5198      2.00000
    316       0.5200      2.00000
    317       0.5203      2.00000
    318       0.5381      2.00000
    319       0.5385      2.00000
    320       0.5388      2.00000
    321       0.5416      2.00000
    322       0.5417      2.00000
    323       0.5421      2.00000
    324       0.5421      2.00000
    325       0.5425      2.00000
    326       0.5426      2.00000
    327       0.5503      2.00000
    328       0.5507      2.00000
    329       0.5510      2.00000
    330       0.5510      2.00000
    331       0.5515      2.00000
    332       0.5517      2.00000
    333       0.5676      2.00000
    334       0.5678      2.00000
    335       0.5681      2.00000
    336       0.6479      2.00000
    337       0.6485      2.00000
    338       0.6489      2.00000
    339       0.6506      2.00000
    340       0.6510      2.00000
    341       0.6515      2.00000
    342       0.6655      2.00000
    343       0.6659      2.00000
    344       0.6662      2.00000
    345       0.6662      2.00000
    346       0.6666      2.00000
    347       0.6670      2.00000
    348       0.7014      2.00000
    349       0.7019      2.00000
    350       0.7023      2.00000
    351       0.7466      2.00000
    352       0.7466      2.00000
    353       0.7469      2.00000
    354       0.7469      2.00000
    355       0.7472      2.00000
    356       0.7472      2.00000
    357       0.7923      2.00000
    358       0.7924      2.00000
    359       0.7927      2.00000
    360       0.7929      2.00000
    361       0.7929      2.00000
    362       0.7932      2.00000
    363       0.7933      2.00000
    364       0.7935      2.00000
    365       0.7936      2.00000
    366       0.7950      2.00000
    367       0.7950      2.00000
    368       0.7953      2.00000
    369       0.7953      2.00000
    370       0.7954      2.00000
    371       0.7958      2.00000
    372       0.8889      2.00000
    373       0.8890      2.00000
    374       0.8890      2.00000
    375       0.9060      2.00000
    376       0.9065      2.00000
    377       0.9068      2.00000
    378       0.9068      2.00000
    379       0.9068      2.00000
    380       0.9070      2.00000
    381       0.9070      2.00000
    382       0.9074      2.00000
    383       0.9078      2.00000
    384       0.9096      2.00000
    385       0.9098      2.00000
    386       0.9099      2.00000
    387       0.9104      2.00000
    388       0.9107      2.00000
    389       0.9110      2.00000
    390       0.9553      2.00000
    391       0.9555      2.00000
    392       0.9557      2.00000
    393       0.9557      2.00000
    394       0.9559      2.00000
    395       0.9561      2.00000
    396       0.9717      2.00000
    397       0.9719      2.00000
    398       0.9721      2.00000
    399       0.9721      2.00000
    400       0.9724      2.00000
    401       0.9726      2.00000
    402       0.9765      2.00000
    403       0.9766      2.00000
    404       0.9767      2.00000
    405       0.9966      2.00000
    406       0.9971      2.00000
    407       0.9973      2.00000
    408       0.9973      2.00000
    409       0.9975      2.00000
    410       0.9977      2.00000
    411       0.9979      2.00000
    412       0.9979      2.00000
    413       0.9984      2.00000
    414       0.9998      2.00000
    415       1.0001      2.00000
    416       1.0004      2.00000
    417       1.0371      2.00000
    418       1.0371      2.00000
    419       1.0618      2.00000
    420       1.0620      2.00000
    421       1.0623      2.00000
    422       1.0623      2.00000
    423       1.0624      2.00000
    424       1.0628      2.00000
    425       1.0649      2.00000
    426       1.0653      2.00000
    427       1.0658      2.00000
    428       1.1159      2.00000
    429       1.1162      2.00000
    430       1.1164      2.00000
    431       1.1235      2.00000
    432       1.1235      2.00000
    433       1.1243      2.00000
    434       1.1247      2.00000
    435       1.1251      2.00000
    436       1.1749      2.00000
    437       1.1749      2.00000
    438       1.1752      2.00000
    439       1.1752      2.00000
    440       1.1755      2.00000
    441       1.1756      2.00000
    442       1.1884      2.00000
    443       1.1885      2.00000
    444       1.1887      2.00000
    445       1.1988      2.00000
    446       1.1989      2.00000
    447       1.1992      2.00000
    448       1.1993      2.00000
    449       1.1996      2.00000
    450       1.1997      2.00000
    451       1.2508      2.00000
    452       1.2509      2.00000
    453       1.2510      2.00000
    454       1.2680      2.00000
    455       1.2684      2.00000
    456       1.2688      2.00000
    457       1.2724      2.00000
    458       1.2727      2.00000
    459       1.2731      2.00000
    460       1.2833      2.00000
    461       1.2839      2.00000
    462       1.2840      2.00000
    463       1.2840      2.00000
    464       1.2841      2.00000
    465       1.2846      2.00000
    466       1.2888      2.00000
    467       1.2892      2.00000
    468       1.2897      2.00000
    469       1.2938      2.00000
    470       1.2942      2.00000
    471       1.2946      2.00000
    472       1.2987      2.00000
    473       1.2989      2.00000
    474       1.2991      2.00000
    475       1.2991      2.00000
    476       1.2992      2.00000
    477       1.2994      2.00000
    478       1.3445      2.00000
    479       1.3450      2.00000
    480       1.3454      2.00000
    481       1.3598      2.00000
    482       1.3601      2.00000
    483       1.3604      2.00000
    484       1.3819      2.00000
    485       1.4071      2.00000
    486       1.4074      2.00000
    487       1.4076      2.00000
    488       1.4160      2.00000
    489       1.4160      2.00000
    490       1.4161      2.00000
    491       1.4489      2.00000
    492       1.4492      2.00000
    493       1.4493      2.00000
    494       1.4493      2.00000
    495       1.4495      2.00000
    496       1.4497      2.00000
    497       1.4500      2.00000
    498       1.4500      2.00000
    499       1.4502      2.00000
    500       1.4502      2.00000
    501       1.4504      2.00000
    502       1.4505      2.00000
    503       1.4547      2.00000
    504       1.4549      2.00000
    505       1.4550      2.00000
    506       1.4550      2.00000
    507       1.4552      2.00000
    508       1.4553      2.00000
    509       1.4577      2.00000
    510       1.4579      2.00000
    511       1.4580      2.00000
    512       1.4581      2.00000
    513       1.4582      2.00000
    514       1.4585      2.00000
    515       1.4659      2.00000
    516       1.4660      2.00000
    517       1.4661      2.00000
    518       1.4686      2.00000
    519       1.4686      2.00000
    520       1.4686      2.00000
    521       1.4860      2.00000
    522       1.4860      2.00000
    523       1.5077      2.00000
    524       1.5080      2.00000
    525       1.5080      2.00000
    526       1.5080      2.00000
    527       1.5081      2.00000
    528       1.5084      2.00000
    529       1.5190      2.00000
    530       1.5191      2.00000
    531       1.5193      2.00000
    532       1.5193      2.00000
    533       1.5194      2.00000
    534       1.5195      2.00000
    535       1.5255      2.00000
    536       1.5256      2.00000
    537       1.5257      2.00000
    538       1.5317      2.00000
    539       1.5318      2.00000
    540       1.5319      2.00000
    541       1.5476      2.00000
    542       1.5477      2.00000
    543       1.5477      2.00000
    544       1.5544      2.00000
    545       1.5544      2.00000
    546       1.5544      2.00000
    547       1.5873      2.00000
    548       1.5873      2.00000
    549       1.5874      2.00000
    550       1.6207      2.00000
    551       1.6208      2.00000
    552       1.6209      2.00000
    553       1.6209      2.00000
    554       1.6210      2.00000
    555       1.6210      2.00000
    556       1.6254      2.00000
    557       1.6255      2.00000
    558       1.6255      2.00000
    559       1.6255      2.00000
    560       1.6256      2.00000
    561       1.6257      2.00000
    562       1.6441      2.00000
    563       1.6441      2.00000
    564       1.6441      2.00000
    565       1.7773      2.00000
    566       1.7777      2.00000
    567       1.7780      2.00000
    568       1.9297      2.00000
    569       1.9298      2.00000
    570       1.9300      2.00000
    571       1.9815      2.00000
    572       1.9820      2.00000
    573       1.9822      2.00000
    574       1.9822      2.00000
    575       1.9823      2.00000
    576       1.9828      2.00000
    577       2.1724      2.00000
    578       2.1727      2.00000
    579       2.1730      2.00000
    580       2.4763      2.00317
    581       2.4768      2.00321
    582       2.4773      2.00324
    583       2.8457      1.82318
    584       2.8457      1.82279
    585       2.8462      1.82065
    586       2.8462      1.82059
    587       2.8467      1.81852
[...]
   -.185E+01 0.143E-01 0.143E-01   0.185E+01 -.155E-01 -.155E-01   -.132E-01 -.513E-03 -.513E-03   0.129E-01 0.177E-02 0.177E-02
   -.209E+00 0.479E-03 0.479E-03   0.218E+00 -.754E-03 -.754E-03   0.235E-02 -.190E-03 -.190E-03   -.110E-01 0.596E-03 0.596E-03
   -.101E+00 0.491E-08 0.491E-08   0.113E+00 -.519E-08 -.519E-08   0.244E-02 -.300E-20 0.673E-20   -.148E-01 -.616E-10 -.616E-10
   -.107E+00 -.324E+00 -.176E+00   0.111E+00 0.319E+00 0.174E+00   0.366E-02 -.415E-02 -.994E-03   -.796E-02 0.899E-02 0.211E-02
   0.109E+01 -.285E+01 0.329E-08   -.109E+01 0.284E+01 -.540E-09   -.170E-01 0.262E-02 0.803E-20   0.463E-02 0.135E-01 0.483E-09
   0.109E+01 0.418E-07 0.285E+01   -.109E+01 -.514E-07 -.284E+01   -.170E-01 -.471E-10 -.262E-02   0.463E-02 -.354E-09 -.135E-01
   -.107E+00 0.176E+00 0.324E+00   0.111E+00 -.174E+00 -.319E+00   0.366E-02 0.994E-03 0.415E-02   -.796E-02 -.211E-02 -.899E-02
   -.563E-01 0.491E-01 -.943E-09   0.640E-01 -.487E-01 0.800E-09   0.124E-02 0.265E-03 -.186E-19   -.875E-02 -.535E-03 0.176E-09
   0.273E+00 -.269E+00 -.112E-09   -.269E+00 0.259E+00 0.306E-09   -.636E-02 0.437E-02 -.319E-20   0.234E-02 0.558E-02 -.248E-09
   0.544E+00 -.321E+00 0.321E+00   -.544E+00 0.317E+00 -.317E+00   0.632E-02 -.354E-02 0.354E-02   -.698E-02 0.804E-02 -.804E-02
   0.273E+00 0.382E-08 0.269E+00   -.269E+00 -.416E-08 -.259E+00   -.636E-02 -.785E-10 -.437E-02   0.234E-02 -.518E-09 -.558E-02
   0.105E+00 0.495E-01 -.107E-07   -.112E+00 -.485E-01 0.109E-07   0.155E-02 -.408E-03 0.167E-19   0.527E-02 -.574E-03 0.522E-09
   0.255E+00 0.114E-02 -.104E-02   -.271E+00 -.970E-03 0.494E-03   0.192E-02 0.416E-03 -.179E-03   0.145E-01 -.743E-03 0.829E-03
   0.255E+00 0.104E-02 -.114E-02   -.271E+00 -.494E-03 0.970E-03   0.192E-02 0.179E-03 -.416E-03   0.145E-01 -.829E-03 0.743E-03
   0.205E+00 -.509E-09 -.122E-07   -.215E+00 0.717E-09 0.123E-07   -.635E-02 -.258E-20 0.129E-19   0.160E-01 -.689E-09 0.535E-09
   0.992E-01 -.795E-01 0.795E-01   -.105E+00 0.771E-01 -.771E-01   -.212E-03 -.298E-03 0.298E-03   0.655E-02 0.268E-02 -.268E-02
   0.102E+00 -.977E-08 0.508E-01   -.110E+00 0.995E-08 -.488E-01   0.197E-02 -.196E-11 -.109E-03   0.663E-02 0.547E-09 -.204E-02
   -.111E+00 -.177E+00 0.324E+00   0.116E+00 0.174E+00 -.319E+00   0.376E-02 -.930E-03 0.409E-02   -.897E-02 0.363E-02 -.954E-02
   -.111E+00 -.324E+00 0.177E+00   0.116E+00 0.319E+00 -.174E+00   0.376E-02 -.409E-02 0.930E-03   -.897E-02 0.954E-02 -.363E-02
   -.950E-01 0.522E-08 0.134E-09   0.106E+00 -.566E-08 -.364E-09   -.168E-02 0.121E-19 0.663E-21   -.907E-02 -.487E-10 0.292E-09
   -.628E+00 0.105E-08 -.454E-02   0.635E+00 -.694E-09 0.510E-02   -.415E-02 -.739E-11 -.411E-03   -.290E-02 0.505E-09 -.111E-03
   -.185E+01 0.143E-01 -.143E-01   0.185E+01 -.155E-01 0.155E-01   -.132E-01 -.513E-03 0.513E-03   0.129E-01 0.177E-02 -.177E-02
   -.628E+00 0.454E-02 0.105E-08   0.635E+00 -.510E-02 -.787E-09   -.415E-02 0.411E-03 0.158E-20   -.290E-02 0.111E-03 0.549E-09
   -.215E+00 0.142E-07 -.327E-03   0.226E+00 -.148E-07 -.490E-03   0.585E-03 -.382E-11 -.212E-03   -.116E-01 -.509E-09 0.115E-02
   -.107E+00 -.176E+00 -.324E+00   0.111E+00 0.174E+00 0.319E+00   0.366E-02 -.994E-03 -.415E-02   -.796E-02 0.211E-02 0.899E-02
   0.109E+01 -.479E-07 -.285E+01   -.109E+01 0.506E-07 0.284E+01   -.170E-01 0.471E-10 0.262E-02   0.463E-02 0.725E-09 0.135E-01
   0.109E+01 0.285E+01 -.914E-08   -.109E+01 -.284E+01 -.347E-09   -.170E-01 -.262E-02 -.873E-21   0.463E-02 -.135E-01 -.112E-09
   -.107E+00 0.324E+00 0.176E+00   0.111E+00 -.319E+00 -.174E+00   0.366E-02 0.415E-02 0.994E-03   -.796E-02 -.899E-02 -.211E-02
   -.563E-01 -.657E-10 0.491E-01   0.640E-01 -.758E-10 -.487E-01   0.124E-02 0.476E-11 0.265E-03   -.875E-02 0.166E-09 -.535E-03
   0.103E+00 -.787E-01 -.787E-01   -.107E+00 0.762E-01 0.762E-01   -.612E-03 0.311E-03 0.311E-03   0.490E-02 0.182E-02 0.182E-02
   0.544E+00 -.321E+00 -.321E+00   -.544E+00 0.317E+00 0.317E+00   0.632E-02 -.354E-02 -.354E-02   -.698E-02 0.804E-02 0.804E-02
   0.157E+01 -.185E-08 -.195E-08   -.158E+01 0.493E-09 0.493E-09   0.273E-01 0.624E-20 -.955E-20   -.246E-01 -.428E-09 -.428E-09
   0.544E+00 0.321E+00 0.321E+00   -.544E+00 -.317E+00 -.317E+00   0.632E-02 0.354E-02 0.354E-02   -.698E-02 -.804E-02 -.804E-02
   0.103E+00 0.787E-01 0.787E-01   -.107E+00 -.762E-01 -.762E-01   -.612E-03 -.311E-03 -.311E-03   0.490E-02 -.182E-02 -.182E-02
   0.509E-01 -.251E-08 -.262E-08   -.569E-01 0.260E-08 0.260E-08   -.257E-04 0.825E-21 -.336E-20   0.611E-02 0.906E-10 0.904E-10
   0.255E+00 0.114E-02 0.104E-02   -.271E+00 -.970E-03 -.494E-03   0.192E-02 0.416E-03 0.179E-03   0.145E-01 -.743E-03 -.829E-03
   0.650E+00 0.300E-02 -.110E-08   -.648E+00 -.186E-02 0.898E-09   -.452E-02 0.168E-03 -.460E-20   0.350E-02 -.142E-02 -.926E-09
   0.650E+00 -.105E-08 -.300E-02   -.648E+00 0.933E-09 0.186E-02   -.452E-02 -.302E-11 -.168E-03   0.350E-02 -.900E-09 0.142E-02
   0.255E+00 -.104E-02 -.114E-02   -.271E+00 0.494E-03 0.970E-03   0.192E-02 -.179E-03 -.416E-03   0.145E-01 0.829E-03 0.743E-03
   0.113E+00 -.138E-04 -.601E-08   -.131E+00 0.298E-03 0.621E-08   -.589E-03 -.294E-03 -.136E-20   0.182E-01 0.143E-03 0.116E-09
   -.575E-01 -.160E-11 0.493E-01   0.656E-01 -.172E-09 -.486E-01   0.152E-02 0.171E-10 0.954E-03   -.946E-02 0.231E-09 -.189E-02
   -.209E+00 0.479E-03 -.479E-03   0.218E+00 -.754E-03 0.754E-03   0.235E-02 -.190E-03 0.190E-03   -.110E-01 0.596E-03 -.596E-03
   -.215E+00 0.143E-07 0.327E-03   0.226E+00 -.148E-07 0.490E-03   0.585E-03 0.382E-11 0.212E-03   -.116E-01 -.456E-09 -.115E-02
   -.107E+00 0.176E+00 -.324E+00   0.111E+00 -.174E+00 0.319E+00   0.366E-02 0.994E-03 -.415E-02   -.796E-02 -.211E-02 0.899E-02
   -.107E+00 0.324E+00 -.176E+00   0.111E+00 -.319E+00 0.174E+00   0.366E-02 0.415E-02 -.994E-03   -.796E-02 -.899E-02 0.211E-02
   -.930E-01 0.504E-08 0.319E-09   0.103E+00 -.543E-08 -.354E-09   -.215E-02 -.218E-20 -.112E-19   -.745E-02 -.134E-09 0.306E-09
   0.273E+00 -.495E-08 -.269E+00   -.269E+00 0.495E-08 0.259E+00   -.636E-02 0.785E-10 0.437E-02   0.234E-02 -.148E-09 0.558E-02
   0.544E+00 0.321E+00 -.321E+00   -.544E+00 -.317E+00 0.317E+00   0.632E-02 0.354E-02 -.354E-02   -.698E-02 -.804E-02 0.804E-02
   0.273E+00 0.269E+00 -.121E-08   -.269E+00 -.259E+00 0.486E-09   -.636E-02 -.437E-02 0.379E-20   0.234E-02 -.558E-02 -.418E-09
   0.105E+00 -.983E-08 0.495E-01   -.112E+00 0.100E-07 -.485E-01   0.155E-02 -.734E-11 -.408E-03   0.527E-02 0.512E-09 -.574E-03
   0.255E+00 0.104E-02 0.114E-02   -.271E+00 -.494E-03 -.970E-03   0.192E-02 0.179E-03 0.416E-03   0.145E-01 -.829E-03 -.743E-03
   0.650E+00 -.958E-09 0.300E-02   -.648E+00 0.865E-09 -.186E-02   -.452E-02 0.302E-11 0.168E-03   0.350E-02 -.952E-09 -.142E-02
   0.650E+00 -.300E-02 -.899E-09   -.648E+00 0.186E-02 0.899E-09   -.452E-02 -.168E-03 -.460E-20   0.350E-02 0.142E-02 -.925E-09
   0.255E+00 -.114E-02 -.104E-02   -.271E+00 0.970E-03 0.494E-03   0.192E-02 -.416E-03 -.179E-03   0.145E-01 0.743E-03 0.829E-03
   0.113E+00 -.590E-08 -.138E-04   -.131E+00 0.621E-08 0.298E-03   -.589E-03 -.527E-11 -.294E-03   0.182E-01 0.119E-09 0.143E-03
   -.563E-01 0.566E-08 -.491E-01   0.640E-01 -.592E-08 0.487E-01   0.124E-02 -.476E-11 -.265E-03   -.875E-02 -.192E-09 0.535E-03
   0.103E+00 0.787E-01 -.787E-01   -.107E+00 -.762E-01 0.762E-01   -.612E-03 -.311E-03 0.311E-03   0.490E-02 -.182E-02 0.182E-02
   0.105E+00 -.420E-08 -.495E-01   -.112E+00 0.419E-08 0.485E-01   0.155E-02 0.734E-11 0.408E-03   0.527E-02 0.182E-09 0.574E-03
   0.255E+00 -.104E-02 0.114E-02   -.271E+00 0.494E-03 -.970E-03   0.192E-02 -.179E-03 0.416E-03   0.145E-01 0.829E-03 -.743E-03
   0.255E+00 -.114E-02 0.104E-02   -.271E+00 0.970E-03 -.494E-03   0.192E-02 -.416E-03 0.179E-03   0.145E-01 0.743E-03 -.829E-03
   0.205E+00 -.122E-07 -.509E-09   -.215E+00 0.123E-07 0.717E-09   -.635E-02 -.202E-19 0.402E-21   0.160E-01 0.535E-09 -.689E-09
   0.113E+00 -.593E-08 0.138E-04   -.131E+00 0.624E-08 -.298E-03   -.589E-03 0.527E-11 0.294E-03   0.182E-01 0.124E-09 -.143E-03
 -----------------------------------------------------------------------------------------------
   -.220E-02 -.205E-09 -.484E-04   -.166E-11 0.301E-11 0.554E-11   -.621E-03 -.330E-17 -.298E-17   0.986E-02 0.398E-10 0.363E-10
 
 
 POSITION                                       TOTAL-FORCE (eV/Angst)
 -----------------------------------------------------------------------------------
      7.42096      7.42096      3.71048         0.000300      0.000013     -0.000013
      7.42096      9.27621      5.56572        -0.000185     -0.000168      0.000000
      9.27621      7.42096      5.56572         0.000041     -0.000201     -0.000000
      7.42096      7.42096      0.00000         0.000039      0.000092     -0.000000
      7.42096      9.27621      1.85524        -0.001108     -0.000579      0.000579
      7.42096      0.00000      3.71048         0.000039     -0.000000     -0.000092
      7.42096      1.85524      5.56572        -0.000185      0.000168      0.000000
      9.27621      7.42096      1.85524        -0.000629     -0.000606     -0.000023
      9.27621      9.27621      3.71048        -0.000629      0.000023      0.000606
      9.27621      0.00000      5.56572        -0.000146      0.000000      0.000000
      0.00000      7.42096      3.71048        -0.000100     -0.000131      0.000131
      0.00000      9.27621      5.56572         0.000091     -0.000116     -0.000000
      1.85524      7.42096      5.56572         0.000142     -0.000101     -0.000000
      7.42096      7.42096      7.42096         0.000300      0.000013      0.000013
      7.42096      9.27621      9.27621        -0.001108     -0.000579     -0.000579
      7.42096      0.00000      0.00000        -0.003192     -0.000000      0.000000
      7.42096      1.85524      1.85524        -0.001108      0.000579      0.000579
      7.42096      3.71048      3.71048         0.000300     -0.000013     -0.000013
      7.42096      5.56572      5.56572        -0.000190      0.000000     -0.000000
      9.27621      7.42096      9.27621        -0.000629     -0.000606      0.000023
      9.27621      9.27621      0.00000        -0.011397     -0.013127      0.000000
      9.27621      0.00000      1.85524        -0.011397      0.000000      0.013127
      9.27621      1.85524      3.71048        -0.000629     -0.000023      0.000606
      9.27621      3.71048      5.56572         0.000041      0.000201     -0.000000
      0.00000      7.42096      0.00000        -0.000249      0.000035     -0.000000
      0.00000      9.27621      1.85524         0.002172     -0.000034      0.000034
      0.00000      0.00000      3.71048        -0.000249     -0.000000     -0.000035
      0.00000      1.85524      5.56572         0.000091      0.000116      0.000000
      1.85524      7.42096      1.85524        -0.000568      0.000428      0.000166
      1.85524      9.27621      3.71048        -0.000568     -0.000166     -0.000428
      1.85524      0.00000      5.56572        -0.000041      0.000000     -0.000000
      3.71048      7.42096      3.71048         0.000480     -0.000287      0.000287
      3.71048      9.27621      5.56572         0.000022     -0.000043      0.000000
      5.56572      7.42096      5.56572        -0.000120     -0.000134      0.000000
      7.42096      0.00000      7.42096         0.000039      0.000000      0.000092
      7.42096      1.85524      9.27621        -0.001108      0.000579     -0.000579
      7.42096      3.71048      0.00000         0.000039     -0.000092      0.000000
      7.42096      5.56572      1.85524        -0.000185      0.000000      0.000168
      9.27621      9.27621      7.42096        -0.000629      0.000023     -0.000606
      9.27621      0.00000      9.27621        -0.011397     -0.000000     -0.013127
      9.27621      1.85524      0.00000        -0.011397      0.013127     -0.000000
      9.27621      3.71048      1.85524        -0.000629      0.000606     -0.000023
      9.27621      5.56572      3.71048         0.000041      0.000000      0.000201
      0.00000      7.42096      7.42096        -0.000100     -0.000131     -0.000131
      0.00000      9.27621      9.27621         0.002172     -0.000034     -0.000034
     11.11144      0.00000      0.00000         0.098044      0.000000      0.000000
      0.00000      1.85524      1.85524         0.002172      0.000034      0.000034
      0.00000      3.71048      3.71048        -0.000100      0.000131      0.000131
      0.00000      5.56572      5.56572        -0.000184     -0.000000      0.000000
      1.85524      7.42096      9.27621        -0.000568      0.000428     -0.000166
      1.85524      9.27621      0.00000        -0.010498      0.011782     -0.000000
      1.85524      0.00000      1.85524        -0.010498     -0.000000     -0.011782
      1.85524      1.85524      3.71048        -0.000568      0.000166     -0.000428
      1.85524      3.71048      5.56572         0.000142      0.000101     -0.000000
      3.71048      7.42096      0.00000         0.000164     -0.000355     -0.000000
      3.71048      9.27621      1.85524        -0.001064      0.000397     -0.000397
      3.71048      0.00000      3.71048         0.000164      0.000000      0.000355
      3.71048      1.85524      5.56572         0.000022      0.000043      0.000000
      5.56572      7.42096      1.85524         0.000097     -0.000153      0.000104
      5.56572      9.27621      3.71048         0.000097     -0.000104      0.000153
      5.56572      0.00000      5.56572        -0.000372      0.000000      0.000000
      7.42096      3.71048      7.42096         0.000300     -0.000013      0.000013
      7.42096      5.56572      9.27621        -0.000185     -0.000000     -0.000168
      9.27621      1.85524      7.42096        -0.000629     -0.000023     -0.000606
      9.27621      3.71048      9.27621        -0.000629      0.000606      0.000023
      9.27621      5.56572      0.00000        -0.000146      0.000000     -0.000000
      0.00000      0.00000      7.42096        -0.000249      0.000000      0.000035
      0.00000      1.85524      9.27621         0.002172      0.000034     -0.000034
      0.00000      3.71048      0.00000        -0.000249     -0.000035     -0.000000
      0.00000      5.56572      1.85524         0.000091      0.000000      0.000116
      1.85524      9.27621      7.42096        -0.000568     -0.000166      0.000428
      1.85524      0.00000      9.27621        -0.010498      0.000000      0.011782
      1.85524      1.85524      0.00000        -0.010498     -0.011782     -0.000000
      1.85524      3.71048      1.85524        -0.000568     -0.000428      0.000166
      1.85524      5.56572      3.71048         0.000142      0.000000      0.000101
      3.71048      7.42096      7.42096         0.000480     -0.000287     -0.000287
      3.71048      9.27621      9.27621        -0.001064      0.000397      0.000397
      3.71048      0.00000      0.00000        -0.003277     -0.000000      0.000000
      3.71048      1.85524      1.85524        -0.001064     -0.000397     -0.000397
      3.71048      3.71048      3.71048         0.000480      0.000287      0.000287
      3.71048      5.56572      5.56572         0.000004      0.000000     -0.000000
      5.56572      7.42096      9.27621         0.000097     -0.000153     -0.000104
      5.56572      9.27621      0.00000         0.000949     -0.000109      0.000000
      5.56572      0.00000      1.85524         0.000949      0.000000      0.000109
      5.56572      1.85524      3.71048         0.000097      0.000104      0.000153
      5.56572      3.71048      5.56572        -0.000120      0.000134      0.000000
      9.27621      5.56572      7.42096         0.000041     -0.000000     -0.000201
      0.00000      3.71048      7.42096        -0.000100      0.000131     -0.000131
      0.00000      5.56572      9.27621         0.000091     -0.000000     -0.000116
      1.85524      1.85524      7.42096        -0.000568      0.000166      0.000428
      1.85524      3.71048      9.27621        -0.000568     -0.000428     -0.000166
      1.85524      5.56572      0.00000        -0.000041     -0.000000      0.000000
      3.71048      0.00000      7.42096         0.000164     -0.000000     -0.000355
      3.71048      1.85524      9.27621        -0.001064     -0.000397      0.000397
      3.71048      3.71048      0.00000         0.000164      0.000355     -0.000000
      3.71048      5.56572      1.85524         0.000022      0.000000      0.000043
      5.56572      9.27621      7.42096         0.000097     -0.000104     -0.000153
      5.56572      0.00000      9.27621         0.000949     -0.000000     -0.000109
      5.56572      1.85524      0.00000         0.000949      0.000109      0.000000
      5.56572      3.71048      1.85524         0.000097      0.000153      0.000104
      5.56572      5.56572      3.71048        -0.000120      0.000000      0.000134
      1.85524      5.56572      7.42096         0.000142     -0.000000     -0.000101
      3.71048      3.71048      7.42096         0.000480      0.000287     -0.000287
      3.71048      5.56572      9.27621         0.000022     -0.000000     -0.000043
      5.56572      1.85524      7.42096         0.000097      0.000104     -0.000153
      5.56572      3.71048      9.27621         0.000097      0.000153     -0.000104
      5.56572      5.56572      0.00000        -0.000372     -0.000000     -0.000000
      5.56572      5.56572      7.42096        -0.000120     -0.000000     -0.000134
 -----------------------------------------------------------------------------------
    total drift:                                0.007032     -0.000000     -0.000048


--------------------------------------------------------------------------------------------------------



 mean value of Nose-termostat <S>:     1.000 mean value of <T> :     0.000
 mean temperature <T/S>/<1/S>  :     0.000

     LOOP+:  VPU time  274.45: CPU time  274.90

 ----------------------------------------------------------------------------- 
|                                                                             |
|           W    W    AA    RRRRR   N    N  II  N    N   GGGG   !!!           |
|           W    W   A  A   R    R  NN   N  II  NN   N  G    G  !!!           |
|           W    W  A    A  R    R  N N  N  II  N N  N  G       !!!           |
|           W WW W  AAAAAA  RRRRR   N  N N  II  N  N N  G  GGG   !            |
|           WW  WW  A    A  R   R   N   NN  II  N   NN  G    G                |
|           W    W  A    A  R    R  N    N  II  N    N   GGGG   !!!           |
|                                                                             |
|      The partial DOS and the PROCAR file are not evaluated for NPAR/=1      |
|      please rerun with NPAR=1                                               |
|                                                                             |
 ----------------------------------------------------------------------------- 

  
  
 General timing and accounting informations for this job:
 ========================================================
  
                  Total CPU time used (sec):      279.432
                            User time (sec):      274.369
                          System time (sec):        5.062
                         Elapsed time (sec):      279.910
  
                   Maximum memory used (kb):      344024.
                   Average memory used (kb):           0.
  
                          Minor page faults:        66860
                          Major page faults:            0
                 Voluntary context switches:          896
