       N       E                     dE             d eps       ncg     rms          rms(c)
DAV:   1    -0.103009902117E+03   -0.10301E+03   -0.35115E+00   436   0.412E+00    0.100E+00
DAV:   2    -0.102933996752E+03    0.75905E-01   -0.29902E-01   516   0.304E+00    0.498E-01
DAV:   3    -0.102929010968E+03    0.49858E-02   -0.35448E-02   492   0.106E+00    0.247E-01
DAV:   4    -0.102928978308E+03    0.32660E-04   -0.68210E-03   436   0.234E-01    0.124E-01
DAV:   5    -0.102928968782E+03    0.95259E-05   -0.46104E-04   504   0.985E-02    0.530E-02
DAV:   6    -0.102928981651E+03   -0.12869E-04   -0.11805E-04   436   0.456E-02    0.973E-03
DAV:   7    -0.102928978587E+03    0.30631E-05   -0.15696E-05   256   0.171E-02
   1 F= -.10292898E+03 E0= -.10287319E+03  d E =-.167365E+00
