   4   4   0   0
  0.1804679E+02  0.4163769E-09  0.4163769E-09  0.4163769E-09  0.5000000E-15
  1.000000000000000E-004
  CAR 
 unknown system                          
     20.24520164     -5.50228260  301      3.06188300      1.00000000
     -5.502  0.0000E+00  0.0000E+00
     -5.416  0.0000E+00  0.0000E+00
     -5.331  0.0000E+00  0.0000E+00
     -5.245  0.0000E+00  0.0000E+00
     -5.159  0.0000E+00  0.0000E+00
     -5.073  0.0000E+00  0.0000E+00
     -4.987  0.0000E+00  0.0000E+00
     -4.902  0.0000E+00  0.0000E+00
     -4.816  0.0000E+00  0.0000E+00
     -4.730  0.0000E+00  0.0000E+00
     -4.644  0.0000E+00  0.0000E+00
     -4.558  0.0000E+00  0.0000E+00
     -4.472  0.0000E+00  0.0000E+00
     -4.387  0.2828E-17  0.2427E-18
     -4.301  0.1635E-01  0.1404E-02
     -4.215  0.1058E+00  0.1066E-01
     -4.129  0.1605E+00  0.2464E-01
     -4.043  0.1810E+00  0.4209E-01
     -3.957  0.2122E+00  0.6200E-01
     -3.872  0.2596E+00  0.8689E-01
     -3.786  0.2705E+00  0.1134E+00
     -3.700  0.3055E+00  0.1435E+00
     -3.614  0.3359E+00  0.1759E+00
     -3.528  0.3928E+00  0.2134E+00
     -3.442  0.4237E+00  0.2518E+00
     -3.357  0.4975E+00  0.2985E+00
     -3.271  0.5042E+00  0.3480E+00
     -3.185  0.5995E+00  0.4015E+00
     -3.099  0.6979E+00  0.4638E+00
     -3.013  0.1543E+01  0.6034E+00
     -2.928  0.4349E+01  0.9959E+00
     -2.842  0.7238E+01  0.1659E+01
     -2.756  0.8896E+01  0.2480E+01
     -2.670  0.1056E+02  0.3460E+01
     -2.584  0.1437E+02  0.4790E+01
     -2.498  0.1504E+02  0.6204E+01
     -2.413  0.1237E+02  0.7368E+01
     -2.327  0.1149E+02  0.8440E+01
     -2.241  0.9721E+01  0.9353E+01
     -2.155  0.8014E+01  0.1010E+02
     -2.069  0.8699E+01  0.1092E+02
     -1.983  0.9567E+01  0.1180E+02
     -1.898  0.1140E+02  0.1285E+02
     -1.812  0.1122E+02  0.1390E+02
     -1.726  0.1008E+02  0.1485E+02
     -1.640  0.1051E+02  0.1581E+02
     -1.554  0.1132E+02  0.1685E+02
     -1.469  0.1335E+02  0.1809E+02
     -1.383  0.1717E+02  0.1968E+02
     -1.297  0.1894E+02  0.2146E+02
     -1.211  0.1289E+02  0.2268E+02
     -1.125  0.1012E+02  0.2363E+02
     -1.039  0.1060E+02  0.2459E+02
     -0.954  0.1029E+02  0.2559E+02
     -0.868  0.1117E+02  0.2662E+02
     -0.782  0.1293E+02  0.2782E+02
     -0.696  0.1266E+02  0.2900E+02
     -0.610  0.1402E+02  0.3029E+02
     -0.524  0.1197E+02  0.3141E+02
     -0.439  0.1083E+02  0.3243E+02
     -0.353  0.1058E+02  0.3342E+02
     -0.267  0.1035E+02  0.3438E+02
     -0.181  0.1113E+02  0.3541E+02
     -0.095  0.1236E+02  0.3655E+02
     -0.009  0.1569E+02  0.3798E+02
      0.076  0.1917E+02  0.3977E+02
      0.162  0.1048E+02  0.4077E+02
      0.248  0.5592E+01  0.4132E+02
      0.334  0.7528E+00  0.4140E+02
      0.420  0.9247E+00  0.4148E+02
      0.505  0.7335E+00  0.4155E+02
      0.591  0.9289E+00  0.4163E+02
      0.677  0.7283E+00  0.4170E+02
      0.763  0.9566E+00  0.4179E+02
      0.849  0.6058E+00  0.4185E+02
      0.935  0.9925E+00  0.4194E+02
      1.020  0.6164E+00  0.4200E+02
      1.106  0.1064E+01  0.4210E+02
      1.192  0.7703E+00  0.4217E+02
      1.278  0.7372E+00  0.4223E+02
      1.364  0.9651E+00  0.4233E+02
      1.450  0.6067E+00  0.4238E+02
      1.535  0.1057E+01  0.4248E+02
      1.621  0.7882E+00  0.4255E+02
      1.707  0.7052E+00  0.4262E+02
      1.793  0.1014E+01  0.4272E+02
      1.879  0.7646E+00  0.4279E+02
      1.964  0.7995E+00  0.4287E+02
      2.050  0.9986E+00  0.4296E+02
      2.136  0.7810E+00  0.4304E+02
      2.222  0.9714E+00  0.4312E+02
      2.308  0.9464E+00  0.4321E+02
      2.394  0.8674E+00  0.4329E+02
      2.479  0.9216E+00  0.4337E+02
      2.565  0.9794E+00  0.4347E+02
      2.651  0.9219E+00  0.4355E+02
      2.737  0.1022E+01  0.4365E+02
      2.823  0.9356E+00  0.4374E+02
      2.909  0.1065E+01  0.4384E+02
      2.994  0.9969E+00  0.4393E+02
      3.080  0.9754E+00  0.4402E+02
      3.166  0.1147E+01  0.4413E+02
      3.252  0.9203E+00  0.4421E+02
      3.338  0.1014E+01  0.4431E+02
      3.424  0.1157E+01  0.4441E+02
      3.509  0.8267E+00  0.4449E+02
      3.595  0.1014E+01  0.4459E+02
      3.681  0.1164E+01  0.4469E+02
      3.767  0.9235E+00  0.4478E+02
      3.853  0.8635E+00  0.4486E+02
      3.938  0.1163E+01  0.4497E+02
      4.024  0.1044E+01  0.4507E+02
      4.110  0.8270E+00  0.4514E+02
      4.196  0.1090E+01  0.4524E+02
      4.282  0.1063E+01  0.4534E+02
      4.368  0.8861E+00  0.4542E+02
      4.453  0.8454E+00  0.4550E+02
      4.539  0.1124E+01  0.4561E+02
      4.625  0.1022E+01  0.4570E+02
      4.711  0.8798E+00  0.4578E+02
      4.797  0.1064E+01  0.4588E+02
      4.883  0.1128E+01  0.4599E+02
      4.968  0.8055E+00  0.4607E+02
      5.054  0.7947E+00  0.4614E+02
      5.140  0.1216E+01  0.4625E+02
      5.226  0.8640E+00  0.4634E+02
      5.312  0.7832E+00  0.4641E+02
      5.397  0.8972E+00  0.4650E+02
      5.483  0.8603E+00  0.4658E+02
      5.569  0.9103E+00  0.4666E+02
      5.655  0.7160E+00  0.4673E+02
      5.741  0.8712E+00  0.4681E+02
      5.827  0.7060E+00  0.4688E+02
      5.912  0.8456E+00  0.4696E+02
      5.998  0.5656E+00  0.4702E+02
      6.084  0.8807E+00  0.4710E+02
      6.170  0.6574E+00  0.4716E+02
      6.256  0.6362E+00  0.4722E+02
      6.342  0.6815E+00  0.4728E+02
      6.427  0.1063E+01  0.4738E+02
      6.513  0.1335E+01  0.4750E+02
      6.599  0.1217E+01  0.4761E+02
      6.685  0.1230E+01  0.4773E+02
      6.771  0.1316E+01  0.4785E+02
      6.857  0.1280E+01  0.4797E+02
      6.942  0.1333E+01  0.4809E+02
      7.028  0.1163E+01  0.4820E+02
      7.114  0.1258E+01  0.4832E+02
      7.200  0.1317E+01  0.4844E+02
      7.286  0.1190E+01  0.4855E+02
      7.371  0.1034E+01  0.4865E+02
      7.457  0.1428E+01  0.4878E+02
      7.543  0.1123E+01  0.4889E+02
      7.629  0.1182E+01  0.4900E+02
      7.715  0.1263E+01  0.4911E+02
      7.801  0.1086E+01  0.4921E+02
      7.886  0.1157E+01  0.4932E+02
      7.972  0.1125E+01  0.4942E+02
      8.058  0.1133E+01  0.4953E+02
      8.144  0.9657E+00  0.4963E+02
      8.230  0.1149E+01  0.4973E+02
      8.316  0.1171E+01  0.4984E+02
      8.401  0.8823E+00  0.4992E+02
      8.487  0.1130E+01  0.5003E+02
      8.573  0.9917E+00  0.5013E+02
      8.659  0.1151E+01  0.5023E+02
      8.745  0.9668E+00  0.5032E+02
      8.830  0.1011E+01  0.5042E+02
      8.916  0.1065E+01  0.5051E+02
      9.002  0.9818E+00  0.5061E+02
      9.088  0.9279E+00  0.5070E+02
      9.174  0.1121E+01  0.5080E+02
      9.260  0.9863E+00  0.5089E+02
      9.345  0.1086E+01  0.5099E+02
      9.431  0.1259E+01  0.5111E+02
      9.517  0.1936E+01  0.5129E+02
      9.603  0.1139E+01  0.5140E+02
      9.689  0.1436E+01  0.5153E+02
      9.775  0.1456E+01  0.5166E+02
      9.860  0.1304E+01  0.5178E+02
      9.946  0.1508E+01  0.5191E+02
     10.032  0.1761E+01  0.5208E+02
     10.118  0.1628E+01  0.5224E+02
     10.204  0.1528E+01  0.5238E+02
     10.290  0.1559E+01  0.5252E+02
     10.375  0.1529E+01  0.5266E+02
     10.461  0.1743E+01  0.5282E+02
     10.547  0.1711E+01  0.5298E+02
     10.633  0.1554E+01  0.5313E+02
     10.719  0.1421E+01  0.5326E+02
     10.804  0.1427E+01  0.5339E+02
     10.890  0.1756E+01  0.5355E+02
     10.976  0.1735E+01  0.5371E+02
     11.062  0.1501E+01  0.5386E+02
     11.148  0.1390E+01  0.5399E+02
     11.234  0.1536E+01  0.5413E+02
     11.319  0.1463E+01  0.5427E+02
     11.405  0.1987E+01  0.5445E+02
     11.491  0.1732E+01  0.5461E+02
     11.577  0.1598E+01  0.5476E+02
     11.663  0.1382E+01  0.5488E+02
     11.749  0.1622E+01  0.5503E+02
     11.834  0.1717E+01  0.5519E+02
     11.920  0.2197E+01  0.5539E+02
     12.006  0.1500E+01  0.5553E+02
     12.092  0.1776E+01  0.5569E+02
     12.178  0.1496E+01  0.5582E+02
     12.263  0.1680E+01  0.5598E+02
     12.349  0.1876E+01  0.5615E+02
     12.435  0.1751E+01  0.5631E+02
     12.521  0.1770E+01  0.5649E+02
     12.607  0.1773E+01  0.5665E+02
     12.693  0.1552E+01  0.5679E+02
     12.778  0.1675E+01  0.5695E+02
     12.864  0.1924E+01  0.5713E+02
     12.950  0.1905E+01  0.5731E+02
     13.036  0.1970E+01  0.5749E+02
     13.122  0.1616E+01  0.5764E+02
     13.208  0.1825E+01  0.5781E+02
     13.293  0.1863E+01  0.5798E+02
     13.379  0.2063E+01  0.5818E+02
     13.465  0.1894E+01  0.5835E+02
     13.551  0.1845E+01  0.5853E+02
     13.637  0.2252E+01  0.5874E+02
     13.723  0.1791E+01  0.5891E+02
     13.808  0.1856E+01  0.5908E+02
     13.894  0.2211E+01  0.5929E+02
     13.980  0.1635E+01  0.5945E+02
     14.066  0.2095E+01  0.5964E+02
     14.152  0.1637E+01  0.5979E+02
     14.237  0.1919E+01  0.5998E+02
     14.323  0.1624E+01  0.6013E+02
     14.409  0.2001E+01  0.6032E+02
     14.495  0.1510E+01  0.6046E+02
     14.581  0.1995E+01  0.6064E+02
     14.667  0.1664E+01  0.6080E+02
     14.752  0.1656E+01  0.6095E+02
     14.838  0.1768E+01  0.6112E+02
     14.924  0.1553E+01  0.6126E+02
     15.010  0.1577E+01  0.6141E+02
     15.096  0.1709E+01  0.6157E+02
     15.182  0.1413E+01  0.6170E+02
     15.267  0.1206E+01  0.6181E+02
     15.353  0.1555E+01  0.6195E+02
     15.439  0.1146E+01  0.6205E+02
     15.525  0.1119E+01  0.6216E+02
     15.611  0.1035E+01  0.6225E+02
     15.696  0.9697E+00  0.6235E+02
     15.782  0.9427E+00  0.6244E+02
     15.868  0.8225E+00  0.6252E+02
     15.954  0.9303E+00  0.6261E+02
     16.040  0.9048E+00  0.6269E+02
     16.126  0.8035E+00  0.6276E+02
     16.211  0.8602E+00  0.6284E+02
     16.297  0.6311E+00  0.6290E+02
     16.383  0.7118E+00  0.6296E+02
     16.469  0.6838E+00  0.6303E+02
     16.555  0.4835E+00  0.6308E+02
     16.641  0.6449E+00  0.6314E+02
     16.726  0.6325E+00  0.6319E+02
     16.812  0.4045E+00  0.6323E+02
     16.898  0.6525E+00  0.6329E+02
     16.984  0.4650E+00  0.6333E+02
     17.070  0.3520E+00  0.6337E+02
     17.156  0.5885E+00  0.6342E+02
     17.241  0.3995E+00  0.6346E+02
     17.327  0.3578E+00  0.6349E+02
     17.413  0.4265E+00  0.6353E+02
     17.499  0.3162E+00  0.6356E+02
     17.585  0.4507E+00  0.6360E+02
     17.670  0.2762E+00  0.6363E+02
     17.756  0.2713E+00  0.6365E+02
     17.842  0.4050E+00  0.6369E+02
     17.928  0.2589E+00  0.6371E+02
     18.014  0.2870E+00  0.6374E+02
     18.100  0.2799E+00  0.6377E+02
     18.185  0.1940E+00  0.6379E+02
     18.271  0.2859E+00  0.6382E+02
     18.357  0.2700E+00  0.6385E+02
     18.443  0.1766E+00  0.6386E+02
     18.529  0.2731E+00  0.6389E+02
     18.615  0.3259E+00  0.6392E+02
     18.700  0.3350E+00  0.6395E+02
     18.786  0.2879E+00  0.6398E+02
     18.872  0.1199E+00  0.6399E+02
     18.958  0.7597E-01  0.6400E+02
     19.044  0.3327E-01  0.6400E+02
     19.129  0.3996E-02  0.6400E+02
     19.215  0.0000E+00  0.6400E+02
     19.301  0.0000E+00  0.6400E+02
     19.387  0.0000E+00  0.6400E+02
     19.473  0.0000E+00  0.6400E+02
     19.559  0.0000E+00  0.6400E+02
     19.644  0.0000E+00  0.6400E+02
     19.730  0.0000E+00  0.6400E+02
     19.816  0.0000E+00  0.6400E+02
     19.902  0.0000E+00  0.6400E+02
     19.988  0.0000E+00  0.6400E+02
     20.074  0.0000E+00  0.6400E+02
     20.159  0.0000E+00  0.6400E+02
     20.245  0.0000E+00  0.6400E+02
