    4    4    1    1
  0.1804679E+02  0.4163769E-09  0.4163769E-09  0.4163769E-09  0.5000000E-15
  1.000000000000000E-004
  CAR 
 unknown system                          
   44 1330   32
 
  0.0000000E+00  0.0000000E+00  0.0000000E+00  0.2143347E-04
   1       -4.3319
   2       -3.0814
   3       -3.0814
   4       -3.0814
   5       -2.9634
   6       -2.9634
   7       -2.9634
   8       -1.6062
   9       -1.6062
  10       -1.6062
  11       -0.6701
  12       -0.6701
  13        0.0203
  14        0.0203
  15        0.0203
  16        0.2371
  17        0.2371
  18        0.2371
  19        0.2371
  20        0.2371
  21        0.2371
  22        4.6961
  23        4.6961
  24        4.6961
  25        9.3491
  26        9.3491
  27        9.3491
  28       13.5717
  29       13.5717
  30       13.5717
  31       13.5717
  32       13.5717
 
  0.2777778E-01  0.0000000E+00  0.0000000E+00  0.1286008E-03
   1       -4.3242
   2       -3.0783
   3       -3.0773
   4       -3.0773
   5       -2.9610
   6       -2.9598
   7       -2.9598
   8       -1.6090
   9       -1.6035
  10       -1.6035
  11       -0.6730
  12       -0.6689
  13        0.0165
  14        0.0165
  15        0.0189
  16        0.2233
  17        0.2233
  18        0.2324
  19        0.2324
  20        0.2371
  21        0.2371
  22        4.6366
  23        4.7164
  24        4.7164
  25        9.3505
  26        9.3505
  27        9.4210
  28       13.5418
  29       13.5418
  30       13.5419
  31       13.5419
  32       13.5851
 
  0.5555556E-01  0.0000000E+00  0.0000000E+00  0.1286008E-03
   1       -4.3010
   2       -3.0690
   3       -3.0653
   4       -3.0653
   5       -2.9541
   6       -2.9492
   7       -2.9492
   8       -1.6176
   9       -1.5954
  10       -1.5954
  11       -0.6816
  12       -0.6651
  13        0.0050
  14        0.0050
  15        0.0148
  16        0.1826
  17        0.1826
  18        0.2183
  19        0.2183
  20        0.2371
  21        0.2371
  22        4.4682
  23        4.7765
  24        4.7765
  25        9.3545
  26        9.3545
  27        9.6265
  28       13.4546
  29       13.4546
  30       13.4554
  31       13.4554
  32       13.6252
 
  0.8333333E-01  0.0000000E+00  0.0000000E+00  0.1286008E-03
   1       -4.2624
   2       -3.0537
   3       -3.0455
   4       -3.0455
   5       -2.9425
   6       -2.9314
   7       -2.9314
   8       -1.6319
   9       -1.5819
  10       -1.5819
  11       -0.6958
  12       -0.6589
  13       -0.0139
  14       -0.0139
  15        0.0079
  16        0.1174
  17        0.1174
  18        0.1952
  19        0.1952
  20        0.2372
  21        0.2372
  22        4.2150
  23        4.8742
  24        4.8742
  25        9.3612
  26        9.3612
  27        9.9415
  28       13.3148
  29       13.3148
  30       13.3206
  31       13.3206
  32       13.6917
 
  0.1111111E+00  0.0000000E+00  0.0000000E+00  0.1286008E-03
   1       -4.2086
   2       -3.0326
   3       -3.0182
   4       -3.0182
   5       -2.9263
   6       -2.9066
   7       -2.9066
   8       -1.6516
   9       -1.5631
  10       -1.5631
  11       -0.7152
  12       -0.6502
  13       -0.0401
  14       -0.0401
  15       -0.0016
  16        0.0307
  17        0.0307
  18        0.1633
  19        0.1633
  20        0.2372
  21        0.2372
  22        3.9034
  23        5.0063
  24        5.0063
  25        9.3708
  26        9.3708
  27       10.3396
  28       13.1299
  29       13.1299
  30       13.1484
  31       13.1484
  32       13.7842
 
  0.1388889E+00  0.0000000E+00  0.0000000E+00  0.1286008E-03
   1       -4.1401
   2       -3.0061
   3       -2.9837
   4       -2.9837
   5       -2.9057
   6       -2.8746
   7       -2.8746
   8       -1.6766
   9       -1.5390
  10       -1.5390
  11       -0.7394
  12       -0.6392
  13       -0.0737
  14       -0.0737
  15       -0.0731
  16       -0.0731
  17       -0.0136
  18        0.1231
  19        0.1231
  20        0.2373
  21        0.2373
  22        3.5550
  23        5.1689
  24        5.1689
  25        9.3833
  26        9.3833
  27       10.7992
  28       12.9075
  29       12.9075
  30       12.9502
  31       12.9502
  32       13.9021
 
  0.1666667E+00  0.0000000E+00  0.0000000E+00  0.1286008E-03
   1       -4.0572
   2       -2.9744
   3       -2.9426
   4       -2.9426
   5       -2.8808
   6       -2.8357
   7       -2.8357
   8       -1.7067
   9       -1.5097
  10       -1.5097
  11       -0.7677
  12       -0.6258
  13       -0.1922
  14       -0.1922
  15       -0.1127
  16       -0.1127
  17       -0.0281
  18        0.0754
  19        0.0754
  20        0.2373
  21        0.2373
  22        3.1855
  23        5.3583
  24        5.3583
  25        9.3990
  26        9.3990
  27       11.3045
  28       12.6551
  29       12.6551
  30       12.7362
  31       12.7362
  32       14.0447
 
  0.1944444E+00  0.0000000E+00  0.0000000E+00  0.1286008E-03
   1       -3.9605
   2       -2.9382
   3       -2.8955
   4       -2.8955
   5       -2.8516
   6       -2.7896
   7       -2.7896
   8       -1.7415
   9       -1.4753
  10       -1.4753
  11       -0.7994
  12       -0.6103
  13       -0.3213
  14       -0.3213
  15       -0.1580
  16       -0.1580
  17       -0.0449
  18        0.0207
  19        0.0207
  20        0.2374
  21        0.2374
  22        2.8060
  23        5.5709
  24        5.5709
  25        9.4179
  26        9.4179
  27       11.8446
  28       12.3791
  29       12.3791
  30       12.5148
  31       12.5148
  32       14.2110
 
  0.2222222E+00  0.0000000E+00  0.0000000E+00  0.1286008E-03
   1       -3.8510
   2       -2.8982
   3       -2.8434
   4       -2.8434
   5       -2.8185
   6       -2.7366
   7       -2.7366
   8       -1.7807
   9       -1.4359
  10       -1.4359
  11       -0.8332
  12       -0.5926
  13       -0.4578
  14       -0.4578
  15       -0.2084
  16       -0.2084
  17       -0.0640
  18       -0.0401
  19       -0.0401
  20        0.2375
  21        0.2375
  22        2.4240
  23        5.8035
  24        5.8035
  25        9.4402
  26        9.4402
  27       12.0848
  28       12.0848
  29       12.2926
  30       12.2926
  31       12.4116
  32       14.4001
 
  0.2500000E+00  0.0000000E+00  0.0000000E+00  0.1286008E-03
   1       -3.7297
   2       -2.8551
   3       -2.7873
   4       -2.7873
   5       -2.7815
   6       -2.6767
   7       -2.6767
   8       -1.8239
   9       -1.3916
  10       -1.3916
  11       -0.8678
  12       -0.5994
  13       -0.5994
  14       -0.5730
  15       -0.2629
  16       -0.2629
  17       -0.1063
  18       -0.1063
  19       -0.0850
  20        0.2376
  21        0.2376
  22        2.0450
  23        6.0534
  24        6.0534
  25        9.4660
  26        9.4660
  27       11.7766
  28       11.7766
  29       12.0751
  30       12.0751
  31       13.0001
  32       14.6110
 
  0.2777778E+00  0.0000000E+00  0.0000000E+00  0.1286008E-03
   1       -3.5983
   2       -2.8100
   3       -2.7408
   4       -2.7283
   5       -2.7283
   6       -2.6099
   7       -2.6099
   8       -1.8707
   9       -1.3426
  10       -1.3426
  11       -0.9014
  12       -0.7437
  13       -0.7437
  14       -0.5515
  15       -0.3203
  16       -0.3203
  17       -0.1770
  18       -0.1770
  19       -0.1079
  20        0.2376
  21        0.2376
  22        1.6734
  23        6.3181
  24        6.3181
  25        9.4952
  26        9.4952
  27       11.4578
  28       11.4578
  29       11.8664
  30       11.8664
  31       13.6055
  32       14.8425
 
  0.3055556E+00  0.0000000E+00  0.0000000E+00  0.1286008E-03
   1       -3.4589
   2       -2.7643
   3       -2.6968
   4       -2.6681
   5       -2.6681
   6       -2.5363
   7       -2.5363
   8       -1.9206
   9       -1.2892
  10       -1.2892
  11       -0.9313
  12       -0.8890
  13       -0.8890
  14       -0.5283
  15       -0.3792
  16       -0.3792
  17       -0.2514
  18       -0.2514
  19       -0.1325
  20        0.2377
  21        0.2377
  22        1.3125
  23        6.5958
  24        6.5958
  25        9.5276
  26        9.5276
  27       11.1314
  28       11.1314
  29       11.6699
  30       11.6699
  31       14.2240
  32       15.0936
 
  0.3333333E+00  0.0000000E+00  0.0000000E+00  0.1286008E-03
   1       -3.3144
   2       -2.7196
   3       -2.6497
   4       -2.6084
   5       -2.6084
   6       -2.4559
   7       -2.4559
   8       -1.9733
   9       -1.2314
  10       -1.2314
  11       -1.0338
  12       -1.0338
  13       -0.9543
  14       -0.5035
  15       -0.4377
  16       -0.4377
  17       -0.3286
  18       -0.3286
  19       -0.1586
  20        0.2378
  21        0.2378
  22        0.9653
  23        6.8846
  24        6.8846
  25        9.5628
  26        9.5628
  27       10.7995
  28       10.7995
  29       11.4886
  30       11.4886
  31       14.8520
  32       15.3631
 
  0.3611111E+00  0.0000000E+00  0.0000000E+00  0.1286008E-03
   1       -3.1689
   2       -2.6781
   3       -2.5998
   4       -2.5513
   5       -2.5513
   6       -2.3688
   7       -2.3688
   8       -2.0283
   9       -1.1770
  10       -1.1770
  11       -1.1695
  12       -1.1695
  13       -0.9660
  14       -0.4938
  15       -0.4938
  16       -0.4774
  17       -0.4079
  18       -0.4079
  19       -0.1859
  20        0.2379
  21        0.2379
  22        0.6351
  23        7.1831
  24        7.1831
  25        9.5997
  26        9.5997
  27       10.4640
  28       10.4640
  29       11.3253
  30       11.3253
  31       15.4853
  32       15.6497
 
  0.3888889E+00  0.0000000E+00  0.0000000E+00  0.1286008E-03
   1       -3.0278
   2       -2.6424
   3       -2.5475
   4       -2.4993
   5       -2.4993
   6       -2.2753
   7       -2.2753
   8       -2.0850
   9       -1.3175
  10       -1.3175
  11       -1.1039
  12       -1.1039
  13       -0.9606
  14       -0.5450
  15       -0.5450
  16       -0.4885
  17       -0.4885
  18       -0.4501
  19       -0.2142
  20        0.2379
  21        0.2379
  22        0.3251
  23        7.4901
  24        7.4901
  25        9.6369
  26        9.6369
  27       10.1265
  28       10.1265
  29       11.1830
  30       11.1830
  31       15.9523
  32       15.9523
 
  0.4166667E+00  0.0000000E+00  0.0000000E+00  0.1286008E-03
   1       -2.8978
   2       -2.6162
   3       -2.4929
   4       -2.4548
   5       -2.4548
   6       -2.1753
   7       -2.1753
   8       -2.1431
   9       -1.4546
  10       -1.4546
  11       -1.0348
  12       -1.0348
  13       -0.9309
  14       -0.5889
  15       -0.5889
  16       -0.5697
  17       -0.5697
  18       -0.4218
  19       -0.2433
  20        0.0392
  21        0.2380
  22        0.2380
  23        7.8043
  24        7.8043
  25        9.6718
  26        9.6718
  27        9.7883
  28        9.7883
  29       11.0654
  30       11.0654
  31       16.2696
  32       16.2696
 
  0.4444444E+00  0.0000000E+00  0.0000000E+00  0.1286008E-03
   1       -2.7862
   2       -2.6038
   3       -2.4367
   4       -2.4206
   5       -2.4206
   6       -2.2020
   7       -2.0692
   8       -2.0692
   9       -1.5876
  10       -1.5876
  11       -0.9625
  12       -0.9625
  13       -0.8694
  14       -0.6508
  15       -0.6508
  16       -0.6227
  17       -0.6227
  18       -0.3927
  19       -0.2730
  20       -0.2182
  21        0.2380
  22        0.2380
  23        8.1249
  24        8.1249
  25        9.4507
  26        9.4507
  27        9.7011
  28        9.7011
  29       10.9764
  30       10.9764
  31       16.6003
  32       16.6003
 
  0.4722222E+00  0.0000000E+00  0.0000000E+00  0.1286008E-03
   1       -2.6994
   2       -2.6103
   3       -2.3989
   4       -2.3989
   5       -2.3790
   6       -2.2612
   7       -1.9571
   8       -1.9571
   9       -1.7159
  10       -1.7159
  11       -0.8876
  12       -0.8876
  13       -0.7693
  14       -0.7312
  15       -0.7312
  16       -0.6441
  17       -0.6441
  18       -0.4418
  19       -0.3631
  20       -0.3030
  21        0.2380
  22        0.2380
  23        8.4507
  24        8.4507
  25        9.1145
  26        9.1145
  27        9.7210
  28        9.7210
  29       10.9205
  30       10.9205
  31       16.9432
  32       16.9432
 
  0.5000000E+00  0.0000000E+00  0.0000000E+00  0.6430041E-04
   1       -2.6409
   2       -2.6409
   3       -2.3915
   4       -2.3915
   5       -2.3204
   6       -2.3204
   7       -1.8392
   8       -1.8392
   9       -1.8392
  10       -1.8392
  11       -0.8103
  12       -0.8103
  13       -0.8103
  14       -0.8103
  15       -0.6514
  16       -0.6514
  17       -0.6267
  18       -0.6267
  19       -0.3331
  20       -0.3331
  21        0.2380
  22        0.2380
  23        8.7809
  24        8.7809
  25        8.7809
  26        8.7809
  27        9.7281
  28        9.7281
  29       10.9014
  30       10.9014
  31       17.2969
  32       17.2969
 
  0.2777778E-01  0.2777778E-01  0.0000000E+00  0.2572016E-03
   1       -4.3165
   2       -3.0742
   3       -3.0742
   4       -3.0734
   5       -2.9575
   6       -2.9575
   7       -2.9562
   8       -1.6102
   9       -1.6025
  10       -1.6008
  11       -0.6738
  12       -0.6697
  13        0.0126
  14        0.0149
  15        0.0149
  16        0.2128
  17        0.2187
  18        0.2187
  19        0.2324
  20        0.2324
  21        0.2339
  22        4.6567
  23        4.6567
  24        4.7366
  25        9.3518
  26        9.4225
  27        9.4225
  28       13.4295
  29       13.5551
  30       13.5551
  31       13.5553
  32       13.5553
 
  0.5555556E-01  0.2777778E-01  0.0000000E+00  0.5144033E-03
   1       -4.2932
   2       -3.0650
   3       -3.0622
   4       -3.0617
   5       -2.9505
   6       -2.9469
   7       -2.9453
   8       -1.6179
   9       -1.5952
  10       -1.5927
  11       -0.6816
  12       -0.6667
  13        0.0012
  14        0.0030
  15        0.0104
  16        0.1742
  17        0.1785
  18        0.2051
  19        0.2183
  20        0.2322
  21        0.2324
  22        4.4880
  23        4.7164
  24        4.7964
  25        9.3558
  26        9.4270
  27        9.6284
  28       13.2681
  29       13.4678
  30       13.4684
  31       13.5937
  32       13.5952
 
  0.8333333E-01  0.2777778E-01  0.0000000E+00  0.5144033E-03
   1       -4.2547
   2       -3.0497
   3       -3.0424
   4       -3.0423
   5       -2.9390
   6       -2.9291
   7       -2.9272
   8       -1.6319
   9       -1.5819
  10       -1.5794
  11       -0.6956
  12       -0.6605
  13       -0.0176
  14       -0.0172
  15        0.0027
  16        0.1098
  17        0.1145
  18        0.1826
  19        0.1952
  20        0.2318
  21        0.2324
  22        4.2344
  23        4.8134
  24        4.8937
  25        9.3625
  26        9.4345
  27        9.9437
  28       13.0669
  29       13.3278
  30       13.3332
  31       13.5309
  32       13.6612
 
  0.1111111E+00  0.2777778E-01  0.0000000E+00  0.5144033E-03
   1       -4.2010
   2       -3.0286
   3       -3.0155
   4       -3.0150
   5       -2.9229
   6       -2.9043
   7       -2.9019
   8       -1.6515
   9       -1.5632
  10       -1.5607
  11       -0.7149
  12       -0.6517
  13       -0.0472
  14       -0.0436
  15       -0.0081
  16        0.0239
  17        0.0317
  18        0.1520
  19        0.1632
  20        0.2317
  21        0.2325
  22        3.9225
  23        4.9443
  24        5.0251
  25        9.3721
  26        9.4451
  27       10.3422
  28       12.8356
  29       13.1426
  30       13.1606
  31       13.4164
  32       13.7530
 
  0.1388889E+00  0.2777778E-01  0.0000000E+00  0.5144033E-03
   1       -4.1326
   2       -3.0020
   3       -2.9817
   4       -2.9805
   5       -2.9023
   6       -2.8724
   7       -2.8694
   8       -1.6764
   9       -1.5391
  10       -1.5368
  11       -0.7390
  12       -0.6406
  13       -0.1016
  14       -0.0798
  15       -0.0765
  16       -0.0513
  17       -0.0224
  18        0.1140
  19        0.1231
  20        0.2317
  21        0.2325
  22        3.5740
  23        5.1054
  24        5.1871
  25        9.3845
  26        9.4590
  27       10.8020
  28       12.5825
  29       12.9199
  30       12.9620
  31       13.2589
  32       13.8702
 
  0.1666667E+00  0.2777778E-01  0.0000000E+00  0.5144033E-03
   1       -4.0498
   2       -2.9703
   3       -2.9415
   4       -2.9393
   5       -2.8774
   6       -2.8335
   7       -2.8297
   8       -1.7064
   9       -1.5099
  10       -1.5078
  11       -0.7671
  12       -0.6270
  13       -0.2062
  14       -0.1975
  15       -0.1159
  16       -0.1047
  17       -0.0408
  18        0.0699
  19        0.0753
  20        0.2318
  21        0.2326
  22        3.2046
  23        5.2928
  24        5.3758
  25        9.4001
  26        9.4764
  27       11.3074
  28       12.3144
  29       12.6673
  30       12.7476
  31       13.0689
  32       14.0114
 
  0.1944444E+00  0.2777778E-01  0.0000000E+00  0.5144033E-03
   1       -3.9534
   2       -2.9340
   3       -2.8954
   4       -2.8923
   5       -2.8483
   6       -2.7876
   7       -2.7830
   8       -1.7411
   9       -1.4755
  10       -1.4737
  11       -0.7985
  12       -0.6113
  13       -0.3321
  14       -0.3259
  15       -0.1611
  16       -0.1529
  17       -0.0654
  18        0.0206
  19        0.0227
  20        0.2318
  21        0.2326
  22        2.8252
  23        5.5029
  24        5.5877
  25        9.4187
  26        9.4974
  27       11.8475
  28       12.0362
  29       12.3911
  30       12.5259
  31       12.8561
  32       14.1764
 
  0.2222222E+00  0.2777778E-01  0.0000000E+00  0.5144033E-03
   1       -3.8440
   2       -2.8939
   3       -2.8442
   4       -2.8401
   5       -2.8152
   6       -2.7347
   7       -2.7294
   8       -1.7801
   9       -1.4361
  10       -1.4349
  11       -0.8319
  12       -0.5934
  13       -0.4674
  14       -0.4618
  15       -0.2112
  16       -0.2045
  17       -0.1005
  18       -0.0402
  19       -0.0225
  20        0.2319
  21        0.2327
  22        2.4436
  23        5.7325
  24        5.8197
  25        9.4406
  26        9.5222
  27       11.7512
  28       12.0966
  29       12.3037
  30       12.4144
  31       12.6297
  32       14.3641
 
  0.2500000E+00  0.2777778E-01  0.0000000E+00  0.5144033E-03
   1       -3.7230
   2       -2.8508
   3       -2.7887
   4       -2.7839
   5       -2.7783
   6       -2.6748
   7       -2.6690
   8       -1.8232
   9       -1.3918
  10       -1.3913
  11       -0.8660
  12       -0.6080
  13       -0.6027
  14       -0.5734
  15       -0.2655
  16       -0.2596
  17       -0.1506
  18       -0.1064
  19       -0.0601
  20        0.2320
  21        0.2327
  22        2.0653
  23        5.9787
  24        6.0689
  25        9.4656
  26        9.5509
  27       11.4616
  28       11.7882
  29       12.0864
  30       12.3978
  31       13.0027
  32       14.5739
 
  0.2777778E+00  0.2777778E-01  0.0000000E+00  0.5144033E-03
   1       -3.5918
   2       -2.8057
   3       -2.7378
   4       -2.7302
   5       -2.7250
   6       -2.6081
   7       -2.6021
   8       -1.8699
   9       -1.3435
  10       -1.3428
  11       -0.8985
  12       -0.7516
  13       -0.7465
  14       -0.5516
  15       -0.3227
  16       -0.3174
  17       -0.2136
  18       -0.1771
  19       -0.0914
  20        0.2321
  21        0.2328
  22        1.6945
  23        6.2390
  24        6.3331
  25        9.4933
  26        9.5833
  27       11.1686
  28       11.4693
  29       11.8782
  30       12.1672
  31       13.6078
  32       14.8016
 
  0.3055556E+00  0.2777778E-01  0.0000000E+00  0.5144033E-03
   1       -3.4526
   2       -2.7599
   3       -2.6939
   4       -2.6699
   5       -2.6647
   6       -2.5346
   7       -2.5289
   8       -1.9197
   9       -1.2920
  10       -1.2894
  11       -0.9267
  12       -0.8963
  13       -0.8912
  14       -0.5280
  15       -0.3813
  16       -0.3766
  17       -0.2845
  18       -0.2515
  19       -0.1205
  20        0.2323
  21        0.2328
  22        1.3346
  23        6.5114
  24        6.6102
  25        9.5228
  26        9.6193
  27       10.8735
  28       11.1428
  29       11.6827
  30       11.9441
  31       14.2261
  32       15.0510
 
  0.3333333E+00  0.2777778E-01  0.0000000E+00  0.5144033E-03
   1       -3.3084
   2       -2.7151
   3       -2.6469
   4       -2.6098
   5       -2.6049
   6       -2.4543
   7       -2.4493
   8       -1.9723
   9       -1.2375
  10       -1.2316
  11       -1.0404
  12       -1.0356
  13       -0.9466
  14       -0.5029
  15       -0.4396
  16       -0.4354
  17       -0.3604
  18       -0.3288
  19       -0.1493
  20        0.2324
  21        0.2328
  22        0.9890
  23        6.7941
  24        6.8986
  25        9.5516
  26        9.6583
  27       10.5783
  28       10.8109
  29       11.5031
  30       11.7336
  31       14.8537
  32       15.3224
 
  0.3611111E+00  0.2777778E-01  0.0000000E+00  0.5144033E-03
   1       -3.1632
   2       -2.6734
   3       -2.5971
   4       -2.5520
   5       -2.5478
   6       -2.3674
   7       -2.3634
   8       -2.0271
   9       -1.1828
  10       -1.1817
  11       -1.1783
  12       -1.1698
  13       -0.9526
  14       -0.4954
  15       -0.4918
  16       -0.4763
  17       -0.4397
  18       -0.4081
  19       -0.1785
  20        0.2325
  21        0.2329
  22        0.6608
  23        7.0853
  24        7.1967
  25        9.5735
  26        9.6991
  27       10.2890
  28       10.4755
  29       11.3427
  30       11.5403
  31       15.4849
  32       15.6014
 
  0.3888889E+00  0.2777778E-01  0.0000000E+00  0.5144033E-03
   1       -3.0223
   2       -2.6377
   3       -2.5449
   4       -2.4991
   5       -2.4957
   6       -2.2741
   7       -2.2712
   8       -2.0837
   9       -1.3226
  10       -1.3184
  11       -1.1264
  12       -1.1041
  13       -0.9372
  14       -0.5464
  15       -0.5434
  16       -0.5214
  17       -0.4887
  18       -0.4486
  19       -0.2083
  20        0.2326
  21        0.2329
  22        0.3536
  23        7.3835
  24        7.5033
  25        9.5656
  26        9.7397
  27       10.0271
  28       10.1380
  29       11.2051
  30       11.3681
  31       15.8949
  32       15.9063
 
  0.4166667E+00  0.2777778E-01  0.0000000E+00  0.5144033E-03
   1       -2.8925
   2       -2.6113
   3       -2.4905
   4       -2.4537
   5       -2.4512
   6       -2.1743
   7       -2.1727
   8       -2.1416
   9       -1.4589
  10       -1.4551
  11       -1.0714
  12       -1.0350
  13       -0.8939
  14       -0.6050
  15       -0.5900
  16       -0.5877
  17       -0.5699
  18       -0.4198
  19       -0.2389
  20        0.0717
  21        0.2326
  22        0.2329
  23        7.6874
  24        7.8172
  25        9.4552
  26        9.7773
  27        9.8000
  28        9.8641
  29       11.0947
  30       11.2213
  31       16.2077
  32       16.2199
 
  0.4444444E+00  0.2777778E-01  0.0000000E+00  0.5144033E-03
   1       -2.7810
   2       -2.5988
   3       -2.4344
   4       -2.4187
   5       -2.4171
   6       -2.2003
   7       -2.0684
   8       -2.0680
   9       -1.5910
  10       -1.5878
  11       -1.0114
  12       -0.9628
  13       -0.8209
  14       -0.6900
  15       -0.6510
  16       -0.6234
  17       -0.6219
  18       -0.3901
  19       -0.2718
  20       -0.1784
  21        0.2327
  22        0.2329
  23        7.9952
  24        8.1374
  25        9.2136
  26        9.4624
  27        9.8078
  28        9.8261
  29       11.0167
  30       11.1040
  31       16.5323
  32       16.5460
 
  0.4722222E+00  0.2777778E-01  0.0000000E+00  0.5144033E-03
   1       -2.6943
   2       -2.6053
   3       -2.3964
   4       -2.3956
   5       -2.3768
   6       -2.2594
   7       -1.9572
   8       -1.9565
   9       -1.7184
  10       -1.7159
  11       -0.9408
  12       -0.8878
  13       -0.7757
  14       -0.7314
  15       -0.7172
  16       -0.6445
  17       -0.6437
  18       -0.4021
  19       -0.3597
  20       -0.2963
  21        0.2328
  22        0.2329
  23        8.3054
  24        8.4630
  25        8.9217
  26        9.1264
  27        9.8273
  28        9.8291
  29       10.9764
  30       11.0213
  31       16.8676
  32       16.8830
 
  0.5000000E+00  0.2777778E-01  0.0000000E+00  0.2572016E-03
   1       -2.6359
   2       -2.6359
   3       -2.3885
   4       -2.3885
   5       -2.3184
   6       -2.3184
   7       -1.8406
   8       -1.8406
   9       -1.8389
  10       -1.8389
  11       -0.8606
  12       -0.8606
  13       -0.8105
  14       -0.8105
  15       -0.6514
  16       -0.6514
  17       -0.5786
  18       -0.5786
  19       -0.3288
  20       -0.3288
  21        0.2328
  22        0.2328
  23        8.6156
  24        8.6156
  25        8.7930
  26        8.7930
  27        9.8335
  28        9.8335
  29       10.9778
  30       10.9778
  31       17.2121
  32       17.2216
 
  0.5555556E-01  0.5555556E-01  0.0000000E+00  0.2572016E-03
   1       -4.2701
   2       -3.0529
   3       -3.0529
   4       -3.0507
   5       -2.9399
   6       -2.9399
   7       -2.9339
   8       -1.6221
   9       -1.5914
  10       -1.5849
  11       -0.6848
  12       -0.6680
  13       -0.0100
  14       -0.0031
  15       -0.0031
  16        0.1428
  17        0.1664
  18        0.1664
  19        0.2183
  20        0.2183
  21        0.2242
  22        4.5466
  23        4.5466
  24        4.8553
  25        9.3598
  26        9.6339
  27        9.6339
  28       13.0427
  29       13.5072
  30       13.5072
  31       13.5073
  32       13.5073
 
  0.8333333E-01  0.5555556E-01  0.0000000E+00  0.5144033E-03
   1       -4.2318
   2       -3.0376
   3       -3.0331
   4       -3.0325
   5       -2.9284
   6       -2.9223
   7       -2.9147
   8       -1.6338
   9       -1.5803
  10       -1.5718
  11       -0.6964
  12       -0.6638
  13       -0.0286
  14       -0.0271
  15       -0.0136
  16        0.0840
  17        0.1061
  18        0.1467
  19        0.1951
  20        0.2183
  21        0.2197
  22        4.2919
  23        4.6417
  24        4.9512
  25        9.3665
  26        9.6432
  27        9.9505
  28       12.7887
  29       13.3665
  30       13.3709
  31       13.5719
  32       13.5726
 
  0.1111111E+00  0.5555556E-01  0.0000000E+00  0.5144033E-03
   1       -4.1784
   2       -3.0164
   3       -3.0075
   4       -3.0056
   5       -2.9124
   6       -2.8976
   7       -2.8881
   8       -1.6523
   9       -1.5626
  10       -1.5536
  11       -0.7147
  12       -0.6554
  13       -0.0667
  14       -0.0542
  15       -0.0291
  16        0.0018
  17        0.0329
  18        0.1205
  19        0.1632
  20        0.2176
  21        0.2183
  22        3.9791
  23        4.7699
  24        5.0809
  25        9.3759
  26        9.6564
  27       10.3500
  28       12.5148
  29       13.1805
  30       13.1970
  31       13.6566
  32       13.6620
 
  0.1388889E+00  0.5555556E-01  0.0000000E+00  0.5144033E-03
   1       -4.1103
   2       -2.9897
   3       -2.9758
   4       -2.9710
   5       -2.8920
   6       -2.8658
   7       -2.8539
   8       -1.6765
   9       -1.5390
  10       -1.5303
  11       -0.7381
  12       -0.6441
  13       -0.1360
  14       -0.0990
  15       -0.0867
  16       -0.0506
  17       -0.0352
  18        0.0893
  19        0.1230
  20        0.2167
  21        0.2183
  22        3.6301
  23        4.9273
  24        5.2410
  25        9.3882
  26        9.6737
  27       10.8105
  28       12.2280
  29       12.9570
  30       12.9971
  31       13.5625
  32       13.7761
 
  0.1666667E+00  0.5555556E-01  0.0000000E+00  0.5144033E-03
   1       -4.0279
   2       -2.9579
   3       -2.9378
   4       -2.9298
   5       -2.8673
   6       -2.8271
   7       -2.8125
   8       -1.7059
   9       -1.5100
  10       -1.5021
  11       -0.7656
  12       -0.6301
  13       -0.2389
  14       -0.2142
  15       -0.1256
  16       -0.0899
  17       -0.0795
  18        0.0553
  19        0.0752
  20        0.2162
  21        0.2183
  22        3.2607
  23        5.1099
  24        5.4277
  25        9.4032
  26        9.6951
  27       11.3162
  28       11.9339
  29       12.7036
  30       12.7817
  31       13.4235
  32       13.9143
 
  0.1944444E+00  0.5555556E-01  0.0000000E+00  0.5144033E-03
   1       -3.9319
   2       -2.9216
   3       -2.8940
   4       -2.8826
   5       -2.8384
   6       -2.7814
   7       -2.7641
   8       -1.7401
   9       -1.4757
  10       -1.4692
  11       -0.7962
  12       -0.6137
  13       -0.3612
  14       -0.3402
  15       -0.1701
  16       -0.1413
  17       -0.1176
  18        0.0204
  19        0.0209
  20        0.2160
  21        0.2183
  22        2.8818
  23        5.3141
  24        5.6377
  25        9.4211
  26        9.7209
  27       11.6367
  28       11.8561
  29       12.4268
  30       12.5594
  31       13.2497
  32       14.0753
 
  0.2222222E+00  0.5555556E-01  0.0000000E+00  0.5144033E-03
   1       -3.8231
   2       -2.8813
   3       -2.8449
   4       -2.8303
   5       -2.8056
   6       -2.7287
   7       -2.7091
   8       -1.7788
   9       -1.4364
  10       -1.4318
  11       -0.8285
  12       -0.5950
  13       -0.4940
  14       -0.4740
  15       -0.2197
  16       -0.1946
  17       -0.1656
  18       -0.0405
  19       -0.0123
  20        0.2159
  21        0.2183
  22        2.5012
  23        5.5364
  24        5.8678
  25        9.4414
  26        9.7511
  27       11.3396
  28       12.1317
  29       12.3371
  30       12.4226
  31       13.0514
  32       14.2581
 
  0.2500000E+00  0.5555556E-01  0.0000000E+00  0.5144033E-03
   1       -3.7027
   2       -2.8380
   3       -2.7912
   4       -2.7740
   5       -2.7689
   6       -2.6692
   7       -2.6478
   8       -1.8214
   9       -1.3923
  10       -1.3904
  11       -0.8608