       N       E                     dE             d eps       ncg     rms          rms(c)
DAV:   1     0.535240045382E+03    0.53524E+03   -0.32253E+04 85136   0.236E+03
DAV:   2     0.291566682200E+01   -0.53232E+03   -0.49738E+03 85208   0.490E+02
DAV:   3    -0.121122266635E+02   -0.15028E+02   -0.14887E+02 99640   0.107E+02
DAV:   4    -0.121977073211E+02   -0.85481E-01   -0.85465E-01 90424   0.699E+00
DAV:   5    -0.121980249162E+02   -0.31760E-03   -0.31759E-03101176   0.362E-01    0.559E+00
DAV:   6    -0.113401993141E+02    0.85783E+00   -0.25433E+00 95832   0.164E+01    0.101E+00
DAV:   7    -0.113185245671E+02    0.21675E-01   -0.56081E-02 90672   0.156E+00    0.528E-01
DAV:   8    -0.113084757541E+02    0.10049E-01   -0.44321E-03 92664   0.651E-01    0.449E-02
DAV:   9    -0.113086208875E+02   -0.14513E-03   -0.21823E-04 98048   0.122E-01    0.299E-02
DAV:  10    -0.113085880699E+02    0.32818E-04   -0.16045E-05 94656   0.322E-02    0.366E-03
DAV:  11    -0.113085858440E+02    0.22259E-05   -0.71718E-07 98240   0.548E-03    0.561E-04
DAV:  12    -0.113085853552E+02    0.48878E-06   -0.24024E-08 81792   0.110E-03    0.954E-05
DAV:  13    -0.113085852408E+02    0.11448E-06   -0.12059E-09 55760   0.307E-04    0.470E-05
DAV:  14    -0.113085852373E+02    0.34825E-08   -0.11222E-10 52152   0.873E-05
   1 F= -.11308585E+02 E0= -.11308563E+02  d E =-.447607E-04
