   4   4   0   0
  0.1097545E+02  0.3527720E-09  0.3527720E-09  0.3527720E-09  0.5000000E-15
  1.000000000000000E-004
  CAR 
 unknown system                          
     28.19492166     -7.07770319  301      4.48212256      1.00000000
     -7.078  0.0000E+00  0.0000E+00
     -6.960  0.0000E+00  0.0000E+00
     -6.843  0.0000E+00  0.0000E+00
     -6.725  0.0000E+00  0.0000E+00
     -6.607  0.0000E+00  0.0000E+00
     -6.490  0.0000E+00  0.0000E+00
     -6.372  0.0000E+00  0.0000E+00
     -6.255  0.0000E+00  0.0000E+00
     -6.137  0.0000E+00  0.0000E+00
     -6.020  0.0000E+00  0.0000E+00
     -5.902  0.0000E+00  0.0000E+00
     -5.784  0.0000E+00  0.0000E+00
     -5.667  0.0000E+00  0.0000E+00
     -5.549  0.0000E+00  0.0000E+00
     -5.432  0.1449E-01  0.1703E-02
     -5.314  0.6654E-01  0.1173E-01
     -5.196  0.1075E+00  0.2610E-01
     -5.079  0.8220E-01  0.4598E-01
     -4.961  0.1185E+00  0.6674E-01
     -4.844  0.1516E+00  0.9146E-01
     -4.726  0.1152E+00  0.1205E+00
     -4.609  0.1587E+00  0.1481E+00
     -4.491  0.1827E+00  0.1866E+00
     -4.373  0.1912E+00  0.2188E+00
     -4.256  0.2629E+00  0.2588E+00
     -4.138  0.2424E+00  0.2980E+00
     -4.021  0.2923E+00  0.3386E+00
     -3.903  0.1731E+00  0.3776E+00
     -3.786  0.2073E+00  0.4261E+00
     -3.668  0.2562E+00  0.4744E+00
     -3.550  0.3897E+00  0.5387E+00
     -3.433  0.1993E+00  0.5719E+00
     -3.315  0.3064E+00  0.6348E+00
     -3.198  0.3651E+00  0.7016E+00
     -3.080  0.3554E+00  0.7572E+00
     -2.963  0.4111E+00  0.8263E+00
     -2.845  0.3759E+00  0.8820E+00
     -2.727  0.4775E+00  0.9617E+00
     -2.610  0.4474E+00  0.1031E+01
     -2.492  0.5824E+00  0.1104E+01
     -2.375  0.3850E+00  0.1189E+01
     -2.257  0.5334E+00  0.1272E+01
     -2.140  0.6261E+00  0.1361E+01
     -2.022  0.4540E+00  0.1460E+01
     -1.904  0.6954E+00  0.1565E+01
     -1.787  0.6032E+00  0.1670E+01
     -1.669  0.6475E+00  0.1787E+01
     -1.552  0.9511E+00  0.1925E+01
     -1.434  0.7553E+00  0.2063E+01
     -1.317  0.1037E+01  0.2222E+01
     -1.199  0.1275E+01  0.2430E+01
     -1.081  0.1768E+01  0.2678E+01
     -0.964  0.2110E+01  0.2993E+01
     -0.846  0.3053E+01  0.3436E+01
     -0.729  0.3146E+01  0.3951E+01
     -0.611  0.3209E+01  0.4491E+01
     -0.493  0.3355E+01  0.5048E+01
     -0.376  0.3277E+01  0.5614E+01
     -0.258  0.4441E+01  0.6392E+01
     -0.141  0.5407E+01  0.7317E+01
     -0.023  0.6407E+01  0.8358E+01
      0.094  0.5895E+01  0.9345E+01
      0.212  0.5491E+01  0.1023E+02
      0.330  0.5419E+01  0.1115E+02
      0.447  0.5124E+01  0.1203E+02
      0.565  0.4876E+01  0.1286E+02
      0.682  0.6592E+01  0.1397E+02
      0.800  0.7456E+01  0.1519E+02
      0.917  0.7894E+01  0.1654E+02
      1.035  0.7851E+01  0.1786E+02
      1.153  0.1044E+02  0.1955E+02
      1.270  0.9368E+01  0.2114E+02
      1.388  0.1230E+02  0.2320E+02
      1.505  0.7579E+01  0.2457E+02
      1.623  0.6683E+01  0.2576E+02
      1.740  0.6339E+01  0.2680E+02
      1.858  0.7285E+01  0.2805E+02
      1.976  0.8679E+01  0.2952E+02
      2.093  0.9126E+01  0.3114E+02
      2.211  0.7746E+01  0.3258E+02
      2.328  0.7506E+01  0.3388E+02
      2.446  0.7623E+01  0.3524E+02
      2.563  0.8997E+01  0.3678E+02
      2.681  0.1415E+02  0.3901E+02
      2.799  0.1063E+02  0.4116E+02
      2.916  0.2677E+01  0.4194E+02
      3.034  0.1570E+01  0.4215E+02
      3.151  0.7017E+00  0.4228E+02
      3.269  0.1140E+01  0.4248E+02
      3.387  0.1016E+01  0.4265E+02
      3.504  0.8165E+00  0.4280E+02
      3.622  0.8998E+00  0.4296E+02
      3.739  0.9304E+00  0.4312E+02
      3.857  0.7974E+00  0.4326E+02
      3.974  0.8840E+00  0.4342E+02
      4.092  0.7280E+00  0.4354E+02
      4.210  0.1049E+01  0.4372E+02
      4.327  0.7455E+00  0.4383E+02
      4.445  0.8270E+00  0.4396E+02
      4.562  0.9773E+00  0.4411E+02
      4.680  0.1060E+01  0.4426E+02
      4.797  0.6559E+00  0.4435E+02
      4.915  0.9816E+00  0.4450E+02
      5.033  0.6643E+00  0.4462E+02
      5.150  0.5410E+00  0.4474E+02
      5.268  0.7303E+00  0.4487E+02
      5.385  0.6500E+00  0.4500E+02
      5.503  0.9365E+00  0.4512E+02
      5.620  0.4626E+00  0.4522E+02
      5.738  0.7802E+00  0.4534E+02
      5.856  0.7161E+00  0.4548E+02
      5.973  0.3695E+00  0.4557E+02
      6.091  0.7173E+00  0.4570E+02
      6.208  0.6094E+00  0.4581E+02
      6.326  0.7416E+00  0.4595E+02
      6.443  0.6525E+00  0.4606E+02
      6.561  0.3216E+00  0.4613E+02
      6.679  0.1047E+01  0.4626E+02
      6.796  0.7139E+00  0.4637E+02
      6.914  0.6488E+00  0.4648E+02
      7.031  0.4769E+00  0.4654E+02
      7.149  0.4440E+00  0.4665E+02
      7.266  0.4133E+00  0.4671E+02
      7.384  0.9261E+00  0.4686E+02
      7.502  0.2592E+00  0.4691E+02
      7.619  0.3142E+00  0.4700E+02
      7.737  0.3818E+00  0.4707E+02
      7.854  0.2694E+00  0.4714E+02
      7.972  0.3323E+00  0.4722E+02
      8.090  0.5602E+00  0.4733E+02
      8.207  0.2153E+00  0.4736E+02
      8.325  0.2951E+00  0.4743E+02
      8.442  0.3693E+00  0.4748E+02
      8.560  0.2085E+00  0.4755E+02
      8.677  0.4937E+00  0.4764E+02
      8.795  0.8372E+00  0.4777E+02
      8.913  0.5518E+00  0.4786E+02
      9.030  0.7523E+00  0.4800E+02
      9.148  0.8603E+00  0.4814E+02
      9.265  0.9212E+00  0.4828E+02
      9.383  0.5655E+00  0.4838E+02
      9.500  0.9566E+00  0.4854E+02
      9.618  0.7413E+00  0.4868E+02
      9.736  0.6213E+00  0.4878E+02
      9.853  0.6906E+00  0.4893E+02
      9.971  0.7057E+00  0.4907E+02
     10.088  0.6675E+00  0.4919E+02
     10.206  0.8103E+00  0.4935E+02
     10.323  0.5788E+00  0.4943E+02
     10.441  0.8202E+00  0.4958E+02
     10.559  0.6341E+00  0.4969E+02
     10.676  0.7484E+00  0.4981E+02
     10.794  0.8264E+00  0.4992E+02
     10.911  0.8039E+00  0.5005E+02
     11.029  0.5852E+00  0.5015E+02
     11.146  0.7692E+00  0.5026E+02
     11.264  0.6979E+00  0.5036E+02
     11.382  0.8774E+00  0.5048E+02
     11.499  0.6684E+00  0.5058E+02
     11.617  0.6623E+00  0.5068E+02
     11.734  0.5541E+00  0.5078E+02
     11.852  0.6653E+00  0.5089E+02
     11.970  0.4685E+00  0.5098E+02
     12.087  0.5633E+00  0.5110E+02
     12.205  0.6406E+00  0.5120E+02
     12.322  0.7756E+00  0.5134E+02
     12.440  0.1069E+01  0.5150E+02
     12.557  0.6862E+00  0.5163E+02
     12.675  0.5902E+00  0.5176E+02
     12.793  0.7252E+00  0.5188E+02
     12.910  0.4905E+00  0.5198E+02
     13.028  0.1187E+01  0.5219E+02
     13.145  0.8507E+00  0.5235E+02
     13.263  0.7009E+00  0.5251E+02
     13.380  0.7808E+00  0.5265E+02
     13.498  0.8511E+00  0.5278E+02
     13.616  0.9881E+00  0.5294E+02
     13.733  0.8925E+00  0.5313E+02
     13.851  0.8951E+00  0.5333E+02
     13.968  0.8528E+00  0.5348E+02
     14.086  0.7919E+00  0.5360E+02
     14.203  0.9118E+00  0.5375E+02
     14.321  0.8574E+00  0.5389E+02
     14.439  0.1042E+01  0.5407E+02
     14.556  0.1016E+01  0.5424E+02
     14.674  0.8198E+00  0.5443E+02
     14.791  0.1048E+01  0.5459E+02
     14.909  0.7037E+00  0.5473E+02
     15.026  0.8871E+00  0.5488E+02
     15.144  0.1036E+01  0.5506E+02
     15.262  0.1096E+01  0.5526E+02
     15.379  0.8118E+00  0.5540E+02
     15.497  0.5532E+00  0.5554E+02
     15.614  0.1355E+01  0.5575E+02
     15.732  0.1003E+01  0.5591E+02
     15.850  0.1162E+01  0.5608E+02
     15.967  0.1154E+01  0.5626E+02
     16.085  0.1113E+01  0.5644E+02
     16.202  0.6883E+00  0.5659E+02
     16.320  0.8401E+00  0.5675E+02
     16.437  0.9766E+00  0.5690E+02
     16.555  0.1213E+01  0.5711E+02
     16.673  0.1061E+01  0.5731E+02
     16.790  0.1092E+01  0.5747E+02
     16.908  0.6889E+00  0.5760E+02
     17.025  0.1285E+01  0.5781E+02
     17.143  0.1173E+01  0.5801E+02
     17.260  0.8624E+00  0.5819E+02
     17.378  0.8033E+00  0.5832E+02
     17.496  0.1241E+01  0.5851E+02
     17.613  0.1203E+01  0.5872E+02
     17.731  0.9979E+00  0.5891E+02
     17.848  0.8615E+00  0.5907E+02
     17.966  0.1298E+01  0.5927E+02
     18.083  0.1454E+01  0.5951E+02
     18.201  0.9641E+00  0.5966E+02
     18.319  0.1119E+01  0.5987E+02
     18.436  0.1044E+01  0.6004E+02
     18.554  0.1200E+01  0.6025E+02
     18.671  0.8995E+00  0.6043E+02
     18.789  0.1015E+01  0.6060E+02
     18.906  0.9415E+00  0.6077E+02
     19.024  0.9325E+00  0.6093E+02
     19.142  0.1232E+01  0.6114E+02
     19.259  0.8312E+00  0.6127E+02
     19.377  0.8081E+00  0.6144E+02
     19.494  0.1209E+01  0.6160E+02
     19.612  0.1022E+01  0.6175E+02
     19.729  0.8071E+00  0.6188E+02
     19.847  0.5245E+00  0.6196E+02
     19.965  0.7447E+00  0.6208E+02
     20.082  0.7946E+00  0.6219E+02
     20.200  0.6440E+00  0.6231E+02
     20.317  0.6020E+00  0.6241E+02
     20.435  0.2742E+00  0.6245E+02
     20.553  0.5800E+00  0.6256E+02
     20.670  0.6959E+00  0.6266E+02
     20.788  0.1754E+00  0.6271E+02
     20.905  0.3003E+00  0.6278E+02
     21.023  0.4884E+00  0.6285E+02
     21.140  0.4353E+00  0.6292E+02
     21.258  0.2441E+00  0.6297E+02
     21.376  0.2971E+00  0.6302E+02
     21.493  0.2720E+00  0.6307E+02
     21.611  0.4070E+00  0.6314E+02
     21.728  0.4586E+00  0.6322E+02
     21.846  0.2012E-01  0.6323E+02
     21.963  0.2876E+00  0.6327E+02
     22.081  0.2744E+00  0.6332E+02
     22.199  0.2773E+00  0.6337E+02
     22.316  0.5477E-01  0.6339E+02
     22.434  0.2657E+00  0.6344E+02
     22.551  0.1868E+00  0.6347E+02
     22.669  0.2629E+00  0.6350E+02
     22.786  0.2494E+00  0.6355E+02
     22.904  0.8917E-01  0.6356E+02
     23.022  0.3991E-01  0.6358E+02
     23.139  0.4298E+00  0.6363E+02
     23.257  0.1772E+00  0.6366E+02
     23.374  0.9147E-12  0.6366E+02
     23.492  0.2657E+00  0.6369E+02
     23.609  0.1077E+00  0.6370E+02
     23.727  0.3536E+00  0.6375E+02
     23.845  0.5989E-01  0.6375E+02
     23.962  0.5940E-01  0.6378E+02
     24.080  0.1512E-02  0.6378E+02
     24.197  0.1490E+00  0.6381E+02
     24.315  0.1067E+00  0.6383E+02
     24.433  0.6353E-04  0.6384E+02
     24.550  0.5174E-01  0.6385E+02
     24.668  0.5906E-01  0.6386E+02
     24.785  0.1475E+00  0.6388E+02
     24.903  0.1380E+00  0.6390E+02
     25.020  0.5906E-01  0.6391E+02
     25.138  0.5905E-01  0.6391E+02
     25.256  0.8859E-01  0.6392E+02
     25.373  0.9595E-01  0.6394E+02
     25.491  0.9562E-04  0.6394E+02
     25.608  0.2953E-01  0.6395E+02
     25.726  0.5906E-01  0.6396E+02
     25.843  0.1243E-06  0.6396E+02
     25.961  0.2868E-01  0.6397E+02
     26.079  0.6670E-01  0.6398E+02
     26.196  0.8860E-01  0.6399E+02
     26.314  0.0000E+00  0.6399E+02
     26.431  0.3076E-01  0.6399E+02
     26.549  0.4503E-02  0.6400E+02
     26.666  0.9844E-02  0.6400E+02
     26.784  0.0000E+00  0.6400E+02
     26.902  0.0000E+00  0.6400E+02
     27.019  0.0000E+00  0.6400E+02
     27.137  0.0000E+00  0.6400E+02
     27.254  0.0000E+00  0.6400E+02
     27.372  0.0000E+00  0.6400E+02
     27.489  0.0000E+00  0.6400E+02
     27.607  0.0000E+00  0.6400E+02
     27.725  0.0000E+00  0.6400E+02
     27.842  0.0000E+00  0.6400E+02
     27.960  0.0000E+00  0.6400E+02
     28.077  0.0000E+00  0.6400E+02
     28.195  0.0000E+00  0.6400E+02
