    4    4    1    1
  0.1097545E+02  0.3527719E-09  0.3527719E-09  0.3527719E-09  0.5000000E-15
  1.000000000000000E-004
  CAR 
 unknown system                          
   44  455   32
 
  0.0000000E+00  0.0000000E+00  0.0000000E+00  0.7233796E-04
   1       -5.4744
   2       -0.9020
   3       -0.9020
   4       -0.9020
   5       -0.4002
   6       -0.4002
   7       -0.4002
   8        1.1590
   9        1.1590
  10        1.1590
  11        2.0868
  12        2.0868
  13        2.7020
  14        2.7020
  15        2.7020
  16        2.8750
  17        2.8750
  18        2.8750
  19        2.8750
  20        2.8750
  21        2.8750
  22        5.9080
  23        5.9080
  24        5.9080
  25       12.0966
  26       12.0966
  27       12.0966
  28       18.2221
  29       18.2221
  30       18.2221
  31       18.2221
  32       18.2221
 
  0.4166667E-01  0.0000000E+00  0.0000000E+00  0.4340278E-03
   1       -5.4521
   2       -0.9015
   3       -0.8912
   4       -0.8912
   5       -0.3940
   6       -0.3936
   7       -0.3936
   8        1.1519
   9        1.1646
  10        1.1646
  11        2.0803
  12        2.0893
  13        2.6937
  14        2.6937
  15        2.6993
  16        2.8293
  17        2.8293
  18        2.8651
  19        2.8651
  20        2.8750
  21        2.8750
  22        5.7669
  23        5.9731
  24        5.9731
  25       12.1038
  26       12.1038
  27       12.2803
  28       18.0576
  29       18.0576
  30       18.1261
  31       18.1261
  32       18.2554
 
  0.8333333E-01  0.0000000E+00  0.0000000E+00  0.4340278E-03
   1       -5.3853
   2       -0.9007
   3       -0.8589
   4       -0.8589
   5       -0.3752
   6       -0.3737
   7       -0.3737
   8        1.1308
   9        1.1814
  10        1.1814
  11        2.0611
  12        2.0970
  13        2.6689
  14        2.6689
  15        2.6913
  16        2.7031
  17        2.7031
  18        2.8359
  19        2.8359
  20        2.8750
  21        2.8750
  22        5.3887
  23        6.1580
  24        6.1580
  25       12.1259
  26       12.1259
  27       12.7874
  28       17.6264
  29       17.6264
  30       17.8591
  31       17.8591
  32       18.3548
 
  0.1250000E+00  0.0000000E+00  0.0000000E+00  0.4340278E-03
   1       -5.2744
   2       -0.9029
   3       -0.8064
   4       -0.8064
   5       -0.3443
   6       -0.3404
   7       -0.3404
   8        1.0961
   9        1.2092
  10        1.2092
  11        2.0298
  12        2.1097
  13        2.5199
  14        2.5199
  15        2.6281
  16        2.6281
  17        2.6781
  18        2.7885
  19        2.7885
  20        2.8751
  21        2.8751
  22        4.8646
  23        6.4386
  24        6.4386
  25       12.1632
  26       12.1632
  27       13.5287
  28       17.0400
  29       17.0400
  30       17.4699
  31       17.4699
  32       18.5191
 
  0.1666667E+00  0.0000000E+00  0.0000000E+00  0.4340278E-03
   1       -5.1201
   2       -0.9136
   3       -0.7355
   4       -0.7355
   5       -0.3016
   6       -0.2936
   7       -0.2936
   8        1.0485
   9        1.2479
  10        1.2479
  11        1.9872
  12        2.1271
  13        2.3033
  14        2.3033
  15        2.5726
  16        2.5726
  17        2.6599
  18        2.7244
  19        2.7244
  20        2.8752
  21        2.8752
  22        4.2756
  23        6.7914
  24        6.7914
  25       12.2167
  26       12.2167
  27       14.4277
  28       16.3779
  29       16.3779
  30       17.0099
  31       17.0099
  32       18.7464
 
  0.2083333E+00  0.0000000E+00  0.0000000E+00  0.4340278E-03
   1       -4.9234
   2       -0.9419
   3       -0.6491
   4       -0.6491
   5       -0.2478
   6       -0.2331
   7       -0.2331
   8        0.9889
   9        1.2973
  10        1.2973
  11        1.9348
  12        2.0709
  13        2.0709
  14        2.1490
  15        2.5039
  16        2.5039
  17        2.6371
  18        2.6457
  19        2.6457
  20        2.8753
  21        2.8753
  22        3.6786
  23        7.1986
  24        7.1986
  25       12.2874
  26       12.2874
  27       15.4341
  28       15.6830
  29       15.6830
  30       16.5198
  31       16.5198
  32       19.0344
 
  0.2500000E+00  0.0000000E+00  0.0000000E+00  0.4340278E-03
   1       -4.6857
   2       -1.0004
   3       -0.5510
   4       -0.5510
   5       -0.1836
   6       -0.1588
   7       -0.1588
   8        0.9185
   9        1.3570
  10        1.3570
  11        1.8341
  12        1.8341
  13        1.8746
  14        2.1751
  15        2.4247
  16        2.4247
  17        2.5549
  18        2.5549
  19        2.6101
  20        2.8754
  21        2.8754
  22        3.1146
  23        7.6486
  24        7.6486
  25       12.3765
  26       12.3765
  27       14.9780
  28       14.9780
  29       16.0283
  30       16.0283
  31       16.5172
  32       19.3803
 
  0.2916667E+00  0.0000000E+00  0.0000000E+00  0.4340278E-03
   1       -4.4090
   2       -1.1058
   3       -0.4464
   4       -0.4464
   5       -0.1100
   6       -0.0704
   7       -0.0704
   8        0.8387
   9        1.4265
  10        1.4265
  11        1.6003
  12        1.6003
  13        1.8091
  14        2.2049
  15        2.3388
  16        2.3388
  17        2.4545
  18        2.4545
  19        2.5794
  20        2.6161
  21        2.8755
  22        2.8755
  23        8.1335
  24        8.1335
  25       12.4853
  26       12.4853
  27       14.2749
  28       14.2749
  29       15.5547
  30       15.5547
  31       17.6567
  32       19.7808
 
  0.3333333E+00  0.0000000E+00  0.0000000E+00  0.4340278E-03
   1       -4.0961
   2       -1.2749
   3       -0.3416
   4       -0.3416
   5       -0.0280
   6        0.0323
   7        0.0323
   8        0.7510
   9        1.3741
  10        1.3741
  11        1.5054
  12        1.5054
  13        1.7417
  14        2.2096
  15        2.2379
  16        2.2514
  17        2.2514
  18        2.3472
  19        2.3472
  20        2.5455
  21        2.8756
  22        2.8756
  23        8.6486
  24        8.6486
  25       12.6142
  26       12.6142
  27       13.5806
  28       13.5806
  29       15.1126
  30       15.1126
  31       18.8378
  32       20.2329
 
  0.3750000E+00  0.0000000E+00  0.0000000E+00  0.4340278E-03
   1       -3.7507
   2       -1.5179
   3       -0.2447
   4       -0.2447
   5        0.0609
   6        0.1494
   7        0.1494
   8        0.6571
   9        1.1583
  10        1.1583
  11        1.5929
  12        1.5929
  13        1.6772
  14        1.9104
  15        2.1693
  16        2.1693
  17        2.2355
  18        2.2355
  19        2.2736
  20        2.5090
  21        2.8757
  22        2.8757
  23        9.1903
  24        9.1903
  25       12.7621
  26       12.7621
  27       12.8992
  28       12.8992
  29       14.7129
  30       14.7129
  31       20.0472
  32       20.7333
 
  0.4166667E+00  0.0000000E+00  0.0000000E+00  0.4340278E-03
   1       -3.3783
   2       -1.8303
   3       -0.1651
   4       -0.1651
   5        0.1555
   6        0.2812
   7        0.2812
   8        0.5587
   9        0.9548
  10        0.9548
  11        1.6218
  12        1.6881
  13        1.6881
  14        1.7170
  15        2.1009
  16        2.1009
  17        2.1219
  18        2.1219
  19        2.3115
  20        2.4707
  21        2.8758
  22        2.8758
  23        9.7564
  24        9.7564
  25       12.2332
  26       12.2332
  27       12.9219
  28       12.9219
  29       14.3690
  30       14.3690
  31       21.2716
  32       21.2788
 
  0.4583333E+00  0.0000000E+00  0.0000000E+00  0.4340278E-03
   1       -2.9865
   2       -2.1942
   3       -0.1122
   4       -0.1122
   5        0.2543
   6        0.4278
   7        0.4278
   8        0.4576
   9        0.7648
  10        0.7648
  11        1.5839
  12        1.6129
  13        1.7900
  14        1.7900
  15        2.0085
  16        2.0085
  17        2.0550
  18        2.0550
  19        2.3507
  20        2.4310
  21        2.8758
  22        2.8758
  23       10.3450
  24       10.3450
  25       11.5847
  26       11.5847
  27       13.0695
  28       13.0695
  29       14.1093
  30       14.1093
  31       21.8663
  32       21.8663
 
  0.5000000E+00  0.0000000E+00  0.0000000E+00  0.2170139E-03
   1       -2.5866
   2       -2.5866
   3       -0.0936
   4       -0.0936
   5        0.3555
   6        0.3555
   7        0.5890
   8        0.5890
   9        0.5890
  10        0.5890
  11        1.5755
  12        1.5755
  13        1.8973
  14        1.8973
  15        1.8973
  16        1.8973
  17        2.0388
  18        2.0388
  19        2.3908
  20        2.3908
  21        2.8758
  22        2.8758
  23       10.9549
  24       10.9549
  25       10.9549
  26       10.9549
  27       13.1388
  28       13.1388
  29       14.0025
  30       14.0025
  31       22.4930
  32       22.4930
 
  0.4166667E-01  0.4166667E-01  0.0000000E+00  0.8680556E-03
   1       -5.4298
   2       -0.8905
   3       -0.8905
   4       -0.8803
   5       -0.3874
   6       -0.3874
   7       -0.3870
   8        1.1478
   9        1.1673
  10        1.1701
  11        2.0784
  12        2.0875
  13        2.6854
  14        2.6900
  15        2.6900
  16        2.7917
  17        2.8198
  18        2.8198
  19        2.8651
  20        2.8651
  21        2.8687
  22        5.8319
  23        5.8319
  24        6.0366
  25       12.1111
  26       12.2885
  27       12.2885
  28       17.6783
  29       18.0901
  30       18.0901
  31       18.1589
  32       18.1589
 
  0.8333333E-01  0.4166667E-01  0.0000000E+00  0.1736111E-02
   1       -5.3631
   2       -0.8896
   3       -0.8581
   4       -0.8483
   5       -0.3687
   6       -0.3675
   7       -0.3673
   8        1.1283
   9        1.1826
  10        1.1864
  11        2.0612
  12        2.0937
  13        2.6536
  14        2.6609
  15        2.6731
  16        2.6785
  17        2.7037
  18        2.7919
  19        2.8359
  20        2.8651
  21        2.8653
  22        5.4539
  23        6.0155
  24        6.2172
  25       12.1331
  26       12.3132
  27       12.7975
  28       17.1244
  29       17.6574
  30       17.8908
  31       18.1872
  32       18.2280
 
  0.1250000E+00  0.4166667E-01  0.0000000E+00  0.1736111E-02
   1       -5.2523
   2       -0.8915
   3       -0.8052
   4       -0.7960
   5       -0.3379
   6       -0.3344
   7       -0.3343
   8        1.0942
   9        1.2099
  10        1.2135
  11        2.0304
  12        2.1065
  13        2.4960
  14        2.4988
  15        2.6206
  16        2.6333
  17        2.6566
  18        2.7489
  19        2.7884
  20        2.8644
  21        2.8652
  22        4.9322
  23        6.2930
  24        6.4928
  25       12.1702
  26       12.3550
  27       13.5407
  28       16.4929
  29       17.0697
  30       17.5001
  31       17.9554
  32       18.3476
 
  0.1666667E+00  0.4166667E-01  0.0000000E+00  0.1736111E-02
   1       -5.0982
   2       -0.9018
   3       -0.7340
   4       -0.7256
   5       -0.2955
   6       -0.2879
   7       -0.2878
   8        1.0470
   9        1.2485
  10        1.2511
  11        1.9885
  12        2.1244
  13        2.2837
  14        2.2847
  15        2.5656
  16        2.5757
  17        2.6155
  18        2.7000
  19        2.7243
  20        2.8642
  21        2.8652
  22        4.3495
  23        6.6401
  24        6.8407
  25       12.2230
  26       12.4149
  27       14.4411
  28       15.8266
  29       16.4066
  30       17.0385
  31       17.5452
  32       18.5693
 
  0.2083333E+00  0.4166667E-01  0.0000000E+00  0.1736111E-02
   1       -4.9017
   2       -0.9295
   3       -0.6470
   4       -0.6396
   5       -0.2419
   6       -0.2280
   7       -0.2276
   8        0.9878
   9        1.2977
  10        1.2989
  11        1.9370
  12        2.0518
  13        2.0567
  14        2.1470
  15        2.4976
  16        2.5065
  17        2.5421
  18        2.6456
  19        2.6576
  20        2.8641
  21        2.8653
  22        3.7659
  23        7.0387
  24        7.2438
  25       12.2924
  26       12.4941
  27       15.1505
  28       15.4483
  29       15.7112
  30       16.5469
  31       17.0638
  32       18.8496
 
  0.2500000E+00  0.4166667E-01  0.0000000E+00  0.1736111E-02
   1       -4.6643
   2       -0.9873
   3       -0.5483
   4       -0.5420
   5       -0.1780
   6       -0.1546
   7       -0.1537
   8        0.9179
   9        1.3562
  10        1.3573
  11        1.8158
  12        1.8235
  13        1.8782
  14        2.1739
  15        2.4192
  16        2.4273
  17        2.4327
  18        2.5547
  19        2.6195
  20        2.8642
  21        2.8653
  22        3.2308
  23        7.4770
  24        7.6902
  25       12.3782
  26       12.5941
  27       14.4792
  28       15.0059
  29       16.0542
  30       16.5314
  31       16.5569
  32       19.1854
 
  0.2916667E+00  0.4166667E-01  0.0000000E+00  0.1736111E-02
   1       -4.3880
   2       -1.0919
   3       -0.4428
   4       -0.4377
   5       -0.1048
   6       -0.0674
   7       -0.0657
   8        0.8386
   9        1.4218
  10        1.4268
  11        1.5830
  12        1.5926
  13        1.8157
  14        2.2047
  15        2.2757
  16        2.3341
  17        2.3413
  18        2.4543
  19        2.5747
  20        2.8025
  21        2.8644
  22        2.8653
  23        7.9474
  24        8.1723
  25       12.4773
  26       12.7161
  27       13.8244
  28       14.3027
  29       15.5797
  30       16.0534
  31       17.6695
  32       19.5731
 
  0.3333333E+00  0.4166667E-01  0.0000000E+00  0.1736111E-02
   1       -4.0755
   2       -1.2602
   3       -0.3371
   4       -0.3330
   5       -0.0233
   6        0.0335
   7        0.0364
   8        0.7515
   9        1.3580
  10        1.3687
  11        1.4925
  12        1.5056
  13        1.7555
  14        2.0556
  15        2.2389
  16        2.2476
  17        2.2538
  18        2.3470
  19        2.4640
  20        2.5853
  21        2.8646
  22        2.8654
  23        8.4445
  24        8.6850
  25       12.5639
  26       12.8606
  27       13.2168
  28       13.6086
  29       15.1375
  30       15.5724
  31       18.8451
  32       20.0089
 
  0.3750000E+00  0.4166667E-01  0.0000000E+00  0.1736111E-02
   1       -3.7306
   2       -1.5024
   3       -0.2392
   4       -0.2359
   5        0.0652
   6        0.1484
   7        0.1530
   8        0.6582
   9        1.1436
  10        1.1549
  11        1.5549
  12        1.5930
  13        1.7147
  14        1.8296
  15        2.1664
  16        2.1715
  17        2.2354
  18        2.2758
  19        2.3007
  20        2.5271
  21        2.8647
  22        2.8654
  23        8.9648
  24        9.2248
  25       12.3776
  26       12.9188
  27       12.9276
  28       13.0252
  29       14.7400
  30       15.1272
  31       20.0278
  32       20.4887
 
  0.4166667E+00  0.4166667E-01  0.0000000E+00  0.1736111E-02
   1       -3.3588
   2       -1.8140
   3       -0.1585
   4       -0.1561
   5        0.1593
   6        0.2775
   7        0.2840
   8        0.5603
   9        0.9418
  10        0.9532
  11        1.5689
  12        1.6654
  13        1.6881
  14        1.7392
  15        2.0989
  16        2.1026
  17        2.1217
  18        2.1634
  19        2.3151
  20        2.4830
  21        2.8649
  22        2.8653
  23        9.5055
  24        9.7893
  25       11.8221
  26       12.2622
  27       13.0246
  28       13.1982
  29       14.4058
  30       14.7299
  31       21.0079
  32       21.0103
 
  0.4583333E+00  0.4166667E-01  0.0000000E+00  0.1736111E-02
   1       -2.9677
   2       -2.1771
   3       -0.1045
   4       -0.1031
   5        0.2575
   6        0.4214
   7        0.4297
   8        0.4598
   9        0.7537
  10        0.7646
  11        1.5482
  12        1.5743
  13        1.7899
  14        1.8223
  15        2.0084
  16        2.0400
  17        2.0541
  18        2.0560
  19        2.3559
  20        2.4402
  21        2.8651
  22        2.8653
  23       10.0644
  24       10.3766
  25       11.2277
  26       11.6143
  27       13.1924
  28       13.3347
  29       14.1845
  30       14.3984
  31       21.5618
  32       21.6528
 
  0.5000000E+00  0.4166667E-01  0.0000000E+00  0.8680556E-03
   1       -2.5686
   2       -2.5686
   3       -0.0850
   4       -0.0850
   5        0.3583
   6        0.3583
   7        0.5801
   8        0.5801
   9        0.5899
  10        0.5899
  11        1.5419
  12        1.5419
  13        1.8972
  14        1.8972
  15        1.9259
  16        1.9259
  17        2.0389
  18        2.0389
  19        2.3978
  20        2.3978
  21        2.8652
  22        2.8652
  23       10.6394
  24       10.6394
  25       10.9854
  26       10.9854
  27       13.3323
  28       13.3323
  29       14.1818
  30       14.1818
  31       22.1448
  32       22.1457
 
  0.8333333E-01  0.8333333E-01  0.0000000E+00  0.8680556E-03
   1       -5.2966
   2       -0.8566
   3       -0.8566
   4       -0.8167
   5       -0.3492
   6       -0.3492
   7       -0.3480
   8        1.1149
   9        1.1920
  10        1.2015
  11        2.0541
  12        2.0910
  13        2.5771
  14        2.6138
  15        2.6138
  16        2.6371
  17        2.6995
  18        2.6995
  19        2.8359
  20        2.8359
  21        2.8501
  22        5.6365
  23        5.6365
  24        6.3871
  25       12.1547
  26       12.8279
  27       12.8279
  28       16.4562
  29       17.7499
  30       17.7499
  31       17.9854
  32       17.9854
 
  0.1250000E+00  0.8333333E-01  0.0000000E+00  0.1736111E-02
   1       -5.1862
   2       -0.8576
   3       -0.8029
   4       -0.7654
   5       -0.3188
   6       -0.3165
   7       -0.3159
   8        1.0852
   9        1.2156
  10        1.2264
  11        2.0290
  12        2.1003
  13        2.4215
  14        2.4445
  15        2.5525
  16        2.5981
  17        2.6397
  18        2.6873
  19        2.7883
  20        2.8358
  21        2.8410
  22        5.1178
  23        5.9084
  24        6.6495
  25       12.1908
  26       12.8794
  27       13.5768
  28       15.7575
  29       17.1582
  30       17.5902
  31       17.9026
  32       18.1419
 
  0.1666667E+00  0.8333333E-01  0.0000000E+00  0.1736111E-02
   1       -5.0326
   2       -0.8666
   3       -0.7303
   4       -0.6961
   5       -0.2770
   6       -0.2708
   7       -0.2706
   8        1.0407
   9        1.2522
  10        1.2607
  11        1.9901
  12        2.1185
  13        2.2275
  14        2.2287
  15        2.4684
  16        2.5448
  17        2.5810
  18        2.6673
  19        2.7241
  20        2.8358
  21        2.8366
  22        4.5448
  23        6.2437
  24        6.9845
  25       12.2413
  26       12.9530
  27       14.4813
  28       15.0564
  29       16.4922
  30       17.1241
  31       18.1133
  32       18.2514
 
  0.2083333E+00  0.8333333E-01  0.0000000E+00  0.1736111E-02
   1       -4.8369
   2       -0.8925
   3       -0.6417
   4       -0.6116
   5       -0.2242
   6       -0.2128
   7       -0.2113
   8        0.9835
   9        1.3003
  10        1.3039
  11        1.9416
  12        1.9974
  13        2.0132
  14        2.1428
  15        2.3588
  16        2.4789
  17        2.5117
  18        2.6395
  19        2.6453
  20        2.8345
  21        2.8356
  22        3.9797
  23        6.6243
  24        7.3761
  25       12.3046
  26       13.0497
  27       14.3702
  28       15.4908
  29       15.7952
  30       16.6284
  31       17.8728
  32       18.3791
 
  0.2500000E+00  0.8333333E-01  0.0000000E+00  0.1736111E-02
   1       -4.6004
   2       -0.9483
   3       -0.5410
   4       -0.5153
   5       -0.1613
   6       -0.1419
   7       -0.1384
   8        0.9154
   9        1.3545
  10        1.3592
  11        1.7631
  12        1.7911
  13        1.8871
  14        2.1722
  15        2.2189
  16        2.4027
  17        2.4327
  18        2.5543
  19        2.6030
  20        2.8334
  21        2.8355
  22        3.4714
  23        7.0388
  24        7.8129
  25       12.3726
  26       13.1710
  27       13.7162
  28       15.0891
  29       16.1321
  30       16.5736
  31       17.4158
  32       18.6966
 
  0.2916667E+00  0.8333333E-01  0.0000000E+00  0.1736111E-02
   1       -4.3252
   2       -1.0506
   3       -0.4331
   4       -0.4119
   5       -0.0892
   6       -0.0584
   7       -0.0517
   8        0.8379
   9        1.4096
  10        1.4282
  11        1.5331
  12        1.5692
  13        1.8320
  14        2.0462
  15        2.2060
  16        2.3200
  17        2.3470
  18        2.4539
  19        2.5540
  20        2.8330
  21        2.8353
  22        3.0618
  23        7.4800
  24        8.2870
  25       12.3996
  26       13.1462
  27       13.3172
  28       14.3859
  29       15.6556
  30       16.9284
  31       17.7059
  32       19.0620
 
  0.3333333E+00  0.8333333E-01  0.0000000E+00  0.1736111E-02
   1       -4.0140
   2       -1.2165
   3       -0.3246
   4       -0.3075
   5       -0.0090
   6        0.0374
   7        0.0488
   8        0.7525
   9        1.3116
  10        1.3527
  11        1.4621
  12        1.5066
  13        1.7864
  14        1.8543
  15        2.2360
  16        2.2437
  17        2.2594
  18        2.3466
  19        2.4799
  20        2.7788
  21        2.8329
  22        2.8351
  23        7.9432
  24        8.7930
  25       12.1614
  26       12.8880
  27       13.4865
  28       13.6923
  29       15.2151
  30       16.4404
  31       18.8559
  32       19.4712
 
  0.3750000E+00  0.8333333E-01  0.0000000E+00  0.1736111E-02
   1       -3.6707
   2       -1.4562
   3       -0.2235
   4       -0.2100
   5        0.0781
   6        0.1455
   7        0.1635
   8        0.6609
   9        1.1014
  10        1.1449
  11        1.4957
  12        1.5937
  13        1.6794
  14        1.7705
  15        2.1574
  16        2.1765
  17        2.2349
  18        2.2848
  19        2.3640
  20        2.6213
  21        2.8330
  22        2.8349
  23        8.4256
  24        9.3273
  25       11.6438
  26       12.9578
  27       13.0123
  28       13.6674
  29       14.8316
  30       15.9706
  31       19.8972
  32       19.9197
 
  0.4166667E+00  0.8333333E-01  0.0000000E+00  0.1736111E-02
   1       -3.3008
   2       -1.7653
   3       -0.1392
   4       -0.1292
   5        0.1707
   6        0.2667
   7        0.2924
   8        0.5649
   9        0.9043
  10        0.9481
  11        1.4956
  12        1.5545
  13        1.6885
  14        1.8044
  15        2.0927
  16        2.1065
  17        2.1214
  18        2.2272
  19        2.3287
  20        2.5370
  21        2.8333
  22        2.8346
  23        8.9253
  24        9.8872
  25       11.0795
  26       12.3485
  27       13.1229
  28       13.8079
  29       14.5633
  30       15.5316
  31       20.4032
  32       20.5999
 
  0.4583333E+00  0.8333333E-01  0.0000000E+00  0.1736111E-02
   1       -2.9117
   2       -2.1258
   3       -0.0818
   4       -0.0763
   5        0.2673
   6        0.4025
   7        0.4355
   8        0.4661
   9        0.7215
  10        0.7637
  11        1.4770
  12        1.4873
  13        1.7901
  14        1.8801
  15        2.0081
  16        2.0507
  17        2.0580
  18        2.0971
  19        2.3752
  20        2.4767
  21        2.8336
  22        2.8342
  23        9.4412
  24       10.4707
  25       10.5196
  26       11.7026
  27       13.3298
  28       13.7645
  29       14.5576
  30       15.1343
  31       20.9171
  32       21.1892
 
  0.5000000E+00  0.8333333E-01  0.0000000E+00  0.8680556E-03
   1       -2.5149
   2       -2.5149
   3       -0.0596
   4       -0.0596
   5        0.3663
   6        0.3663
   7        0.5540
   8        0.5540
   9        0.5927
  10        0.5927
  11        1.4672
  12        1.4672
  13        1.8971
  14        1.8971
  15        1.9804
  16        1.9804
  17        2.0383
  18        2.0383
  19        2.4242
  20        2.4242
  21        2.8339
  22        2.8339
  23        9.9728
  24        9.9728
  25       11.0763
  26       11.0763
  27       13.5589
  28       13.5589
  29       14.7941
  30       14.7941
  31       21.4568
  32       21.4569
 
  0.1250000E+00  0.1250000E+00  0.0000000E+00  0.8680556E-03
   1       -5.0765
   2       -0.8023
   3       -0.8023
   4       -0.7156
   5       -0.2869
   6       -0.2869
   7       -0.2852
   8        1.0629
   9        1.2326
  10        1.2475
  11        2.0158
  12        2.1015
  13        2.2960
  14        2.3655
  15        2.3655
  16        2.5612
  17        2.6383
  18        2.6383
  19        2.7881
  20        2.7881
  21        2.8192
  22        5.3871
  23        5.3871
  24        6.8947
  25       12.2243
  26       13.6377
  27       13.6377
  28       15.0159
  29       17.3041
  30       17.3041
  31       17.7396
  32       17.7396
 
  0.1666667E+00  0.1250000E+00  0.0000000E+00  0.1736111E-02
   1       -4.9238
   2       -0.8091
   3       -0.7276
   4       -0.6482
   5       -0.2461
   6       -0.2423
   7       -0.2421
   8        1.0249
   9        1.2639
  10        1.2765
  11        1.9855
  12        2.1165
  13        2.1303
  14        2.1451
  15        2.2637
  16        2.5106
  17        2.5817
  18        2.6266
  19        2.7237
  20        2.7879
  21        2.8042
  22        4.8166
  23        5.7122
  24        7.2123
  25       12.2676
  26       13.7239
  27       14.2934
  28       14.5488
  29       16.6335
  30       17.2663
  31       17.5053
  32       17.9471
 
  0.2083333E+00  0.1250000E+00  0.0000000E+00  0.1736111E-02
   1       -4.7293
   2       -0.8323
   3       -0.6362
   4       -0.5660
   5       -0.1947
   6       -0.1873
   7       -0.1842
   8        0.9728
   9        1.3085
  10        1.3123
  11        1.9135
  12        1.9395
  13        1.9431
  14        2.1383
  15        2.1421
  16        2.4478
  17        2.5138
  18        2.6037
  19        2.6448
  20        2.7875
  21        2.7951
  22        4.2575
  23        6.0754
  24        7.5879
  25       12.3083
  26       13.6135
  27       13.8363
  28       15.5613
  29       15.9337
  30       16.7642
  31       17.7590
  32       18.2120
 
  0.2500000E+00  0.1250000E+00  0.0000000E+00  0.1736111E-02
   1       -4.4944
   2       -0.8846
   3       -0.5321
   4       -0.4720
   5       -0.1335
   6       -0.1205
   7       -0.1131
   8        0.9089
   9        1.3528
  10        1.3651
  11        1.6818
  12        1.7362
  13        1.8951
  14        1.9896
  15        2.1751
  16        2.3753
  17        2.4360
  18        2.5537
  19        2.5688
  20        2.7871
  21        2.7897
  22        3.7531
  23        6.4666
  24        8.0107
  25       12.2815
  26       13.0476
  27       13.9747
  28       15.2264
  29       16.2635
  30       16.6415
  31       18.0618
  32       18.3106
 
  0.2916667E+00  0.1250000E+00  0.0000000E+00  0.1736111E-02
   1       -4.2211
   2       -0.9831
   3       -0.4201
   4       -0.3704
   5       -0.0633
   6       -0.0429
   7       -0.0287
   8        0.8350
   9        1.3937
  10        1.4325
  11        1.4561
  12        1.5295
  13        1.8238
  14        1.8491
  15        2.2142
  16        2.2964
  17        2.3512
  18        2.4532
  19        2.5196
  20        2.7865
  21        2.7866
  22        3.3344
  23        6.8802
  24        8.4729
  25       11.9669
  26       12.8211
  27       14.1365
  28       14.5231
  29       15.7872
  30       17.7552
  31       17.8781
  32       18.4100
 
  0.3333333E+00  0.1250000E+00  0.0000000E+00  0.1736111E-02
   1       -3.9122
   2       -1.1450
   3       -0.3068
   4       -0.2666
   5        0.0148
   6        0.0446
   7        0.0692
   8        0.7530
   9        1.2402
  10        1.3253
  11        1.4265
  12        1.5096
  13        1.6587
  14        1.8168
  15        2.2163
  16        2.2584
  17        2.2641
  18        2.3459
  19        2.4516
  20        2.7848
  21        2.7861
  22        3.0169
  23        7.3128
  24        8.9688
  25       11.4246
  26       12.8768
  27       13.8303
  28       14.3076
  29       15.3629
  30       17.4139
  31       18.7999
  32       18.8019
 
  0.3750000E+00  0.1250000E+00  0.0000000E+00  0.1736111E-02
   1       -3.5716
   2       -1.3805
   3       -0.2002
   4       -0.1680
   5        0.0995
   6        0.1414
   7        0.1808
   8        0.6647
   9        1.0363
  10        1.1277
  11        1.4388
  12        1.5206
  13        1.5958
  14        1.8148
  15        2.1418
  16        2.1809
  17        2.2344
  18        2.3071
  19        2.3599
  20        2.7839
  21        2.7856
  22        2.7976
  23        7.7630
  24        9.4947
  25       10.8499
  26       13.0213
  27       13.1520
  28       14.4142
  29       15.0731
  30       16.9480
  31       19.2275
  32       19.5275
 
  0.4166667E+00  0.1250000E+00  0.0000000E+00  0.1736111E-02
   1       -3.2047
   2       -1.6854
   3       -0.1098
   4       -0.0855
   5        0.1895
   6        0.2493
   7        0.3060
   8        0.5718
   9        0.8460
  10        0.9393
  11        1.4260
  12        1.4289
  13        1.6899
  14        1.8525
  15        2.0813
  16        2.1095
  17        2.1210
  18        2.2476
  19        2.3601
  20        2.6547
  21        2.7836
  22        2.7850
  23        8.2304
  24       10.0474
  25       10.2864
  26       12.4906
  27       13.2120
  28       14.2746
  29       15.1046
  30       16.4986
  31       19.6890
  32       20.0762
 
  0.4583333E+00  0.1250000E+00  0.0000000E+00  0.1736111E-02
   1       -2.8193
   2       -2.0416
   3       -0.0462
   4       -0.0325
   5        0.2833
   6        0.3720
   7        0.4448
   8        0.4762
   9        0.6710
  10        0.7620
  11        1.3859