       N       E                     dE             d eps       ncg     rms          rms(c)
DAV:   1     0.333665352681E+03    0.33367E+03   -0.27235E+04 30480   0.293E+03
DAV:   2     0.746539438529E+01   -0.32620E+03   -0.30826E+03 29216   0.437E+02
DAV:   3    -0.179023092227E+02   -0.25368E+02   -0.24751E+02 31712   0.145E+02
DAV:   4    -0.182458976809E+02   -0.34359E+00   -0.34329E+00 32720   0.183E+01
DAV:   5    -0.182465484616E+02   -0.65078E-03   -0.65077E-03 32464   0.767E-01    0.141E+01
DAV:   6    -0.157502435206E+02    0.24963E+01   -0.21437E+01 32136   0.770E+01    0.536E+00
DAV:   7    -0.147435656105E+02    0.10067E+01   -0.36598E+00 33112   0.310E+01    0.135E+00
DAV:   8    -0.146907981551E+02    0.52767E-01   -0.26267E-02 33200   0.128E+00    0.563E-01
DAV:   9    -0.146840516006E+02    0.67466E-02   -0.60405E-03 36152   0.127E+00    0.332E-02
DAV:  10    -0.146841266092E+02   -0.75009E-04   -0.60379E-04 32056   0.186E-01    0.828E-03
DAV:  11    -0.146841248798E+02    0.17294E-05   -0.53386E-05 32504   0.918E-02    0.699E-03
DAV:  12    -0.146841294804E+02   -0.46006E-05   -0.15438E-06 33648   0.218E-02    0.106E-03
DAV:  13    -0.146841300732E+02   -0.59281E-06   -0.61474E-08 32472   0.355E-03    0.300E-04
DAV:  14    -0.146841301509E+02   -0.77717E-07   -0.32850E-09 19608   0.677E-04    0.579E-05
DAV:  15    -0.146841301350E+02    0.15962E-07   -0.52992E-10 17712   0.178E-04    0.358E-05
DAV:  16    -0.146841301398E+02   -0.48285E-08   -0.59329E-11 17000   0.104E-04
   1 F= -.14684130E+02 E0= -.14684081E+02  d E =-.977467E-04
