       N       E                     dE             d eps       ncg     rms          rms(c)
DAV:   1    -0.889072305225E+02   -0.88907E+02   -0.34681E+00   428   0.439E+00    0.831E-01
DAV:   2    -0.888613589249E+02    0.45872E-01   -0.14436E-01   476   0.266E+00    0.405E-01
DAV:   3    -0.888595253889E+02    0.18335E-02   -0.24551E-02   448   0.626E-01    0.196E-01
DAV:   4    -0.888596557821E+02   -0.13039E-03   -0.16274E-03   448   0.139E-01    0.928E-02
DAV:   5    -0.888596949379E+02   -0.39156E-04   -0.21810E-04   456   0.937E-02    0.213E-02
DAV:   6    -0.888596959692E+02   -0.10313E-05   -0.24965E-05   248   0.355E-02
   1 F= -.88859696E+02 E0= -.88802115E+02  d E =-.172742E+00
