       N       E                     dE             d eps       ncg     rms          rms(c)
DAV:   1    -0.891498107108E+02   -0.89150E+02   -0.34686E+00   424   0.443E+00    0.842E-01
DAV:   2    -0.891024574776E+02    0.47353E-01   -0.15904E-01   472   0.293E+00    0.416E-01
DAV:   3    -0.891003490747E+02    0.21084E-02   -0.25126E-02   444   0.810E-01    0.208E-01
DAV:   4    -0.891005232691E+02   -0.17419E-03   -0.29305E-03   440   0.181E-01    0.989E-02
DAV:   5    -0.891005517354E+02   -0.28466E-04   -0.26986E-04   448   0.107E-01    0.312E-02
DAV:   6    -0.891005576438E+02   -0.59085E-05   -0.44031E-05   440   0.376E-02
   1 F= -.89100558E+02 E0= -.89043744E+02  d E =-.170442E+00
