       N       E                     dE             d eps       ncg     rms          rms(c)
DAV:   1     0.212138305882E+04    0.21214E+04   -0.11534E+05   432   0.976E+02
DAV:   2    -0.592488490482E+00   -0.21220E+04   -0.20153E+04   428   0.337E+02
DAV:   3    -0.948707520166E+02   -0.94278E+02   -0.91498E+02   464   0.773E+01
DAV:   4    -0.959419325256E+02   -0.10712E+01   -0.10664E+01   440   0.813E+00
DAV:   5    -0.959475648801E+02   -0.56324E-02   -0.56287E-02   448   0.527E-01    0.154E+01
DAV:   6    -0.894189503219E+02    0.65286E+01   -0.23369E+01   444   0.171E+01    0.290E+00
DAV:   7    -0.891975522627E+02    0.22140E+00   -0.38788E-01   440   0.142E+00    0.148E+00
DAV:   8    -0.891011009764E+02    0.96451E-01   -0.21295E-02   432   0.452E-01    0.933E-02
DAV:   9    -0.891016401474E+02   -0.53917E-03   -0.16239E-03   448   0.121E-01    0.680E-02
DAV:  10    -0.891014579669E+02    0.18218E-03   -0.15467E-04   440   0.368E-02    0.701E-03
DAV:  11    -0.891014501492E+02    0.78177E-05   -0.41909E-06   240   0.529E-03
   1 F= -.89101450E+02 E0= -.89044621E+02  d E =-.891015E+02
