   4   4   0   0
  0.2402028E+02  0.4580146E-09  0.4580146E-09  0.4580146E-09  0.5000000E-15
  1.000000000000000E-004
  CAR 
 unknown system                          
     16.54509945     -5.58781038  301      1.08521898      1.00000000
     -5.588  0.0000E+00  0.0000E+00
     -5.514  0.0000E+00  0.0000E+00
     -5.440  0.0000E+00  0.0000E+00
     -5.366  0.0000E+00  0.0000E+00
     -5.293  0.0000E+00  0.0000E+00
     -5.219  0.0000E+00  0.0000E+00
     -5.145  0.0000E+00  0.0000E+00
     -5.071  0.0000E+00  0.0000E+00
     -4.998  0.0000E+00  0.0000E+00
     -4.924  0.0000E+00  0.0000E+00
     -4.850  0.0000E+00  0.0000E+00
     -4.776  0.0000E+00  0.0000E+00
     -4.702  0.0000E+00  0.0000E+00
     -4.629  0.9242E-14  0.6818E-15
     -4.555  0.2211E-01  0.1631E-02
     -4.481  0.1347E+00  0.1162E-01
     -4.407  0.2181E+00  0.2775E-01
     -4.334  0.2607E+00  0.4716E-01
     -4.260  0.3255E+00  0.7119E-01
     -4.186  0.3580E+00  0.9774E-01
     -4.112  0.4018E+00  0.1278E+00
     -4.039  0.4890E+00  0.1640E+00
     -3.965  0.5232E+00  0.2028E+00
     -3.891  0.5757E+00  0.2456E+00
     -3.817  0.6624E+00  0.2953E+00
     -3.743  0.7887E+00  0.3543E+00
     -3.670  0.2804E+01  0.5623E+00
     -3.596  0.9631E+01  0.1277E+01
     -3.522  0.1469E+02  0.2371E+01
     -3.448  0.1955E+02  0.3825E+01
     -3.375  0.2587E+02  0.5749E+01
     -3.301  0.2339E+02  0.7493E+01
     -3.227  0.1950E+02  0.8947E+01
     -3.153  0.1510E+02  0.1007E+02
     -3.079  0.1605E+02  0.1127E+02
     -3.006  0.2081E+02  0.1281E+02
     -2.932  0.2159E+02  0.1442E+02
     -2.858  0.1900E+02  0.1584E+02
     -2.784  0.2100E+02  0.1740E+02
     -2.711  0.2825E+02  0.1950E+02
     -2.637  0.2938E+02  0.2169E+02
     -2.563  0.2013E+02  0.2319E+02
     -2.489  0.1782E+02  0.2452E+02
     -2.415  0.2221E+02  0.2617E+02
     -2.342  0.2432E+02  0.2798E+02
     -2.268  0.2541E+02  0.2987E+02
     -2.194  0.2242E+02  0.3154E+02
     -2.120  0.2014E+02  0.3305E+02
     -2.047  0.2002E+02  0.3454E+02
     -1.973  0.2201E+02  0.3618E+02
     -1.899  0.3151E+02  0.3852E+02
     -1.825  0.2461E+02  0.4037E+02
     -1.751  0.8640E+01  0.4101E+02
     -1.678  0.1007E+01  0.4109E+02
     -1.604  0.8261E+00  0.4115E+02
     -1.530  0.1120E+01  0.4123E+02
     -1.456  0.7332E+00  0.4129E+02
     -1.383  0.1075E+01  0.4137E+02
     -1.309  0.8895E+00  0.4143E+02
     -1.235  0.1090E+01  0.4152E+02
     -1.161  0.7983E+00  0.4158E+02
     -1.087  0.1059E+01  0.4165E+02
     -1.014  0.8660E+00  0.4172E+02
     -0.940  0.1057E+01  0.4180E+02
     -0.866  0.9291E+00  0.4187E+02
     -0.792  0.1010E+01  0.4194E+02
     -0.719  0.9294E+00  0.4201E+02
     -0.645  0.1024E+01  0.4209E+02
     -0.571  0.1011E+01  0.4216E+02
     -0.497  0.9566E+00  0.4223E+02
     -0.423  0.1046E+01  0.4231E+02
     -0.350  0.1047E+01  0.4239E+02
     -0.276  0.9276E+00  0.4246E+02
     -0.202  0.1142E+01  0.4254E+02
     -0.128  0.1003E+01  0.4262E+02
     -0.055  0.1012E+01  0.4269E+02
      0.019  0.1154E+01  0.4278E+02
      0.093  0.9505E+00  0.4285E+02
      0.167  0.1181E+01  0.4294E+02
      0.241  0.1065E+01  0.4302E+02
      0.314  0.1131E+01  0.4310E+02
      0.388  0.1018E+01  0.4318E+02
      0.462  0.1259E+01  0.4327E+02
      0.536  0.9727E+00  0.4334E+02
      0.609  0.1301E+01  0.4344E+02
      0.683  0.1078E+01  0.4352E+02
      0.757  0.1182E+01  0.4361E+02
      0.831  0.1117E+01  0.4369E+02
      0.905  0.1299E+01  0.4379E+02
      0.978  0.1141E+01  0.4387E+02
      1.052  0.1163E+01  0.4396E+02
      1.126  0.1339E+01  0.4406E+02
      1.200  0.1199E+01  0.4415E+02
      1.273  0.1211E+01  0.4424E+02
      1.347  0.1349E+01  0.4434E+02
      1.421  0.1356E+01  0.4444E+02
      1.495  0.1298E+01  0.4454E+02
      1.568  0.1374E+01  0.4464E+02
      1.642  0.1305E+01  0.4474E+02
      1.716  0.1377E+01  0.4484E+02
      1.790  0.1256E+01  0.4493E+02
      1.864  0.1420E+01  0.4504E+02
      1.937  0.1317E+01  0.4514E+02
      2.011  0.1255E+01  0.4523E+02
      2.085  0.1248E+01  0.4532E+02
      2.159  0.1379E+01  0.4543E+02
      2.232  0.1239E+01  0.4552E+02
      2.306  0.1087E+01  0.4560E+02
      2.380  0.1469E+01  0.4571E+02
      2.454  0.1198E+01  0.4580E+02
      2.528  0.1218E+01  0.4589E+02
      2.601  0.1260E+01  0.4598E+02
      2.675  0.1164E+01  0.4607E+02
      2.749  0.1204E+01  0.4616E+02
      2.823  0.1076E+01  0.4624E+02
      2.896  0.1315E+01  0.4634E+02
      2.970  0.1239E+01  0.4643E+02
      3.044  0.1292E+01  0.4653E+02
      3.118  0.1079E+01  0.4661E+02
      3.192  0.1504E+01  0.4672E+02
      3.265  0.1637E+01  0.4684E+02
      3.339  0.1485E+01  0.4695E+02
      3.413  0.1684E+01  0.4708E+02
      3.487  0.1600E+01  0.4719E+02
      3.560  0.1647E+01  0.4732E+02
      3.634  0.1577E+01  0.4743E+02
      3.708  0.1560E+01  0.4755E+02
      3.782  0.1777E+01  0.4768E+02
      3.856  0.1555E+01  0.4780E+02
      3.929  0.1538E+01  0.4791E+02
      4.003  0.1571E+01  0.4803E+02
      4.077  0.1676E+01  0.4815E+02
      4.151  0.1413E+01  0.4826E+02
      4.224  0.1440E+01  0.4837E+02
      4.298  0.1644E+01  0.4849E+02
      4.372  0.1332E+01  0.4859E+02
      4.446  0.1563E+01  0.4871E+02
      4.520  0.1437E+01  0.4881E+02
      4.593  0.1415E+01  0.4892E+02
      4.667  0.1435E+01  0.4902E+02
      4.741  0.1503E+01  0.4914E+02
      4.815  0.1279E+01  0.4923E+02
      4.888  0.1493E+01  0.4934E+02
      4.962  0.1231E+01  0.4944E+02
      5.036  0.1615E+01  0.4956E+02
      5.110  0.1232E+01  0.4965E+02
      5.184  0.1503E+01  0.4976E+02
      5.257  0.1301E+01  0.4986E+02
      5.331  0.1459E+01  0.4996E+02
      5.405  0.1343E+01  0.5007E+02
      5.479  0.1404E+01  0.5017E+02
      5.552  0.1632E+01  0.5029E+02
      5.626  0.2092E+01  0.5044E+02
      5.700  0.1950E+01  0.5059E+02
      5.774  0.2068E+01  0.5074E+02
      5.848  0.1590E+01  0.5086E+02
      5.921  0.1936E+01  0.5101E+02
      5.995  0.1712E+01  0.5113E+02
      6.069  0.1347E+01  0.5124E+02
      6.143  0.1539E+01  0.5135E+02
      6.216  0.1559E+01  0.5147E+02
      6.290  0.1568E+01  0.5158E+02
      6.364  0.1774E+01  0.5171E+02
      6.438  0.1375E+01  0.5182E+02
      6.512  0.1904E+01  0.5196E+02
      6.585  0.2079E+01  0.5211E+02
      6.659  0.1945E+01  0.5226E+02
      6.733  0.2036E+01  0.5241E+02
      6.807  0.1740E+01  0.5254E+02
      6.880  0.1902E+01  0.5268E+02
      6.954  0.1642E+01  0.5280E+02
      7.028  0.2125E+01  0.5296E+02
      7.102  0.2146E+01  0.5312E+02
      7.176  0.1950E+01  0.5327E+02
      7.249  0.1483E+01  0.5338E+02
      7.323  0.1769E+01  0.5351E+02
      7.397  0.1803E+01  0.5364E+02
      7.471  0.2334E+01  0.5382E+02
      7.544  0.2028E+01  0.5397E+02
      7.618  0.1586E+01  0.5409E+02
      7.692  0.1571E+01  0.5421E+02
      7.766  0.1997E+01  0.5435E+02
      7.839  0.2063E+01  0.5451E+02
      7.913  0.2134E+01  0.5467E+02
      7.987  0.2071E+01  0.5482E+02
      8.061  0.1857E+01  0.5496E+02
      8.135  0.1717E+01  0.5509E+02
      8.208  0.2221E+01  0.5525E+02
      8.282  0.1836E+01  0.5539E+02
      8.356  0.2267E+01  0.5556E+02
      8.430  0.2180E+01  0.5572E+02
      8.503  0.1798E+01  0.5586E+02
      8.577  0.2112E+01  0.5601E+02
      8.651  0.2128E+01  0.5617E+02
      8.725  0.2183E+01  0.5633E+02
      8.799  0.1982E+01  0.5648E+02
      8.872  0.1927E+01  0.5662E+02
      8.946  0.2459E+01  0.5681E+02
      9.020  0.2166E+01  0.5697E+02
      9.094  0.2097E+01  0.5713E+02
      9.167  0.2138E+01  0.5729E+02
      9.241  0.2216E+01  0.5745E+02
      9.315  0.2194E+01  0.5761E+02
      9.389  0.2095E+01  0.5777E+02
      9.463  0.2505E+01  0.5796E+02
      9.536  0.2455E+01  0.5814E+02
      9.610  0.2051E+01  0.5829E+02
      9.684  0.2434E+01  0.5847E+02
      9.758  0.2174E+01  0.5864E+02
      9.831  0.2036E+01  0.5879E+02
      9.905  0.2931E+01  0.5900E+02
      9.979  0.2650E+01  0.5920E+02
     10.053  0.2357E+01  0.5938E+02
     10.127  0.2650E+01  0.5958E+02
     10.200  0.2212E+01  0.5974E+02
     10.274  0.2627E+01  0.5994E+02
     10.348  0.2293E+01  0.6011E+02
     10.422  0.2546E+01  0.6030E+02
     10.495  0.2150E+01  0.6046E+02
     10.569  0.2540E+01  0.6065E+02
     10.643  0.1986E+01  0.6079E+02
     10.717  0.2206E+01  0.6096E+02
     10.791  0.2235E+01  0.6112E+02
     10.864  0.2115E+01  0.6128E+02
     10.938  0.2117E+01  0.6144E+02
     11.012  0.1877E+01  0.6158E+02
     11.086  0.1825E+01  0.6172E+02
     11.159  0.1594E+01  0.6183E+02
     11.233  0.1835E+01  0.6197E+02
     11.307  0.1410E+01  0.6208E+02
     11.381  0.1589E+01  0.6219E+02
     11.455  0.1123E+01  0.6228E+02
     11.528  0.1514E+01  0.6239E+02
     11.602  0.8786E+00  0.6246E+02
     11.676  0.1018E+01  0.6253E+02
     11.750  0.1262E+01  0.6262E+02
     11.823  0.9081E+00  0.6269E+02
     11.897  0.1001E+01  0.6277E+02
     11.971  0.8606E+00  0.6283E+02
     12.045  0.8889E+00  0.6290E+02
     12.119  0.8188E+00  0.6296E+02
     12.192  0.9545E+00  0.6303E+02
     12.266  0.4615E+00  0.6306E+02
     12.340  0.9980E+00  0.6314E+02
     12.414  0.6609E+00  0.6319E+02
     12.487  0.4682E+00  0.6322E+02
     12.561  0.6937E+00  0.6327E+02
     12.635  0.5702E+00  0.6332E+02
     12.709  0.5362E+00  0.6336E+02
     12.783  0.4997E+00  0.6339E+02
     12.856  0.5225E+00  0.6343E+02
     12.930  0.3210E+00  0.6346E+02
     13.004  0.6084E+00  0.6350E+02
     13.078  0.3473E+00  0.6353E+02
     13.151  0.4452E+00  0.6356E+02
     13.225  0.3701E+00  0.6359E+02
     13.299  0.4281E+00  0.6362E+02
     13.373  0.2628E+00  0.6364E+02
     13.446  0.4488E+00  0.6367E+02
     13.520  0.2567E+00  0.6369E+02
     13.594  0.2686E+00  0.6371E+02
     13.668  0.2942E+00  0.6374E+02
     13.742  0.3238E+00  0.6376E+02
     13.815  0.2542E+00  0.6378E+02
     13.889  0.1824E+00  0.6379E+02
     13.963  0.2822E+00  0.6381E+02
     14.037  0.2382E+00  0.6383E+02
     14.110  0.1825E+00  0.6384E+02
     14.184  0.2089E+00  0.6386E+02
     14.258  0.2440E+00  0.6388E+02
     14.332  0.1578E+00  0.6389E+02
     14.406  0.1493E+00  0.6390E+02
     14.479  0.1306E+00  0.6391E+02
     14.553  0.1750E+00  0.6392E+02
     14.627  0.1611E+00  0.6394E+02
     14.701  0.5576E-01  0.6394E+02
     14.774  0.1598E+00  0.6395E+02
     14.848  0.7230E-01  0.6396E+02
     14.922  0.1163E+00  0.6397E+02
     14.996  0.9176E-01  0.6397E+02
     15.070  0.3585E-01  0.6398E+02
     15.143  0.9723E-01  0.6398E+02
     15.217  0.5128E-01  0.6399E+02
     15.291  0.4342E-01  0.6399E+02
     15.365  0.4017E-01  0.6399E+02
     15.438  0.5172E-01  0.6400E+02
     15.512  0.3310E-01  0.6400E+02
     15.586  0.7043E-03  0.6400E+02
     15.660  0.0000E+00  0.6400E+02
     15.734  0.0000E+00  0.6400E+02
     15.807  0.0000E+00  0.6400E+02
     15.881  0.0000E+00  0.6400E+02
     15.955  0.0000E+00  0.6400E+02
     16.029  0.0000E+00  0.6400E+02
     16.102  0.0000E+00  0.6400E+02
     16.176  0.0000E+00  0.6400E+02
     16.250  0.0000E+00  0.6400E+02
     16.324  0.0000E+00  0.6400E+02
     16.398  0.0000E+00  0.6400E+02
     16.471  0.0000E+00  0.6400E+02
     16.545  0.0000E+00  0.6400E+02
