    4    4    1    1
  0.2402028E+02  0.4580146E-09  0.4580146E-09  0.4580146E-09  0.5000000E-15
  1.000000000000000E-004
  CAR 
 unknown system                          
   44 1330   32
 
  0.0000000E+00  0.0000000E+00  0.0000000E+00  0.2143347E-04
   1       -4.5818
   2       -3.7195
   3       -3.7195
   4       -3.7195
   5       -3.6804
   6       -3.6804
   7       -3.6804
   8       -2.8741
   9       -2.8741
  10       -2.8741
  11       -2.3204
  12       -2.3204
  13       -1.9082
  14       -1.9082
  15       -1.9082
  16       -1.7763
  17       -1.7763
  18       -1.7763
  19       -1.7763
  20       -1.7763
  21       -1.7763
  22        2.9087
  23        2.9087
  24        2.9087
  25        5.5070
  26        5.5070
  27        5.5070
  28       10.0747
  29       10.0747
  30       10.0747
  31       10.0747
  32       10.0747
 
  0.2777778E-01  0.0000000E+00  0.0000000E+00  0.1286008E-03
   1       -4.5756
   2       -3.7175
   3       -3.7169
   4       -3.7169
   5       -3.6790
   6       -3.6781
   7       -3.6781
   8       -2.8757
   9       -2.8724
  10       -2.8724
  11       -2.3220
  12       -2.3196
  13       -1.9104
  14       -1.9104
  15       -1.9090
  16       -1.7831
  17       -1.7831
  18       -1.7790
  19       -1.7790
  20       -1.7763
  21       -1.7763
  22        2.8378
  23        2.9211
  24        2.9211
  25        5.5087
  26        5.5087
  27        5.5887
  28       10.0442
  29       10.0442
  30       10.0445
  31       10.0445
  32       10.0843
 
  0.5555556E-01  0.0000000E+00  0.0000000E+00  0.1286008E-03
   1       -4.5570
   2       -3.7115
   3       -3.7093
   4       -3.7093
   5       -3.6747
   6       -3.6713
   7       -3.6713
   8       -2.8806
   9       -2.8673
  10       -2.8673
  11       -2.3269
  12       -2.3174
  13       -1.9167
  14       -1.9167
  15       -1.9115
  16       -1.8030
  17       -1.8030
  18       -1.7869
  19       -1.7869
  20       -1.7763
  21       -1.7763
  22        2.6472
  23        2.9581
  24        2.9581
  25        5.5141
  26        5.5141
  27        5.8119
  28        9.9566
  29        9.9566
  30        9.9567
  31        9.9567
  32       10.1132
 
  0.8333333E-01  0.0000000E+00  0.0000000E+00  0.1286008E-03
   1       -4.5262
   2       -3.7015
   3       -3.6967
   4       -3.6967
   5       -3.6675
   6       -3.6599
   7       -3.6599
   8       -2.8887
   9       -2.8590
  10       -2.8590
  11       -2.3348
  12       -2.3136
  13       -1.9271
  14       -1.9271
  15       -1.9155
  16       -1.8354
  17       -1.8354
  18       -1.8000
  19       -1.8000
  20       -1.7763
  21       -1.7763
  22        2.3799
  23        3.0190
  24        3.0190
  25        5.5231
  26        5.5231
  27        6.1336
  28        9.8181
  29        9.8181
  30        9.8221
  31        9.8221
  32       10.1612
 
  0.1111111E+00  0.0000000E+00  0.0000000E+00  0.1286008E-03
   1       -4.4832
   2       -3.6878
   3       -3.6793
   4       -3.6793
   5       -3.6576
   6       -3.6440
   7       -3.6440
   8       -2.9000
   9       -2.8473
  10       -2.8473
  11       -2.3456
  12       -2.3083
  13       -1.9416
  14       -1.9416
  15       -1.9211
  16       -1.8793
  17       -1.8793
  18       -1.8180
  19       -1.8180
  20       -1.7763
  21       -1.7763
  22        2.0706
  23        3.1026
  24        3.1026
  25        5.5356
  26        5.5356
  27        6.5190
  28        9.6380
  29        9.6380
  30        9.6530
  31        9.6530
  32       10.2280
 
  0.1388889E+00  0.0000000E+00  0.0000000E+00  0.1286008E-03
   1       -4.4284
   2       -3.6703
   3       -3.6574
   4       -3.6574
   5       -3.6449
   6       -3.6236
   7       -3.6236
   8       -2.9143
   9       -2.8324
  10       -2.8324
  11       -2.3589
  12       -2.3017
  13       -1.9599
  14       -1.9599
  15       -1.9333
  16       -1.9333
  17       -1.9282
  18       -1.8407
  19       -1.8407
  20       -1.7763
  21       -1.7763
  22        1.7410
  23        3.2077
  24        3.2077
  25        5.5517
  26        5.5517
  27        6.9465
  28        9.4257
  29        9.4257
  30        9.4613
  31        9.4613
  32       10.3134
 
  0.1666667E+00  0.0000000E+00  0.0000000E+00  0.1286008E-03
   1       -4.3621
   2       -3.6495
   3       -3.6313
   4       -3.6313
   5       -3.6296
   6       -3.5987
   7       -3.5987
   8       -2.9315
   9       -2.8142
  10       -2.8142
  11       -2.3743
  12       -2.2936
  13       -1.9960
  14       -1.9960
  15       -1.9819
  16       -1.9819
  17       -1.9367
  18       -1.8679
  19       -1.8679
  20       -1.7762
  21       -1.7762
  22        1.4034
  23        3.3327
  24        3.3327
  25        5.5714
  26        5.5714
  27        7.4039
  28        9.1893
  29        9.1893
  30        9.2569
  31        9.2569
  32       10.4170
 
  0.1944444E+00  0.0000000E+00  0.0000000E+00  0.1286008E-03
   1       -4.2848
   2       -3.6256
   3       -3.6117
   4       -3.6016
   5       -3.6016
   6       -3.5693
   7       -3.5693
   8       -2.9515
   9       -2.7930
  10       -2.7930
  11       -2.3912
  12       -2.2842
  13       -2.0659
  14       -2.0659
  15       -2.0071
  16       -2.0071
  17       -1.9466
  18       -1.8991
  19       -1.8991
  20       -1.7762
  21       -1.7762
  22        1.0650
  23        3.4759
  24        3.4759
  25        5.5946
  26        5.5946
  27        7.8840
  28        8.9353
  29        8.9353
  30        9.0477
  31        9.0477
  32       10.5382
 
  0.2222222E+00  0.0000000E+00  0.0000000E+00  0.1286008E-03
   1       -4.1972
   2       -3.5988
   3       -3.5914
   4       -3.5686
   5       -3.5686
   6       -3.5354
   7       -3.5354
   8       -2.9741
   9       -2.7686
  10       -2.7686
  11       -2.4087
  12       -2.2735
  13       -2.1414
  14       -2.1414
  15       -2.0352
  16       -2.0352
  17       -1.9579
  18       -1.9340
  19       -1.9340
  20       -1.7761
  21       -1.7761
  22        0.7302
  23        3.6359
  24        3.6359
  25        5.6212
  26        5.6212
  27        8.3826
  28        8.6689
  29        8.6689
  30        8.8397
  31        8.8397
  32       10.6767
 
  0.2500000E+00  0.0000000E+00  0.0000000E+00  0.1286008E-03
   1       -4.1003
   2       -3.5697
   3       -3.5687
   4       -3.5332
   5       -3.5332
   6       -3.4971
   7       -3.4971
   8       -2.9990
   9       -2.7413
  10       -2.7413
  11       -2.4256
  12       -2.2617
  13       -2.2213
  14       -2.2213
  15       -2.0657
  16       -2.0657
  17       -1.9721
  18       -1.9721
  19       -1.9703
  20       -1.7761
  21       -1.7761
  22        0.4020
  23        3.8111
  24        3.8111
  25        5.6509
  26        5.6509
  27        8.3941
  28        8.3941
  29        8.6373
  30        8.6373
  31        8.8968
  32       10.8319
 
  0.2777778E+00  0.0000000E+00  0.0000000E+00  0.1286008E-03
   1       -3.9957
   2       -3.5439
   3       -3.5387
   4       -3.4960
   5       -3.4960
   6       -3.4545
   7       -3.4545
   8       -3.0261
   9       -2.7112
  10       -2.7112
  11       -2.4402
  12       -2.3042
  13       -2.3042
  14       -2.2487
  15       -2.0979
  16       -2.0979
  17       -2.0129
  18       -2.0129
  19       -1.9838
  20       -1.7761
  21       -1.7761
  22        0.0824
  23        4.0001
  24        4.0001
  25        5.6833
  26        5.6833
  27        8.1138
  28        8.1138
  29        8.4443
  30        8.4443
  31        9.4248
  32       11.0031
 
  0.3055556E+00  0.0000000E+00  0.0000000E+00  0.1286008E-03
   1       -3.8856
   2       -3.5171
   3       -3.5065
   4       -3.4581
   5       -3.4581
   6       -3.4076
   7       -3.4076
   8       -3.0551
   9       -2.6783
  10       -2.6783
  11       -2.4501
  12       -2.3890
  13       -2.3890
  14       -2.2347
  15       -2.1310
  16       -2.1310
  17       -2.0562
  18       -2.0562
  19       -1.9984
  20       -1.7760
  21       -1.7760
  22       -0.2271
  23        4.2017
  24        4.2017
  25        5.7179
  26        5.7179
  27        7.8305
  28        7.8305
  29        8.2637
  30        8.2637
  31        9.9652
  32       11.1898
 
  0.3333333E+00  0.0000000E+00  0.0000000E+00  0.1286008E-03
   1       -3.7730
   2       -3.4885
   3       -3.4739
   4       -3.4206
   5       -3.4206
   6       -3.3564
   7       -3.3564
   8       -3.0858
   9       -2.6429
  10       -2.6429
  11       -2.4747
  12       -2.4747
  13       -2.4519
  14       -2.2198
  15       -2.1640
  16       -2.1640
  17       -2.1013
  18       -2.1013
  19       -2.0138
  20       -1.7760
  21       -1.7760
  22       -0.5249
  23        4.4148
  24        4.4148
  25        5.7537
  26        5.7537
  27        7.5459
  28        7.5459
  29        8.0982
  30        8.0982
  31       10.5172
  32       11.3912
 
  0.3611111E+00  0.0000000E+00  0.0000000E+00  0.1286008E-03
   1       -3.6628
   2       -3.4583
   3       -3.4418
   4       -3.3848
   5       -3.3848
   6       -3.3011
   7       -3.3011
   8       -3.1179
   9       -2.6051
  10       -2.6051
  11       -2.5604
  12       -2.5604
  13       -2.4408
  14       -2.2041
  15       -2.1958
  16       -2.1958
  17       -2.1479
  18       -2.1479
  19       -2.0300
  20       -1.7760
  21       -1.7760
  22       -0.8099
  23        4.6381
  24        4.6381
  25        5.7896
  26        5.7896
  27        7.2616
  28        7.2616
  29        7.9507
  30        7.9507
  31       11.0797
  32       11.6067
 
  0.3888889E+00  0.0000000E+00  0.0000000E+00  0.1286008E-03
   1       -3.5611
   2       -3.4266
   3       -3.4114
   4       -3.3521
   5       -3.3521
   6       -3.2418
   7       -3.2418
   8       -3.1512
   9       -2.6454
  10       -2.6454
  11       -2.5650
  12       -2.5650
  13       -2.4103
  14       -2.2250
  15       -2.2250
  16       -2.1954
  17       -2.1954
  18       -2.1877
  19       -2.0468
  20       -1.7760
  21       -1.7760
  22       -1.0806
  23        4.8710
  24        4.8710
  25        5.8238
  26        5.8238
  27        6.9787
  28        6.9787
  29        7.8237
  30        7.8237
  31       11.6524
  32       11.8356
 
  0.4166667E+00  0.0000000E+00  0.0000000E+00  0.1286008E-03
   1       -3.4750
   2       -3.3938
   3       -3.3846
   4       -3.3242
   5       -3.3242
   6       -3.1854
   7       -3.1786
   8       -3.1786
   9       -2.7292
  10       -2.7292
  11       -2.5229
  12       -2.5229
  13       -2.3529
  14       -2.2501
  15       -2.2501
  16       -2.2435
  17       -2.2435
  18       -2.1708
  19       -2.0641
  20       -1.7759
  21       -1.7759
  22       -1.3351
  23        5.1123
  24        5.1123
  25        5.8542
  26        5.8542
  27        6.6982
  28        6.6982
  29        7.7204
  30        7.7204
  31       12.0772
  32       12.0772
 
  0.4444444E+00  0.0000000E+00  0.0000000E+00  0.1286008E-03
   1       -3.4105
   2       -3.3635
   3       -3.3600
   4       -3.3028
   5       -3.3028
   6       -3.2202
   7       -3.1116
   8       -3.1116
   9       -2.8110
  10       -2.8110
  11       -2.4791
  12       -2.4791
  13       -2.2917
  14       -2.2917
  15       -2.2695
  16       -2.2695
  17       -2.2625
  18       -2.1533
  19       -2.0818
  20       -1.7759
  21       -1.7759
  22       -1.5714
  23        5.3615
  24        5.3615
  25        5.8785
  26        5.8785
  27        6.4211
  28        6.4211
  29        7.6436
  30        7.6436
  31       12.3308
  32       12.3308
 
  0.4722222E+00  0.0000000E+00  0.0000000E+00  0.1286008E-03
   1       -3.3701
   2       -3.3512
   3       -3.3255
   4       -3.2892
   5       -3.2892
   6       -3.2553
   7       -3.0411
   8       -3.0411
   9       -2.8905
  10       -2.8905
  11       -2.4338
  12       -2.4338
  13       -2.3398
  14       -2.3398
  15       -2.2818
  16       -2.2818
  17       -2.1365
  18       -2.1356
  19       -2.0997
  20       -1.7865
  21       -1.7759
  22       -1.7759
  23        5.6176
  24        5.6176
  25        5.8943
  26        5.8943
  27        6.1482
  28        6.1482
  29        7.5962
  30        7.5962
  31       12.5957
  32       12.5957
 
  0.5000000E+00  0.0000000E+00  0.0000000E+00  0.6430041E-04
   1       -3.3518
   2       -3.3518
   3       -3.2905
   4       -3.2905
   5       -3.2846
   6       -3.2846
   7       -2.9674
   8       -2.9674
   9       -2.9674
  10       -2.9674
  11       -2.3873
  12       -2.3873
  13       -2.3873
  14       -2.3873
  15       -2.2860
  16       -2.2860
  17       -2.1177
  18       -2.1177
  19       -1.9764
  20       -1.9764
  21       -1.7759
  22       -1.7759
  23        5.8801
  24        5.8801
  25        5.8801
  26        5.8801
  27        5.8998
  28        5.8998
  29        7.5801
  30        7.5801
  31       12.8710
  32       12.8710
 
  0.2777778E-01  0.2777778E-01  0.0000000E+00  0.2572016E-03
   1       -4.5694
   2       -3.7149
   3       -3.7149
   4       -3.7145
   5       -3.6767
   6       -3.6767
   7       -3.6758
   8       -2.8762
   9       -2.8718
  10       -2.8707
  11       -2.3224
  12       -2.3201
  13       -1.9125
  14       -1.9112
  15       -1.9112
  16       -1.7879
  17       -1.7856
  18       -1.7856
  19       -1.7790
  20       -1.7790
  21       -1.7782
  22        2.8500
  23        2.8500
  24        2.9335
  25        5.5105
  26        5.5907
  27        5.5907
  28        9.9384
  29       10.0538
  30       10.0538
  31       10.0541
  32       10.0541
 
  0.5555556E-01  0.2777778E-01  0.0000000E+00  0.5144033E-03
   1       -4.5509
   2       -3.7089
   3       -3.7073
   4       -3.7072
   5       -3.6724
   6       -3.6699
   7       -3.6686
   8       -2.8806
   9       -2.8673
  10       -2.8657
  11       -2.3268
  12       -2.3182
  13       -1.9188
  14       -1.9178
  15       -1.9139
  16       -1.8067
  17       -1.8053
  18       -1.7933
  19       -1.7869
  20       -1.7791
  21       -1.7790
  22        2.6590
  23        2.8864
  24        2.9704
  25        5.5159
  26        5.5966
  27        5.8143
  28        9.7845
  29        9.9661
  30        9.9661
  31       10.0813
  32       10.0826
 
  0.8333333E-01  0.2777778E-01  0.0000000E+00  0.5144033E-03
   1       -4.5201
   2       -3.6989
   3       -3.6952
   4       -3.6947
   5       -3.6653
   6       -3.6585
   7       -3.6567
   8       -2.8886
   9       -2.8590
  10       -2.8574
  11       -2.3346
  12       -2.3145
  13       -1.9292
  14       -1.9288
  15       -1.9183
  16       -1.8388
  17       -1.8372
  18       -1.8060
  19       -1.8000
  20       -1.7794
  21       -1.7790
  22        2.3912
  23        2.9462
  24        3.0311
  25        5.5248
  26        5.6065
  27        6.1363
  28        9.5937
  29        9.8274
  30        9.8313
  31       10.0111
  32       10.1304
 
  0.1111111E+00  0.2777778E-01  0.0000000E+00  0.5144033E-03
   1       -4.4772
   2       -3.6852
   3       -3.6786
   4       -3.6773
   5       -3.6554
   6       -3.6427
   7       -3.6401
   8       -2.8998
   9       -2.8474
  10       -2.8458
  11       -2.3454
  12       -2.3092
  13       -1.9446
  14       -1.9436
  15       -1.9246
  16       -1.8824
  17       -1.8797
  18       -1.8233
  19       -1.8180
  20       -1.7794
  21       -1.7790
  22        2.0817
  23        3.0283
  24        3.1146
  25        5.5372
  26        5.6205
  27        6.5218
  28        9.3764
  29        9.6471
  30        9.6620
  31        9.8909
  32       10.1968
 
  0.1388889E+00  0.2777778E-01  0.0000000E+00  0.5144033E-03
   1       -4.4225
   2       -3.6678
   3       -3.6578
   4       -3.6554
   5       -3.6427
   6       -3.6223
   7       -3.6187
   8       -2.9140
   9       -2.8325
  10       -2.8310
  11       -2.3586
  12       -2.3024
  13       -1.9673
  14       -1.9619
  15       -1.9362
  16       -1.9327
  17       -1.9293
  18       -1.8450
  19       -1.8408
  20       -1.7794
  21       -1.7789
  22        1.7519
  23        3.1313
  24        3.2194
  25        5.5532
  26        5.6384
  27        6.9493
  28        9.1413
  29        9.4346
  30        9.4702
  31        9.7317
  32       10.2817
 
  0.1666667E+00  0.2777778E-01  0.0000000E+00  0.5144033E-03
   1       -4.3563
   2       -3.6469
   3       -3.6328
   4       -3.6293
   5       -3.6274
   6       -3.5974
   7       -3.5927
   8       -2.9312
   9       -2.8144
  10       -2.8130
  11       -2.3739
  12       -2.2942
  13       -2.0093
  14       -1.9986
  15       -1.9837
  16       -1.9719
  17       -1.9431
  18       -1.8703
  19       -1.8679
  20       -1.7794
  21       -1.7789
  22        1.4142
  23        3.2536
  24        3.3441
  25        5.5727
  26        5.6604
  27        7.4065
  28        8.8951
  29        9.1980
  30        9.2659
  31        9.5447
  32       10.3846
 
  0.1944444E+00  0.2777778E-01  0.0000000E+00  0.5144033E-03
   1       -4.2791
   2       -3.6229
   3       -3.6096
   4       -3.6042
   5       -3.5995
   6       -3.5680
   7       -3.5623
   8       -2.9511
   9       -2.7931
  10       -2.7919
  11       -2.3907
  12       -2.2847
  13       -2.0740
  14       -2.0682
  15       -2.0088
  16       -2.0023
  17       -1.9564
  18       -1.8991
  19       -1.8983
  20       -1.7793
  21       -1.7789
  22        1.0758
  23        3.3935
  24        3.4871
  25        5.5956
  26        5.6864
  27        7.8863
  28        8.6424
  29        8.9439
  30        9.0568
  31        9.3400
  32       10.5051
 
  0.2222222E+00  0.2777778E-01  0.0000000E+00  0.5144033E-03
   1       -4.1917
   2       -3.5962
   3       -3.5893
   4       -3.5722
   5       -3.5665
   6       -3.5342
   7       -3.5276
   8       -2.9736
   9       -2.7688
  10       -2.7678
  11       -2.4079
  12       -2.2739
  13       -2.1479
  14       -2.1434
  15       -2.0368
  16       -2.0319
  17       -1.9743
  18       -1.9340
  19       -1.9265
  20       -1.7793
  21       -1.7789
  22        0.7411
  23        3.5494
  24        3.6468
  25        5.6216
  26        5.7163
  27        8.3843
  28        8.3864
  29        8.6774
  30        8.8491
  31        9.1260
  32       10.6428
 
  0.2500000E+00  0.2777778E-01  0.0000000E+00  0.5144033E-03
   1       -4.0950
   2       -3.5670
   3       -3.5667
   4       -3.5374
   5       -3.5311
   6       -3.4960
   7       -3.4889
   8       -2.9985
   9       -2.7415
  10       -2.7409
  11       -2.4244
  12       -2.2618
  13       -2.2269
  14       -2.2230
  15       -2.0672
  16       -2.0631
  17       -2.0000
  18       -1.9721
  19       -1.9514
  20       -1.7792
  21       -1.7788
  22        0.4130
  23        3.7196
  24        3.8217
  25        5.6505
  26        5.7501
  27        8.1292
  28        8.4025
  29        8.6473
  30        8.8976
  31        8.9096
  32       10.7972
 
  0.2777778E+00  0.2777778E-01  0.0000000E+00  0.5144033E-03
   1       -3.9906
   2       -3.5420
   3       -3.5360
   4       -3.5004
   5       -3.4939
   6       -3.4534
   7       -3.4464
   8       -3.0255
   9       -2.7115
  10       -2.7113
  11       -2.4383
  12       -2.3092
  13       -2.3056
  14       -2.2487
  15       -2.0992
  16       -2.0957
  17       -2.0341
  18       -2.0130
  19       -1.9719
  20       -1.7792
  21       -1.7788
  22        0.0936
  23        3.9026
  24        4.0105
  25        5.6816
  26        5.7872
  27        7.8720
  28        8.1222
  29        8.4553
  30        8.6968
  31        9.4243
  32       10.9678
 
  0.3055556E+00  0.2777778E-01  0.0000000E+00  0.5144033E-03
   1       -3.8807
   2       -3.5152
   3       -3.5037
   4       -3.4621
   5       -3.4560
   6       -3.4065
   7       -3.4001
   8       -3.0544
   9       -2.6798
  10       -2.6785
  11       -2.4470
  12       -2.3935
  13       -2.3902
  14       -2.2345
  15       -2.1322
  16       -2.1291
  17       -2.0739
  18       -2.0563
  19       -1.9900
  20       -1.7791
  21       -1.7788
  22       -0.2156
  23        4.0968
  24        4.2119
  25        5.7140
  26        5.8274
  27        7.6158
  28        7.8388
  29        8.2761
  30        8.4926
  31        9.9627
  32       11.1542
 
  0.3333333E+00  0.2777778E-01  0.0000000E+00  0.5144033E-03
   1       -3.7685
   2       -3.4867
   3       -3.4710
   4       -3.4238
   5       -3.4184
   6       -3.3555
   7       -3.3499
   8       -3.0850
   9       -2.6465
  10       -2.6430
  11       -2.4787
  12       -2.4756
  13       -2.4468
  14       -2.2193
  15       -2.1651
  16       -2.1624
  17       -2.1173
  18       -2.1014
  19       -2.0074
  20       -1.7791
  21       -1.7788
  22       -0.5132
  23        4.3007
  24        4.4246
  25        5.7463
  26        5.8699
  27        7.3614
  28        7.5543
  29        8.1128
  30        8.3017
  31       10.5109
  32       11.3561
 
  0.3611111E+00  0.2777778E-01  0.0000000E+00  0.5144033E-03
   1       -3.6586
   2       -3.4565
   3       -3.4389
   4       -3.3869
   5       -3.3826
   6       -3.3003
   7       -3.2959
   8       -3.1171
   9       -2.6119
  10       -2.6052
  11       -2.5639
  12       -2.5611
  13       -2.4324
  14       -2.2034
  15       -2.1968
  16       -2.1945
  17       -2.1628
  18       -2.1480
  19       -2.0249
  20       -1.7790
  21       -1.7788
  22       -0.7977
  23        4.5126
  24        4.6478
  25        5.7760
  26        5.9137
  27        7.1103
  28        7.2700
  29        7.9684
  30        8.1279
  31       11.0650
  32       11.5725
 
  0.3888889E+00  0.2777778E-01  0.0000000E+00  0.5144033E-03
   1       -3.5571
   2       -3.4250
   3       -3.4085
   4       -3.3532
   5       -3.3499
   6       -3.2411
   7       -3.2379
   8       -3.1503
   9       -2.6485
  10       -2.6459
  11       -2.5760
  12       -2.5652
  13       -2.3979
  14       -2.2258
  15       -2.2239
  16       -2.2099
  17       -2.1955
  18       -2.1867
  19       -2.0427
  20       -1.7790
  21       -1.7788
  22       -1.0678
  23        4.7308
  24        4.8804
  25        5.7989
  26        5.9576
  27        6.8650
  28        6.9871
  29        7.8460
  30        7.9751
  31       11.6022
  32       11.7937
 
  0.4166667E+00  0.2777778E-01  0.0000000E+00  0.5144033E-03
   1       -3.4712
   2       -3.3922
   3       -3.3815
   4       -3.3244
   5       -3.3221
   6       -3.1843
   7       -3.1780
   8       -3.1760
   9       -2.7317
  10       -2.7295
  11       -2.5375
  12       -2.5231
  13       -2.3373
  14       -2.2579
  15       -2.2507
  16       -2.2493
  17       -2.2436
  18       -2.1693
  19       -2.0607
  20       -1.7789
  21       -1.7788
  22       -1.3218
  23        4.9527
  24        5.1216
  25        5.8079
  26        6.0008
  27        6.6313
  28        6.7067
  29        7.7491
  30        7.8471
  31       11.9826
  32       12.0329
 
  0.4444444E+00  0.2777778E-01  0.0000000E+00  0.5144033E-03
   1       -3.4069
   2       -3.3603
   3       -3.3585
   4       -3.3022
   5       -3.3007
   6       -3.2190
   7       -3.1111
   8       -3.1102
   9       -2.8129
  10       -2.8111
  11       -2.4954
  12       -2.4793
  13       -2.3064
  14       -2.2919
  15       -2.2699
  16       -2.2689
  17       -2.2457
  18       -2.1513
  19       -2.0790
  20       -1.7789
  21       -1.7788
  22       -1.5572
  23        5.1743
  24        5.3706
  25        5.7889
  26        6.0434
  27        6.4211
  28        6.4297
  29        7.6812
  30        7.7472
  31       12.2541
  32       12.2838
 
  0.4722222E+00  0.2777778E-01  0.0000000E+00  0.5144033E-03
   1       -3.3666
   2       -3.3479
   3       -3.3240
   4       -3.2880
   5       -3.2873
   6       -3.2541
   7       -3.0408
   8       -3.0407
   9       -2.8918
  10       -2.8905
  11       -2.4502
  12       -2.4340
  13       -2.3549
  14       -2.3399
  15       -2.2820
  16       -2.2815
  17       -2.1375
  18       -2.1155
  19       -2.0974
  20       -1.7789
  21       -1.7788
  22       -1.7712
  23        5.3883
  24        5.6266
  25        5.7181
  26        6.0892
  27        6.1569
  28        6.2560
  29        7.6456
  30        7.6788
  31       12.5210
  32       12.5454
 
  0.5000000E+00  0.2777778E-01  0.0000000E+00  0.2572016E-03
   1       -3.3484
   2       -3.3484
   3       -3.2892
   4       -3.2892
   5       -3.2829
   6       -3.2829
   7       -2.9678
   8       -2.9678
   9       -2.9671
  10       -2.9671
  11       -2.4031
  12       -2.4031
  13       -2.3874
  14       -2.3874
  15       -2.2860
  16       -2.2860
  17       -2.1160
  18       -2.1160
  19       -1.9597
  20       -1.9597
  21       -1.7788
  22       -1.7788
  23        5.5787
  24        5.5787
  25        5.8889
  26        5.8889
  27        6.1513
  28        6.1513
  29        7.6446
  30        7.6446
  31       12.7944
  32       12.8026
 
  0.5555556E-01  0.5555556E-01  0.0000000E+00  0.2572016E-03
   1       -4.5324
   2       -3.7012
   3       -3.7012
   4       -3.7009
   5       -3.6656
   6       -3.6656
   7       -3.6606
   8       -2.8827
   9       -2.8650
  10       -2.8608
  11       -2.3285
  12       -2.3189
  13       -1.9250
  14       -1.9212
  15       -1.9212
  16       -1.8216
  17       -1.8122
  18       -1.8122
  19       -1.7869
  20       -1.7869
  21       -1.7838
  22        2.6940
  23        2.6940
  24        3.0070
  25        5.5211
  26        5.8214
  27        5.8214
  28        9.5764
  29        9.9943
  30        9.9943
  31        9.9945
  32        9.9945
 
  0.8333333E-01  0.5555556E-01  0.0000000E+00  0.5144033E-03
   1       -4.5018
   2       -3.6913
   3       -3.6905
   4       -3.6886
   5       -3.6585
   6       -3.6543
   7       -3.6472
   8       -2.8892
   9       -2.8582
  10       -2.8526
  11       -2.3350
  12       -2.3162
  13       -1.9353
  14       -1.9339
  15       -1.9271
  16       -1.8508
  17       -1.8424
  18       -1.8235
  19       -1.8000
  20       -1.7869
  21       -1.7864
  22        2.4249
  23        2.7515
  24        3.0673
  25        5.5299
  26        5.8332
  27        6.1444
  28        9.3428
  29        9.8552
  30        9.8590
  31       10.0412
  32       10.0416
 
  0.1111111E+00  0.5555556E-01  0.0000000E+00  0.5144033E-03
   1       -4.4591
   2       -3.6775
   3       -3.6759
   4       -3.6712
   5       -3.6487
   6       -3.6385
   7       -3.6288
   8       -2.8997
   9       -2.8471
  10       -2.8412
  11       -2.3452
  12       -2.3111
  13       -1.9533
  14       -1.9495
  15       -1.9355
  16       -1.8927
  17       -1.8812
  18       -1.8386
  19       -1.8180
  20       -1.7875
  21       -1.7869
  22        2.1145
  23        2.8303
  24        3.1502
  25        5.5420
  26        5.8499
  27        6.5303
  28        9.0927
  29        9.6744
  30        9.6892
  31       10.1015
  32       10.1070
 
  0.1388889E+00  0.5555556E-01  0.0000000E+00  0.5144033E-03
   1       -4.4047
   2       -3.6600
   3       -3.6572
   4       -3.6492
   5       -3.6361
   6       -3.6182
   7       -3.6056
   8       -2.9136
   9       -2.8325
  10       -2.8267
  11       -2.3581
  12       -2.3043
  13       -1.9836
  14       -1.9676
  15       -1.9470
  16       -1.9453
  17       -1.9232
  18       -1.8569
  19       -1.8408
  20       -1.7880
  21       -1.7869
  22        1.7842
  23        2.9290
  24        3.2543
  25        5.5576
  26        5.8714
  27        6.9577
  28        8.8329
  29        9.4613
  30        9.4970
  31        9.9962
  32       10.1903
 
  0.1666667E+00  0.5555556E-01  0.0000000E+00  0.5144033E-03
   1       -4.3388
   2       -3.6391
   3       -3.6345
   4       -3.6231
   5       -3.6210
   6       -3.5934
   7       -3.5778
   8       -2.9304
   9       -2.8145
  10       -2.8091
  11       -2.3730
  12       -2.2958
  13       -2.0308
  14       -2.0067
  15       -1.9892
  16       -1.9622
  17       -1.9603
  18       -1.8775
  19       -1.8680
  20       -1.7883
  21       -1.7869
  22        1.4463
  23        3.0459
  24        3.3783
  25        5.5764
  26        5.8976
  27        7.4143
  28        8.5685
  29        9.2242
  30        9.2927
  31        9.8506
  32       10.2919
 
  0.1944444E+00  0.5555556E-01  0.0000000E+00  0.5144033E-03
   1       -4.2620
   2       -3.6151
   3       -3.6079
   4       -3.6032
   5       -3.5933
   6       -3.5642
   7       -3.5457
   8       -2.9501
   9       -2.7934
  10       -2.7885
  11       -2.3892
  12       -2.2859
  13       -2.0933
  14       -2.0753
  15       -2.0140
  16       -1.9926
  17       -1.9820
  18       -1.8993
  19       -1.8989
  20       -1.7884
  21       -1.7870
  22        1.1079
  23        3.1793
  24        3.5205
  25        5.5982
  26        5.9286
  27        7.8929
  28        8.3034
  29        8.9697
  30        9.0842
  31        9.6761
  32       10.4106
 
  0.2222222E+00  0.5555556E-01  0.0000000E+00  0.5144033E-03
   1       -4.1751
   2       -3.5882
   3       -3.5831
   4       -3.5777
   5       -3.5603
   6       -3.5305
   7       -3.5098
   8       -2.9723
   9       -2.7691
  10       -2.7653
  11       -2.4058
  12       -2.2746
  13       -2.1650
  14       -2.1496
  15       -2.0417
  16       -2.0241
  17       -2.0072
  18       -1.9342
  19       -1.9200
  20       -1.7884
  21       -1.7870
  22        0.7734
  23        3.3273
  24        3.6794
  25        5.6226
  26        5.9642
  27        8.0406
  28        8.3890
  29        8.7029
  30        8.8776
  31        9.4827
  32       10.5467
 
  0.2500000E+00  0.5555556E-01  0.0000000E+00  0.5144033E-03
   1       -4.0791
   2       -3.5607
   3       -3.5590
   4       -3.5442
   5       -3.5247
   6       -3.4925
   7       -3.4703
   8       -2.9969
   9       -2.7418
  10       -2.7397
  11       -2.4211