       N       E                     dE             d eps       ncg     rms          rms(c)
DAV:   1     0.497884598698E+03    0.49788E+03   -0.30655E+04 85120   0.223E+03
DAV:   2     0.378275034060E+01   -0.49410E+03   -0.45549E+03 85176   0.451E+02
DAV:   3    -0.105921947298E+02   -0.14375E+02   -0.14229E+02 99632   0.969E+01
DAV:   4    -0.106691094828E+02   -0.76915E-01   -0.76896E-01 89768   0.643E+00
DAV:   5    -0.106693725094E+02   -0.26303E-03   -0.26302E-03101640   0.328E-01    0.396E+00
DAV:   6    -0.101696577398E+02    0.49971E+00   -0.18555E+00 93288   0.129E+01    0.872E-01
DAV:   7    -0.101665714010E+02    0.30863E-02   -0.36830E-02 90184   0.135E+00    0.505E-01
DAV:   8    -0.101653216130E+02    0.12498E-02   -0.53082E-03 92128   0.678E-01    0.404E-02
DAV:   9    -0.101654452761E+02   -0.12366E-03   -0.21914E-04 97864   0.111E-01    0.245E-02
DAV:  10    -0.101654463187E+02   -0.10426E-05   -0.22705E-05 93456   0.363E-02    0.333E-03
DAV:  11    -0.101654459106E+02    0.40814E-06   -0.13098E-06 97496   0.826E-03    0.705E-04
DAV:  12    -0.101654455086E+02    0.40199E-06   -0.65748E-08 90800   0.220E-03    0.221E-04
DAV:  13    -0.101654455101E+02   -0.15261E-08   -0.92780E-10 55824   0.267E-04
   1 F= -.10165446E+02 E0= -.10165408E+02  d E =-.741622E-04
