 running on    4 nodes
 distr:  one band on    1 nodes,    4 groups
 vasp.4.6.28 25Jul05 complex 
 POSCAR found :  1 types and   32 ions

 ----------------------------------------------------------------------------- 
|                                                                             |
|  ADVICE TO THIS USER RUNNING 'VASP/VAMP'   (HEAR YOUR MASTER'S VOICE ...):  |
|                                                                             |
|      You have a (more or less) 'large supercell' and for larger cells       |
|      it might be more efficient to use real space projection operators      |
|      So try LREAL= Auto  in the INCAR   file.                               |
|      Mind: If you want to do an extremely accurate calculations keep the    |
|      reciprocal projection scheme          (i.e. LREAL=.FALSE.)             |
|                                                                             |
 ----------------------------------------------------------------------------- 

 LDA part: xc-table for Pade appr. of Perdew
 found WAVECAR, reading the header
  number of k-points has changed, file:  20 present:  40
  trying to continue reading WAVECAR, but it might fail
 POSCAR, INCAR and KPOINTS ok, starting setup
 FFT: planning ...           1
 reading WAVECAR
 the WAVECAR file was read sucessfully
 initial charge from wavefunction
 entering main loop
       N       E                     dE             d eps       ncg     rms          rms(c)
RMM:   1    -0.895151539993E+02   -0.89515E+02   -0.57112E+02 17457   0.441E+01BRMIX: very serious problems
 the old and the new charge density differ
 old charge density:   344.56010 new  352.00000
    0.691E+00
RMM:   2    -0.881775058895E+02    0.13376E+01   -0.12026E+01 17821   0.114E+01    0.122E+00
RMM:   3    -0.881721289082E+02    0.53770E-02   -0.16690E-01 18301   0.759E-01    0.650E-01
RMM:   4    -0.881721765900E+02   -0.47682E-04   -0.38084E-02 18165   0.615E-01    0.196E-01
RMM:   5    -0.881714842453E+02    0.69234E-03   -0.87596E-03 18167   0.325E-01    0.560E-02
RMM:   6    -0.881714378534E+02    0.46392E-04   -0.11906E-04 18472   0.287E-02    0.338E-02
RMM:   7    -0.881714047603E+02    0.33093E-04   -0.17320E-04 18228   0.433E-02    0.384E-03
RMM:   8    -0.881714012726E+02    0.34877E-05   -0.35615E-06 10170   0.423E-03
   1 F= -.88171401E+02 E0= -.88166403E+02  d E =-.149957E-01

 ----------------------------------------------------------------------------- 
|                                                                             |
|           W    W    AA    RRRRR   N    N  II  N    N   GGGG   !!!           |
|           W    W   A  A   R    R  NN   N  II  NN   N  G    G  !!!           |
|           W    W  A    A  R    R  N N  N  II  N N  N  G       !!!           |
|           W WW W  AAAAAA  RRRRR   N  N N  II  N  N N  G  GGG   !            |
|           WW  WW  A    A  R   R   N   NN  II  N   NN  G    G                |
|           W    W  A    A  R    R  N    N  II  N    N   GGGG   !!!           |
|                                                                             |
|      The partial DOS and the PROCAR file are not evaluated for NPAR/=1      |
|      please rerun with NPAR=1                                               |
|                                                                             |
 ----------------------------------------------------------------------------- 

