 vasp.4.6.28 25Jul05 complex 
 executed on             LinuxIFC date 2017.01.30  12:43:26
 running on    4 nodes
 distr:  one band on    1 nodes,    4 groups


--------------------------------------------------------------------------------------------------------


 INCAR:
 POTCAR:   PAW_PBE Ag 06Sep2000                   
 POTCAR:   PAW_PBE Ag 06Sep2000                   
   VRHFIN =Ag : s1 d10                                                          
   LEXCH  = PE                                                                  
   EATOM  =  1037.4134 eV,   76.2477 Ry                                         
                                                                                
   TITEL  = PAW_PBE Ag 06Sep2000                                                
   LULTRA =        F    use ultrasoft PP ?                                      
   IUNSCR =        1    unscreen: 0-lin 1-nonlin 2-no                           
   RPACOR =    2.000    partial core radius                                     
   POMASS =  107.868; ZVAL   =   11.000    mass and valenz                      
   RCORE  =    2.400    outmost cutoff radius                                   
   RWIGS  =    2.840; RWIGS  =    1.503    wigner-seitz radius (au A)           
   ENMAX  =  249.846; ENMIN  =  187.385 eV                                      
   RCLOC  =    1.962    cutoff for local pot                                    
   LCOR   =        T    correct aug charges                                     
   LPAW   =        T    paw PP                                                  
   EAUG   =  412.496                                                            
   DEXC   =    -.047                                                            
   RMAX   =    2.917    core radius for proj-oper                               
   RAUG   =    1.300    factor for augmentation sphere                          
   RDEP   =    2.416    radius for radial grids                                 
   QCUT   =   -4.285; QGAM   =    8.570    optimization parameters              
                                                                                
   Description                                                                  
     l     E      TYP  RCUT    TYP  RCUT                                        
     2   .000     23  2.400                                                     
     2   .000     23  2.400                                                     
     0   .000     23  2.400                                                     
     0   .000     23  2.400                                                     
     1  -.200     23  2.400                                                     
     1  1.500     23  2.400                                                     
     3   .000      7   .000                                                     
  local pseudopotential read in
  partial core-charges read in
  atomic valenz-charges read in
  non local Contribution for L=           2  read in
    real space projection operators read in
  non local Contribution for L=           2  read in
    real space projection operators read in
  non local Contribution for L=           0  read in
    real space projection operators read in
  non local Contribution for L=           0  read in
    real space projection operators read in
  non local Contribution for L=           1  read in
    real space projection operators read in
  non local Contribution for L=           1  read in
    real space projection operators read in
    PAW grid and wavefunctions read in
 
   number of l-projection  operators is LMAX  =           6
   number of lm-projection operators is LMMAX =          18
 

 ----------------------------------------------------------------------------- 
|                                                                             |
|  ADVICE TO THIS USER RUNNING 'VASP/VAMP'   (HEAR YOUR MASTER'S VOICE ...):  |
|                                                                             |
|      You have a (more or less) 'large supercell' and for larger cells       |
|      it might be more efficient to use real space projection operators      |
|      So try LREAL= Auto  in the INCAR   file.                               |
|      Mind: If you want to do an extremely accurate calculations keep the    |
|      reciprocal projection scheme          (i.e. LREAL=.FALSE.)             |
|                                                                             |
 ----------------------------------------------------------------------------- 

 PAW_PBE Ag 06Sep2000                   :
 energy of atom  1       EATOM=-1037.4134
 kinetic energy error for atom=    0.0019 (will be added to EATOM!!)
 
 EXHCAR: internal setup
 exchange correlation table for  LEXCH =        8
   RHO(1)=    0.500       N(1)  =     2000
   RHO(2)=  100.500       N(2)  =     4000
 
 POSCAR: No title                                
  positions in direct lattice
  No initial velocities read in
 


--------------------------------------------------------------------------------------------------------


 ion  position               nearest neighbor table
   1  0.750  0.750  0.500-   3 3.07  14 3.07  19 3.07  20 3.07   5 3.07  26 3.07   6 3.07  29 3.07
                            11 3.07  18 3.07  10 3.07   8 3.07
   2  0.750  0.750  0.000-  12 3.06  10 3.07   8 3.07  22 3.07  27 3.07  11 3.07  18 3.07  32 3.07
                             5 3.07  26 3.07   3 3.07  20 3.07
   3  0.750  0.000  0.250-  12 3.06   5 3.07   9 3.07   1 3.07  28 3.07  19 3.07  13 3.07  18 3.07
                            27 3.07   6 3.07   4 3.07   2 3.07
   4  0.750  0.250  0.500-   6 3.07   8 3.07  10 3.07  29 3.07  13 3.07  31 3.07  14 3.07  19 3.07
                            21 3.07  28 3.07   3 3.07  20 3.07
   5  0.000  0.750  0.250-   3 3.07  14 3.07  25 3.07  15 3.07   1 3.07  16 3.07  10 3.07   7 3.07
                             2 3.07  22 3.07   6 3.07  12 3.07
   6  0.000  0.000  0.500-   4 3.07   7 3.07  11 3.07  13 3.07   8 3.07  16 3.07   1 3.07  17 3.07
                             3 3.07  23 3.07  21 3.07   5 3.07
   7  0.250  0.750  0.500-   6 3.07  16 3.07  29 3.07  30 3.07  11 3.07  18 3.07  14 3.07  19 3.07
                             5 3.07  26 3.07  25 3.07  23 3.07
   8  0.750  0.000  0.750-  12 3.06   4 3.07  11 3.07   2 3.07  31 3.07  27 3.07   6 3.07  21 3.07
                            26 3.07  19 3.07   9 3.07   1 3.07
   9  0.750  0.250  0.000-  12 3.06   3 3.07  20 3.07  32 3.07  28 3.07  21 3.07  22 3.07  27 3.07
                            31 3.07  13 3.07  10 3.07   8 3.07
  10  0.750  0.500  0.250-   2 3.07   4 3.07  13 3.07  18 3.07  22 3.07  29 3.07  28 3.07   5 3.07
                            14 3.07  32 3.07   9 3.07   1 3.07
  11  0.000  0.750  0.750-   6 3.07   8 3.07  22 3.07  30 3.07   7 3.07   2 3.07  23 3.07  20 3.07
                             1 3.07  15 3.07  14 3.07  12 3.07
  12  0.998  0.000  0.000-   3 3.06   9 3.06   8 3.06   2 3.06   5 3.07  21 3.07  11 3.07  13 3.07
                            15 3.09  23 3.09  16 3.09  24 3.09
  13  0.000  0.250  0.250-   6 3.07  10 3.07  16 3.07  22 3.07   4 3.07  24 3.07   3 3.07  25 3.07
                            17 3.07   9 3.07  14 3.07  12 3.07
  14  0.000  0.500  0.500-   1 3.07   5 3.07  17 3.07  21 3.07  20 3.07  25 3.07   4 3.07   7 3.07
                            10 3.07  30 3.07  13 3.07  11 3.07
  15  0.250  0.750  0.000-  23 3.07  25 3.07  32 3.07  26 3.07   5 3.07  27 3.07  22 3.07  11 3.07
                            18 3.07  30 3.07  16 3.07  12 3.09
  16  0.250  0.000  0.250-   7 3.07  13 3.07  18 3.07  24 3.07   6 3.07  27 3.07   5 3.07  28 3.07
                            19 3.07  17 3.07  15 3.07  12 3.09
  17  0.250  0.250  0.500-  14 3.07  19 3.07  23 3.07  25 3.07  21 3.07  28 3.07   6 3.07  29 3.07
                            13 3.07  31 3.07  30 3.07  16 3.07
  18  0.500  0.750  0.250-  10 3.07  16 3.07  27 3.07  29 3.07   2 3.07   7 3.07   3 3.07  25 3.07
                             1 3.07  15 3.07  19 3.07  32 3.07
  19  0.500  0.000  0.500-   1 3.07  17 3.07  26 3.07  28 3.07   3 3.07  23 3.07   4 3.07   7 3.07
                             8 3.07  16 3.07  18 3.07  31 3.07
  20  0.750  0.500  0.750-   1 3.07   9 3.07  21 3.07  26 3.07  14 3.07  32 3.07  31 3.07  11 3.07
                            22 3.07  29 3.07   4 3.07   2 3.07
  21  0.000  0.250  0.750-  14 3.07  20 3.07  23 3.07   9 3.07  17 3.07   8 3.07  30 3.07  24 3.07
                             4 3.07  22 3.07   6 3.07  12 3.07
  22  0.000  0.500  0.000-   2 3.07  11 3.07  13 3.07  24 3.07  10 3.07  30 3.07   9 3.07  15 3.07
                            25 3.07  20 3.07  21 3.07   5 3.07
  23  0.250  0.000  0.750-  15 3.07  17 3.07  21 3.07  26 3.07  19 3.07  11 3.07  31 3.07  27 3.07
                             6 3.07  24 3.07   7 3.07  12 3.09
  24  0.250  0.250  0.000-  16 3.07  22 3.07  27 3.07  30 3.07  13 3.07  31 3.07  32 3.07  28 3.07
                            21 3.07  25 3.07  23 3.07  12 3.09
  25  0.250  0.500  0.250-   5 3.07  15 3.07  17 3.07  28 3.07  14 3.07  32 3.07  13 3.07  18 3.07
                            29 3.07  22 3.07  24 3.07   7 3.07
  26  0.500  0.750  0.750-  19 3.07  20 3.07  23 3.07  32 3.07   1 3.07  15 3.07  30 3.07   8 3.07
                             7 3.07   2 3.07  27 3.07  29 3.07
  27  0.500  0.000  0.000-   2 3.07  18 3.07  24 3.07  31 3.07  16 3.07   8 3.07   9 3.07  15 3.07
                             3 3.07  23 3.07  28 3.07  26 3.07
  28  0.500  0.250  0.250-   3 3.07  19 3.07  25 3.07  32 3.07  17 3.07   9 3.07  10 3.07  16 3.07
                             4 3.07  24 3.07  29 3.07  27 3.07
  29  0.500  0.500  0.500-   4 3.07   7 3.07  18 3.07  31 3.07  30 3.07  10 3.07  17 3.07   1 3.07
                            20 3.07  25 3.07  26 3.07  28 3.07
  30  0.250  0.500  0.750-   7 3.07  11 3.07  24 3.07  31 3.07  29 3.07  22 3.07  21 3.07  26 3.07
                            14 3.07  32 3.07  17 3.07  15 3.07
  31  0.500  0.250  0.750-   8 3.07  27 3.07  29 3.07  30 3.07  24 3.07   4 3.07  20 3.07  23 3.07
                             9 3.07  17 3.07  19 3.07  32 3.07
  32  0.500  0.500  0.000-   9 3.07  15 3.07  26 3.07  28 3.07  20 3.07  25 3.07  24 3.07   2 3.07
                            10 3.07  30 3.07  18 3.07  31 3.07
 
  LATTYP: Found a simple cubic cell.
 ALAT       =     8.6968910500
  
  Lattice vectors:
  
 A1 = (   8.6968910500,   0.0000000000,   0.0000000000)
 A2 = (   0.0000001600,   8.6968910500,   0.0000000000)
 A3 = (   0.0000001600,   0.0000001600,   8.6968910500)
 Subroutine PRICEL returns:
 Original cell was already a primitive cell.
 

Analysis of symmetry for initial positions (statically):

 Routine SETGRP: Setting up the symmetry group for a 
 simple cubic supercell.


 Subroutine GETGRP returns: Found  8 space group operations
 (whereof  8 operations were pure point group operations)
 out of a pool of 48 trial point group operations.


The static configuration has the point symmetry C_4v.

Analysis of symmetry for dynamics (positions and initial velocities):

 Subroutine DYNSYM returns: Found  8 space group operations
 (whereof  8 operations were pure point group operations)
 out of a pool of  8 trial space group operations
 (whereof  8 operations were pure point group operations)
 and found also     1 'primitive' translations


The dynamic configuration has the point symmetry C_4v.
 
 
 KPOINTS: Automatic mesh                          

Automatic generation of k-mesh.
 
 Subroutine IBZKPT returns following result:
 ===========================================
 
 Found     40 irreducible k-points:
 
 Following reciprocal coordinates:
            Coordinates               Weight
  0.062500  0.062500  0.062500      8.000000
  0.187500  0.062500  0.062500      8.000000
  0.312500  0.062500  0.062500      8.000000
  0.437500  0.062500  0.062500      8.000000
  0.062500  0.187500  0.062500     16.000000
  0.187500  0.187500  0.062500     16.000000
  0.312500  0.187500  0.062500     16.000000
  0.437500  0.187500  0.062500     16.000000
  0.062500  0.312500  0.062500     16.000000
  0.187500  0.312500  0.062500     16.000000
  0.312500  0.312500  0.062500     16.000000
  0.437500  0.312500  0.062500     16.000000
  0.062500  0.437500  0.062500     16.000000
  0.187500  0.437500  0.062500     16.000000
  0.312500  0.437500  0.062500     16.000000
  0.437500  0.437500  0.062500     16.000000
  0.062500  0.187500  0.187500      8.000000
  0.187500  0.187500  0.187500      8.000000
  0.312500  0.187500  0.187500      8.000000
  0.437500  0.187500  0.187500      8.000000
  0.062500  0.312500  0.187500     16.000000
  0.187500  0.312500  0.187500     16.000000
  0.312500  0.312500  0.187500     16.000000
  0.437500  0.312500  0.187500     16.000000
  0.062500  0.437500  0.187500     16.000000
  0.187500  0.437500  0.187500     16.000000
  0.312500  0.437500  0.187500     16.000000
  0.437500  0.437500  0.187500     16.000000
  0.062500  0.312500  0.312500      8.000000
  0.187500  0.312500  0.312500      8.000000
  0.312500  0.312500  0.312500      8.000000
  0.437500  0.312500  0.312500      8.000000
  0.062500  0.437500  0.312500     16.000000
  0.187500  0.437500  0.312500     16.000000
  0.312500  0.437500  0.312500     16.000000
  0.437500  0.437500  0.312500     16.000000
  0.062500  0.437500  0.437500      8.000000
  0.187500  0.437500  0.437500      8.000000
  0.312500  0.437500  0.437500      8.000000
  0.437500  0.437500  0.437500      8.000000
 
 Following cartesian coordinates:
            Coordinates               Weight
  0.007186  0.007186  0.007186      8.000000
  0.021559  0.007186  0.007186      8.000000
  0.035932  0.007186  0.007186      8.000000
  0.050305  0.007186  0.007186      8.000000
  0.007186  0.021559  0.007186     16.000000
  0.021559  0.021559  0.007186     16.000000
  0.035932  0.021559  0.007186     16.000000
  0.050305  0.021559  0.007186     16.000000
  0.007186  0.035932  0.007186     16.000000
  0.021559  0.035932  0.007186     16.000000
  0.035932  0.035932  0.007186     16.000000
  0.050305  0.035932  0.007186     16.000000
  0.007186  0.050305  0.007186     16.000000
  0.021559  0.050305  0.007186     16.000000
  0.035932  0.050305  0.007186     16.000000
  0.050305  0.050305  0.007186     16.000000
  0.007186  0.021559  0.021559      8.000000
  0.021559  0.021559  0.021559      8.000000
  0.035932  0.021559  0.021559      8.000000
  0.050305  0.021559  0.021559      8.000000
  0.007186  0.035932  0.021559     16.000000
  0.021559  0.035932  0.021559     16.000000
  0.035932  0.035932  0.021559     16.000000
  0.050305  0.035932  0.021559     16.000000
  0.007186  0.050305  0.021559     16.000000
  0.021559  0.050305  0.021559     16.000000
  0.035932  0.050305  0.021559     16.000000
  0.050305  0.050305  0.021559     16.000000
  0.007186  0.035932  0.035932      8.000000
  0.021559  0.035932  0.035932      8.000000
  0.035932  0.035932  0.035932      8.000000
  0.050305  0.035932  0.035932      8.000000
  0.007186  0.050305  0.035932     16.000000
  0.021559  0.050305  0.035932     16.000000
  0.035932  0.050305  0.035932     16.000000
  0.050305  0.050305  0.035932     16.000000
  0.007186  0.050305  0.050305      8.000000
  0.021559  0.050305  0.050305      8.000000
  0.035932  0.050305  0.050305      8.000000
  0.050305  0.050305  0.050305      8.000000
 


--------------------------------------------------------------------------------------------------------




 Dimension of arrays:
   k-Points           NKPTS =     40   number of bands    NBANDS=    212
   number of dos      NEDOS =    301   number of ions     NIONS =     32
   non local maximal  LDIM  =      6   non local SUM 2l+1 LMDIM =     18
   total plane-waves  NPLWV = 343000
   max r-space proj   IRMAX =      1   max aug-charges    IRDMAX= 205283
   dimension x,y,z NGX =    70 NGY =   70 NGZ =   70
   dimension x,y,z NGXF=   140 NGYF=  140 NGZF=  140
   support grid    NGXF=   280 NGYF=  280 NGZF=  280
   ions per type =              32
 NGX,Y,Z   is equivalent  to a cutoff of  13.38, 13.38, 13.38 a.u.
 NGXF,Y,Z  is equivalent  to a cutoff of  26.76, 26.76, 26.76 a.u.


 I would recommend the setting:
   dimension x,y,z NGX =    69 NGY =   69 NGZ =   69
 SYSTEM =  No title                                
 POSCAR =  No title                                

 Startparameter for this run:
   NWRITE =      2    write-flag & timer
   PREC   = accura    medium, high low
   ISTART =      1    job   : 0-new  1-cont  2-samecut
   ICHARG =      0    charge: 1-file 2-atom 10-const
   ISPIN  =      1    spin polarized calculation?
   LNONCOLLINEAR =      F non collinear calculations
   LSORBIT =      F    spin-orbit coupling
   INIWAV =      1    electr: 0-lowe 1-rand  2-diag
   LASPH  =      F    aspherical Exc in radial PAW
   METAGGA=      F    non-selfconsistent MetaGGA calc.

 Electronic Relaxation 1
   ENCUT  =  600.0 eV  44.10 Ry    6.64 a.u.  17.37 17.37 17.37*2*pi/ulx,y,z
   ENINI  =  600.0     initial cutoff
   ENAUG  =  412.5 eV  augmentation charge cutoff
   NELM   =     60;   NELMIN=  2; NELMDL=  0     # of ELM steps 
   EDIFF  = 0.1E-04   stopping-criterion for ELM
   LREAL  =      F    real-space projection
   LCOMPAT=      F    compatible to vasp.4.4
   LREAL_COMPAT= F    compatible to vasp.4.5.1-3
   GGA_COMPAT  = T    GGA compatible to vasp.4.4-vasp.4.6
   LMAXPAW     = -100 max onsite density
   LMAXMIX     =    2 max onsite mixed and CHGCAR
   VOSKOWN=      1    Vosko Wilk Nusair interpolation
   ROPT   =    0.00000
 Ionic relaxation
   EDIFFG = -.2E-01   stopping-criterion for IOM
   NSW    =      0    number of steps for IOM
   NBLOCK =      1;   KBLOCK =      1    inner block; outer block 
   IBRION =     -1    ionic relax: 0-MD 1-quasi-New 2-CG
   NFREE  =      0    steps in history (QN), initial steepest desc. (CG)
   ISIF   =      2    stress and relaxation
   IWAVPR =     10    prediction:  0-non 1-charg 2-wave 3-comb
   ISYM   =      2    0-nonsym 1-usesym 2-fastsym
   LCORR  =      T    Harris-Foulkes like correction to forces

   POTIM  =   0.50    time-step for ionic-motion
   TEIN   =    0.0    initial temperature
   TEBEG  =    0.0;   TEEND  =   0.0 temperature during run
   SMASS  =  -3.00    Nose mass-parameter (am)
   estimated Nose-frequenzy (Omega)   =  0.10E-29 period in steps =****** mass=  -0.173E-26a.u.
   NPACO  =    256;   APACO  = 16.0  distance and # of slots for P.C.
   PSTRESS=    0.0 pullay stress

  Mass of Ions in am
   POMASS = 107.87
  Ionic Valenz
   ZVAL   =  11.00
  Atomic Wigner-Seitz radii
   RWIGS  =   1.34
   NELECT =     352.0000    total number of electrons
   NUPDOWN=      -1.0000    fix difference up-down

 DOS related values:
   EMIN   =  10.00;   EMAX   =-10.00  energy-range for DOS
   ISMEAR =     1;   SIGMA  =   0.20  broadening in eV -4-tet -1-fermi 0-gaus

 Electronic relaxation 2 (details)
   IALGO  =     48    algorithm
   LDIAG  =      T    sub-space diagonalisation
   IMIX   =      4    mixing-type and parameters
     AMIX     =   0.40;   BMIX     =  1.00
     AMIX_MAG =   1.60;   BMIX_MAG =  1.00
     AMIN     =   0.10
     WC   =   100.;   INIMIX=   1;  MIXPRE=   1

 Intra band minimization:
   WEIMIN = 0.0000     energy-eigenvalue tresh-hold
   EBREAK =  0.12E-07  absolut break condition
   DEPER  =   0.30     relativ break condition  

   TIME   =   0.10     timestep for ELM

  volume/ion in A,a.u.               =      20.56       138.72
  Fermi-wavevector in a.u.,eV,Ry     =   1.329102 24.034862  1.766512

 Second variation
   LSECVAR=     F    do a second variation
 
 Write flags
   LWAVE  =      F    write WAVECAR
   LCHARG =      F    write CHGCAR
   LVTOT  =      F    write LOCPOT, local potential
   LELF   =      F    write electronic localiz. function (ELF)
   LORBIT =      0    0 simple, 1 ext, 2 COOP (PROOUT)


 Dipole corrections
   IDIPOL =      0    1-x, 2-y, 3-z
   LDIPOL =      F    correct potential



--------------------------------------------------------------------------------------------------------


 Static calculation
 charge density will be updated during run
 non-spin polarized calculation
 RMM-DIIS sequential band-by-band
 performe sub-space diagonalisation
    before iterative eigenvector-optimisation
 modified Broyden-mixing scheme, WC =      100.0
 initial mixing is a Kerker type mixing with AMIX =  0.4000 and BMIX =      1.0000
 Hartree-type preconditioning will be used
 using additional bands           36
 reciprocal scheme for non local part
 use partial core corrections
 calculate Harris-corrections to forces 
   (improved forces if not selfconsistent)
 use gradient corrections 
 use of overlap-Matrix (Vanderbilt PP)
 Methfessel and Paxton  Order N= 1 SIGMA  =   0.20


--------------------------------------------------------------------------------------------------------


  energy-cutoff  :      600.00
  volume of cell :      657.80
      direct lattice vectors                 reciprocal lattice vectors
     8.696891050  0.000000000  0.000000000     0.114983618 -0.000000002 -0.000000002
     0.000000160  8.696891050  0.000000000     0.000000000  0.114983618 -0.000000002
     0.000000160  0.000000160  8.696891050     0.000000000  0.000000000  0.114983618

  length of vectors
     8.696891050  8.696891050  8.696891050     0.114983618  0.114983618  0.114983618


 
 old parameters found on file WAVECAR:
  energy-cutoff  :      600.00
  volume of cell :      657.80
      direct lattice vectors                 reciprocal lattice vectors
     8.696891050  0.000000000  0.000000000     0.114983618 -0.000000002 -0.000000002
     0.000000160  8.696891050  0.000000000     0.000000000  0.114983618 -0.000000002
     0.000000160  0.000000160  8.696891050     0.000000000  0.000000000  0.114983618

  length of vectors

 
 k-points in units of 2pi/SCALE and weight: Automatic mesh                          
   0.00718648  0.00718648  0.00718648       0.016
   0.02155943  0.00718648  0.00718648       0.016
   0.03593238  0.00718648  0.00718648       0.016
   0.05030533  0.00718648  0.00718648       0.016
   0.00718648  0.02155943  0.00718648       0.031
   0.02155943  0.02155943  0.00718648       0.031
   0.03593238  0.02155943  0.00718648       0.031
   0.05030533  0.02155943  0.00718647       0.031
   0.00718648  0.03593238  0.00718648       0.031
   0.02155943  0.03593238  0.00718648       0.031
   0.03593238  0.03593238  0.00718647       0.031
   0.05030533  0.03593238  0.00718647       0.031
   0.00718648  0.05030533  0.00718648       0.031
   0.02155943  0.05030533  0.00718647       0.031
   0.03593238  0.05030533  0.00718647       0.031
   0.05030533  0.05030533  0.00718647       0.031
   0.00718648  0.02155943  0.02155943       0.016
   0.02155943  0.02155943  0.02155943       0.016
   0.03593238  0.02155943  0.02155943       0.016
   0.05030533  0.02155943  0.02155943       0.016
   0.00718648  0.03593238  0.02155943       0.031
   0.02155943  0.03593238  0.02155943       0.031
   0.03593238  0.03593238  0.02155943       0.031
   0.05030533  0.03593238  0.02155943       0.031
   0.00718648  0.05030533  0.02155943       0.031
   0.02155943  0.05030533  0.02155943       0.031
   0.03593238  0.05030533  0.02155943       0.031
   0.05030533  0.05030533  0.02155943       0.031
   0.00718648  0.03593238  0.03593238       0.016
   0.02155943  0.03593238  0.03593238       0.016
   0.03593238  0.03593238  0.03593238       0.016
   0.05030533  0.03593238  0.03593238       0.016
   0.00718648  0.05030533  0.03593238       0.031
   0.02155943  0.05030533  0.03593238       0.031
   0.03593238  0.05030533  0.03593238       0.031
   0.05030533  0.05030533  0.03593238       0.031
   0.00718648  0.05030533  0.05030533       0.016
   0.02155943  0.05030533  0.05030533       0.016
   0.03593238  0.05030533  0.05030533       0.016
   0.05030533  0.05030533  0.05030533       0.016
 
 k-points in reciprocal lattice and weights: Automatic mesh                          
   0.06250000  0.06250000  0.06250000       0.016
   0.18750000  0.06250000  0.06250000       0.016
   0.31250000  0.06250000  0.06250000       0.016
   0.43750000  0.06250000  0.06250000       0.016
   0.06250000  0.18750000  0.06250000       0.031
   0.18750000  0.18750000  0.06250000       0.031
   0.31250000  0.18750000  0.06250000       0.031
   0.43750000  0.18750000  0.06250000       0.031
   0.06250000  0.31250000  0.06250000       0.031
   0.18750000  0.31250000  0.06250000       0.031
   0.31250000  0.31250000  0.06250000       0.031
   0.43750000  0.31250000  0.06250000       0.031
   0.06250000  0.43750000  0.06250000       0.031
   0.18750000  0.43750000  0.06250000       0.031
   0.31250000  0.43750000  0.06250000       0.031
   0.43750000  0.43750000  0.06250000       0.031
   0.06250000  0.18750000  0.18750000       0.016
   0.18750000  0.18750000  0.18750000       0.016
   0.31250000  0.18750000  0.18750000       0.016
   0.43750000  0.18750000  0.18750000       0.016
   0.06250000  0.31250000  0.18750000       0.031
   0.18750000  0.31250000  0.18750000       0.031
   0.31250000  0.31250000  0.18750000       0.031
   0.43750000  0.31250000  0.18750000       0.031
   0.06250000  0.43750000  0.18750000       0.031
   0.18750000  0.43750000  0.18750000       0.031
   0.31250000  0.43750000  0.18750000       0.031
   0.43750000  0.43750000  0.18750000       0.031
   0.06250000  0.31250000  0.31250000       0.016
   0.18750000  0.31250000  0.31250000       0.016
   0.31250000  0.31250000  0.31250000       0.016
   0.43750000  0.31250000  0.31250000       0.016
   0.06250000  0.43750000  0.31250000       0.031
   0.18750000  0.43750000  0.31250000       0.031
   0.31250000  0.43750000  0.31250000       0.031
   0.43750000  0.43750000  0.31250000       0.031
   0.06250000  0.43750000  0.43750000       0.016
   0.18750000  0.43750000  0.43750000       0.016
   0.31250000  0.43750000  0.43750000       0.016
   0.43750000  0.43750000  0.43750000       0.016
 
 position of ions in fractional coordinates (direct lattice) 
   0.75000000  0.75000000  0.50000000
   0.75000000  0.75000000  0.00000000
   0.75000000  0.00000000  0.25000000
   0.75000000  0.25000000  0.50000000
   0.00000000  0.75000000  0.25000000
   0.00000000  0.00000000  0.50000000
   0.25000000  0.75000000  0.50000000
   0.75000000  0.00000000  0.75000000
   0.75000000  0.25000000  0.00000000
   0.75000000  0.50000000  0.25000000
   0.00000000  0.75000000  0.75000000
   0.99770000  0.00000000  0.00000000
   0.00000000  0.25000000  0.25000000
   0.00000000  0.50000000  0.50000000
   0.25000000  0.75000000  0.00000000
   0.25000000  0.00000000  0.25000000
   0.25000000  0.25000000  0.50000000
   0.50000000  0.75000000  0.25000000
   0.50000000  0.00000000  0.50000000
   0.75000000  0.50000000  0.75000000
   0.00000000  0.25000000  0.75000000
   0.00000000  0.50000000  0.00000000
   0.25000000  0.00000000  0.75000000
   0.25000000  0.25000000  0.00000000
   0.25000000  0.50000000  0.25000000
   0.50000000  0.75000000  0.75000000
   0.50000000  0.00000000  0.00000000
   0.50000000  0.25000000  0.25000000
   0.50000000  0.50000000  0.50000000
   0.25000000  0.50000000  0.75000000
   0.50000000  0.25000000  0.75000000
   0.50000000  0.50000000  0.00000000
 
 position of ions in cartesian coordinates  (Angst):
   6.52266849  6.52266837  4.34844552
   6.52266841  6.52266829  0.00000000
   6.52266833  0.00000004  2.17422276
   6.52266841  2.17422284  4.34844552
   0.00000016  6.52266833  2.17422276
   0.00000008  0.00000008  4.34844552
   2.17422296  6.52266837  4.34844552
   6.52266841  0.00000012  6.52266829
   6.52266833  2.17422276  0.00000000
   6.52266841  4.34844556  2.17422276
   0.00000024  6.52266841  6.52266829
   8.67688820  0.00000000  0.00000000
   0.00000008  2.17422280  2.17422276
   0.00000016  4.34844561  4.34844552
   2.17422288  6.52266829  0.00000000
   2.17422280  0.00000004  2.17422276
   2.17422288  2.17422284  4.34844552
   4.34844568  6.52266833  2.17422276
   4.34844561  0.00000008  4.34844552
   6.52266849  4.34844564  6.52266829
   0.00000016  2.17422288  6.52266829
   0.00000008  4.34844552  0.00000000
   2.17422288  0.00000012  6.52266829
   2.17422280  2.17422276  0.00000000
   2.17422288  4.34844556  2.17422276
   4.34844577  6.52266841  6.52266829
   4.34844552  0.00000000  0.00000000
   4.34844560  2.17422280  2.17422276
   4.34844569  4.34844561  4.34844552
   2.17422296  4.34844564  6.52266829
   4.34844568  2.17422288  6.52266829
   4.34844561  4.34844552  0.00000000
 


--------------------------------------------------------------------------------------------------------


 k-point  1 :  0.06250.06250.0625  plane waves:  21992
 k-point  2 :  0.18750.06250.0625  plane waves:  21989
 k-point  3 :  0.31250.06250.0625  plane waves:  21962
 k-point  4 :  0.43750.06250.0625  plane waves:  21952
 k-point  5 :  0.06250.18750.0625  plane waves:  21989
 k-point  6 :  0.18750.18750.0625  plane waves:  21998
 k-point  7 :  0.31250.18750.0625  plane waves:  21962
 k-point  8 :  0.43750.18750.0625  plane waves:  21952
 k-point  9 :  0.06250.31250.0625  plane waves:  21962
 k-point 10 :  0.18750.31250.0625  plane waves:  21962
 k-point 11 :  0.31250.31250.0625  plane waves:  21962
 k-point 12 :  0.43750.31250.0625  plane waves:  21945
 k-point 13 :  0.06250.43750.0625  plane waves:  21952
 k-point 14 :  0.18750.43750.0625  plane waves:  21952
 k-point 15 :  0.31250.43750.0625  plane waves:  21945
 k-point 16 :  0.43750.43750.0625  plane waves:  21928
 k-point 17 :  0.06250.18750.1875  plane waves:  21998
 k-point 18 :  0.18750.18750.1875  plane waves:  21947
 k-point 19 :  0.31250.18750.1875  plane waves:  21960
 k-point 20 :  0.43750.18750.1875  plane waves:  21942
 k-point 21 :  0.06250.31250.1875  plane waves:  21962
 k-point 22 :  0.18750.31250.1875  plane waves:  21960
 k-point 23 :  0.31250.31250.1875  plane waves:  21937
 k-point 24 :  0.43750.31250.1875  plane waves:  21941
 k-point 25 :  0.06250.43750.1875  plane waves:  21952
 k-point 26 :  0.18750.43750.1875  plane waves:  21942
 k-point 27 :  0.31250.43750.1875  plane waves:  21941
 k-point 28 :  0.43750.43750.1875  plane waves:  21923
 k-point 29 :  0.06250.31250.3125  plane waves:  21962
 k-point 30 :  0.18750.31250.3125  plane waves:  21937
 k-point 31 :  0.31250.31250.3125  plane waves:  21938
 k-point 32 :  0.43750.31250.3125  plane waves:  21954
 k-point 33 :  0.06250.43750.3125  plane waves:  21945
 k-point 34 :  0.18750.43750.3125  plane waves:  21941
 k-point 35 :  0.31250.43750.3125  plane waves:  21954
 k-point 36 :  0.43750.43750.3125  plane waves:  21959
 k-point 37 :  0.06250.43750.4375  plane waves:  21928
 k-point 38 :  0.18750.43750.4375  plane waves:  21923
 k-point 39 :  0.31250.43750.4375  plane waves:  21959
 k-point 40 :  0.43750.43750.4375  plane waves:  21998

 maximum and minimum number of plane-waves per node :  21998 21923

 maximum number of plane-waves:  21998
 maximal index in each direction: 
   IXMAX= 17   IYMAX= 17   IZMAX= 17
   IXMIN=-17   IYMIN=-17   IZMIN=-17

 NGX is ok and might be reduce to  70
 NGY is ok and might be reduce to  70
 NGZ is ok and might be reduce to  70

 parallel 3dFFT wavefunction:
    minimum data exchange during FFTs selected (reduces bandwidth)
 parallel 3dFFT charge:
    minimum data exchange during FFTs selected (reduces bandwidth)

 For storing wavefunctions 2978.88 MBYTES are necessary
 For predicting wavefunctions  160.16 MBYTES are necessary
Broyden mixing: mesh for mixing (old mesh)
   NGX = 35   NGY = 35   NGZ = 35
  (NGX  =140   NGY  =140   NGZ  =140)
 gives a total of  42875 points
 charge density for first step will be calculated from the start-wavefunctions


--------------------------------------------------------------------------------------------------------


 Maximum index for augmentation-charges        49890 (set IRDMAX)


--------------------------------------------------------------------------------------------------------


 initial charge from wavefunction
 First call to EWALD:  gamma=   0.204
 Maximum number of real-space cells 3x 3x 3
 Maximum number of reciprocal cells 3x 3x 3

    FEWALD:  VPU time    0.00: CPU time    0.00


----------------------------------------- Iteration    1(   1)  ---------------------------------------


    POTLOK:  VPU time    0.37: CPU time    0.37
    SETDIJ:  VPU time    0.43: CPU time    0.43
    EDDIAG:  VPU time   27.47: CPU time   27.51
  RMM-DIIS:  VPU time  147.37: CPU time  147.57
    ORTHCH:  VPU time    3.41: CPU time    3.42
    DOS   :  VPU time    0.00: CPU time   -0.00
    CHARGE:  VPU time   12.00: CPU time   12.02
    MIXING:  VPU time    0.01: CPU time    0.01
    ------------------------------------------
      LOOP:  VPU time  191.12: CPU time  191.39

 eigenvalue-minimisations  : 17457
 total energy-change (2. order) :-0.8951515E+02  (-0.5711197E+02)
 number of electron  352.0000017 magnetization 
 augmentation part   172.3164458 magnetization 

 Broyden mixing:
  rms(total) = 0.69092E+00    rms(broyden)= 0.62707E+00
  rms(prec ) = 0.91010E+00
  weight for this iteration     100.00

 Free energy of the ion-electron system (eV)
  ---------------------------------------------------
  alpha Z        PSCENC =      2764.37091141
  Ewald energy   TEWEN  =    -29393.59474972
  -1/2 Hartree   DENC   =     -6980.13831747
  -V(xc)+E(xc)   XCENC  =      -397.69372906
  PAW double counting   =     26780.92566264   -25337.81276141
  entropy T*S    EENTRO =        -0.01413647
  eigenvalues    EBANDS =      -722.72591793
  atomic energy  EATOM  =     33197.16788402
  ---------------------------------------------------
  free energy    TOTEN  =       -89.51515400 eV

  energy without entropy =      -89.50101753  energy(sigma->0) =      -89.51044184


--------------------------------------------------------------------------------------------------------




----------------------------------------- Iteration    1(   2)  ---------------------------------------


    POTLOK:  VPU time    0.38: CPU time    0.38
    SETDIJ:  VPU time    0.43: CPU time    0.43
    EDDIAG:  VPU time   27.23: CPU time   27.27
  RMM-DIIS:  VPU time  150.53: CPU time  150.75
    ORTHCH:  VPU time    3.41: CPU time    3.42
    DOS   :  VPU time    0.00: CPU time   -0.00
    CHARGE:  VPU time   11.79: CPU time   11.81
    MIXING:  VPU time    0.01: CPU time    0.01
    ------------------------------------------
      LOOP:  VPU time  193.83: CPU time  194.11

 eigenvalue-minimisations  : 17821
 total energy-change (2. order) : 0.1337648E+01  (-0.1202565E+01)
 number of electron  352.0000017 magnetization 
 augmentation part   169.3938487 magnetization 

 Broyden mixing:
  rms(total) = 0.12245E+00    rms(broyden)= 0.12244E+00
  rms(prec ) = 0.15142E+00
  weight for this iteration     100.00

 eigenvalues of (default mixing * dielectric matrix)
  average eigenvalue GAMMA=   0.8638
  0.8638

 Free energy of the ion-electron system (eV)
  ---------------------------------------------------
  alpha Z        PSCENC =      2764.37091141
  Ewald energy   TEWEN  =    -29393.59474972
  -1/2 Hartree   DENC   =     -7094.12973306
  -V(xc)+E(xc)   XCENC  =      -369.48514867
  PAW double counting   =     27236.28094523   -25799.27528067
  entropy T*S    EENTRO =        -0.01491469
  eigenvalues    EBANDS =      -629.49741973
  atomic energy  EATOM  =     33197.16788402
  ---------------------------------------------------
  free energy    TOTEN  =       -88.17750589 eV

  energy without entropy =      -88.16259119  energy(sigma->0) =      -88.17253432


--------------------------------------------------------------------------------------------------------




----------------------------------------- Iteration    1(   3)  ---------------------------------------


    POTLOK:  VPU time    0.36: CPU time    0.37
    SETDIJ:  VPU time    0.43: CPU time    0.43
    EDDIAG:  VPU time   27.24: CPU time   27.29
  RMM-DIIS:  VPU time  154.35: CPU time  154.61
    ORTHCH:  VPU time    3.41: CPU time    3.42
    DOS   :  VPU time    0.00: CPU time   -0.00
    CHARGE:  VPU time   11.90: CPU time   11.92
    MIXING:  VPU time    0.01: CPU time    0.01
    ------------------------------------------
      LOOP:  VPU time  197.75: CPU time  198.09

 eigenvalue-minimisations  : 18301
 total energy-change (2. order) : 0.5376981E-02  (-0.1668972E-01)
 number of electron  352.0000017 magnetization 
 augmentation part   169.5197640 magnetization 

 Broyden mixing:
  rms(total) = 0.65049E-01    rms(broyden)= 0.65048E-01
  rms(prec ) = 0.75443E-01
  weight for this iteration     100.00

 eigenvalues of (default mixing * dielectric matrix)
  average eigenvalue GAMMA=   1.6240
  0.9642  2.2838

 Free energy of the ion-electron system (eV)
  ---------------------------------------------------
  alpha Z        PSCENC =      2764.37091141
  Ewald energy   TEWEN  =    -29393.59474972
  -1/2 Hartree   DENC   =     -7083.07388430
  -V(xc)+E(xc)   XCENC  =      -369.86262455
  PAW double counting   =     27332.68676999   -25895.73503742
  entropy T*S    EENTRO =        -0.01497746
  eigenvalues    EBANDS =      -640.11642088
  atomic energy  EATOM  =     33197.16788402
  ---------------------------------------------------
  free energy    TOTEN  =       -88.17212891 eV

  energy without entropy =      -88.15715145  energy(sigma->0) =      -88.16713642


--------------------------------------------------------------------------------------------------------




----------------------------------------- Iteration    1(   4)  ---------------------------------------


    POTLOK:  VPU time    0.36: CPU time    0.36
    SETDIJ:  VPU time    0.44: CPU time    0.44
    EDDIAG:  VPU time   27.23: CPU time   27.27
  RMM-DIIS:  VPU time  151.96: CPU time  152.18
    ORTHCH:  VPU time    3.41: CPU time    3.42
    DOS   :  VPU time    0.00: CPU time   -0.00
    CHARGE:  VPU time   11.90: CPU time   11.91
    MIXING:  VPU time    0.01: CPU time    0.01
    ------------------------------------------
      LOOP:  VPU time  195.36: CPU time  195.64

 eigenvalue-minimisations  : 18165
 total energy-change (2. order) :-0.4768179E-04  (-0.3808375E-02)
 number of electron  352.0000017 magnetization 
 augmentation part   169.7001113 magnetization 

 Broyden mixing:
  rms(total) = 0.19645E-01    rms(broyden)= 0.19645E-01
  rms(prec ) = 0.28117E-01
  weight for this iteration     100.00

 eigenvalues of (default mixing * dielectric matrix)
  average eigenvalue GAMMA=   1.5428
  2.4811  1.0736  1.0736

 Free energy of the ion-electron system (eV)
  ---------------------------------------------------
  alpha Z        PSCENC =      2764.37091141
  Ewald energy   TEWEN  =    -29393.59474972
  -1/2 Hartree   DENC   =     -7074.68275666
  -V(xc)+E(xc)   XCENC  =      -370.14036986
  PAW double counting   =     27474.37817856   -26037.64782134
  entropy T*S    EENTRO =        -0.01500076
  eigenvalues    EBANDS =      -648.00845224
  atomic energy  EATOM  =     33197.16788402
  ---------------------------------------------------
  free energy    TOTEN  =       -88.17217659 eV

  energy without entropy =      -88.15717583  energy(sigma->0) =      -88.16717634


--------------------------------------------------------------------------------------------------------




----------------------------------------- Iteration    1(   5)  ---------------------------------------


    POTLOK:  VPU time    0.40: CPU time    0.40
    SETDIJ:  VPU time    0.43: CPU time    0.44
    EDDIAG:  VPU time   27.24: CPU time   27.28
  RMM-DIIS:  VPU time  152.39: CPU time  152.63
    ORTHCH:  VPU time    3.41: CPU time    3.42
    DOS   :  VPU time    0.00: CPU time   -0.00
    CHARGE:  VPU time   11.93: CPU time   11.95
    MIXING:  VPU time    0.01: CPU time    0.01
    ------------------------------------------
      LOOP:  VPU time  195.87: CPU time  196.18

 eigenvalue-minimisations  : 18167
 total energy-change (2. order) : 0.6923448E-03  (-0.8759560E-03)
 number of electron  352.0000017 magnetization 
 augmentation part   169.6098797 magnetization 

 Broyden mixing:
  rms(total) = 0.55964E-02    rms(broyden)= 0.55961E-02
  rms(prec ) = 0.78778E-02
  weight for this iteration     100.00

 eigenvalues of (default mixing * dielectric matrix)
  average eigenvalue GAMMA=   1.4155
  2.5266  1.2616  0.9369  0.9369

 Free energy of the ion-electron system (eV)
  ---------------------------------------------------
  alpha Z        PSCENC =      2764.37091141
  Ewald energy   TEWEN  =    -29393.59474972
  -1/2 Hartree   DENC   =     -7079.29484316
  -V(xc)+E(xc)   XCENC  =      -369.97000972
  PAW double counting   =     27541.92649185   -26105.54050152
  entropy T*S    EENTRO =        -0.01499307
  eigenvalues    EBANDS =      -643.22167432
  atomic energy  EATOM  =     33197.16788402
  ---------------------------------------------------
  free energy    TOTEN  =       -88.17148425 eV

  energy without entropy =      -88.15649117  energy(sigma->0) =      -88.16648655


--------------------------------------------------------------------------------------------------------




----------------------------------------- Iteration    1(   6)  ---------------------------------------


    POTLOK:  VPU time    0.36: CPU time    0.36
    SETDIJ:  VPU time    0.43: CPU time    0.43
    EDDIAG:  VPU time   27.24: CPU time   27.28
  RMM-DIIS:  VPU time  156.10: CPU time  156.32
    ORTHCH:  VPU time    3.41: CPU time    3.42
    DOS   :  VPU time    0.00: CPU time   -0.00
    CHARGE:  VPU time   11.85: CPU time   11.87
    MIXING:  VPU time    0.01: CPU time    0.01
    ------------------------------------------
      LOOP:  VPU time  199.46: CPU time  199.74

 eigenvalue-minimisations  : 18472
 total energy-change (2. order) : 0.4639188E-04  (-0.1190594E-04)
 number of electron  352.0000017 magnetization 
 augmentation part   169.6153460 magnetization 

 Broyden mixing:
  rms(total) = 0.33782E-02    rms(broyden)= 0.33782E-02
  rms(prec ) = 0.46357E-02
  weight for this iteration     100.00

 eigenvalues of (default mixing * dielectric matrix)
  average eigenvalue GAMMA=   1.4588
  2.5643  1.8099  1.0158  1.0158  0.8883

 Free energy of the ion-electron system (eV)
  ---------------------------------------------------
  alpha Z        PSCENC =      2764.37091141
  Ewald energy   TEWEN  =    -29393.59474972
  -1/2 Hartree   DENC   =     -7078.98624642
  -V(xc)+E(xc)   XCENC  =      -369.97991135
  PAW double counting   =     27543.57671634   -26107.16656130
  entropy T*S    EENTRO =        -0.01499421
  eigenvalues    EBANDS =      -643.54448662
  atomic energy  EATOM  =     33197.16788402
  ---------------------------------------------------
  free energy    TOTEN  =       -88.17143785 eV

  energy without entropy =      -88.15644364  energy(sigma->0) =      -88.16643978


--------------------------------------------------------------------------------------------------------




----------------------------------------- Iteration    1(   7)  ---------------------------------------


    POTLOK:  VPU time    0.37: CPU time    0.37
    SETDIJ:  VPU time    0.43: CPU time    0.43
    EDDIAG:  VPU time   27.16: CPU time   27.20
  RMM-DIIS:  VPU time  152.91: CPU time  153.15
    ORTHCH:  VPU time    3.41: CPU time    3.42
    DOS   :  VPU time    0.00: CPU time   -0.00
    CHARGE:  VPU time   11.90: CPU time   11.92
    MIXING:  VPU time    0.01: CPU time    0.01
    ------------------------------------------
      LOOP:  VPU time  196.24: CPU time  196.56

 eigenvalue-minimisations  : 18228
 total energy-change (2. order) : 0.3309310E-04  (-0.1731997E-04)
 number of electron  352.0000017 magnetization 
 augmentation part   169.6277687 magnetization 

 Broyden mixing:
  rms(total) = 0.38415E-03    rms(broyden)= 0.38408E-03
  rms(prec ) = 0.59227E-03
  weight for this iteration     100.00

 eigenvalues of (default mixing * dielectric matrix)
  average eigenvalue GAMMA=   1.4972
  2.6225  1.9695  1.5671  0.9728  0.9728  0.8785

 Free energy of the ion-electron system (eV)
  ---------------------------------------------------
  alpha Z        PSCENC =      2764.37091141
  Ewald energy   TEWEN  =    -29393.59474972
  -1/2 Hartree   DENC   =     -7078.42302917
  -V(xc)+E(xc)   XCENC  =      -369.99908894
  PAW double counting   =     27542.89659136   -26106.45096996
  entropy T*S    EENTRO =        -0.01499569
  eigenvalues    EBANDS =      -644.12395807
  atomic energy  EATOM  =     33197.16788402
  ---------------------------------------------------
  free energy    TOTEN  =       -88.17140476 eV

  energy without entropy =      -88.15640907  energy(sigma->0) =      -88.16640620


--------------------------------------------------------------------------------------------------------




----------------------------------------- Iteration    1(   8)  ---------------------------------------


    POTLOK:  VPU time    0.36: CPU time    0.36
    SETDIJ:  VPU time    0.43: CPU time    0.43
    EDDIAG:  VPU time   27.14: CPU time   27.18
  RMM-DIIS:  VPU time   93.25: CPU time   93.38
    ORTHCH:  VPU time    3.41: CPU time    3.42
    DOS   :  VPU time    0.00: CPU time   -0.00
    ------------------------------------------
      LOOP:  VPU time  124.65: CPU time  124.83

 eigenvalue-minimisations  : 10170
 total energy-change (2. order) : 0.3487738E-05  (-0.3561496E-06)
 number of electron  352.0000017 magnetization 
 augmentation part   169.6277687 magnetization 

 Free energy of the ion-electron system (eV)
  ---------------------------------------------------
  alpha Z        PSCENC =      2764.37091141
  Ewald energy   TEWEN  =    -29393.59474972
  -1/2 Hartree   DENC   =     -7078.40827321
  -V(xc)+E(xc)   XCENC  =      -369.99932855
  PAW double counting   =     27542.38009301   -26105.92519450
  entropy T*S    EENTRO =        -0.01499574
  eigenvalues    EBANDS =      -644.14774799
  atomic energy  EATOM  =     33197.16788402
  ---------------------------------------------------
  free energy    TOTEN  =       -88.17140127 eV

  energy without entropy =      -88.15640553  energy(sigma->0) =      -88.16640269


--------------------------------------------------------------------------------------------------------




 average (electrostatic) potential at core
  the test charge radii are     1.1249
  (the norm of the test charge is              1.0000)
       1 -42.3612       2 -42.3630       3 -42.3630       4 -42.3612       5 -42.3611
       6 -42.3611       7 -42.3611       8 -42.3630       9 -42.3630      10 -42.3612
      11 -42.3611      12 -42.3613      13 -42.3611      14 -42.3611      15 -42.3594
      16 -42.3594      17 -42.3611      18 -42.3611      19 -42.3611      20 -42.3612
      21 -42.3611      22 -42.3611      23 -42.3594      24 -42.3594      25 -42.3611
      26 -42.3611      27 -42.3611      28 -42.3611      29 -42.3611      30 -42.3611
      31 -42.3611      32 -42.3611
 
 
 
 E-fermi :   2.0644     XC(G=0): -11.1301     alpha+bet : -7.0835
   add alpha+bet to get absolut eigen values

 k-point   1 :       0.0625    0.0625    0.0625
  band No.  band energies     occupation 
      1      -4.4514      2.00000
      2      -3.3671      2.00000
      3      -3.3670      2.00000
      4      -3.3670      2.00000
      5      -3.3604      2.00000
      6      -3.3515      2.00000
      7      -3.3515      2.00000
      8      -3.3515      2.00000
      9      -3.2908      2.00000
     10      -3.2907      2.00000
     11      -3.2906      2.00000
     12      -3.0265      2.00000
     13      -3.0248      2.00000
     14      -3.0232      2.00000
     15      -2.9568      2.00000
     16      -2.9556      2.00000
     17      -2.9543      2.00000
     18      -2.8340      2.00000
     19      -2.8330      2.00000
     20      -2.8320      2.00000
     21      -2.8202      2.00000
     22      -2.8179      2.00000
     23      -2.8178      2.00000
     24      -2.8178      2.00000
     25      -2.8177      2.00000
     26      -2.8154      2.00000
     27      -2.7298      2.00000
     28      -2.7287      2.00000
     29      -2.7277      2.00000
     30      -2.6436      2.00000
     31      -2.6424      2.00000
     32      -2.6411      2.00000
     33      -2.6179      2.00000
     34      -2.6171      2.00000
     35      -2.6160      2.00000
     36      -2.6075      2.00000
     37      -2.6068      2.00000
     38      -2.6059      2.00000
     39      -2.6057      2.00000
     40      -2.6050      2.00000
     41      -2.6042      2.00000
     42      -2.4926      2.00000
     43      -2.4925      2.00000
     44      -2.4915      2.00000
     45      -2.4914      2.00000
     46      -2.4903      2.00000
     47      -2.4903      2.00000
     48      -2.4298      2.00000
     49      -2.4282      2.00000
     50      -2.4280      2.00000
     51      -2.4268      2.00000
     52      -2.4266      2.00000
     53      -2.4258      2.00000
     54      -2.4250      2.00000
     55      -2.4248      2.00000
     56      -2.4239      2.00000
     57      -2.3867      2.00000
     58      -2.3857      2.00000
     59      -2.3844      2.00000
     60      -2.2754      2.00000
     61      -2.2754      2.00000
     62      -2.2742      2.00000
     63      -2.2742      2.00000
     64      -2.2731      2.00000
     65      -2.2730      2.00000
     66      -2.2420      2.00000
     67      -2.2420      2.00000
     68      -2.2419      2.00000
     69      -2.2308      2.00000
     70      -2.2307      2.00000
     71      -2.2295      2.00000
     72      -2.2236      2.00000
     73      -2.2235      2.00000
     74      -2.2235      2.00000
     75      -2.2182      2.00000
     76      -2.2182      2.00000
     77      -2.1059      2.00000
     78      -2.1046      2.00000
     79      -2.1040      2.00000
     80      -2.1040      2.00000
     81      -2.1035      2.00000
     82      -2.1023      2.00000
     83      -2.0840      2.00000
     84      -2.0834      2.00000
     85      -2.0827      2.00000
     86      -2.0472      2.00000
     87      -2.0463      2.00000
     88      -2.0452      2.00000
     89      -1.7735      2.00000
     90      -1.7730      2.00000
     91      -1.7726      2.00000
     92      -1.7263      2.00000
     93      -1.7251      2.00000
     94      -1.7241      2.00000
     95      -1.7177      2.00000
     96      -1.7169      2.00000
     97      -1.7160      2.00000
     98      -1.7149      2.00000
     99      -1.7148      2.00000
    100      -1.7140      2.00000
    101      -1.7136      2.00000
    102      -1.7127      2.00000
    103      -1.7125      2.00000
    104      -1.6657      2.00000
    105      -1.6647      2.00000
    106      -1.6637      2.00000
    107      -1.5688      2.00000
    108      -1.5674      2.00000
    109      -1.5659      2.00000
    110      -1.5303      2.00000
    111      -1.5287      2.00000
    112      -1.5275      2.00000
    113      -1.5226      2.00000
    114      -1.5214      2.00000
    115      -1.5200      2.00000
    116      -1.4877      2.00000
    117      -1.4876      2.00000
    118      -1.4512      2.00000
    119      -1.4497      2.00000
    120      -1.4495      2.00000
    121      -1.4494      2.00000
    122      -1.4493      2.00000
    123      -1.4478      2.00000
    124      -1.4401      2.00000
    125      -1.4391      2.00000
    126      -1.4382      2.00000
    127      -1.4379      2.00000
    128      -1.4372      2.00000
    129      -1.4361      2.00000
    130      -1.4062      2.00000
    131      -1.4046      2.00000
    132      -1.4030      2.00000
    133      -1.3831      2.00000
    134      -1.3824      2.00000
    135      -1.3817      2.00000
    136      -1.2388      2.00000
    137      -1.2381      2.00000
    138      -1.2374      2.00000
    139      -1.1819      2.00000
    140      -1.1816      2.00000
    141      -1.1813      2.00000
    142      -1.0399      2.00000
    143      -1.0385      2.00000
    144      -1.0371      2.00000
    145      -0.9540      2.00000
    146      -0.9538      2.00000
    147      -0.9535      2.00000
    148      -0.9474      2.00000
    149      -0.9473      2.00000
    150      -0.9473      2.00000
    151      -0.9239      2.00000
    152      -0.9239      2.00000
    153      -0.9125      2.00000
    154      -0.9125      2.00000
    155      -0.9124      2.00000
    156      -0.7916      2.00000
    157      -0.7916      2.00000
    158      -0.7916      2.00000
    159      -0.7747      2.00000
    160      -0.7746      2.00000
    161      -0.7745      2.00000
    162      -0.7744      2.00000
    163      -0.7744      2.00000
    164      -0.7743      2.00000
    165      -0.7725      2.00000
    166      -0.7725      2.00000
    167      -0.7723      2.00000
    168       0.8554      2.00000
    169       0.8568      2.00000
    170       0.8582      2.00000
    171       1.3860      2.00002
    172       1.3866      2.00002
    173       1.3881      2.00002
    174       1.3881      2.00002
    175       1.3895      2.00002
    176       1.3901      2.00002
    177       1.8458      2.06458
    178       1.9322      1.89114
    179       1.9336      1.88568
    180       1.9349      1.88019
    181       2.1218      0.53591
    182       2.1219      0.53524
    183       2.1219      0.53474
    184       3.7588     -0.00000
    185       3.7591     -0.00000
    186       3.7595     -0.00000
    187       4.7520     -0.00000
    188       4.7522     -0.00000
    189       4.7525     -0.00000
    190       5.0033     -0.00000
    191       6.8061     -0.00000
    192       6.8066     -0.00000
    193       6.8082     -0.00000
    194       6.8082     -0.00000
    195       6.8098     -0.00000
    196       6.8103     -0.00000
    197       7.4100     -0.00000
    198       7.4102     -0.00000
    199       7.4123     -0.00000
    200       7.4123     -0.00000
    201       7.4143     -0.00000
    202       7.4144     -0.00000
    203       7.5441      0.00000
    204       7.5443      0.00000
    205       7.5446      0.00000
    206       8.1781      0.00000
    207       8.1785      0.00000
    208       8.1793      0.00000
    209       8.1799      0.00000
    210       8.1805      0.00000
    211       9.2486      0.00000
    212       9.4763      0.00000

 k-point   2 :       0.1875    0.0625    0.0625
  band No.  band energies     occupation 
      1      -4.3812      2.00000
      2      -3.3416      2.00000
      3      -3.3382      2.00000
      4      -3.3353      2.00000
      5      -3.3353      2.00000
      6      -3.3206      2.00000
      7      -3.3206      2.00000
      8      -3.3120      2.00000
      9      -3.2719      2.00000
     10      -3.2604      2.00000
     11      -3.2604      2.00000
     12      -3.2202      2.00000
     13      -2.9851      2.00000
     14      -2.9846      2.00000
     15      -2.9819      2.00000
     16      -2.9334      2.00000
     17      -2.9194      2.00000
     18      -2.9194      2.00000
     19      -2.8762      2.00000
     20      -2.8762      2.00000
     21      -2.8098      2.00000
     22      -2.8097      2.00000
     23      -2.8006      2.00000
     24      -2.8006      2.00000
     25      -2.7916      2.00000
     26      -2.7916      2.00000
     27      -2.7835      2.00000
     28      -2.7543      2.00000
     29      -2.7543      2.00000
     30      -2.7486      2.00000
     31      -2.7105      2.00000
     32      -2.7105      2.00000
     33      -2.6839      2.00000
     34      -2.6839      2.00000
     35      -2.6749      2.00000
     36      -2.6748      2.00000
     37      -2.6341      2.00000
     38      -2.6341      2.00000
     39      -2.6246      2.00000
     40      -2.5992      2.00000
     41      -2.5992      2.00000
     42      -2.5938      2.00000
     43      -2.5938      2.00000
     44      -2.4901      2.00000
     45      -2.4900      2.00000
     46      -2.4894      2.00000
     47      -2.4894      2.00000
     48      -2.4408      2.00000
     49      -2.4399      2.00000
     50      -2.4380      2.00000
     51      -2.4371      2.00000
     52      -2.4363      2.00000
     53      -2.4362      2.00000
     54      -2.3888      2.00000
     55      -2.3754      2.00000
     56      -2.3754      2.00000
     57      -2.3549      2.00000
     58      -2.3549      2.00000
     59      -2.3401      2.00000
     60      -2.2891      2.00000
     61      -2.2891      2.00000
     62      -2.2710      2.00000
     63      -2.2710      2.00000
     64      -2.2618      2.00000
     65      -2.2523      2.00000
     66      -2.2523      2.00000
     67      -2.2496      2.00000
     68      -2.2287      2.00000
     69      -2.2159      2.00000
     70      -2.2043      2.00000
     71      -2.2043      2.00000
     72      -2.2006      2.00000
     73      -2.2005      2.00000
     74      -2.1997      2.00000
     75      -2.1995      2.00000
     76      -2.1981      2.00000
     77      -2.1966      2.00000
     78      -2.1944      2.00000
     79      -2.1460      2.00000
     80      -2.1460      2.00000
     81      -2.0917      2.00000
     82      -2.0917      2.00000
     83      -2.0383      2.00000
     84      -2.0383      2.00000
     85      -1.9775      2.00000
     86      -1.9775      2.00000
     87      -1.9394      2.00000
     88      -1.9187      2.00000
     89      -1.8585      2.00000
     90      -1.8492      2.00000
     91      -1.8492      2.00000
     92      -1.8291      2.00000
     93      -1.7990      2.00000
     94      -1.7925      2.00000
     95      -1.7874      2.00000
     96      -1.7874      2.00000
     97      -1.7410      2.00000
     98      -1.7410      2.00000
     99      -1.7207      2.00000
    100      -1.7206      2.00000
    101      -1.6724      2.00000
    102      -1.6724      2.00000
    103      -1.6669      2.00000
    104      -1.6668      2.00000
    105      -1.6423      2.00000
    106      -1.6423      2.00000
    107      -1.6254      2.00000
    108      -1.6254      2.00000
    109      -1.6065      2.00000
    110      -1.5707      2.00000
    111      -1.5706      2.00000
    112      -1.5376      2.00000
    113      -1.5376      2.00000
    114      -1.5095      2.00000
    115      -1.4773      2.00000
    116      -1.4627      2.00000
    117      -1.4626      2.00000
    118      -1.4545      2.00000
    119      -1.4545      2.00000
    120      -1.4477      2.00000
    121      -1.4476      2.00000
    122      -1.4281      2.00000
    123      -1.4115      2.00000
    124      -1.3957      2.00000
    125      -1.3956      2.00000
    126      -1.3894      2.00000
    127      -1.3495      2.00000
    128      -1.3494      2.00000
    129      -1.3332      2.00000
    130      -1.3332      2.00000
    131      -1.3210      2.00000
    132      -1.3209      2.00000
    133      -1.3078      2.00000
    134      -1.3011      2.00000
    135      -1.3011      2.00000
    136      -1.2925      2.00000
    137      -1.1882      2.00000
    138      -1.1882      2.00000
    139      -1.1580      2.00000
    140      -1.1580      2.00000
    141      -1.1248      2.00000
    142      -1.0434      2.00000
    143      -1.0323      2.00000
    144      -1.0323      2.00000
    145      -0.9785      2.00000
    146      -0.9785      2.00000
    147      -0.9642      2.00000
    148      -0.9614      2.00000
    149      -0.9610      2.00000
    150      -0.9275      2.00000
    151      -0.9256      2.00000
    152      -0.9256      2.00000
    153      -0.8833      2.00000
    154      -0.8833      2.00000
    155      -0.8485      2.00000
    156      -0.8485      2.00000
    157      -0.8283      2.00000
    158      -0.8133      2.00000
    159      -0.8133      2.00000
    160      -0.8127      2.00000
    161      -0.8127      2.00000
    162      -0.8056      2.00000
    163      -0.7753      2.00000
    164      -0.7745      2.00000
    165      -0.7744      2.00000
    166      -0.7736      2.00000
    167      -0.5104      2.00000
    168       0.3936      2.00000
    169       0.3936      2.00000
    170       0.8764      2.00000
    171       0.9025      2.00000
    172       0.9025      2.00000
    173       1.4171      2.00005
    174       1.4172      2.00005
    175       1.5527      2.00178
    176       1.9680      1.72007
    177       1.9911      1.57647
    178       1.9912      1.57594
    179       2.0118      1.42860
    180       2.0118      1.42851
    181       2.2908     -0.06792
    182       2.5437     -0.00363
    183       2.5438     -0.00363
    184       3.2277     -0.00000
    185       3.9148     -0.00000
    186       3.9148     -0.00000
    187       4.7761     -0.00000
    188       5.0351     -0.00000
    189       5.0351     -0.00000
    190       5.4489     -0.00000
    191       5.9778     -0.00000
    192       5.9778     -0.00000
    193       6.2087     -0.00000
    194       6.2087     -0.00000
    195       6.5182     -0.00000
    196       6.5182     -0.00000
    197       6.9297     -0.00000
    198       6.9297     -0.00000
    199       7.5307      0.00000
    200       7.5307      0.00000
    201       7.5627      0.00000
    202       7.5627      0.00000
    203       7.7994      0.00000
    204       7.7994      0.00000
    205       8.1573      0.00000
    206       8.1957      0.00000
    207       8.3420      0.00000
    208       8.3443      0.00000
    209       8.4874      0.00000
    210       8.5511      0.00000
    211       8.6352      0.00000
    212       8.6688      0.00000

 k-point   3 :       0.3125    0.0625    0.0625
  band No.  band energies     occupation 
      1      -4.2427      2.00000
      2      -3.4973      2.00000
      3      -3.2924      2.00000
      4      -3.2847      2.00000
      5      -3.2742      2.00000
      6      -3.2742      2.00000
      7      -3.2594      2.00000
      8      -3.2594      2.00000
      9      -3.2433      2.00000
     10      -3.2347      2.00000
     11      -3.1999      2.00000
     12      -3.1999      2.00000
     13      -3.0548      2.00000
     14      -3.0268      2.00000
     15      -2.9735      2.00000
     16      -2.9734      2.00000
     17      -2.9460      2.00000
     18      -2.9114      2.00000
     19      -2.9110      2.00000
     20      -2.9107      2.00000
     21      -2.9103      2.00000
     22      -2.8899      2.00000
     23      -2.8563      2.00000
     24      -2.8563      2.00000
     25      -2.8511      2.00000
     26      -2.8510      2.00000
     27      -2.7721      2.00000
     28      -2.7720      2.00000
     29      -2.7578      2.00000
     30      -2.7578      2.00000
     31      -2.7419      2.00000
     32      -2.7419      2.00000
     33      -2.6988      2.00000
     34      -2.6987      2.00000
     35      -2.6738      2.00000
     36      -2.6734      2.00000
     37      -2.6701      2.00000
     38      -2.6697      2.00000
     39      -2.6468      2.00000
     40      -2.6467      2.00000
     41      -2.5859      2.00000
     42      -2.5859      2.00000
     43      -2.5249      2.00000
     44      -2.4882      2.00000
     45      -2.4880      2.00000
     46      -2.4797      2.00000
     47      -2.4797      2.00000
     48      -2.4707      2.00000
     49      -2.4701      2.00000
     50      -2.4669      2.00000
     51      -2.4662      2.00000
     52      -2.4366      2.00000
     53      -2.4366      2.00000
     54      -2.3743      2.00000
     55      -2.3553      2.00000
     56      -2.3553      2.00000
     57      -2.3441      2.00000
     58      -2.3441      2.00000
     59      -2.3111      2.00000
     60      -2.3110      2.00000
     61      -2.2960      2.00000
     62      -2.2927      2.00000
     63      -2.2884      2.00000
     64      -2.2800      2.00000
     65      -2.2800      2.00000
     66      -2.2777      2.00000
     67      -2.2776      2.00000
     68      -2.2694      2.00000
     69      -2.2694      2.00000
     70      -2.2657      2.00000
     71      -2.2657      2.00000
     72      -2.2353      2.00000
     73      -2.2176      2.00000
     74      -2.2175      2.00000
     75      -2.1792      2.00000
     76      -2.1617      2.00000
     77      -2.1615      2.00000
     78      -2.1556      2.00000
     79      -2.1555      2.00000
     80      -2.1546      2.00000
     81      -2.1539      2.00000
     82      -2.1445      2.00000
     83      -1.9859      2.00000
     84      -1.9859      2.00000
     85      -1.9566      2.00000
     86      -1.9295      2.00000
     87      -1.9295      2.00000
     88      -1.9175      2.00000
     89      -1.9080      2.00000
     90      -1.8998      2.00000
     91      -1.8998      2.00000
     92      -1.8957      2.00000
     93      -1.7883      2.00000
     94      -1.7882      2.00000
     95      -1.7469      2.00000
     96      -1.7369      2.00000
     97      -1.7369      2.00000
     98      -1.7098      2.00000
     99      -1.6914      2.00000
    100      -1.6914      2.00000
    101      -1.6765      2.00000
    102      -1.6765      2.00000
    103      -1.6753      2.00000
    104      -1.5950      2.00000
    105      -1.5949      2.00000
    106      -1.5801      2.00000
    107      -1.5801      2.00000
    108      -1.5606      2.00000
    109      -1.5606      2.00000
    110      -1.5504      2.00000
    111      -1.5485      2.00000
    112      -1.5484      2.00000
    113      -1.5424      2.00000
    114      -1.5424      2.00000
    115      -1.4676      2.00000
    116      -1.4675      2.00000
    117      -1.4567      2.00000
    118      -1.4493      2.00000
    119      -1.4493      2.00000
    120      -1.4400      2.00000
    121      -1.4399      2.00000
    122      -1.3488      2.00000
    123      -1.3488      2.00000
    124      -1.3434      2.00000
    125      -1.3155      2.00000
    126      -1.3067      2.00000
    127      -1.3066      2.00000
    128      -1.2613      2.00000
    129      -1.2539      2.00000
    130      -1.2402      2.00000
    131      -1.2402      2.00000
    132      -1.2298      2.00000
    133      -1.2298      2.00000
    134      -1.2165      2.00000
    135      -1.2165      2.00000
    136      -1.2101      2.00000
    137      -1.2010      2.00000
    138      -1.2010      2.00000
    139      -1.1802      2.00000
    140      -1.1629      2.00000
    141      -1.1629      2.00000
    142      -1.0782      2.00000
    143      -1.0718      2.00000
    144      -1.0716      2.00000
    145      -1.0682      2.00000
    146      -1.0231      2.00000
    147      -1.0189      2.00000
    148      -1.0189      2.00000
    149      -0.9901      2.00000
    150      -0.9707      2.00000
    151      -0.9707      2.00000
    152      -0.9682      2.00000
    153      -0.9370      2.00000
    154      -0.9370      2.00000
    155      -0.8991      2.00000
    156      -0.8856      2.00000
    157      -0.8856      2.00000
    158      -0.8847      2.00000
    159      -0.8847      2.00000
    160      -0.8668      2.00000
    161      -0.7755      2.00000
    162      -0.7747      2.00000
    163      -0.7746      2.00000
    164      -0.7738      2.00000
    165      -0.5768      2.00000
    166      -0.5768      2.00000
    167      -0.0089      2.00000
    168      -0.0089      2.00000
    169       0.1373      2.00000
    170       0.4700      2.00000
    171       0.4700      2.00000
    172       0.9199      2.00000
    173       1.3033      2.00000
    174       1.4770      2.00026
    175       1.4770      2.00026
    176       1.8524      2.06057
    177       1.8524      2.06055
    178       2.0353      1.24328
    179       2.3104     -0.07091
    180       2.4674     -0.01522
    181       2.6666     -0.00018
    182       2.6666     -0.00018
    183       3.2207     -0.00000
    184       3.2207     -0.00000
    185       4.2066     -0.00000
    186       4.2066     -0.00000
    187       5.0833     -0.00000
    188       5.0833     -0.00000
    189       5.1052     -0.00000
    190       5.5334     -0.00000
    191       5.5335     -0.00000
    192       5.6276     -0.00000
    193       5.6278     -0.00000
    194       5.6287     -0.00000
    195       5.6290     -0.00000
    196       6.0310     -0.00000
    197       7.1171     -0.00000
    198       7.1171     -0.00000
    199       7.2389     -0.00000
    200       7.6001      0.00000
    201       7.6001      0.00000
    202       7.7208      0.00000
    203       7.7209      0.00000
    204       7.7853      0.00000
    205       7.7853      0.00000
    206       7.8073      0.00000
    207       7.8073      0.00000
    208       8.1657      0.00000
    209       8.1675      0.00000
    210       8.3418      0.00000
    211       8.6713      0.00000
    212       8.7618      0.00000

 k-point   4 :       0.4375    0.0625    0.0625
  band No.  band energies     occupation 
      1      -4.0408      2.00000
      2      -3.7853      2.00000
      3      -3.2234      2.00000
      4      -3.2005      2.00000
      5      -3.1883      2.00000
      6      -3.1882      2.00000
      7      -3.1803      2.00000
      8      -3.1691      2.00000
      9      -3.1691      2.00000
     10      -3.1473      2.00000
     11      -3.1408      2.00000
     12      -3.1103      2.00000
     13      -3.1102      2.00000
     14      -3.1101      2.00000
     15      -3.0867      2.00000
     16      -3.0840      2.00000
     17      -3.0839      2.00000
     18      -3.0517      2.00000
     19      -3.0517      2.00000
     20      -3.0274      2.00000
     21      -2.9932      2.00000
     22      -2.9932      2.00000
     23      -2.8186      2.00000
     24      -2.8186      2.00000
     25      -2.7846      2.00000
     26      -2.7846      2.00000
     27      -2.7424      2.00000
     28      -2.7423      2.00000
     29      -2.7324      2.00000
     30      -2.7324      2.00000
     31      -2.7188      2.00000
     32      -2.7187      2.00000
     33      -2.7142      2.00000
     34      -2.7142      2.00000
     35      -2.6755      2.00000
     36      -2.6755      2.00000
     37      -2.6673      2.00000
     38      -2.6673      2.00000
     39      -2.6151      2.00000
     40      -2.6150      2.00000
     41      -2.6110      2.00000
     42      -2.6109      2.00000
     43      -2.5452      2.00000
     44      -2.5452      2.00000
     45      -2.5379      2.00000
     46      -2.5378      2.00000
     47      -2.4913      2.00000
     48      -2.4910      2.00000
     49      -2.4895      2.00000
     50      -2.4891      2.00000
     51      -2.4502      2.00000
     52      -2.4502      2.00000
     53      -2.4337      2.00000
     54      -2.3994      2.00000
     55      -2.3994      2.00000
     56      -2.3552      2.00000
     57      -2.3489      2.00000
     58      -2.3266      2.00000
     59      -2.3266      2.00000
     60      -2.3204      2.00000
     61      -2.3204      2.00000
     62      -2.3187      2.00000
     63      -2.3172      2.00000
     64      -2.3172      2.00000
     65      -2.2919      2.00000
     66      -2.2918      2.00000
     67      -2.2691      2.00000
     68      -2.2597      2.00000
     69      -2.2596      2.00000
     70      -2.2498      2.00000
     71      -2.2497      2.00000
     72      -2.2492      2.00000
     73      -2.2014      2.00000
     74      -2.2013      2.00000
     75      -2.1639      2.00000
     76      -2.1638      2.00000
     77      -2.1221      2.00000
     78      -2.0968      2.00000
     79      -2.0967      2.00000
     80      -2.0918      2.00000
     81      -2.0918      2.00000
     82      -2.0906      2.00000
     83      -2.0905      2.00000
     84      -2.0756      2.00000
     85      -2.0643      2.00000
     86      -2.0642      2.00000
     87      -2.0465      2.00000
     88      -2.0125      2.00000
     89      -2.0124      2.00000
     90      -2.0087      2.00000
     91      -2.0081      2.00000
     92      -1.9910      2.00000
     93      -1.6815      2.00000
     94      -1.6814      2.00000
     95      -1.6797      2.00000
     96      -1.6796      2.00000
     97      -1.6555      2.00000
     98      -1.6037      2.00000
     99      -1.5572      2.00000
    100      -1.5572      2.00000
    101      -1.5485      2.00000
    102      -1.5485      2.00000
    103      -1.5451      2.00000
    104      -1.5361      2.00000
    105      -1.5359      2.00000
    106      -1.5351      2.00000
    107      -1.5349      2.00000
    108      -1.5328      2.00000
    109      -1.5328      2.00000
    110      -1.4941      2.00000
    111      -1.4940      2.00000
    112      -1.4928      2.00000
    113      -1.4928      2.00000
    114      -1.4895      2.00000
    115      -1.4894      2.00000
    116      -1.4767      2.00000
    117      -1.4622      2.00000
    118      -1.4621      2.00000
    119      -1.4269      2.00000
    120      -1.4113      2.00000
    121      -1.4113      2.00000
    122      -1.3886      2.00000
    123      -1.3703      2.00000
    124      -1.3703      2.00000
    125      -1.3517      2.00000
    126      -1.3358      2.00000
    127      -1.3358      2.00000
    128      -1.2934      2.00000
    129      -1.2934      2.00000
    130      -1.2859      2.00000
    131      -1.2858      2.00000
    132      -1.2564      2.00000
    133      -1.2053      2.00000
    134      -1.2048      2.00000
    135      -1.2048      2.00000
    136      -1.1347      2.00000
    137      -1.1346      2.00000
    138      -1.1325      2.00000
    139      -1.1219      2.00000
    140      -1.1147      2.00000
    141      -1.1072      2.00000
    142      -1.1071      2.00000
    143      -1.1059      2.00000
    144      -1.0966      2.00000
    145      -1.0965      2.00000
    146      -1.0911      2.00000
    147      -1.0911      2.00000
    148      -1.0428      2.00000
    149      -1.0424      2.00000
    150      -1.0421      2.00000
    151      -1.0319      2.00000
    152      -1.0103      2.00000
    153      -0.9990      2.00000
    154      -0.9827      2.00000
    155      -0.9826      2.00000
    156      -0.9820      2.00000
    157      -0.9820      2.00000
    158      -0.9424      2.00000
    159      -0.7755      2.00000
    160      -0.7747      2.00000
    161      -0.7746      2.00000
    162      -0.7738      2.00000
    163      -0.6674      2.00000
    164      -0.6674      2.00000
    165      -0.3597      2.00000
    166      -0.3597      2.00000
    167      -0.2647      2.00000
    168      -0.2647      2.00000
    169       0.0830      2.00000
    170       0.0830      2.00000
    171       0.8692      2.00000
    172       0.9962      2.00000
    173       1.1192      2.00000
    174       1.5699      2.00262
    175       1.5700      2.00262
    176       1.6575      2.01428
    177       1.6972      2.02617
    178       1.6973      2.02619
    179       2.1292      0.48255
    180       2.2336     -0.00177
    181       3.4115     -0.00000
    182       3.4115     -0.00000
    183       3.9638     -0.00000
    184       3.9638     -0.00000
    185       4.2203     -0.00000
    186       4.2204     -0.00000
    187       4.6064     -0.00000
    188       4.6064     -0.00000
    189       4.7692     -0.00000
    190       4.7692     -0.00000
    191       5.0875     -0.00000
    192       5.0875     -0.00000
    193       5.6742     -0.00000
    194       6.1819     -0.00000
    195       6.1819     -0.00000
    196       6.4021     -0.00000
    197       6.7178     -0.00000
    198       6.9403     -0.00000
    199       6.9403     -0.00000
    200       7.3971     -0.00000
    201       7.3971     -0.00000
    202       7.4911     -0.00000
    203       7.6568      0.00000
    204       7.6568      0.00000
    205       7.7304      0.00000
    206       7.7305      0.00000
    207       7.7510      0.00000
    208       7.7513      0.00000
    209       7.9904      0.00000
    210       7.9978      0.00000
    211       8.3311      0.00000
    212       9.0372      0.00000

 k-point   5 :       0.0625    0.1875    0.0625
  band No.  band energies     occupation 
      1      -4.3812      2.00000
      2      -3.3416      2.00000
      3      -3.3382      2.00000
      4      -3.3353      2.00000
      5      -3.3352      2.00000
      6      -3.3207      2.00000
      7      -3.3206      2.00000
      8      -3.3120      2.00000
      9      -3.2718      2.00000
     10      -3.2605      2.00000
     11      -3.2603      2.00000
     12      -3.2202      2.00000
     13      -2.9859      2.00000
     14      -2.9837      2.00000
     15      -2.9820      2.00000
     16      -2.9334      2.00000
     17      -2.9203      2.00000
     18      -2.9184      2.00000
     19      -2.8763      2.00000
     20      -2.8761      2.00000
     21      -2.8104      2.00000
     22      -2.8091      2.00000
     23      -2.8015      2.00000
     24      -2.7999      2.00000
     25      -2.7924      2.00000
     26      -2.7906      2.00000
     27      -2.7836      2.00000
     28      -2.7544      2.00000
     29      -2.7541      2.00000
     30      -2.7486      2.00000
     31      -2.7112      2.00000
     32      -2.7097      2.00000
     33      -2.6842      2.00000
     34      -2.6839      2.00000
     35      -2.6756      2.00000
     36      -2.6740      2.00000
     37      -2.6348      2.00000
     38      -2.6335      2.00000
     39      -2.6246      2.00000
     40      -2.6003      2.00000
     41      -2.5982      2.00000
     42      -2.5944      2.00000
     43      -2.5930      2.00000
     44      -2.4906      2.00000
     45      -2.4902      2.00000
[...]
    108      -1.6407      2.00000
    109      -1.6395      2.00000
    110      -1.6393      2.00000
    111      -1.6393      2.00000
    112      -1.6387      2.00000
    113      -1.6386      2.00000
    114      -1.6379      2.00000
    115      -1.6365      2.00000
    116      -1.5845      2.00000
    117      -1.5830      2.00000
    118      -1.5814      2.00000
    119      -1.5511      2.00000
    120      -1.5423      2.00000
    121      -1.5421      2.00000
    122      -1.5411      2.00000
    123      -1.5411      2.00000
    124      -1.5401      2.00000
    125      -1.5399      2.00000
    126      -1.4795      2.00000
    127      -1.4795      2.00000
    128      -1.4794      2.00000
    129      -1.4460      2.00000
    130      -1.4459      2.00000
    131      -1.4302      2.00000
    132      -1.4292      2.00000
    133      -1.4281      2.00000
    134      -1.4214      2.00000
    135      -1.4200      2.00000
    136      -1.4189      2.00000
    137      -1.3570      2.00000
    138      -1.3559      2.00000
    139      -1.3547      2.00000
    140      -1.3132      2.00000
    141      -1.3132      2.00000
    142      -1.2619      2.00000
    143      -1.2610      2.00000
    144      -1.2600      2.00000
    145      -0.8977      2.00000
    146      -0.8975      2.00000
    147      -0.8972      2.00000
    148      -0.8840      2.00000
    149      -0.8835      2.00000
    150      -0.8833      2.00000
    151      -0.8833      2.00000
    152      -0.8832      2.00000
    153      -0.8832      2.00000
    154      -0.8830      2.00000
    155      -0.8829      2.00000
    156      -0.8829      2.00000
    157      -0.8828      2.00000
    158      -0.8827      2.00000
    159      -0.8821      2.00000
    160      -0.8813      2.00000
    161      -0.8812      2.00000
    162      -0.8810      2.00000
    163      -0.8715      2.00000
    164      -0.8713      2.00000
    165      -0.8710      2.00000
    166      -0.8636      2.00000
    167      -0.8635      2.00000
    168      -0.8633      2.00000
    169       2.1445      0.37886
    170       2.1461      0.36852
    171       2.1477      0.35858
    172       2.4639     -0.01611
    173       2.4655     -0.01570
    174       2.4669     -0.01536
    175       2.4669     -0.01536
    176       2.4682     -0.01504
    177       2.4698     -0.01464
    178       2.7515     -0.00001
    179       2.7521     -0.00001
    180       2.7527     -0.00001
    181       2.9666     -0.00000
    182       2.9673     -0.00000
    183       2.9681     -0.00000
    184       3.3008     -0.00000
    185       3.3027     -0.00000
    186       3.3039     -0.00000
    187       3.3039     -0.00000
    188       3.3051     -0.00000
    189       3.3070     -0.00000
    190       3.6054     -0.00000
    191       3.6070     -0.00000
    192       3.6086     -0.00000
    193       6.4292     -0.00000
    194       6.4299     -0.00000
    195       6.4306     -0.00000
    196       6.7588     -0.00000
    197       6.7597     -0.00000
    198       6.7605     -0.00000
    199       7.1828     -0.00000
    200       7.1831     -0.00000
    201       7.1852     -0.00000
    202       7.1852     -0.00000
    203       7.1873     -0.00000
    204       7.1876     -0.00000
    205       7.5198     -0.00000
    206       7.5203     -0.00000
    207       7.5220     -0.00000
    208       7.5224     -0.00000
    209       7.5240      0.00000
    210       7.5317      0.00000
    211       7.9300      0.00000
    212       8.1650      0.00000


--------------------------------------------------------------------------------------------------------


 soft charge-density along one line, spin component           1
         0         1         2         3         4         5         6         7         8         9
 total charge-density along one line
 
 pseudopotential strength for first ion, spin component:           1
-12.584   0.000   0.000   0.000   0.000   0.209  -0.000  -0.000
  0.000 -12.584   0.000   0.000  -0.000  -0.000   0.209  -0.000
  0.000   0.000 -12.577   0.000  -0.000  -0.000  -0.000   0.208
  0.000   0.000   0.000 -12.584   0.000  -0.000  -0.000  -0.000
  0.000  -0.000  -0.000   0.000 -12.577  -0.000   0.000   0.000
  0.209  -0.000  -0.000  -0.000  -0.000   0.442   0.000   0.000
 -0.000   0.209  -0.000  -0.000   0.000   0.000   0.442   0.000
 -0.000  -0.000   0.208  -0.000   0.000   0.000   0.000   0.443
 -0.000  -0.000  -0.000   0.209  -0.000   0.000   0.000   0.000
 -0.000   0.000   0.000  -0.000   0.208   0.000  -0.000  -0.000
 -0.000  -0.000   0.000  -0.000  -0.000  -0.000   0.000  -0.000
 -0.000   0.000  -0.000   0.000   0.000   0.000  -0.000   0.000
  0.000  -0.000   0.000   0.000   0.000  -0.000   0.000  -0.000
  0.000  -0.000  -0.000   0.000   0.000  -0.000   0.000   0.000
 -0.000   0.000  -0.000  -0.000   0.000   0.000  -0.000   0.000
 -0.000   0.000  -0.000  -0.000  -0.000   0.000  -0.000   0.000
 -0.000   0.000   0.000  -0.000  -0.000   0.000  -0.000  -0.000
  0.000  -0.000   0.000   0.000  -0.000  -0.000   0.000  -0.000
 total augmentation occupancy for first ion, spin component:           1
  1.943   0.000  -0.001  -0.000  -0.000  -0.035  -0.000  -0.000  -0.000   0.000   0.004  -0.001   0.000  -0.000   0.000   0.000
  0.000   1.945  -0.001  -0.000  -0.001  -0.000  -0.037   0.001   0.000   0.000   0.003  -0.001  -0.000   0.000   0.000   0.000
 -0.001  -0.001   1.968  -0.001  -0.002  -0.000   0.001  -0.059   0.001   0.001   0.011   0.001   0.000  -0.000   0.000   0.000
 -0.000  -0.000  -0.001   1.948  -0.000  -0.000   0.000   0.001  -0.039   0.001   0.002  -0.001  -0.000   0.000  -0.000   0.000
 -0.000  -0.001  -0.002  -0.000   1.961   0.000   0.000   0.001   0.001  -0.054   0.006   0.000  -0.000  -0.000   0.000   0.000
 -0.035  -0.000  -0.000  -0.000   0.000   0.049   0.000   0.001   0.000  -0.000  -0.002   0.001   0.000   0.000  -0.000  -0.000
 -0.000  -0.037   0.001   0.000   0.000   0.000   0.051  -0.001  -0.000   0.001  -0.000   0.001  -0.000  -0.000  -0.000  -0.000
 -0.000   0.001  -0.059   0.001   0.001   0.001  -0.001   0.043  -0.001  -0.001  -0.008   0.000  -0.000   0.000  -0.000   0.000
 -0.000   0.000   0.001  -0.039   0.001   0.000  -0.000  -0.001   0.053  -0.001   0.001   0.001   0.000  -0.000   0.000  -0.000
  0.000   0.000   0.001   0.001  -0.054  -0.000   0.001  -0.001  -0.001   0.041  -0.005   0.000   0.000   0.000   0.000  -0.000
  0.004   0.003   0.011   0.002   0.006  -0.002  -0.000  -0.008   0.001  -0.005   0.953  -0.285   0.000   0.000  -0.000  -0.000
 -0.001  -0.001   0.001  -0.001   0.000   0.001   0.001   0.000   0.001   0.000  -0.285   0.131  -0.000  -0.000   0.000   0.000
  0.000  -0.000   0.000  -0.000  -0.000   0.000  -0.000  -0.000   0.000   0.000   0.000  -0.000   0.079   0.001   0.002  -0.004
 -0.000   0.000  -0.000   0.000  -0.000   0.000  -0.000   0.000  -0.000   0.000   0.000  -0.000   0.001   0.083  -0.001  -0.000
  0.000   0.000   0.000  -0.000   0.000  -0.000  -0.000  -0.000   0.000   0.000  -0.000   0.000   0.002  -0.001   0.081  -0.000
  0.000   0.000   0.000   0.000   0.000  -0.000  -0.000   0.000  -0.000  -0.000  -0.000   0.000  -0.004  -0.000  -0.000   0.000
  0.000  -0.000   0.000   0.000   0.000  -0.000   0.000  -0.000  -0.000  -0.000  -0.000  -0.000  -0.000  -0.004  -0.000   0.000
 -0.000  -0.000  -0.000  -0.000   0.000   0.000   0.000   0.000   0.000  -0.000   0.000  -0.000  -0.000  -0.000  -0.004   0.000


------------------------ aborting loop because EDIFF is reached ----------------------------------------




--------------------------------------------------------------------------------------------------------


    CHARGE:  VPU time   11.88: CPU time   11.90
    FORLOC:  VPU time    0.08: CPU time    0.08
    FORNL :  VPU time  113.81: CPU time  113.96
    STRESS:  VPU time  166.20: CPU time  166.43
    FORCOR:  VPU time    0.43: CPU time    0.43
    FORHAR:  VPU time    0.14: CPU time    0.14
    MIXING:  VPU time    0.01: CPU time    0.01


--------------------------------------------------------------------------------------------------------



  FREE ENERGIE OF THE ION-ELECTRON SYSTEM (eV)
  ---------------------------------------------------
  free  energy   TOTEN  =       -88.171401 eV

  energy  without entropy=      -88.156406  energy(sigma->0) =      -88.166403
 

  FORCE on cell =-STRESS in cart. coord.  units (eV/reduce length):
  Direction    X        Y        Z        XY       YZ       ZX
  --------------------------------------------------------------------------------------
  Alpha Z   2764.37   2764.37   2764.37
  Ewald    -9797.99  -9797.86  -9797.86     -0.00     -0.00     -0.00
  Hartree   2359.49   2359.59   2359.59     -0.00     -0.00     -0.00
  E(xc)    -1852.38  -1852.38  -1852.38     -0.00     -0.00     -0.00
  Local     2974.92   2974.69   2974.69      0.00      0.00      0.00
  n-local  -2163.20  -2166.58  -2159.83      2.00      1.09      0.18
  augment   1336.32   1336.31   1336.31     -0.00     -0.00     -0.00
  Kinetic   4345.94   4340.32   4351.55      1.45     -0.21     -1.88
  -------------------------------------------------------------------------------------
  Total      -32.54    -32.55    -32.55     -0.00     -0.00     -0.00
  in kB      -79.26    -79.27    -79.27     -0.00     -0.00     -0.00
  external pressure =      -79.27 kB  Pullay stress =        0.00 kB


 VOLUME and BASIS-vectors are now :
 -----------------------------------------------------------------------------
  energy-cutoff  :      600.00
  volume of cell :      657.80
      direct lattice vectors                 reciprocal lattice vectors
     8.696891050  0.000000000  0.000000000     0.114983618 -0.000000002 -0.000000002
     0.000000160  8.696891050  0.000000000     0.000000000  0.114983618 -0.000000002
     0.000000160  0.000000160  8.696891050     0.000000000  0.000000000  0.114983618

  length of vectors
     8.696891050  8.696891050  8.696891050     0.114983618  0.114983618  0.114983618


 FORCES acting on ions
    electron-ion (+dipol)            ewald-force                    non-local-force                 convergence-correction
 -----------------------------------------------------------------------------------------------
   0.227E-01 0.139E+00 -.132E-07   -.254E-01 -.138E+00 0.141E-07   0.191E-02 -.553E-03 -.107E-20   0.268E-03 -.247E-03 0.154E-09
   0.877E+00 0.169E+01 -.766E-08   -.870E+00 -.168E+01 0.268E-09   -.101E-01 -.860E-02 -.322E-20   -.149E-02 -.159E-02 -.166E-09
   0.877E+00 -.291E-07 -.169E+01   -.870E+00 0.307E-07 0.168E+01   -.101E-01 0.158E-09 0.860E-02   -.149E-02 0.160E-09 0.159E-02
   0.227E-01 -.139E+00 0.772E-08   -.254E-01 0.138E+00 -.821E-08   0.191E-02 0.553E-03 0.150E-20   0.268E-03 0.247E-03 -.115E-09
   -.108E+01 -.791E-02 0.791E-02   0.108E+01 0.784E-02 -.784E-02   -.132E-02 0.600E-04 -.600E-04   -.411E-03 0.224E-04 -.224E-04
   -.573E+00 0.206E-08 0.380E-07   0.575E+00 -.155E-08 -.419E-07   -.110E-02 0.585E-20 -.523E-21   -.457E-03 0.311E-09 -.576E-09
   0.277E-01 -.138E+00 0.740E-08   -.304E-01 0.138E+00 -.788E-08   0.188E-02 0.572E-03 0.435E-21   0.313E-03 0.201E-03 -.116E-09
   0.877E+00 0.235E-07 0.169E+01   -.870E+00 -.307E-07 -.168E+01   -.101E-01 -.158E-09 -.860E-02   -.149E-02 -.195E-09 -.159E-02
   0.877E+00 -.169E+01 0.190E-08   -.870E+00 0.168E+01 -.267E-09   -.101E-01 0.860E-02 0.945E-20   -.149E-02 0.159E-02 0.130E-09
   0.227E-01 0.515E-08 -.139E+00   -.254E-01 -.568E-08 0.138E+00   0.191E-02 0.102E-10 0.553E-03   0.268E-03 -.110E-09 0.247E-03
   -.108E+01 -.791E-02 -.791E-02   0.108E+01 0.784E-02 0.784E-02   -.132E-02 0.600E-04 0.600E-04   -.411E-03 0.224E-04 0.224E-04
   -.691E+01 0.111E-06 -.132E-06   0.688E+01 -.120E-06 -.120E-06   0.630E-01 -.146E-18 0.420E-19   0.825E-02 0.624E-09 0.624E-09
   -.108E+01 0.791E-02 0.791E-02   0.108E+01 -.784E-02 -.784E-02   -.132E-02 -.600E-04 -.600E-04   -.411E-03 -.224E-04 -.224E-04
   -.239E+00 0.108E-07 0.109E-07   0.237E+00 -.111E-07 -.111E-07   0.244E-02 0.299E-19 0.144E-20   -.747E-03 -.265E-09 -.265E-09
   0.888E+00 -.166E+01 0.179E-08   -.880E+00 0.166E+01 -.241E-09   -.101E-01 0.848E-02 0.886E-20   -.149E-02 0.162E-02 0.131E-09
   0.888E+00 0.231E-07 0.166E+01   -.880E+00 -.302E-07 -.166E+01   -.101E-01 -.156E-09 -.848E-02   -.149E-02 -.162E-09 -.162E-02
   0.277E-01 0.138E+00 -.134E-07   -.304E-01 -.138E+00 0.143E-07   0.188E-02 -.572E-03 -.326E-20   0.313E-03 -.201E-03 0.126E-09
   0.607E+00 0.232E-02 -.232E-02   -.610E+00 -.235E-02 0.235E-02   0.137E-02 0.432E-04 -.432E-04   0.803E-03 -.161E-04 0.161E-04
   0.459E+00 -.203E-08 -.266E-07   -.452E+00 0.154E-08 0.265E-07   -.626E-02 0.581E-20 0.108E-19   -.202E-03 -.291E-09 0.482E-09
   0.227E-01 -.107E-07 0.139E+00   -.254E-01 0.115E-07 -.138E+00   0.191E-02 -.102E-10 -.553E-03   0.268E-03 0.150E-09 -.247E-03
   -.108E+01 0.791E-02 -.791E-02   0.108E+01 -.784E-02 0.784E-02   -.132E-02 -.600E-04 0.600E-04   -.411E-03 -.224E-04 0.224E-04
   -.573E+00 0.391E-07 0.203E-08   0.575E+00 -.419E-07 -.155E-08   -.110E-02 -.219E-21 0.391E-21   -.456E-03 -.576E-09 0.311E-09
   0.888E+00 -.287E-07 -.166E+01   -.880E+00 0.302E-07 0.166E+01   -.101E-01 0.156E-09 0.848E-02   -.149E-02 0.161E-09 0.162E-02
   0.888E+00 0.166E+01 -.758E-08   -.880E+00 -.166E+01 0.294E-09   -.101E-01 -.848E-02 -.546E-20   -.149E-02 -.162E-02 -.132E-09
   0.277E-01 -.109E-07 0.138E+00   -.304E-01 0.118E-07 -.138E+00   0.188E-02 -.105E-10 -.572E-03   0.313E-03 0.122E-09 -.201E-03
   0.607E+00 0.232E-02 0.232E-02   -.610E+00 -.235E-02 -.235E-02   0.137E-02 0.432E-04 0.432E-04   0.803E-03 -.161E-04 -.161E-04
   0.180E+01 -.412E-08 0.249E-06   -.182E+01 0.206E-08 0.206E-08   0.130E-01 0.151E-19 0.913E-20   0.120E-02 -.568E-09 -.568E-09
   0.607E+00 -.232E-02 -.232E-02   -.610E+00 0.235E-02 0.235E-02   0.137E-02 -.432E-04 -.432E-04   0.803E-03 0.161E-04 0.161E-04
   0.222E+00 -.957E-08 -.947E-08   -.222E+00 0.981E-08 0.981E-08   0.599E-04 -.281E-20 0.846E-21   0.513E-03 0.270E-09 0.270E-09
   0.277E-01 0.485E-08 -.138E+00   -.304E-01 -.535E-08 0.138E+00   0.188E-02 0.105E-10 0.572E-03   0.313E-03 -.112E-09 0.201E-03
   0.607E+00 -.232E-02 0.232E-02   -.610E+00 0.235E-02 -.235E-02   0.137E-02 -.432E-04 0.432E-04   0.803E-03 0.161E-04 -.161E-04
   0.459E+00 -.255E-07 -.205E-08   -.452E+00 0.265E-07 0.154E-08   -.626E-02 0.234E-19 -.382E-20   -.203E-03 0.482E-09 -.291E-09
 -----------------------------------------------------------------------------------------------
   0.135E-02 -.392E-10 0.190E-08   -.715E-13 -.270E-12 -.871E-13   -.189E-02 -.236E-17 -.539E-18   -.145E-03 0.340E-10 0.336E-10
 
 
 POSITION                                       TOTAL-FORCE (eV/Angst)
 -----------------------------------------------------------------------------------
      6.52267      6.52267      4.34845        -0.000482     -0.000075      0.000000
      6.52267      6.52267      0.00000        -0.004788     -0.005732      0.000000
      6.52267      0.00000      2.17422        -0.004788      0.000000      0.005732
      6.52267      2.17422      4.34845        -0.000482      0.000075     -0.000000
      0.00000      6.52267      2.17422         0.001028      0.000014     -0.000014
      0.00000      0.00000      4.34845         0.000613      0.000000      0.000000
      2.17422      6.52267      4.34845        -0.000481      0.000073      0.000000
      6.52267      0.00000      6.52267        -0.004788     -0.000000     -0.005732
      6.52267      2.17422      0.00000        -0.004788      0.005732     -0.000000
      6.52267      4.34845      2.17422        -0.000482      0.000000      0.000075
      0.00000      6.52267      6.52267         0.001028      0.000014      0.000014
      8.67689      0.00000      0.00000         0.039493     -0.000000     -0.000000
      0.00000      2.17422      2.17422         0.001028     -0.000014     -0.000014
      0.00000      4.34845      4.34845         0.000063     -0.000000     -0.000000
      2.17422      6.52267      0.00000        -0.004362      0.005191      0.000000
      2.17422      0.00000      2.17422        -0.004362     -0.000000     -0.005191
      2.17422      2.17422      4.34845        -0.000481     -0.000073      0.000000
      4.34845      6.52267      2.17422        -0.001161     -0.000006      0.000006
      4.34845      0.00000      4.34845         0.001042     -0.000000      0.000000
      6.52267      4.34845      6.52267        -0.000482     -0.000000     -0.000075
      0.00000      2.17422      6.52267         0.001028     -0.000014      0.000014
      0.00000      4.34845      0.00000         0.000613      0.000000     -0.000000
      2.17422      0.00000      6.52267        -0.004362      0.000000      0.005191
      2.17422      2.17422      0.00000        -0.004362     -0.005191      0.000000
      2.17422      4.34845      2.17422        -0.000481     -0.000000     -0.000073
      4.34845      6.52267      6.52267        -0.001161     -0.000006     -0.000006
      4.34845      0.00000      0.00000        -0.002204     -0.000000      0.000000
      4.34845      2.17422      2.17422        -0.001161      0.000006      0.000006
      4.34845      4.34845      4.34845         0.000323      0.000000      0.000000
      2.17422      4.34845      6.52267        -0.000481      0.000000      0.000073
      4.34845      2.17422      6.52267        -0.001161      0.000006     -0.000006
      4.34845      4.34845      0.00000         0.001042      0.000000      0.000000
 -----------------------------------------------------------------------------------
    total drift:                               -0.000680     -0.000000      0.000000


--------------------------------------------------------------------------------------------------------



 mean value of Nose-termostat <S>:     1.000 mean value of <T> :     0.000
 mean temperature <T/S>/<1/S>  :     0.000

     LOOP+:  VPU time 1786.89: CPU time 1789.55

 ----------------------------------------------------------------------------- 
|                                                                             |
|           W    W    AA    RRRRR   N    N  II  N    N   GGGG   !!!           |
|           W    W   A  A   R    R  NN   N  II  NN   N  G    G  !!!           |
|           W    W  A    A  R    R  N N  N  II  N N  N  G       !!!           |
|           W WW W  AAAAAA  RRRRR   N  N N  II  N  N N  G  GGG   !            |
|           WW  WW  A    A  R   R   N   NN  II  N   NN  G    G                |
|           W    W  A    A  R    R  N    N  II  N    N   GGGG   !!!           |
|                                                                             |
|      The partial DOS and the PROCAR file are not evaluated for NPAR/=1      |
|      please rerun with NPAR=1                                               |
|                                                                             |
 ----------------------------------------------------------------------------- 

  
  
 General timing and accounting informations for this job:
 ========================================================
  
                  Total CPU time used (sec):     1837.065
                            User time (sec):     1802.428
                          System time (sec):       34.637
                         Elapsed time (sec):     1839.844
  
                   Maximum memory used (kb):     3843936.
                   Average memory used (kb):           0.
  
                          Minor page faults:       714092
                          Major page faults:            0
                 Voluntary context switches:          907
