 vasp.4.6.28 25Jul05 complex 
 executed on             LinuxIFC date 2017.01.27  15:55:13
 running on    4 nodes
 distr:  one band on    1 nodes,    4 groups


--------------------------------------------------------------------------------------------------------


 INCAR:
 POTCAR:   PAW_PBE Ag 06Sep2000                   
 POTCAR:   PAW_PBE Ag 06Sep2000                   
   VRHFIN =Ag : s1 d10                                                          
   LEXCH  = PE                                                                  
   EATOM  =  1037.4134 eV,   76.2477 Ry                                         
                                                                                
   TITEL  = PAW_PBE Ag 06Sep2000                                                
   LULTRA =        F    use ultrasoft PP ?                                      
   IUNSCR =        1    unscreen: 0-lin 1-nonlin 2-no                           
   RPACOR =    2.000    partial core radius                                     
   POMASS =  107.868; ZVAL   =   11.000    mass and valenz                      
   RCORE  =    2.400    outmost cutoff radius                                   
   RWIGS  =    2.840; RWIGS  =    1.503    wigner-seitz radius (au A)           
   ENMAX  =  249.846; ENMIN  =  187.385 eV                                      
   RCLOC  =    1.962    cutoff for local pot                                    
   LCOR   =        T    correct aug charges                                     
   LPAW   =        T    paw PP                                                  
   EAUG   =  412.496                                                            
   DEXC   =    -.047                                                            
   RMAX   =    2.917    core radius for proj-oper                               
   RAUG   =    1.300    factor for augmentation sphere                          
   RDEP   =    2.416    radius for radial grids                                 
   QCUT   =   -4.285; QGAM   =    8.570    optimization parameters              
                                                                                
   Description                                                                  
     l     E      TYP  RCUT    TYP  RCUT                                        
     2   .000     23  2.400                                                     
     2   .000     23  2.400                                                     
     0   .000     23  2.400                                                     
     0   .000     23  2.400                                                     
     1  -.200     23  2.400                                                     
     1  1.500     23  2.400                                                     
     3   .000      7   .000                                                     
  local pseudopotential read in
  partial core-charges read in
  atomic valenz-charges read in
  non local Contribution for L=           2  read in
    real space projection operators read in
  non local Contribution for L=           2  read in
    real space projection operators read in
  non local Contribution for L=           0  read in
    real space projection operators read in
  non local Contribution for L=           0  read in
    real space projection operators read in
  non local Contribution for L=           1  read in
    real space projection operators read in
  non local Contribution for L=           1  read in
    real space projection operators read in
    PAW grid and wavefunctions read in
 
   number of l-projection  operators is LMAX  =           6
   number of lm-projection operators is LMMAX =          18
 

 ----------------------------------------------------------------------------- 
|                                                                             |
|  ADVICE TO THIS USER RUNNING 'VASP/VAMP'   (HEAR YOUR MASTER'S VOICE ...):  |
|                                                                             |
|      You have a (more or less) 'large supercell' and for larger cells       |
|      it might be more efficient to use real space projection operators      |
|      So try LREAL= Auto  in the INCAR   file.                               |
|      Mind: If you want to do an extremely accurate calculations keep the    |
|      reciprocal projection scheme          (i.e. LREAL=.FALSE.)             |
|                                                                             |
 ----------------------------------------------------------------------------- 

 PAW_PBE Ag 06Sep2000                   :
 energy of atom  1       EATOM=-1037.4134
 kinetic energy error for atom=    0.0019 (will be added to EATOM!!)
 
 EXHCAR: internal setup
 exchange correlation table for  LEXCH =        8
   RHO(1)=    0.500       N(1)  =     2000
   RHO(2)=  100.500       N(2)  =     4000
 
 POSCAR: No title                                
  positions in direct lattice
  No initial velocities read in
 


--------------------------------------------------------------------------------------------------------


 ion  position               nearest neighbor table
   1  0.750  0.750  0.500-   3 3.07  14 3.07  19 3.07  20 3.07   5 3.07  26 3.07  11 3.07   6 3.07
                            18 3.07  29 3.07  10 3.07   8 3.07
   2  0.750  0.750  0.000-   8 3.07  10 3.07  22 3.07  27 3.07  11 3.07  18 3.07  12 3.07  26 3.07
                             5 3.07  32 3.07   3 3.07  20 3.07
   3  0.750  0.000  0.250-   1 3.07   5 3.07   9 3.07  28 3.07  19 3.07  12 3.07  18 3.07   6 3.07
                            27 3.07  13 3.07   4 3.07   2 3.07
   4  0.750  0.250  0.500-   6 3.07   8 3.07  10 3.07  29 3.07  13 3.07  31 3.07  21 3.07  28 3.07
                            14 3.07  19 3.07   3 3.07  20 3.07
   5  0.000  0.750  0.250-   3 3.07  12 3.07  14 3.07  25 3.07  15 3.07   1 3.07   7 3.07  10 3.07
                            16 3.07   2 3.07  22 3.07   6 3.07
   6  0.000  0.000  0.500-   4 3.07   7 3.07  11 3.07  13 3.07   8 3.07  16 3.07   1 3.07   3 3.07
                            17 3.07  23 3.07  21 3.07   5 3.07
   7  0.250  0.750  0.500-   6 3.07  16 3.07  29 3.07  30 3.07  11 3.07  18 3.07  19 3.07  26 3.07
                             5 3.07  14 3.07  25 3.07  23 3.07
   8  0.750  0.000  0.750-   2 3.07   4 3.07  11 3.07  31 3.07  27 3.07   6 3.07  21 3.07  26 3.07
                            12 3.07  19 3.07   9 3.07   1 3.07
   9  0.750  0.250  0.000-   3 3.07  12 3.07  20 3.07  32 3.07  28 3.07  21 3.07  27 3.07  13 3.07
                            31 3.07  22 3.07  10 3.07   8 3.07
  10  0.750  0.500  0.250-   2 3.07   4 3.07  13 3.07  18 3.07  22 3.07  29 3.07  14 3.07  28 3.07
                             5 3.07  32 3.07   9 3.07   1 3.07
  11  0.000  0.750  0.750-   6 3.07   8 3.07  22 3.07  30 3.07   7 3.07   2 3.07  20 3.07   1 3.07
                            23 3.07  15 3.07  14 3.07  12 3.07
  12  0.000  0.000  0.000-   5 3.07   9 3.07  15 3.07  21 3.07   3 3.07  23 3.07  16 3.07   2 3.07
                             8 3.07  24 3.07  13 3.07  11 3.07
  13  0.000  0.250  0.250-   6 3.07  10 3.07  16 3.07  22 3.07   4 3.07  24 3.07  17 3.07   3 3.07
                             9 3.07  25 3.07  14 3.07  12 3.07
  14  0.000  0.500  0.500-   1 3.07   5 3.07  17 3.07  21 3.07  20 3.07  25 3.07   7 3.07  10 3.07
                             4 3.07  30 3.07  13 3.07  11 3.07
  15  0.250  0.750  0.000-  12 3.07  23 3.07  25 3.07  32 3.07  26 3.07   5 3.07  18 3.07  22 3.07
                            27 3.07  11 3.07  30 3.07  16 3.07
  16  0.250  0.000  0.250-   7 3.07  13 3.07  18 3.07  24 3.07   6 3.07  27 3.07  19 3.07   5 3.07
                            12 3.07  28 3.07  17 3.07  15 3.07
  17  0.250  0.250  0.500-  14 3.07  19 3.07  23 3.07  25 3.07  21 3.07  28 3.07   6 3.07  13 3.07
                            29 3.07  31 3.07  30 3.07  16 3.07
  18  0.500  0.750  0.250-  10 3.07  16 3.07  27 3.07  29 3.07   2 3.07   7 3.07   1 3.07  25 3.07
                             3 3.07  15 3.07  19 3.07  32 3.07
  19  0.500  0.000  0.500-   1 3.07  17 3.07  26 3.07  28 3.07   3 3.07  23 3.07   4 3.07   7 3.07
                             8 3.07  16 3.07  18 3.07  31 3.07
  20  0.750  0.500  0.750-   1 3.07   9 3.07  21 3.07  26 3.07  14 3.07  32 3.07  11 3.07  29 3.07
                            31 3.07  22 3.07   4 3.07   2 3.07
  21  0.000  0.250  0.750-  12 3.07  14 3.07  20 3.07  23 3.07   9 3.07  17 3.07   4 3.07   8 3.07
                            24 3.07  30 3.07  22 3.07   6 3.07
  22  0.000  0.500  0.000-   2 3.07  11 3.07  13 3.07  24 3.07  10 3.07  30 3.07  20 3.07   9 3.07
                            25 3.07  15 3.07  21 3.07   5 3.07
  23  0.250  0.000  0.750-  15 3.07  17 3.07  21 3.07  26 3.07  12 3.07  19 3.07   6 3.07  11 3.07
                            27 3.07  31 3.07  24 3.07   7 3.07
  24  0.250  0.250  0.000-  16 3.07  22 3.07  27 3.07  30 3.07  13 3.07  31 3.07  28 3.07  12 3.07
                            21 3.07  32 3.07  25 3.07  23 3.07
  25  0.250  0.500  0.250-   5 3.07  15 3.07  17 3.07  28 3.07  14 3.07  32 3.07  22 3.07  13 3.07
                            29 3.07  18 3.07  24 3.07   7 3.07
  26  0.500  0.750  0.750-  19 3.07  20 3.07  23 3.07  32 3.07   1 3.07  15 3.07   8 3.07   2 3.07
                            30 3.07   7 3.07  27 3.07  29 3.07
  27  0.500  0.000  0.000-   2 3.07  18 3.07  24 3.07  31 3.07  16 3.07   8 3.07   9 3.07  23 3.07
                            15 3.07   3 3.07  28 3.07  26 3.07
  28  0.500  0.250  0.250-   3 3.07  19 3.07  25 3.07  32 3.07  17 3.07   9 3.07  10 3.07  24 3.07
                            16 3.07   4 3.07  29 3.07  27 3.07
  29  0.500  0.500  0.500-   4 3.07   7 3.07  18 3.07  31 3.07  30 3.07  10 3.07  20 3.07  25 3.07
                            17 3.07   1 3.07  26 3.07  28 3.07
  30  0.250  0.500  0.750-   7 3.07  11 3.07  24 3.07  31 3.07  29 3.07  22 3.07  26 3.07  14 3.07
                            21 3.07  32 3.07  17 3.07  15 3.07
  31  0.500  0.250  0.750-   8 3.07  27 3.07  29 3.07  30 3.07  24 3.07   4 3.07   9 3.07  17 3.07
                            20 3.07  23 3.07  19 3.07  32 3.07
  32  0.500  0.500  0.000-   9 3.07  15 3.07  26 3.07  28 3.07  20 3.07  25 3.07   2 3.07  10 3.07
                            24 3.07  30 3.07  18 3.07  31 3.07
 
  LATTYP: Found a simple cubic cell.
 ALAT       =     8.6968910500
  
  Lattice vectors:
  
 A1 = (   8.6968910500,   0.0000000000,   0.0000000000)
 A2 = (   0.0000001600,   8.6968910500,   0.0000000000)
 A3 = (   0.0000001600,   0.0000001600,   8.6968910500)
 Subroutine PRICEL returns following result:
 
  LATTYP: Found a face centered cubic cell.
 ALAT       =     4.3484455650
  
  Lattice vectors:
  
 A1 = (   2.1742228025,   2.1742227625,  -0.0000000000)
 A2 = (   2.1742227225,  -0.0000000400,  -2.1742227625)
 A3 = (   0.0000000000,   2.1742227225,  -2.1742227625)
 
  32 primitive cells build up your supercell.
 

Analysis of symmetry for initial positions (statically):

 Routine SETGRP: Setting up the symmetry group for a 
 simple cubic supercell.


 Subroutine GETGRP returns: Found 48 space group operations
 (whereof 48 operations were pure point group operations)
 out of a pool of 48 trial point group operations.


The static configuration has the point symmetry O_h .

Analysis of symmetry for dynamics (positions and initial velocities):

 Subroutine DYNSYM returns: Found 48 space group operations
 (whereof 48 operations were pure point group operations)
 out of a pool of 48 trial space group operations
 (whereof 48 operations were pure point group operations)
 and found also    32 'primitive' translations


The dynamic configuration has the point symmetry O_h .
 
 
 KPOINTS: Automatic mesh                          

Automatic generation of k-mesh.
 
 Subroutine IBZKPT returns following result:
 ===========================================
 
 Found     20 irreducible k-points:
 
 Following reciprocal coordinates:
            Coordinates               Weight
  0.062500  0.062500  0.062500      8.000000
  0.187500  0.062500  0.062500     24.000000
  0.312500  0.062500  0.062500     24.000000
  0.437500  0.062500  0.062500     24.000000
  0.187500  0.187500  0.062500     24.000000
  0.312500  0.187500  0.062500     48.000000
  0.437500  0.187500  0.062500     48.000000
  0.312500  0.312500  0.062500     24.000000
  0.437500  0.312500  0.062500     48.000000
  0.437500  0.437500  0.062500     24.000000
  0.187500  0.187500  0.187500      8.000000
  0.312500  0.187500  0.187500     24.000000
  0.437500  0.187500  0.187500     24.000000
  0.312500  0.312500  0.187500     24.000000
  0.437500  0.312500  0.187500     48.000000
  0.437500  0.437500  0.187500     24.000000
  0.312500  0.312500  0.312500      8.000000
  0.437500  0.312500  0.312500     24.000000
  0.437500  0.437500  0.312500     24.000000
  0.437500  0.437500  0.437500      8.000000
 
 Following cartesian coordinates:
            Coordinates               Weight
  0.007186  0.007186  0.007186      8.000000
  0.021559  0.007186  0.007186     24.000000
  0.035932  0.007186  0.007186     24.000000
  0.050305  0.007186  0.007186     24.000000
  0.021559  0.021559  0.007186     24.000000
  0.035932  0.021559  0.007186     48.000000
  0.050305  0.021559  0.007186     48.000000
  0.035932  0.035932  0.007186     24.000000
  0.050305  0.035932  0.007186     48.000000
  0.050305  0.050305  0.007186     24.000000
  0.021559  0.021559  0.021559      8.000000
  0.035932  0.021559  0.021559     24.000000
  0.050305  0.021559  0.021559     24.000000
  0.035932  0.035932  0.021559     24.000000
  0.050305  0.035932  0.021559     48.000000
  0.050305  0.050305  0.021559     24.000000
  0.035932  0.035932  0.035932      8.000000
  0.050305  0.035932  0.035932     24.000000
  0.050305  0.050305  0.035932     24.000000
  0.050305  0.050305  0.050305      8.000000
 


--------------------------------------------------------------------------------------------------------




 Dimension of arrays:
   k-Points           NKPTS =     20   number of bands    NBANDS=    212
   number of dos      NEDOS =    301   number of ions     NIONS =     32
   non local maximal  LDIM  =      6   non local SUM 2l+1 LMDIM =     18
   total plane-waves  NPLWV = 343000
   max r-space proj   IRMAX =      1   max aug-charges    IRDMAX= 205283
   dimension x,y,z NGX =    70 NGY =   70 NGZ =   70
   dimension x,y,z NGXF=   140 NGYF=  140 NGZF=  140
   support grid    NGXF=   280 NGYF=  280 NGZF=  280
   ions per type =              32
 NGX,Y,Z   is equivalent  to a cutoff of  13.38, 13.38, 13.38 a.u.
 NGXF,Y,Z  is equivalent  to a cutoff of  26.76, 26.76, 26.76 a.u.


 I would recommend the setting:
   dimension x,y,z NGX =    69 NGY =   69 NGZ =   69
 SYSTEM =  No title                                
 POSCAR =  No title                                

 Startparameter for this run:
   NWRITE =      2    write-flag & timer
   PREC   = accura    medium, high low
   ISTART =      0    job   : 0-new  1-cont  2-samecut
   ICHARG =      2    charge: 1-file 2-atom 10-const
   ISPIN  =      1    spin polarized calculation?
   LNONCOLLINEAR =      F non collinear calculations
   LSORBIT =      F    spin-orbit coupling
   INIWAV =      1    electr: 0-lowe 1-rand  2-diag
   LASPH  =      F    aspherical Exc in radial PAW
   METAGGA=      F    non-selfconsistent MetaGGA calc.

 Electronic Relaxation 1
   ENCUT  =  600.0 eV  44.10 Ry    6.64 a.u.  17.37 17.37 17.37*2*pi/ulx,y,z
   ENINI  =  600.0     initial cutoff
   ENAUG  =  412.5 eV  augmentation charge cutoff
   NELM   =     60;   NELMIN=  2; NELMDL=-12     # of ELM steps 
   EDIFF  = 0.1E-04   stopping-criterion for ELM
   LREAL  =      F    real-space projection
   LCOMPAT=      F    compatible to vasp.4.4
   LREAL_COMPAT= F    compatible to vasp.4.5.1-3
   GGA_COMPAT  = T    GGA compatible to vasp.4.4-vasp.4.6
   LMAXPAW     = -100 max onsite density
   LMAXMIX     =    2 max onsite mixed and CHGCAR
   VOSKOWN=      1    Vosko Wilk Nusair interpolation
   ROPT   =    0.00000
 Ionic relaxation
   EDIFFG = -.2E-01   stopping-criterion for IOM
   NSW    =    100    number of steps for IOM
   NBLOCK =      1;   KBLOCK =    100    inner block; outer block 
   IBRION =      2    ionic relax: 0-MD 1-quasi-New 2-CG
   NFREE  =      1    steps in history (QN), initial steepest desc. (CG)
   ISIF   =      2    stress and relaxation
   IWAVPR =     11    prediction:  0-non 1-charg 2-wave 3-comb
   ISYM   =      2    0-nonsym 1-usesym 2-fastsym
   LCORR  =      T    Harris-Foulkes like correction to forces

   POTIM  =   0.50    time-step for ionic-motion
   TEIN   =    0.0    initial temperature
   TEBEG  =    0.0;   TEEND  =   0.0 temperature during run
   SMASS  =  -3.00    Nose mass-parameter (am)
   estimated Nose-frequenzy (Omega)   =  0.10E-29 period in steps =****** mass=  -0.173E-26a.u.
   NPACO  =    256;   APACO  = 16.0  distance and # of slots for P.C.
   PSTRESS=    0.0 pullay stress

  Mass of Ions in am
   POMASS = 107.87
  Ionic Valenz
   ZVAL   =  11.00
  Atomic Wigner-Seitz radii
   RWIGS  =   1.34
   NELECT =     352.0000    total number of electrons
   NUPDOWN=      -1.0000    fix difference up-down

 DOS related values:
   EMIN   =  10.00;   EMAX   =-10.00  energy-range for DOS
   ISMEAR =     1;   SIGMA  =   0.20  broadening in eV -4-tet -1-fermi 0-gaus

 Electronic relaxation 2 (details)
   IALGO  =     48    algorithm
   LDIAG  =      T    sub-space diagonalisation
   IMIX   =      4    mixing-type and parameters
     AMIX     =   0.40;   BMIX     =  1.00
     AMIX_MAG =   1.60;   BMIX_MAG =  1.00
     AMIN     =   0.10
     WC   =   100.;   INIMIX=   1;  MIXPRE=   1

 Intra band minimization:
   WEIMIN = 0.0010     energy-eigenvalue tresh-hold
   EBREAK =  0.12E-07  absolut break condition
   DEPER  =   0.30     relativ break condition  

   TIME   =   0.10     timestep for ELM

  volume/ion in A,a.u.               =      20.56       138.72
  Fermi-wavevector in a.u.,eV,Ry     =   1.329102 24.034862  1.766512

 Second variation
   LSECVAR=     F    do a second variation
 
 Write flags
   LWAVE  =      T    write WAVECAR
   LCHARG =      F    write CHGCAR
   LVTOT  =      F    write LOCPOT, local potential
   LELF   =      F    write electronic localiz. function (ELF)
   LORBIT =      0    0 simple, 1 ext, 2 COOP (PROOUT)


 Dipole corrections
   IDIPOL =      0    1-x, 2-y, 3-z
   LDIPOL =      F    correct potential



--------------------------------------------------------------------------------------------------------


 conjugate gradient relaxation of ions
 charge density will be updated during run
 non-spin polarized calculation
 RMM-DIIS sequential band-by-band
 performe sub-space diagonalisation
    before iterative eigenvector-optimisation
 modified Broyden-mixing scheme, WC =      100.0
 initial mixing is a Kerker type mixing with AMIX =  0.4000 and BMIX =      1.0000
 Hartree-type preconditioning will be used
 using additional bands           36
 reciprocal scheme for non local part
 use partial core corrections
 calculate Harris-corrections to forces 
   (improved forces if not selfconsistent)
 use gradient corrections 
 use of overlap-Matrix (Vanderbilt PP)
 Methfessel and Paxton  Order N= 1 SIGMA  =   0.20


--------------------------------------------------------------------------------------------------------


  energy-cutoff  :      600.00
  volume of cell :      657.80
      direct lattice vectors                 reciprocal lattice vectors
     8.696891050  0.000000000  0.000000000     0.114983618 -0.000000002 -0.000000002
     0.000000160  8.696891050  0.000000000     0.000000000  0.114983618 -0.000000002
     0.000000160  0.000000160  8.696891050     0.000000000  0.000000000  0.114983618

  length of vectors
     8.696891050  8.696891050  8.696891050     0.114983618  0.114983618  0.114983618


 
 k-points in units of 2pi/SCALE and weight: Automatic mesh                          
   0.00718648  0.00718648  0.00718648       0.016
   0.02155943  0.00718648  0.00718648       0.047
   0.03593238  0.00718648  0.00718648       0.047
   0.05030533  0.00718648  0.00718648       0.047
   0.02155943  0.02155943  0.00718648       0.047
   0.03593238  0.02155943  0.00718648       0.094
   0.05030533  0.02155943  0.00718647       0.094
   0.03593238  0.03593238  0.00718647       0.047
   0.05030533  0.03593238  0.00718647       0.094
   0.05030533  0.05030533  0.00718647       0.047
   0.02155943  0.02155943  0.02155943       0.016
   0.03593238  0.02155943  0.02155943       0.047
   0.05030533  0.02155943  0.02155943       0.047
   0.03593238  0.03593238  0.02155943       0.047
   0.05030533  0.03593238  0.02155943       0.094
   0.05030533  0.05030533  0.02155943       0.047
   0.03593238  0.03593238  0.03593238       0.016
   0.05030533  0.03593238  0.03593238       0.047
   0.05030533  0.05030533  0.03593238       0.047
   0.05030533  0.05030533  0.05030533       0.016
 
 k-points in reciprocal lattice and weights: Automatic mesh                          
   0.06250000  0.06250000  0.06250000       0.016
   0.18750000  0.06250000  0.06250000       0.047
   0.31250000  0.06250000  0.06250000       0.047
   0.43750000  0.06250000  0.06250000       0.047
   0.18750000  0.18750000  0.06250000       0.047
   0.31250000  0.18750000  0.06250000       0.094
   0.43750000  0.18750000  0.06250000       0.094
   0.31250000  0.31250000  0.06250000       0.047
   0.43750000  0.31250000  0.06250000       0.094
   0.43750000  0.43750000  0.06250000       0.047
   0.18750000  0.18750000  0.18750000       0.016
   0.31250000  0.18750000  0.18750000       0.047
   0.43750000  0.18750000  0.18750000       0.047
   0.31250000  0.31250000  0.18750000       0.047
   0.43750000  0.31250000  0.18750000       0.094
   0.43750000  0.43750000  0.18750000       0.047
   0.31250000  0.31250000  0.31250000       0.016
   0.43750000  0.31250000  0.31250000       0.047
   0.43750000  0.43750000  0.31250000       0.047
   0.43750000  0.43750000  0.43750000       0.016
 
 position of ions in fractional coordinates (direct lattice) 
   0.75000000  0.75000000  0.50000000
   0.75000000  0.75000000  0.00000000
   0.75000000  0.00000000  0.25000000
   0.75000000  0.25000000  0.50000000
   0.00000000  0.75000000  0.25000000
   0.00000000  0.00000000  0.50000000
   0.25000000  0.75000000  0.50000000
   0.75000000  0.00000000  0.75000000
   0.75000000  0.25000000  0.00000000
   0.75000000  0.50000000  0.25000000
   0.00000000  0.75000000  0.75000000
   0.00000000  0.00000000  0.00000000
   0.00000000  0.25000000  0.25000000
   0.00000000  0.50000000  0.50000000
   0.25000000  0.75000000  0.00000000
   0.25000000  0.00000000  0.25000000
   0.25000000  0.25000000  0.50000000
   0.50000000  0.75000000  0.25000000
   0.50000000  0.00000000  0.50000000
   0.75000000  0.50000000  0.75000000
   0.00000000  0.25000000  0.75000000
   0.00000000  0.50000000  0.00000000
   0.25000000  0.00000000  0.75000000
   0.25000000  0.25000000  0.00000000
   0.25000000  0.50000000  0.25000000
   0.50000000  0.75000000  0.75000000
   0.50000000  0.00000000  0.00000000
   0.50000000  0.25000000  0.25000000
   0.50000000  0.50000000  0.50000000
   0.25000000  0.50000000  0.75000000
   0.50000000  0.25000000  0.75000000
   0.50000000  0.50000000  0.00000000
 
 position of ions in cartesian coordinates  (Angst):
   6.52266849  6.52266837  4.34844552
   6.52266841  6.52266829  0.00000000
   6.52266833  0.00000004  2.17422276
   6.52266841  2.17422284  4.34844552
   0.00000016  6.52266833  2.17422276
   0.00000008  0.00000008  4.34844552
   2.17422296  6.52266837  4.34844552
   6.52266841  0.00000012  6.52266829
   6.52266833  2.17422276  0.00000000
   6.52266841  4.34844556  2.17422276
   0.00000024  6.52266841  6.52266829
   0.00000000  0.00000000  0.00000000
   0.00000008  2.17422280  2.17422276
   0.00000016  4.34844561  4.34844552
   2.17422288  6.52266829  0.00000000
   2.17422280  0.00000004  2.17422276
   2.17422288  2.17422284  4.34844552
   4.34844568  6.52266833  2.17422276
   4.34844561  0.00000008  4.34844552
   6.52266849  4.34844564  6.52266829
   0.00000016  2.17422288  6.52266829
   0.00000008  4.34844552  0.00000000
   2.17422288  0.00000012  6.52266829
   2.17422280  2.17422276  0.00000000
   2.17422288  4.34844556  2.17422276
   4.34844577  6.52266841  6.52266829
   4.34844552  0.00000000  0.00000000
   4.34844560  2.17422280  2.17422276
   4.34844569  4.34844561  4.34844552
   2.17422296  4.34844564  6.52266829
   4.34844568  2.17422288  6.52266829
   4.34844561  4.34844552  0.00000000
 


--------------------------------------------------------------------------------------------------------


 k-point  1 :  0.06250.06250.0625  plane waves:  21992
 k-point  2 :  0.18750.06250.0625  plane waves:  21989
 k-point  3 :  0.31250.06250.0625  plane waves:  21962
 k-point  4 :  0.43750.06250.0625  plane waves:  21952
 k-point  5 :  0.18750.18750.0625  plane waves:  21998
 k-point  6 :  0.31250.18750.0625  plane waves:  21962
 k-point  7 :  0.43750.18750.0625  plane waves:  21952
 k-point  8 :  0.31250.31250.0625  plane waves:  21962
 k-point  9 :  0.43750.31250.0625  plane waves:  21945
 k-point 10 :  0.43750.43750.0625  plane waves:  21928
 k-point 11 :  0.18750.18750.1875  plane waves:  21947
 k-point 12 :  0.31250.18750.1875  plane waves:  21960
 k-point 13 :  0.43750.18750.1875  plane waves:  21942
 k-point 14 :  0.31250.31250.1875  plane waves:  21937
 k-point 15 :  0.43750.31250.1875  plane waves:  21941
 k-point 16 :  0.43750.43750.1875  plane waves:  21923
 k-point 17 :  0.31250.31250.3125  plane waves:  21938
 k-point 18 :  0.43750.31250.3125  plane waves:  21954
 k-point 19 :  0.43750.43750.3125  plane waves:  21959
 k-point 20 :  0.43750.43750.4375  plane waves:  21998

 maximum and minimum number of plane-waves per node :  21998 21923

 maximum number of plane-waves:  21998
 maximal index in each direction: 
   IXMAX= 17   IYMAX= 17   IZMAX= 17
   IXMIN=-17   IYMIN=-17   IZMIN=-17

 NGX is ok and might be reduce to  70
 NGY is ok and might be reduce to  70
 NGZ is ok and might be reduce to  70

 parallel 3dFFT wavefunction:
    minimum data exchange during FFTs selected (reduces bandwidth)
 parallel 3dFFT charge:
    minimum data exchange during FFTs selected (reduces bandwidth)

 For storing wavefunctions 1489.57 MBYTES are necessary
 For predicting wavefunctions  160.16 MBYTES are necessary
Broyden mixing: mesh for mixing (old mesh)
   NGX = 35   NGY = 35   NGZ = 35
  (NGX  =140   NGY  =140   NGZ  =140)
 gives a total of  42875 points
 initial charge density was supplied:
 charge density of overlapping atoms calculated
 number of electron  352.0000000 magnetization 
 keeping initial charge density in first step


--------------------------------------------------------------------------------------------------------


 Maximum index for augmentation-charges        49890 (set IRDMAX)


--------------------------------------------------------------------------------------------------------


 First call to EWALD:  gamma=   0.204
 Maximum number of real-space cells 3x 3x 3
 Maximum number of reciprocal cells 3x 3x 3

    FEWALD:  VPU time    0.01: CPU time    0.01


----------------------------------------- Iteration    1(   1)  ---------------------------------------


    POTLOK:  VPU time    3.33: CPU time    3.33
    SETDIJ:  VPU time    7.36: CPU time    7.38
    EDDIAG:  VPU time  164.24: CPU time  164.48
  RMM-DIIS:  VPU time  941.50: CPU time  946.28
    ORTHCH:  VPU time   25.03: CPU time   25.17
    DOS   :  VPU time    0.00: CPU time   -0.00
    ------------------------------------------
      LOOP:  VPU time 1141.55: CPU time 1146.73

 eigenvalue-minimisations  :  4240
 total energy-change (2. order) : 0.3934063E+04  (-0.1626233E+05)
 number of electron  352.0000000 magnetization 
 augmentation part   352.0000000 magnetization 

 Free energy of the ion-electron system (eV)
  ---------------------------------------------------
  alpha Z        PSCENC =      2764.37091141
  Ewald energy   TEWEN  =    -29393.66355861
  -1/2 Hartree   DENC   =     -7420.59762457
  -V(xc)+E(xc)   XCENC  =      -357.13758331
  PAW double counting   =     27861.41421209   -26376.63839568
  entropy T*S    EENTRO =         0.00015372
  eigenvalues    EBANDS =      3659.14679780
  atomic energy  EATOM  =     33197.16788402
  ---------------------------------------------------
  free energy    TOTEN  =      3934.06279687 eV

  energy without entropy =     3934.06264315  energy(sigma->0) =     3934.06274563


--------------------------------------------------------------------------------------------------------




----------------------------------------- Iteration    1(   2)  ---------------------------------------


    EDDIAG:  VPU time  161.07: CPU time  162.08
  RMM-DIIS:  VPU time  936.71: CPU time  940.80
    ORTHCH:  VPU time   24.93: CPU time   24.99
    DOS   :  VPU time   -0.00: CPU time   -0.00
    ------------------------------------------
      LOOP:  VPU time 1122.82: CPU time 1127.97

 eigenvalue-minimisations  :  4240
 total energy-change (2. order) :-0.3097819E+04  (-0.3446002E+04)
 number of electron  352.0000000 magnetization 
 augmentation part   352.0000000 magnetization 

 Free energy of the ion-electron system (eV)
  ---------------------------------------------------
  alpha Z        PSCENC =      2764.37091141
  Ewald energy   TEWEN  =    -29393.66355861
  -1/2 Hartree   DENC   =     -7420.59762457
  -V(xc)+E(xc)   XCENC  =      -357.13758331
  PAW double counting   =     27861.41421209   -26376.63839568
  entropy T*S    EENTRO =        -0.03131309
  eigenvalues    EBANDS =       561.35911644
  atomic energy  EATOM  =     33197.16788402
  ---------------------------------------------------
  free energy    TOTEN  =       836.24364870 eV

  energy without entropy =      836.27496180  energy(sigma->0) =      836.25408640


--------------------------------------------------------------------------------------------------------




----------------------------------------- Iteration    1(   3)  ---------------------------------------


    EDDIAG:  VPU time  160.15: CPU time  160.44
  RMM-DIIS:  VPU time  929.89: CPU time  934.27
    ORTHCH:  VPU time   24.89: CPU time   24.93
    DOS   :  VPU time    0.00: CPU time   -0.00
    ------------------------------------------
      LOOP:  VPU time 1115.01: CPU time 1119.75

 eigenvalue-minimisations  :  4240
 total energy-change (2. order) :-0.6472097E+03  (-0.7015714E+03)
 number of electron  352.0000000 magnetization 
 augmentation part   352.0000000 magnetization 

 Free energy of the ion-electron system (eV)
  ---------------------------------------------------
  alpha Z        PSCENC =      2764.37091141
  Ewald energy   TEWEN  =    -29393.66355861
  -1/2 Hartree   DENC   =     -7420.59762457
  -V(xc)+E(xc)   XCENC  =      -357.13758331
  PAW double counting   =     27861.41421209   -26376.63839568
  entropy T*S    EENTRO =         0.00427505
  eigenvalues    EBANDS =       -85.88613851
  atomic energy  EATOM  =     33197.16788402
  ---------------------------------------------------
  free energy    TOTEN  =       189.03398189 eV

  energy without entropy =      189.02970684  energy(sigma->0) =      189.03255688


--------------------------------------------------------------------------------------------------------




----------------------------------------- Iteration    1(   4)  ---------------------------------------


    EDDIAG:  VPU time  161.56: CPU time  161.89
  RMM-DIIS:  VPU time  927.12: CPU time  931.24
    ORTHCH:  VPU time   23.90: CPU time   23.95
    DOS   :  VPU time    0.00: CPU time   -0.00
    ------------------------------------------
      LOOP:  VPU time 1112.66: CPU time 1117.17

 eigenvalue-minimisations  :  4240
 total energy-change (2. order) :-0.1991669E+03  (-0.1464351E+03)
 number of electron  352.0000000 magnetization 
 augmentation part   352.0000000 magnetization 

 Free energy of the ion-electron system (eV)
  ---------------------------------------------------
  alpha Z        PSCENC =      2764.37091141
  Ewald energy   TEWEN  =    -29393.66355861
  -1/2 Hartree   DENC   =     -7420.59762457
  -V(xc)+E(xc)   XCENC  =      -357.13758331
  PAW double counting   =     27861.41421209   -26376.63839568
  entropy T*S    EENTRO =         0.01725152
  eigenvalues    EBANDS =      -285.06603101
  atomic energy  EATOM  =     33197.16788402
  ---------------------------------------------------
  free energy    TOTEN  =       -10.13293414 eV

  energy without entropy =      -10.15018566  energy(sigma->0) =      -10.13868465


--------------------------------------------------------------------------------------------------------




----------------------------------------- Iteration    1(   5)  ---------------------------------------


    EDDIAG:  VPU time  160.41: CPU time  160.72
  RMM-DIIS:  VPU time  926.77: CPU time  928.48
    ORTHCH:  VPU time   24.29: CPU time   24.33
    DOS   :  VPU time    0.00: CPU time   -0.00
    ------------------------------------------
      LOOP:  VPU time 1111.56: CPU time 1113.63

 eigenvalue-minimisations  :  4240
 total energy-change (2. order) :-0.6570558E+02  (-0.3982416E+02)
 number of electron  352.0000000 magnetization 
 augmentation part   352.0000000 magnetization 

 Free energy of the ion-electron system (eV)
  ---------------------------------------------------
  alpha Z        PSCENC =      2764.37091141
  Ewald energy   TEWEN  =    -29393.66355861
  -1/2 Hartree   DENC   =     -7420.59762457
  -V(xc)+E(xc)   XCENC  =      -357.13758331
  PAW double counting   =     27861.41421209   -26376.63839568
  entropy T*S    EENTRO =         0.00669096
  eigenvalues    EBANDS =      -350.76104657
  atomic energy  EATOM  =     33197.16788402
  ---------------------------------------------------
  free energy    TOTEN  =       -75.83851026 eV

  energy without entropy =      -75.84520121  energy(sigma->0) =      -75.84074057


--------------------------------------------------------------------------------------------------------




----------------------------------------- Iteration    1(   6)  ---------------------------------------


    EDDIAG:  VPU time  160.74: CPU time  161.04
  RMM-DIIS:  VPU time  872.10: CPU time  873.69
    ORTHCH:  VPU time   17.30: CPU time   17.31
    DOS   :  VPU time    0.00: CPU time   -0.00
    ------------------------------------------
      LOOP:  VPU time 1050.21: CPU time 1052.13

 eigenvalue-minimisations  :  4240
 total energy-change (2. order) :-0.1421624E+02  (-0.9914118E+01)
 number of electron  352.0000000 magnetization 
 augmentation part   352.0000000 magnetization 

 Free energy of the ion-electron system (eV)
  ---------------------------------------------------
  alpha Z        PSCENC =      2764.37091141
  Ewald energy   TEWEN  =    -29393.66355861
  -1/2 Hartree   DENC   =     -7420.59762457
  -V(xc)+E(xc)   XCENC  =      -357.13758331
  PAW double counting   =     27861.41421209   -26376.63839568
  entropy T*S    EENTRO =        -0.00802986
  eigenvalues    EBANDS =      -364.96256361
  atomic energy  EATOM  =     33197.16788402
  ---------------------------------------------------
  free energy    TOTEN  =       -90.05474811 eV

  energy without entropy =      -90.04671825  energy(sigma->0) =      -90.05207149


--------------------------------------------------------------------------------------------------------




----------------------------------------- Iteration    1(   7)  ---------------------------------------


    EDDIAG:  VPU time  129.75: CPU time  129.86
  RMM-DIIS:  VPU time  603.33: CPU time  603.95
    ORTHCH:  VPU time   13.44: CPU time   13.45
    DOS   :  VPU time    0.00: CPU time   -0.00
    ------------------------------------------
      LOOP:  VPU time  746.59: CPU time  747.34

 eigenvalue-minimisations  :  4240
 total energy-change (2. order) :-0.2973041E+01  (-0.2418866E+01)
 number of electron  352.0000000 magnetization 
 augmentation part   352.0000000 magnetization 

 Free energy of the ion-electron system (eV)
  ---------------------------------------------------
  alpha Z        PSCENC =      2764.37091141
  Ewald energy   TEWEN  =    -29393.66355861
  -1/2 Hartree   DENC   =     -7420.59762457
  -V(xc)+E(xc)   XCENC  =      -357.13758331
  PAW double counting   =     27861.41421209   -26376.63839568
  entropy T*S    EENTRO =        -0.00981614
  eigenvalues    EBANDS =      -367.93381844
  atomic energy  EATOM  =     33197.16788402
  ---------------------------------------------------
  free energy    TOTEN  =       -93.02778923 eV

  energy without entropy =      -93.01797309  energy(sigma->0) =      -93.02451718


--------------------------------------------------------------------------------------------------------




----------------------------------------- Iteration    1(   8)  ---------------------------------------


    EDDIAG:  VPU time  119.14: CPU time  119.30
  RMM-DIIS:  VPU time  657.05: CPU time  657.97
    ORTHCH:  VPU time   17.53: CPU time   17.55
    DOS   :  VPU time    0.00: CPU time   -0.00
    ------------------------------------------
      LOOP:  VPU time  793.79: CPU time  794.92

 eigenvalue-minimisations  :  4240
 total energy-change (2. order) :-0.6409730E+00  (-0.5971871E+00)
 number of electron  352.0000000 magnetization 
 augmentation part   352.0000000 magnetization 

 Free energy of the ion-electron system (eV)
  ---------------------------------------------------
  alpha Z        PSCENC =      2764.37091141
  Ewald energy   TEWEN  =    -29393.66355861
  -1/2 Hartree   DENC   =     -7420.59762457
  -V(xc)+E(xc)   XCENC  =      -357.13758331
  PAW double counting   =     27861.41421209   -26376.63839568
  entropy T*S    EENTRO =        -0.00982432
  eigenvalues    EBANDS =      -368.57478327
  atomic energy  EATOM  =     33197.16788402
  ---------------------------------------------------
  free energy    TOTEN  =       -93.66876224 eV

  energy without entropy =      -93.65893791  energy(sigma->0) =      -93.66548746


--------------------------------------------------------------------------------------------------------




----------------------------------------- Iteration    1(   9)  ---------------------------------------


    EDDIAG:  VPU time  123.36: CPU time  123.57
  RMM-DIIS:  VPU time 1749.22: CPU time 1752.52
    ORTHCH:  VPU time   24.51: CPU time   24.56
    DOS   :  VPU time    0.00: CPU time   -0.00
    ------------------------------------------
      LOOP:  VPU time 1897.19: CPU time 1900.75

 eigenvalue-minimisations  :  8477
 total energy-change (2. order) :-0.2033323E+00  (-0.1906637E+00)
 number of electron  352.0000000 magnetization 
 augmentation part   352.0000000 magnetization 

 Free energy of the ion-electron system (eV)
  ---------------------------------------------------
  alpha Z        PSCENC =      2764.37091141
  Ewald energy   TEWEN  =    -29393.66355861
  -1/2 Hartree   DENC   =     -7420.59762457
  -V(xc)+E(xc)   XCENC  =      -357.13758331
  PAW double counting   =     27861.41421209   -26376.63839568
  entropy T*S    EENTRO =        -0.00982245
  eigenvalues    EBANDS =      -368.77811747
  atomic energy  EATOM  =     33197.16788402
  ---------------------------------------------------
  free energy    TOTEN  =       -93.87209456 eV

  energy without entropy =      -93.86227211  energy(sigma->0) =      -93.86882041


--------------------------------------------------------------------------------------------------------




----------------------------------------- Iteration    1(  10)  ---------------------------------------


    EDDIAG:  VPU time  161.77: CPU time  162.07
  RMM-DIIS:  VPU time 1725.85: CPU time 1728.98
    ORTHCH:  VPU time   24.24: CPU time   24.29
    DOS   :  VPU time    0.00: CPU time   -0.00
    ------------------------------------------
      LOOP:  VPU time 1911.96: CPU time 1915.44

 eigenvalue-minimisations  :  8475
 total energy-change (2. order) :-0.1795855E-01  (-0.1680542E-01)
 number of electron  352.0000000 magnetization 
 augmentation part   352.0000000 magnetization 

 Free energy of the ion-electron system (eV)
  ---------------------------------------------------
  alpha Z        PSCENC =      2764.37091141
  Ewald energy   TEWEN  =    -29393.66355861
  -1/2 Hartree   DENC   =     -7420.59762457
  -V(xc)+E(xc)   XCENC  =      -357.13758331
  PAW double counting   =     27861.41421209   -26376.63839568
  entropy T*S    EENTRO =        -0.00982098
  eigenvalues    EBANDS =      -368.79607749
  atomic energy  EATOM  =     33197.16788402
  ---------------------------------------------------
  free energy    TOTEN  =       -93.89005311 eV

  energy without entropy =      -93.88023213  energy(sigma->0) =      -93.88677945


--------------------------------------------------------------------------------------------------------




----------------------------------------- Iteration    1(  11)  ---------------------------------------


    EDDIAG:  VPU time  160.69: CPU time  160.99
  RMM-DIIS:  VPU time 1661.32: CPU time 1664.49
    ORTHCH:  VPU time   24.04: CPU time   24.09
    DOS   :  VPU time    0.00: CPU time   -0.00
    ------------------------------------------
      LOOP:  VPU time 1846.16: CPU time 1849.67

 eigenvalue-minimisations  :  8175
 total energy-change (2. order) :-0.6912587E-03  (-0.6240237E-03)
 number of electron  352.0000000 magnetization 
 augmentation part   352.0000000 magnetization 

 Free energy of the ion-electron system (eV)
  ---------------------------------------------------
  alpha Z        PSCENC =      2764.37091141
  Ewald energy   TEWEN  =    -29393.66355861
  -1/2 Hartree   DENC   =     -7420.59762457
  -V(xc)+E(xc)   XCENC  =      -357.13758331
  PAW double counting   =     27861.41421209   -26376.63839568
  entropy T*S    EENTRO =        -0.00982083
  eigenvalues    EBANDS =      -368.79676890
  atomic energy  EATOM  =     33197.16788402
  ---------------------------------------------------
  free energy    TOTEN  =       -93.89074437 eV

  energy without entropy =      -93.88092354  energy(sigma->0) =      -93.88747076


--------------------------------------------------------------------------------------------------------




----------------------------------------- Iteration    1(  12)  ---------------------------------------


    EDDIAG:  VPU time  160.51: CPU time  160.81
  RMM-DIIS:  VPU time 1462.13: CPU time 1464.95
    ORTHCH:  VPU time   24.47: CPU time   24.51
    DOS   :  VPU time   -0.00: CPU time   -0.00
    CHARGE:  VPU time   78.29: CPU time   78.44
    MIXING:  VPU time    0.11: CPU time    0.11
    ------------------------------------------
      LOOP:  VPU time 1725.61: CPU time 1728.93

 eigenvalue-minimisations  :  7027
 total energy-change (2. order) :-0.6597328E-04  (-0.6359895E-04)
 number of electron  352.0000016 magnetization 
 augmentation part   164.3457604 magnetization 

 Broyden mixing:
  rms(total) = 0.13814E+01    rms(broyden)= 0.13814E+01
  rms(prec ) = 0.20773E+01
  weight for this iteration     100.00

 Free energy of the ion-electron system (eV)
  ---------------------------------------------------
  alpha Z        PSCENC =      2764.37091141
  Ewald energy   TEWEN  =    -29393.66355861
  -1/2 Hartree   DENC   =     -7420.59762457
  -V(xc)+E(xc)   XCENC  =      -357.13758331
  PAW double counting   =     27861.41421209   -26376.63839568
  entropy T*S    EENTRO =        -0.00982082
  eigenvalues    EBANDS =      -368.79683488
  atomic energy  EATOM  =     33197.16788402
  ---------------------------------------------------
  free energy    TOTEN  =       -93.89081034 eV

  energy without entropy =      -93.88098952  energy(sigma->0) =      -93.88753673


--------------------------------------------------------------------------------------------------------




----------------------------------------- Iteration    1(  13)  ---------------------------------------


    POTLOK:  VPU time    3.29: CPU time    3.30
    SETDIJ:  VPU time    7.15: CPU time    7.16
    EDDIAG:  VPU time  161.06: CPU time  161.36
  RMM-DIIS:  VPU time 1733.54: CPU time 1736.75
    ORTHCH:  VPU time   24.20: CPU time   24.24
    DOS   :  VPU time   -0.00: CPU time   -0.00
    CHARGE:  VPU time   79.33: CPU time   79.48
    MIXING:  VPU time    0.10: CPU time    0.10
    ------------------------------------------
      LOOP:  VPU time 2008.77: CPU time 2012.49

 eigenvalue-minimisations  :  8480
 total energy-change (2. order) : 0.5584071E+01  (-0.2376574E+01)
 number of electron  352.0000017 magnetization 
 augmentation part   169.3700913 magnetization 

 Broyden mixing:
  rms(total) = 0.26489E+00    rms(broyden)= 0.26487E+00
  rms(prec ) = 0.35272E+00
  weight for this iteration     100.00

 eigenvalues of (default mixing * dielectric matrix)
  average eigenvalue GAMMA=   1.0221
  1.0221

 Free energy of the ion-electron system (eV)
  ---------------------------------------------------
  alpha Z        PSCENC =      2764.37091141
  Ewald energy   TEWEN  =    -29393.66355861
  -1/2 Hartree   DENC   =     -7140.49328373
  -V(xc)+E(xc)   XCENC  =      -367.37761966
  PAW double counting   =     27400.55932737   -25932.33836167
  entropy T*S    EENTRO =        -0.01496891
  eigenvalues    EBANDS =      -616.51706952
  atomic energy  EATOM  =     33197.16788402
  ---------------------------------------------------
  free energy    TOTEN  =       -88.30673929 eV

  energy without entropy =      -88.29177038  energy(sigma->0) =      -88.30174966


--------------------------------------------------------------------------------------------------------




----------------------------------------- Iteration    1(  14)  ---------------------------------------


    POTLOK:  VPU time    3.27: CPU time    3.28
    SETDIJ:  VPU time    7.27: CPU time    7.28
    EDDIAG:  VPU time  161.30: CPU time  161.60
  RMM-DIIS:  VPU time 1743.54: CPU time 1746.71
    ORTHCH:  VPU time   23.90: CPU time   23.94
    DOS   :  VPU time   -0.00: CPU time   -0.00
    CHARGE:  VPU time   78.62: CPU time   78.76
    MIXING:  VPU time    0.12: CPU time    0.12
    ------------------------------------------
      LOOP:  VPU time 2018.11: CPU time 2021.79

 eigenvalue-minimisations  :  8480
 total energy-change (2. order) : 0.8939352E-01  (-0.3551300E-01)
 number of electron  352.0000017 magnetization 
 augmentation part   169.6326998 magnetization 

 Broyden mixing:
  rms(total) = 0.14996E+00    rms(broyden)= 0.14996E+00
  rms(prec ) = 0.18731E+00
  weight for this iteration     100.00

 eigenvalues of (default mixing * dielectric matrix)
  average eigenvalue GAMMA=   1.7016
  1.0490  2.3542

 Free energy of the ion-electron system (eV)
  ---------------------------------------------------
  alpha Z        PSCENC =      2764.37091141
  Ewald energy   TEWEN  =    -29393.66355861
  -1/2 Hartree   DENC   =     -7108.37068255
  -V(xc)+E(xc)   XCENC  =      -368.69627011
  PAW double counting   =     27431.25002627   -25977.27174199
  entropy T*S    EENTRO =        -0.01499785
  eigenvalues    EBANDS =      -632.98891638
  atomic energy  EATOM  =     33197.16788402
  ---------------------------------------------------
  free energy    TOTEN  =       -88.21734578 eV

  energy without entropy =      -88.20234793  energy(sigma->0) =      -88.21234649


--------------------------------------------------------------------------------------------------------




----------------------------------------- Iteration    1(  15)  ---------------------------------------


    POTLOK:  VPU time    3.26: CPU time    3.27
    SETDIJ:  VPU time    7.13: CPU time    7.14
    EDDIAG:  VPU time  160.69: CPU time  161.00
  RMM-DIIS:  VPU time 1715.69: CPU time 1720.11
    ORTHCH:  VPU time   23.95: CPU time   24.01
    DOS   :  VPU time   -0.00: CPU time   -0.00
    CHARGE:  VPU time   78.81: CPU time   79.02
    MIXING:  VPU time    0.12: CPU time    0.12
    ------------------------------------------
      LOOP:  VPU time 1989.74: CPU time 1994.75

 eigenvalue-minimisations  :  8480
 total energy-change (2. order) : 0.4489988E-01  (-0.5322324E-02)
 number of electron  352.0000017 magnetization 
 augmentation part   169.5291657 magnetization 

 Broyden mixing:
  rms(total) = 0.24984E-01    rms(broyden)= 0.24982E-01
  rms(prec ) = 0.38192E-01
  weight for this iteration     100.00

 eigenvalues of (default mixing * dielectric matrix)
  average eigenvalue GAMMA=   1.7506
  2.8357  1.1166  1.2995

 Free energy of the ion-electron system (eV)
  ---------------------------------------------------
  alpha Z        PSCENC =      2764.37091141
  Ewald energy   TEWEN  =    -29393.66355861
  -1/2 Hartree   DENC   =     -7084.39264915
  -V(xc)+E(xc)   XCENC  =      -369.75573850
  PAW double counting   =     27529.98531619   -26093.61136463
  entropy T*S    EENTRO =        -0.01498444
  eigenvalues    EBANDS =      -638.25826219
  atomic energy  EATOM  =     33197.16788402
  ---------------------------------------------------
  free energy    TOTEN  =       -88.17244590 eV

  energy without entropy =      -88.15746146  energy(sigma->0) =      -88.16745109


--------------------------------------------------------------------------------------------------------




----------------------------------------- Iteration    1(  16)  ---------------------------------------


    POTLOK:  VPU time    3.30: CPU time    3.31
    SETDIJ:  VPU time    7.33: CPU time    7.35
    EDDIAG:  VPU time  160.92: CPU time  161.37
  RMM-DIIS:  VPU time 1751.02: CPU time 1755.77
    ORTHCH:  VPU time   24.54: CPU time   24.61
    DOS   :  VPU time    0.00: CPU time   -0.00
    CHARGE:  VPU time   79.00: CPU time   79.21
    MIXING:  VPU time    0.12: CPU time    0.12
    ------------------------------------------
      LOOP:  VPU time 2026.33: CPU time 2031.84

 eigenvalue-minimisations  :  8480
 total energy-change (2. order) :-0.1250454E-03  (-0.1939946E-02)
 number of electron  352.0000017 magnetization 
 augmentation part   169.6694542 magnetization 

 Broyden mixing:
  rms(total) = 0.14600E-01    rms(broyden)= 0.14600E-01
  rms(prec ) = 0.21616E-01
  weight for this iteration     100.00

 eigenvalues of (default mixing * dielectric matrix)
  average eigenvalue GAMMA=   1.8125
  2.8501  2.3968  1.0016  1.0016

 Free energy of the ion-electron system (eV)
  ---------------------------------------------------
  alpha Z        PSCENC =      2764.37091141
  Ewald energy   TEWEN  =    -29393.66355861
  -1/2 Hartree   DENC   =     -7074.08815506
  -V(xc)+E(xc)   XCENC  =      -370.15300506
  PAW double counting   =     27534.84604545   -26099.84337696
  entropy T*S    EENTRO =        -0.01500066
  eigenvalues    EBANDS =      -646.79431549
  atomic energy  EATOM  =     33197.16788402
  ---------------------------------------------------
  free energy    TOTEN  =       -88.17257095 eV

  energy without entropy =      -88.15757029  energy(sigma->0) =      -88.16757073


--------------------------------------------------------------------------------------------------------




----------------------------------------- Iteration    1(  17)  ---------------------------------------


    POTLOK:  VPU time    3.32: CPU time    3.33
    SETDIJ:  VPU time    7.22: CPU time    7.24
    EDDIAG:  VPU time  161.89: CPU time  162.34
  RMM-DIIS:  VPU time 1749.10: CPU time 1753.78
    ORTHCH:  VPU time   24.16: CPU time   24.22
    DOS   :  VPU time    0.00: CPU time   -0.00
    CHARGE:  VPU time   78.81: CPU time   79.02
    MIXING:  VPU time    0.11: CPU time    0.11
    ------------------------------------------
      LOOP:  VPU time 2024.70: CPU time 2030.14

 eigenvalue-minimisations  :  8480
 total energy-change (2. order) : 0.7177162E-03  (-0.7690689E-04)
 number of electron  352.0000017 magnetization 
 augmentation part   169.6402810 magnetization 

 Broyden mixing:
  rms(total) = 0.36054E-02    rms(broyden)= 0.36053E-02
  rms(prec ) = 0.53183E-02
  weight for this iteration     100.00

 eigenvalues of (default mixing * dielectric matrix)
  average eigenvalue GAMMA=   1.7802
  2.8626  2.4442  1.0236  1.0236  1.5469

 Free energy of the ion-electron system (eV)
  ---------------------------------------------------
  alpha Z        PSCENC =      2764.37091141
  Ewald energy   TEWEN  =    -29393.66355861
  -1/2 Hartree   DENC   =     -7077.60645881
  -V(xc)+E(xc)   XCENC  =      -370.02597391
  PAW double counting   =     27541.55918133   -26105.21602442
  entropy T*S    EENTRO =        -0.01499711
  eigenvalues    EBANDS =      -644.74281714
  atomic energy  EATOM  =     33197.16788402
  ---------------------------------------------------
  free energy    TOTEN  =       -88.17185323 eV

  energy without entropy =      -88.15685612  energy(sigma->0) =      -88.16685419


--------------------------------------------------------------------------------------------------------




----------------------------------------- Iteration    1(  18)  ---------------------------------------


    POTLOK:  VPU time    3.30: CPU time    3.31
    SETDIJ:  VPU time    7.26: CPU time    7.27
    EDDIAG:  VPU time  161.31: CPU time  161.58
  RMM-DIIS:  VPU time 1727.53: CPU time 1730.04
    ORTHCH:  VPU time   24.49: CPU time   24.53
    DOS   :  VPU time    0.00: CPU time   -0.00
    CHARGE:  VPU time   78.38: CPU time   78.50
    MIXING:  VPU time    0.13: CPU time    0.13
    ------------------------------------------
      LOOP:  VPU time 2002.51: CPU time 2005.47

 eigenvalue-minimisations  :  8406
 total energy-change (2. order) : 0.4820120E-04  (-0.1642927E-04)
 number of electron  352.0000017 magnetization 
 augmentation part   169.6279706 magnetization 

 Broyden mixing:
  rms(total) = 0.33561E-03    rms(broyden)= 0.33543E-03
  rms(prec ) = 0.47529E-03
  weight for this iteration     100.00

 eigenvalues of (default mixing * dielectric matrix)
  average eigenvalue GAMMA=   1.8416
  2.8410  2.8410  2.3484  0.9713  1.0239  1.0239

 Free energy of the ion-electron system (eV)
  ---------------------------------------------------
  alpha Z        PSCENC =      2764.37091141
  Ewald energy   TEWEN  =    -29393.66355861
  -1/2 Hartree   DENC   =     -7078.37593096
  -V(xc)+E(xc)   XCENC  =      -369.99846930
  PAW double counting   =     27542.65183430   -26106.20935795
  entropy T*S    EENTRO =        -0.01499576
  eigenvalues    EBANDS =      -644.10012218
  atomic energy  EATOM  =     33197.16788402
  ---------------------------------------------------
  free energy    TOTEN  =       -88.17180503 eV

  energy without entropy =      -88.15680927  energy(sigma->0) =      -88.16680644


--------------------------------------------------------------------------------------------------------




----------------------------------------- Iteration    1(  19)  ---------------------------------------


    POTLOK:  VPU time    3.28: CPU time    3.28
    SETDIJ:  VPU time    7.25: CPU time    7.26
    EDDIAG:  VPU time  160.68: CPU time  160.93
  RMM-DIIS:  VPU time  927.04: CPU time  928.39
    ORTHCH:  VPU time   24.22: CPU time   24.26
    DOS   :  VPU time   -0.00: CPU time   -0.00
    ------------------------------------------
      LOOP:  VPU time 1122.56: CPU time 1124.22

 eigenvalue-minimisations  :  3961
 total energy-change (2. order) : 0.5139671E-05  (-0.2706785E-06)
 number of electron  352.0000017 magnetization 
 augmentation part   169.6279706 magnetization 

 Free energy of the ion-electron system (eV)
  ---------------------------------------------------
  alpha Z        PSCENC =      2764.37091141
  Ewald energy   TEWEN  =    -29393.66355861
  -1/2 Hartree   DENC   =     -7078.45906315
  -V(xc)+E(xc)   XCENC  =      -369.99543424
  PAW double counting   =     27542.14726322   -26105.68315720
  entropy T*S    EENTRO =        -0.01499563
  eigenvalues    EBANDS =      -644.04164971
  atomic energy  EATOM  =     33197.16788402
  ---------------------------------------------------
  free energy    TOTEN  =       -88.17179989 eV

  energy without entropy =      -88.15680426  energy(sigma->0) =      -88.16680135


--------------------------------------------------------------------------------------------------------




 average (electrostatic) potential at core
  the test charge radii are     1.1249
  (the norm of the test charge is              1.0000)
       1 -42.3607       2 -42.3607       3 -42.3607       4 -42.3607       5 -42.3607
       6 -42.3607       7 -42.3607       8 -42.3607       9 -42.3607      10 -42.3607
      11 -42.3607      12 -42.3607      13 -42.3607      14 -42.3607      15 -42.3607
      16 -42.3607      17 -42.3607      18 -42.3607      19 -42.3607      20 -42.3607
      21 -42.3607      22 -42.3607      23 -42.3607      24 -42.3607      25 -42.3607
      26 -42.3607      27 -42.3607      28 -42.3607      29 -42.3607      30 -42.3607
      31 -42.3607      32 -42.3607
 
 
 
 E-fermi :   2.0645     XC(G=0): -11.1301     alpha+bet : -7.0835
   add alpha+bet to get absolut eigen values

 k-point   1 :       0.0625    0.0625    0.0625
  band No.  band energies     occupation 
      1      -4.4514      2.00000
      2      -3.3667      2.00000
      3      -3.3667      2.00000
      4      -3.3667      2.00000
      5      -3.3602      2.00000
      6      -3.3512      2.00000
      7      -3.3512      2.00000
      8      -3.3512      2.00000
      9      -3.2904      2.00000
     10      -3.2904      2.00000
     11      -3.2904      2.00000
     12      -3.0247      2.00000
     13      -3.0247      2.00000
     14      -3.0247      2.00000
     15      -2.9554      2.00000
     16      -2.9554      2.00000
     17      -2.9554      2.00000
     18      -2.8326      2.00000
     19      -2.8326      2.00000
     20      -2.8326      2.00000
     21      -2.8175      2.00000
     22      -2.8175      2.00000
     23      -2.8175      2.00000
     24      -2.8175      2.00000
     25      -2.8175      2.00000
     26      -2.8175      2.00000
     27      -2.7284      2.00000
     28      -2.7284      2.00000
     29      -2.7284      2.00000
     30      -2.6420      2.00000
     31      -2.6420      2.00000
     32      -2.6420      2.00000
     33      -2.6166      2.00000
     34      -2.6166      2.00000
     35      -2.6166      2.00000
     36      -2.6056      2.00000
     37      -2.6056      2.00000
     38      -2.6056      2.00000
     39      -2.6056      2.00000
     40      -2.6056      2.00000
     41      -2.6056      2.00000
     42      -2.4911      2.00000
     43      -2.4911      2.00000
     44      -2.4911      2.00000
     45      -2.4911      2.00000
     46      -2.4911      2.00000
     47      -2.4911      2.00000
     48      -2.4277      2.00000
     49      -2.4277      2.00000
     50      -2.4277      2.00000
     51      -2.4255      2.00000
     52      -2.4255      2.00000
     53      -2.4255      2.00000
     54      -2.4255      2.00000
     55      -2.4255      2.00000
     56      -2.4255      2.00000
     57      -2.3854      2.00000
     58      -2.3854      2.00000
     59      -2.3854      2.00000
     60      -2.2739      2.00000
     61      -2.2739      2.00000
     62      -2.2739      2.00000
     63      -2.2739      2.00000
     64      -2.2739      2.00000
     65      -2.2739      2.00000
     66      -2.2417      2.00000
     67      -2.2417      2.00000
     68      -2.2417      2.00000
     69      -2.2305      2.00000
     70      -2.2305      2.00000
     71      -2.2291      2.00000
     72      -2.2232      2.00000
     73      -2.2232      2.00000
     74      -2.2232      2.00000
     75      -2.2179      2.00000
     76      -2.2179      2.00000
     77      -2.1038      2.00000
     78      -2.1038      2.00000
     79      -2.1038      2.00000
     80      -2.1038      2.00000
     81      -2.1038      2.00000
     82      -2.1038      2.00000
     83      -2.0831      2.00000
     84      -2.0831      2.00000
     85      -2.0831      2.00000
     86      -2.0460      2.00000
     87      -2.0460      2.00000
     88      -2.0460      2.00000
     89      -1.7727      2.00000
     90      -1.7727      2.00000
     91      -1.7727      2.00000
     92      -1.7247      2.00000
     93      -1.7247      2.00000
     94      -1.7247      2.00000
     95      -1.7162      2.00000
     96      -1.7162      2.00000
     97      -1.7162      2.00000
     98      -1.7136      2.00000
     99      -1.7136      2.00000
    100      -1.7136      2.00000
    101      -1.7136      2.00000
    102      -1.7136      2.00000
    103      -1.7136      2.00000
    104      -1.6644      2.00000
    105      -1.6644      2.00000
    106      -1.6644      2.00000
    107      -1.5670      2.00000
    108      -1.5670      2.00000
    109      -1.5670      2.00000
    110      -1.5283      2.00000
    111      -1.5283      2.00000
    112      -1.5283      2.00000
    113      -1.5211      2.00000
    114      -1.5211      2.00000
    115      -1.5211      2.00000
    116      -1.4873      2.00000
    117      -1.4873      2.00000
    118      -1.4490      2.00000
    119      -1.4490      2.00000
    120      -1.4490      2.00000
    121      -1.4490      2.00000
    122      -1.4490      2.00000
    123      -1.4490      2.00000
    124      -1.4379      2.00000
    125      -1.4379      2.00000
    126      -1.4379      2.00000
    127      -1.4379      2.00000
    128      -1.4379      2.00000
    129      -1.4379      2.00000
    130      -1.4045      2.00000
    131      -1.4045      2.00000
    132      -1.4045      2.00000
    133      -1.3821      2.00000
    134      -1.3821      2.00000
    135      -1.3821      2.00000
    136      -1.2377      2.00000
    137      -1.2377      2.00000
    138      -1.2377      2.00000
    139      -1.1813      2.00000
    140      -1.1813      2.00000
    141      -1.1813      2.00000
    142      -1.0384      2.00000
    143      -1.0384      2.00000
    144      -1.0384      2.00000
    145      -0.9534      2.00000
    146      -0.9534      2.00000
    147      -0.9534      2.00000
    148      -0.9470      2.00000
    149      -0.9470      2.00000
    150      -0.9470      2.00000
    151      -0.9236      2.00000
    152      -0.9236      2.00000
    153      -0.9121      2.00000
    154      -0.9121      2.00000
    155      -0.9121      2.00000
    156      -0.7912      2.00000
    157      -0.7912      2.00000
    158      -0.7912      2.00000
    159      -0.7741      2.00000
    160      -0.7741      2.00000
    161      -0.7741      2.00000
    162      -0.7741      2.00000
    163      -0.7741      2.00000
    164      -0.7741      2.00000
    165      -0.7722      2.00000
    166      -0.7722      2.00000
    167      -0.7722      2.00000
    168       0.8570      2.00000
    169       0.8570      2.00000
    170       0.8570      2.00000
    171       1.3882      2.00002
    172       1.3882      2.00002
    173       1.3882      2.00002
    174       1.3882      2.00002
    175       1.3882      2.00002
    176       1.3882      2.00002
    177       1.8458      2.06463
    178       1.9337      1.88552
    179       1.9337      1.88552
    180       1.9337      1.88552
    181       2.1219      0.53613
    182       2.1219      0.53613
    183       2.1219      0.53613
    184       3.7591     -0.00000
    185       3.7591     -0.00000
    186       3.7591     -0.00000
    187       4.7524     -0.00000
    188       4.7524     -0.00000
    189       4.7524     -0.00000
    190       5.0035     -0.00000
    191       6.8083     -0.00000
    192       6.8083     -0.00000
    193       6.8083     -0.00000
    194       6.8083     -0.00000
    195       6.8083     -0.00000
    196       6.8085     -0.00000
    197       7.4123     -0.00000
    198       7.4124     -0.00000
    199       7.4124     -0.00000
    200       7.4124     -0.00000
    201       7.4133     -0.00000
    202       7.4184     -0.00000
    203       7.5445      0.00000
    204       7.5456      0.00000
    205       7.5630      0.00000
    206       8.1795      0.00000
    207       8.1798      0.00000
    208       8.1807      0.00000
    209       8.1828      0.00000
    210       8.2677      0.00000
    211       9.3929      0.00000
    212       9.5285      0.00000

 k-point   2 :       0.1875    0.0625    0.0625
  band No.  band energies     occupation 
      1      -4.3811      2.00000
      2      -3.3413      2.00000
      3      -3.3379      2.00000
      4      -3.3350      2.00000
      5      -3.3350      2.00000
      6      -3.3204      2.00000
      7      -3.3204      2.00000
      8      -3.3118      2.00000
      9      -3.2715      2.00000
     10      -3.2601      2.00000
     11      -3.2601      2.00000
     12      -3.2201      2.00000
     13      -2.9845      2.00000
     14      -2.9845      2.00000
     15      -2.9821      2.00000
     16      -2.9331      2.00000
     17      -2.9191      2.00000
     18      -2.9191      2.00000
     19      -2.8759      2.00000
     20      -2.8759      2.00000
     21      -2.8093      2.00000
     22      -2.8093      2.00000
     23      -2.8003      2.00000
     24      -2.8003      2.00000
     25      -2.7913      2.00000
     26      -2.7913      2.00000
     27      -2.7833      2.00000
     28      -2.7540      2.00000
     29      -2.7540      2.00000
     30      -2.7483      2.00000
     31      -2.7101      2.00000
     32      -2.7101      2.00000
     33      -2.6836      2.00000
     34      -2.6836      2.00000
     35      -2.6746      2.00000
     36      -2.6746      2.00000
     37      -2.6339      2.00000
     38      -2.6339      2.00000
     39      -2.6243      2.00000
     40      -2.5989      2.00000
     41      -2.5989      2.00000
     42      -2.5936      2.00000
     43      -2.5936      2.00000
     44      -2.4895      2.00000
     45      -2.4895      2.00000
     46      -2.4892      2.00000
     47      -2.4892      2.00000
     48      -2.4395      2.00000
     49      -2.4395      2.00000
     50      -2.4375      2.00000
     51      -2.4375      2.00000
     52      -2.4363      2.00000
     53      -2.4363      2.00000
     54      -2.3885      2.00000
     55      -2.3751      2.00000
     56      -2.3751      2.00000
     57      -2.3546      2.00000
     58      -2.3546      2.00000
     59      -2.3399      2.00000
     60      -2.2888      2.00000
     61      -2.2888      2.00000
     62      -2.2707      2.00000
     63      -2.2707      2.00000
     64      -2.2615      2.00000
     65      -2.2520      2.00000
     66      -2.2520      2.00000
     67      -2.2493      2.00000
     68      -2.2284      2.00000
     69      -2.2155      2.00000
     70      -2.2039      2.00000
     71      -2.2039      2.00000
     72      -2.2001      2.00000
     73      -2.2001      2.00000
     74      -2.1995      2.00000
     75      -2.1995      2.00000
     76      -2.1978      2.00000
     77      -2.1963      2.00000
     78      -2.1941      2.00000
     79      -2.1457      2.00000
     80      -2.1457      2.00000
     81      -2.0914      2.00000
     82      -2.0914      2.00000
     83      -2.0380      2.00000
     84      -2.0380      2.00000
     85      -1.9772      2.00000
     86      -1.9772      2.00000
     87      -1.9391      2.00000
     88      -1.9184      2.00000
     89      -1.8581      2.00000
     90      -1.8489      2.00000
     91      -1.8489      2.00000
     92      -1.8288      2.00000
     93      -1.7986      2.00000
     94      -1.7921      2.00000
     95      -1.7870      2.00000
     96      -1.7870      2.00000
     97      -1.7407      2.00000
     98      -1.7407      2.00000
     99      -1.7203      2.00000
    100      -1.7203      2.00000
    101      -1.6721      2.00000
    102      -1.6721      2.00000
    103      -1.6665      2.00000
    104      -1.6665      2.00000
    105      -1.6420      2.00000
    106      -1.6420      2.00000
    107      -1.6251      2.00000
    108      -1.6251      2.00000
    109      -1.6062      2.00000
    110      -1.5703      2.00000
    111      -1.5703      2.00000
    112      -1.5373      2.00000
    113      -1.5373      2.00000
    114      -1.5092      2.00000
    115      -1.4768      2.00000
    116      -1.4622      2.00000
    117      -1.4622      2.00000
    118      -1.4542      2.00000
    119      -1.4542      2.00000
    120      -1.4473      2.00000
    121      -1.4473      2.00000
    122      -1.4279      2.00000
    123      -1.4112      2.00000
    124      -1.3953      2.00000
    125      -1.3953      2.00000
    126      -1.3891      2.00000
    127      -1.3491      2.00000
    128      -1.3491      2.00000
    129      -1.3329      2.00000
    130      -1.3329      2.00000
    131      -1.3207      2.00000
    132      -1.3207      2.00000
    133      -1.3074      2.00000
    134      -1.3008      2.00000
    135      -1.3008      2.00000
    136      -1.2922      2.00000
    137      -1.1878      2.00000
    138      -1.1878      2.00000
    139      -1.1577      2.00000
    140      -1.1577      2.00000
    141      -1.1244      2.00000
    142      -1.0430      2.00000
    143      -1.0320      2.00000
    144      -1.0320      2.00000
    145      -0.9781      2.00000
    146      -0.9781      2.00000
    147      -0.9638      2.00000
    148      -0.9611      2.00000
    149      -0.9606      2.00000
    150      -0.9272      2.00000
    151      -0.9253      2.00000
    152      -0.9253      2.00000
    153      -0.8830      2.00000
    154      -0.8830      2.00000
    155      -0.8483      2.00000
    156      -0.8483      2.00000
    157      -0.8279      2.00000
    158      -0.8129      2.00000
    159      -0.8129      2.00000
    160      -0.8123      2.00000
    161      -0.8123      2.00000
    162      -0.8052      2.00000
    163      -0.7741      2.00000
    164      -0.7741      2.00000
    165      -0.7741      2.00000
    166      -0.7741      2.00000
    167      -0.5103      2.00000
    168       0.3938      2.00000
    169       0.3938      2.00000
    170       0.8766      2.00000
    171       0.9026      2.00000
    172       0.9026      2.00000
    173       1.4174      2.00005
    174       1.4174      2.00005
    175       1.5527      2.00177
    176       1.9683      1.71926
    177       1.9914      1.57556
    178       1.9914      1.57555
    179       2.0117      1.42996
    180       2.0117      1.42996
    181       2.2908     -0.06790
    182       2.5439     -0.00363
    183       2.5439     -0.00363
    184       3.2276     -0.00000
    185       3.9148     -0.00000
    186       3.9148     -0.00000
    187       4.7762     -0.00000
    188       5.0353     -0.00000
    189       5.0353     -0.00000
    190       5.4491     -0.00000
    191       5.9779     -0.00000
    192       5.9779     -0.00000
    193       6.2087     -0.00000
    194       6.2087     -0.00000
    195       6.5183     -0.00000
    196       6.5183     -0.00000
    197       6.9298     -0.00000
    198       6.9298     -0.00000
    199       7.5312      0.00000
    200       7.5333      0.00000
    201       7.5638      0.00000
    202       7.5649      0.00000
    203       7.8023      0.00000
    204       7.8049      0.00000
    205       8.1675      0.00000
    206       8.2076      0.00000
    207       8.3530      0.00000
    208       8.3887      0.00000
    209       8.5041      0.00000
    210       8.6583      0.00000
    211       8.6709      0.00000
    212       8.7751      0.00000

 k-point   3 :       0.3125    0.0625    0.0625
  band No.  band energies     occupation 
      1      -4.2427      2.00000
      2      -3.4972      2.00000
      3      -3.2922      2.00000
      4      -3.2844      2.00000
      5      -3.2739      2.00000
      6      -3.2739      2.00000
      7      -3.2592      2.00000
      8      -3.2592      2.00000
      9      -3.2430      2.00000
     10      -3.2343      2.00000
     11      -3.1996      2.00000
     12      -3.1996      2.00000
     13      -3.0545      2.00000
     14      -3.0264      2.00000
     15      -2.9731      2.00000
     16      -2.9731      2.00000
     17      -2.9457      2.00000
     18      -2.9106      2.00000
     19      -2.9106      2.00000
     20      -2.9106      2.00000
     21      -2.9106      2.00000
     22      -2.8896      2.00000
     23      -2.8559      2.00000
     24      -2.8559      2.00000
     25      -2.8509      2.00000
     26      -2.8509      2.00000
     27      -2.7717      2.00000
     28      -2.7717      2.00000
     29      -2.7574      2.00000
     30      -2.7574      2.00000
     31      -2.7416      2.00000
     32      -2.7416      2.00000
     33      -2.6985      2.00000
     34      -2.6985      2.00000
     35      -2.6729      2.00000
     36      -2.6729      2.00000
     37      -2.6700      2.00000
     38      -2.6700      2.00000
     39      -2.6465      2.00000
     40      -2.6465      2.00000
     41      -2.5856      2.00000
     42      -2.5856      2.00000
     43      -2.5246      2.00000
     44      -2.4877      2.00000
     45      -2.4877      2.00000
     46      -2.4794      2.00000
     47      -2.4794      2.00000
     48      -2.4698      2.00000
     49      -2.4698      2.00000
     50      -2.4667      2.00000
     51      -2.4667      2.00000
     52      -2.4363      2.00000
     53      -2.4363      2.00000
     54      -2.3740      2.00000
     55      -2.3550      2.00000
     56      -2.3550      2.00000
     57      -2.3438      2.00000
     58      -2.3438      2.00000
     59      -2.3107      2.00000
     60      -2.3107      2.00000
     61      -2.2957      2.00000
     62      -2.2925      2.00000
     63      -2.2881      2.00000
     64      -2.2797      2.00000
     65      -2.2797      2.00000
     66      -2.2773      2.00000
     67      -2.2773      2.00000
     68      -2.2691      2.00000
     69      -2.2691      2.00000
     70      -2.2654      2.00000
     71      -2.2654      2.00000
     72      -2.2351      2.00000
     73      -2.2173      2.00000
     74      -2.2173      2.00000
     75      -2.1788      2.00000
     76      -2.1612      2.00000
     77      -2.1612      2.00000
     78      -2.1552      2.00000
     79      -2.1552      2.00000
     80      -2.1543      2.00000
     81      -2.1535      2.00000
     82      -2.1441      2.00000
     83      -1.9856      2.00000
     84      -1.9856      2.00000
     85      -1.9563      2.00000
     86      -1.9291      2.00000
     87      -1.9291      2.00000
     88      -1.9172      2.00000
     89      -1.9076      2.00000
     90      -1.8995      2.00000
     91      -1.8995      2.00000
     92      -1.8954      2.00000
     93      -1.7880      2.00000
     94      -1.7880      2.00000
     95      -1.7466      2.00000
     96      -1.7366      2.00000
     97      -1.7366      2.00000
     98      -1.7095      2.00000
     99      -1.6911      2.00000
    100      -1.6911      2.00000
    101      -1.6762      2.00000
    102      -1.6762      2.00000
    103      -1.6751      2.00000
    104      -1.5946      2.00000
    105      -1.5946      2.00000
    106      -1.5798      2.00000
    107      -1.5798      2.00000
    108      -1.5603      2.00000
    109      -1.5603      2.00000
    110      -1.5501      2.00000
    111      -1.5481      2.00000
    112      -1.5481      2.00000
    113      -1.5421      2.00000
    114      -1.5421      2.00000
    115      -1.4672      2.00000
    116      -1.4672      2.00000
    117      -1.4563      2.00000
    118      -1.4489      2.00000
    119      -1.4489      2.00000
    120      -1.4396      2.00000
    121      -1.4396      2.00000
    122      -1.3485      2.00000
    123      -1.3485      2.00000
    124      -1.3430      2.00000
    125      -1.3152      2.00000
    126      -1.3063      2.00000
    127      -1.3063      2.00000
    128      -1.2610      2.00000
    129      -1.2536      2.00000
    130      -1.2399      2.00000
    131      -1.2399      2.00000
    132      -1.2295      2.00000
    133      -1.2295      2.00000
    134      -1.2162      2.00000
    135      -1.2162      2.00000
    136      -1.2098      2.00000
    137      -1.2007      2.00000
    138      -1.2007      2.00000
    139      -1.1798      2.00000
    140      -1.1625      2.00000
    141      -1.1625      2.00000
    142      -1.0778      2.00000
    143      -1.0713      2.00000
    144      -1.0713      2.00000
    145      -1.0680      2.00000
    146      -1.0228      2.00000
    147      -1.0186      2.00000
    148      -1.0186      2.00000
    149      -0.9897      2.00000
    150      -0.9704      2.00000
    151      -0.9704      2.00000
    152      -0.9678      2.00000
    153      -0.9367      2.00000
    154      -0.9367      2.00000
    155      -0.8987      2.00000
    156      -0.8852      2.00000
    157      -0.8852      2.00000
    158      -0.8844      2.00000
    159      -0.8844      2.00000
    160      -0.8664      2.00000
    161      -0.7743      2.00000
    162      -0.7743      2.00000
    163      -0.7742      2.00000
    164      -0.7742      2.00000
    165      -0.5766      2.00000
    166      -0.5766      2.00000
    167      -0.0087      2.00000
    168      -0.0087      2.00000
    169       0.1374      2.00000
    170       0.4701      2.00000
    171       0.4701      2.00000
    172       0.9201      2.00000
    173       1.3034      2.00000
    174       1.4772      2.00026
    175       1.4772      2.00026
    176       1.8525      2.06058
    177       1.8525      2.06058
    178       2.0354      1.24308
[...]
    111      -1.6390      2.00000
    112      -1.6390      2.00000
    113      -1.6384      2.00000
    114      -1.6384      2.00000
    115      -1.6384      2.00000
    116      -1.5827      2.00000
    117      -1.5827      2.00000
    118      -1.5827      2.00000
    119      -1.5510      2.00000
    120      -1.5408      2.00000
    121      -1.5408      2.00000
    122      -1.5408      2.00000
    123      -1.5408      2.00000
    124      -1.5408      2.00000
    125      -1.5408      2.00000
    126      -1.4791      2.00000
    127      -1.4791      2.00000
    128      -1.4791      2.00000
    129      -1.4456      2.00000
    130      -1.4456      2.00000
    131      -1.4288      2.00000
    132      -1.4288      2.00000
    133      -1.4288      2.00000
    134      -1.4199      2.00000
    135      -1.4199      2.00000
    136      -1.4199      2.00000
    137      -1.3556      2.00000
    138      -1.3556      2.00000
    139      -1.3556      2.00000
    140      -1.3129      2.00000
    141      -1.3129      2.00000
    142      -1.2607      2.00000
    143      -1.2607      2.00000
    144      -1.2607      2.00000
    145      -0.8971      2.00000
    146      -0.8971      2.00000
    147      -0.8971      2.00000
    148      -0.8827      2.00000
    149      -0.8827      2.00000
    150      -0.8827      2.00000
    151      -0.8827      2.00000
    152      -0.8827      2.00000
    153      -0.8827      2.00000
    154      -0.8827      2.00000
    155      -0.8827      2.00000
    156      -0.8827      2.00000
    157      -0.8827      2.00000
    158      -0.8827      2.00000
    159      -0.8827      2.00000
    160      -0.8809      2.00000
    161      -0.8809      2.00000
    162      -0.8809      2.00000
    163      -0.8709      2.00000
    164      -0.8709      2.00000
    165      -0.8709      2.00000
    166      -0.8631      2.00000
    167      -0.8631      2.00000
    168      -0.8631      2.00000
    169       2.1462      0.36842
    170       2.1462      0.36842
    171       2.1462      0.36842
    172       2.4670     -0.01536
    173       2.4670     -0.01536
    174       2.4670     -0.01536
    175       2.4670     -0.01536
    176       2.4670     -0.01536
    177       2.4670     -0.01536
    178       2.7522     -0.00001
    179       2.7522     -0.00001
    180       2.7522     -0.00001
    181       2.9675     -0.00000
    182       2.9675     -0.00000
    183       2.9675     -0.00000
    184       3.3040     -0.00000
    185       3.3040     -0.00000
    186       3.3040     -0.00000
    187       3.3040     -0.00000
    188       3.3040     -0.00000
    189       3.3040     -0.00000
    190       3.6071     -0.00000
    191       3.6071     -0.00000
    192       3.6071     -0.00000
    193       6.4300     -0.00000
    194       6.4300     -0.00000
    195       6.4303     -0.00000
    196       6.7598     -0.00000
    197       6.7598     -0.00000
    198       6.7658     -0.00000
    199       7.1853     -0.00000
    200       7.1853     -0.00000
    201       7.1857     -0.00000
    202       7.1869     -0.00000
    203       7.1935     -0.00000
    204       7.2104     -0.00000
    205       7.5218     -0.00000
    206       7.5218     -0.00000
    207       7.5227     -0.00000
    208       7.5336      0.00000
    209       7.6077      0.00000
    210       7.7544      0.00000
    211       7.9796      0.00000
    212       8.1488      0.00000


--------------------------------------------------------------------------------------------------------


 soft charge-density along one line, spin component           1
         0         1         2         3         4         5         6         7         8         9
 total charge-density along one line
 
 pseudopotential strength for first ion, spin component:           1
-12.584   0.000  -0.000   0.000  -0.000   0.209  -0.000   0.000
  0.000 -12.584   0.000   0.000  -0.000  -0.000   0.209  -0.000
 -0.000   0.000 -12.576   0.000  -0.000   0.000  -0.000   0.208
  0.000   0.000   0.000 -12.584   0.000  -0.000  -0.000  -0.000
 -0.000  -0.000  -0.000   0.000 -12.576   0.000   0.000   0.000
  0.209  -0.000   0.000  -0.000   0.000   0.442   0.000  -0.000
 -0.000   0.209  -0.000  -0.000   0.000   0.000   0.442   0.000
  0.000  -0.000   0.208  -0.000   0.000  -0.000   0.000   0.443
 -0.000  -0.000  -0.000   0.209  -0.000   0.000   0.000   0.000
  0.000   0.000   0.000  -0.000   0.208  -0.000  -0.000  -0.000
 -0.000  -0.000  -0.000  -0.000  -0.000   0.000   0.000   0.000
  0.000   0.000   0.000   0.000   0.000  -0.000  -0.000  -0.000
  0.000  -0.000  -0.000   0.000  -0.000  -0.000   0.000   0.000
  0.000   0.000  -0.000   0.000   0.000  -0.000  -0.000   0.000
  0.000   0.000  -0.000  -0.000   0.000  -0.000  -0.000   0.000
 -0.000   0.000   0.000  -0.000   0.000   0.000  -0.000  -0.000
 -0.000  -0.000   0.000  -0.000  -0.000   0.000   0.000  -0.000
 -0.000  -0.000   0.000   0.000  -0.000   0.000   0.000  -0.000
 total augmentation occupancy for first ion, spin component:           1
  1.942  -0.000  -0.001   0.001   0.001  -0.034   0.000  -0.000  -0.001  -0.001   0.005  -0.001  -0.000   0.000   0.000  -0.000
 -0.000   1.949  -0.002  -0.000  -0.000   0.000  -0.041   0.002   0.000  -0.001   0.001  -0.001  -0.000   0.000   0.000  -0.000
 -0.001  -0.002   1.970  -0.001   0.002  -0.000   0.002  -0.060   0.001  -0.001   0.017   0.001  -0.000  -0.000  -0.000  -0.000
  0.001  -0.000  -0.001   1.945   0.001  -0.001   0.000   0.001  -0.036  -0.000   0.003  -0.000  -0.000   0.000  -0.000  -0.000
  0.001  -0.000   0.002   0.001   1.959  -0.001  -0.001  -0.001  -0.000  -0.053  -0.009  -0.001   0.000   0.000   0.000   0.000
 -0.034   0.000  -0.000  -0.001  -0.001   0.049  -0.000   0.001   0.000   0.001  -0.002   0.001  -0.000  -0.000  -0.000  -0.000
  0.000  -0.041   0.002   0.000  -0.001  -0.000   0.055  -0.002  -0.000   0.001   0.002   0.001   0.000   0.000  -0.000   0.000
 -0.000   0.002  -0.060   0.001  -0.001   0.001  -0.002   0.044  -0.001   0.000  -0.012   0.001   0.000  -0.000   0.000   0.000
 -0.001   0.000   0.001  -0.036  -0.000   0.000  -0.000  -0.001   0.049  -0.000  -0.001   0.001   0.000   0.000  -0.000   0.000
 -0.001  -0.001  -0.001  -0.000  -0.053   0.001   0.001   0.000  -0.000   0.040   0.008   0.000  -0.000  -0.000   0.000  -0.000
  0.005   0.001   0.017   0.003  -0.009  -0.002   0.002  -0.012  -0.001   0.008   0.953  -0.285  -0.000   0.000   0.000  -0.000
 -0.001  -0.001   0.001  -0.000  -0.001   0.001   0.001   0.001   0.001   0.000  -0.285   0.131  -0.000   0.000  -0.000   0.000
 -0.000  -0.000  -0.000  -0.000   0.000  -0.000   0.000   0.000   0.000  -0.000  -0.000  -0.000   0.080  -0.002   0.003  -0.004
  0.000   0.000  -0.000   0.000   0.000  -0.000   0.000  -0.000   0.000  -0.000   0.000   0.000  -0.002   0.085   0.001  -0.000
  0.000   0.000  -0.000  -0.000   0.000  -0.000  -0.000   0.000  -0.000   0.000   0.000  -0.000   0.003   0.001   0.079  -0.000
 -0.000  -0.000  -0.000  -0.000   0.000  -0.000   0.000   0.000   0.000  -0.000  -0.000   0.000  -0.004  -0.000  -0.000   0.000
  0.000  -0.000  -0.000  -0.000   0.000  -0.000   0.000  -0.000   0.000  -0.000   0.000  -0.000  -0.000  -0.004  -0.000   0.000
  0.000   0.000  -0.000  -0.000   0.000  -0.000  -0.000  -0.000  -0.000   0.000  -0.000   0.000  -0.000  -0.000  -0.004   0.000


------------------------ aborting loop because EDIFF is reached ----------------------------------------




--------------------------------------------------------------------------------------------------------


    CHARGE:  VPU time   79.27: CPU time   79.39
    FORLOC:  VPU time    0.61: CPU time    0.61
    FORNL :  VPU time  457.46: CPU time  458.02
    STRESS:  VPU time 1933.54: CPU time 1934.90
    FORCOR:  VPU time    2.91: CPU time    2.92
    FORHAR:  VPU time    1.06: CPU time    1.06
    MIXING:  VPU time    0.08: CPU time    0.08


--------------------------------------------------------------------------------------------------------



  FREE ENERGIE OF THE ION-ELECTRON SYSTEM (eV)
  ---------------------------------------------------
  free  energy   TOTEN  =       -88.171800 eV

  energy  without entropy=      -88.156804  energy(sigma->0) =      -88.166801
 

  FORCE on cell =-STRESS in cart. coord.  units (eV/reduce length):
  Direction    X        Y        Z        XY       YZ       ZX
  --------------------------------------------------------------------------------------
  Alpha Z   2764.37   2764.37   2764.37
  Ewald    -9797.93  -9797.93  -9797.93     -0.00     -0.00     -0.00
  Hartree   2359.48   2359.48   2359.48     -0.00     -0.00     -0.00
  E(xc)    -1852.39  -1852.39  -1852.39     -0.00     -0.00     -0.00
  Local     2974.77   2974.77   2974.77      0.00      0.00      0.00
  n-local  -2168.12  -2163.60  -2157.99      2.38     -0.36      1.26
  augment   1336.27   1336.27   1336.27      0.00     -0.00      0.00
  Kinetic   4337.81   4345.37   4354.65      2.02     -2.97      0.31
  -------------------------------------------------------------------------------------
  Total      -32.73    -32.73    -32.73     -0.00     -0.00     -0.00
  in kB      -79.73    -79.73    -79.73     -0.00     -0.00     -0.00
  external pressure =      -79.73 kB  Pullay stress =        0.00 kB


 VOLUME and BASIS-vectors are now :
 -----------------------------------------------------------------------------
  energy-cutoff  :      600.00
  volume of cell :      657.80
      direct lattice vectors                 reciprocal lattice vectors
     8.696891050  0.000000000  0.000000000     0.114983618 -0.000000002 -0.000000002
     0.000000160  8.696891050  0.000000000     0.000000000  0.114983618 -0.000000002
     0.000000160  0.000000160  8.696891050     0.000000000  0.000000000  0.114983618

  length of vectors
     8.696891050  8.696891050  8.696891050     0.114983618  0.114983618  0.114983618


 FORCES acting on ions
    electron-ion (+dipol)            ewald-force                    non-local-force                 convergence-correction
 -----------------------------------------------------------------------------------------------
   0.715E-12 -.176E-10 0.390E-11   0.140E-12 -.635E-13 0.827E-13   0.197E-23 0.216E-23 0.660E-23   0.137E-12 0.180E-13 -.753E-12
   0.727E-12 -.178E-11 -.555E-12   0.189E-12 -.941E-13 0.454E-13   -.484E-23 0.124E-23 -.207E-23   0.505E-14 -.356E-12 0.102E-11
   0.708E-12 -.403E-13 -.701E-11   0.835E-13 -.147E-13 0.226E-13   0.515E-23 -.339E-23 0.229E-23   -.851E-13 -.323E-12 -.227E-12
   0.683E-12 0.434E-11 0.236E-11   0.136E-12 -.107E-12 0.107E-13   -.233E-23 0.144E-23 -.538E-23   0.116E-12 -.774E-13 -.281E-12
   -.400E-13 0.716E-12 0.218E-12   0.934E-13 -.515E-13 0.240E-13   -.231E-24 0.129E-24 0.290E-23   -.223E-13 -.714E-13 -.318E-12
   -.393E-13 -.494E-13 0.438E-12   0.440E-13 -.243E-13 0.190E-13   -.543E-23 -.113E-23 -.160E-23   0.137E-12 -.107E-12 -.392E-12
   0.203E-12 -.144E-11 0.170E-11   0.520E-13 -.266E-14 0.746E-13   0.124E-23 -.806E-23 0.310E-24   -.130E-12 -.300E-13 -.388E-12
   0.714E-12 0.146E-12 0.239E-11   0.183E-12 0.334E-13 -.231E-13   -.107E-22 -.495E-24 -.165E-23   0.899E-13 0.112E-12 -.209E-12
   0.695E-12 -.112E-10 -.739E-12   0.533E-13 0.142E-13 -.128E-13   -.359E-23 0.978E-24 0.593E-24   -.153E-12 0.318E-12 0.627E-12
   0.698E-12 -.145E-11 0.855E-11   0.444E-14 0.759E-14 -.577E-13   0.121E-23 0.658E-23 -.301E-23   0.315E-13 0.406E-12 -.616E-12
   -.518E-13 0.703E-12 0.663E-12   0.210E-13 0.213E-13 0.533E-13   -.790E-23 -.285E-23 -.432E-23   0.319E-12 -.150E-12 -.479E-13
   -.255E-13 -.604E-13 -.214E-13   0.479E-13 0.882E-13 -.497E-13   -.110E-23 -.257E-23 0.283E-23   0.453E-12 -.130E-13 0.755E-12
   -.510E-13 0.195E-12 0.231E-12   -.963E-13 0.142E-13 0.320E-13   0.759E-23 -.395E-23 0.465E-24   0.315E-12 0.571E-13 -.402E-12
   -.747E-13 0.473E-12 0.449E-12   -.171E-13 -.852E-13 0.319E-13   -.885E-24 -.120E-23 0.352E-23   0.190E-12 0.187E-12 -.333E-12
   0.191E-12 0.293E-11 0.111E-11   0.320E-13 0.284E-13 0.493E-13   -.927E-23 0.418E-23 0.995E-24   0.112E-14 -.733E-13 0.704E-12
   0.210E-12 -.197E-13 -.196E-11   0.577E-14 0.477E-13 -.409E-13   -.104E-23 -.243E-23 -.569E-24   0.854E-13 0.265E-13 -.512E-12
   0.234E-12 0.223E-11 0.162E-11   -.231E-13 -.147E-13 0.154E-13   0.137E-23 -.162E-23 -.421E-23   -.110E-12 -.837E-15 -.281E-12
   0.466E-12 -.395E-11 -.424E-12   -.378E-13 -.444E-13 0.409E-13   -.224E-23 0.208E-23 -.620E-24   0.820E-13 0.204E-13 -.486E-12
   0.466E-12 -.135E-14 -.380E-11   -.101E-12 -.246E-13 0.306E-13   0.958E-24 0.373E-23 -.207E-23   -.856E-13 -.729E-13 -.581E-12
   0.704E-12 -.446E-12 -.132E-10   0.249E-13 0.336E-13 -.346E-13   -.327E-23 -.631E-24 0.388E-23   0.736E-13 -.283E-13 0.172E-12
   -.627E-13 0.206E-12 0.652E-12   -.104E-12 0.160E-13 0.444E-15   -.180E-23 0.595E-24 0.103E-23   0.313E-12 0.134E-12 0.662E-13
   -.629E-13 0.485E-12 -.357E-13   0.240E-14 -.302E-13 0.663E-14   -.278E-23 -.397E-24 0.414E-23   0.166E-12 0.810E-13 0.663E-12
   0.205E-12 -.688E-13 0.267E-11   -.124E-13 0.809E-13 -.226E-13   -.694E-23 -.208E-23 -.414E-23   -.914E-13 0.116E-12 0.143E-12
   0.222E-12 -.189E-11 0.118E-11   -.613E-13 0.888E-14 0.118E-13   -.469E-23 -.559E-23 -.269E-23   0.160E-12 0.378E-13 0.635E-12
   0.223E-12 0.454E-12 0.214E-11   -.249E-13 0.296E-13 -.648E-13   -.312E-25 0.310E-23 0.269E-23   -.297E-13 0.650E-13 -.555E-12
   0.479E-12 0.367E-11 0.651E-11   -.180E-12 0.622E-13 0.195E-13   -.862E-23 -.317E-23 -.165E-23   -.258E-12 -.191E-12 0.474E-13
   0.455E-12 0.951E-13 0.308E-11   -.106E-12 -.229E-13 -.480E-13   -.431E-23 -.146E-23 -.310E-23   -.401E-12 0.164E-12 0.928E-12
   0.479E-12 -.360E-11 -.741E-12   -.915E-13 0.373E-13 -.338E-13   0.205E-23 0.359E-23 -.134E-23   -.269E-12 -.660E-13 -.712E-12
   0.502E-12 -.344E-11 -.344E-11   -.145E-12 -.373E-13 0.756E-14   -.359E-23 0.143E-23 0.827E-24   -.147E-12 0.166E-12 -.389E-12
   0.217E-12 0.496E-12 -.145E-11   -.329E-13 0.427E-13 -.560E-13   -.195E-23 -.634E-23 0.124E-23   -.707E-13 -.243E-13 0.186E-12
   0.491E-12 -.280E-11 -.168E-11   -.141E-12 0.115E-12 -.266E-13   -.470E-23 0.151E-23 0.279E-23   -.265E-12 0.146E-12 0.293E-12
   0.489E-12 -.357E-11 0.230E-11   -.113E-12 -.585E-13 -.177E-14   0.901E-23 -.497E-24 -.207E-23   -.120E-12 -.665E-13 0.690E-12
 -----------------------------------------------------------------------------------------------
   0.108E-10 -.362E-10 0.712E-11   -.174E-12 0.564E-14 0.106E-12   -.617E-22 -.151E-22 -.340E-23   0.439E-12 0.405E-12 -.549E-12
 
 
 POSITION                                       TOTAL-FORCE (eV/Angst)
 -----------------------------------------------------------------------------------
      6.52267      6.52267      4.34845        -0.000000      0.000000     -0.000000
      6.52267      6.52267      0.00000        -0.000000     -0.000000      0.000000
      6.52267      0.00000      2.17422        -0.000000     -0.000000      0.000000
      6.52267      2.17422      4.34845         0.000000     -0.000000      0.000000
      0.00000      6.52267      2.17422        -0.000000      0.000000      0.000000
      0.00000      0.00000      4.34845        -0.000000      0.000000     -0.000000
      2.17422      6.52267      4.34845        -0.000000     -0.000000      0.000000
      6.52267      0.00000      6.52267        -0.000000      0.000000      0.000000
      6.52267      2.17422      0.00000        -0.000000     -0.000000      0.000000
      6.52267      4.34845      2.17422        -0.000000      0.000000     -0.000000
      0.00000      6.52267      6.52267         0.000000     -0.000000      0.000000
      0.00000      0.00000      0.00000        -0.000000     -0.000000     -0.000000
      0.00000      2.17422      2.17422         0.000000     -0.000000     -0.000000
      0.00000      4.34845      4.34845         0.000000     -0.000000      0.000000
      2.17422      6.52267      0.00000        -0.000000     -0.000000      0.000000
      2.17422      0.00000      2.17422        -0.000000      0.000000      0.000000
      2.17422      2.17422      4.34845        -0.000000      0.000000     -0.000000
      4.34845      6.52267      2.17422         0.000000     -0.000000      0.000000
      4.34845      0.00000      4.34845        -0.000000     -0.000000     -0.000000
      6.52267      4.34845      6.52267         0.000000     -0.000000      0.000000
      0.00000      2.17422      6.52267        -0.000000      0.000000     -0.000000
      0.00000      4.34845      0.00000        -0.000000      0.000000     -0.000000
      2.17422      0.00000      6.52267         0.000000     -0.000000      0.000000
      2.17422      2.17422      0.00000         0.000000     -0.000000     -0.000000
      2.17422      4.34845      2.17422        -0.000000     -0.000000      0.000000
      4.34845      6.52267      6.52267         0.000000      0.000000     -0.000000
      4.34845      0.00000      0.00000        -0.000000     -0.000000     -0.000000
      4.34845      2.17422      2.17422        -0.000000      0.000000     -0.000000
      4.34845      4.34845      4.34845        -0.000000      0.000000     -0.000000
      2.17422      4.34845      6.52267         0.000000      0.000000     -0.000000
      4.34845      2.17422      6.52267         0.000000     -0.000000      0.000000
      4.34845      4.34845      0.00000        -0.000000     -0.000000      0.000000
 -----------------------------------------------------------------------------------
    total drift:                                0.000000     -0.000000      0.000000


--------------------------------------------------------------------------------------------------------




--------------------------------------------------------------------------------------------------------


  
 reached required accuracy - stopping structural energy minimisation
 writing wavefunctions
     LOOP+:  VPU time31262.44: CPU time31337.89

 ----------------------------------------------------------------------------- 
|                                                                             |
|           W    W    AA    RRRRR   N    N  II  N    N   GGGG   !!!           |
|           W    W   A  A   R    R  NN   N  II  NN   N  G    G  !!!           |
|           W    W  A    A  R    R  N N  N  II  N N  N  G       !!!           |
|           W WW W  AAAAAA  RRRRR   N  N N  II  N  N N  G  GGG   !            |
|           WW  WW  A    A  R   R   N   NN  II  N   NN  G    G                |
|           W    W  A    A  R    R  N    N  II  N    N   GGGG   !!!           |
|                                                                             |
|      The partial DOS and the PROCAR file are not evaluated for NPAR/=1      |
|      please rerun with NPAR=1                                               |
|                                                                             |
 ----------------------------------------------------------------------------- 

  
  
 General timing and accounting informations for this job:
 ========================================================
  
                  Total CPU time used (sec):    31675.993
                            User time (sec):    30265.845
                          System time (sec):     1410.148
                         Elapsed time (sec):    31752.128
  
                   Maximum memory used (kb):     2099324.
                   Average memory used (kb):           0.
  
                          Minor page faults:       434575
                          Major page faults:            0
                 Voluntary context switches:        14914
