       N       E                     dE             d eps       ncg     rms          rms(c)
DAV:   1     0.212779462034E+04    0.21278E+04   -0.11487E+05   432   0.979E+02
DAV:   2    -0.393294015202E+01   -0.21317E+04   -0.20273E+04   428   0.339E+02
DAV:   3    -0.948150144595E+02   -0.90882E+02   -0.88478E+02   448   0.770E+01
DAV:   4    -0.957202142895E+02   -0.90520E+00   -0.90209E+00   448   0.761E+00
DAV:   5    -0.957248889649E+02   -0.46747E-02   -0.46726E-02   448   0.482E-01    0.157E+01
DAV:   6    -0.889870952546E+02    0.67378E+01   -0.23395E+01   448   0.172E+01    0.301E+00
DAV:   7    -0.887322269321E+02    0.25487E+00   -0.42005E-01   448   0.153E+00    0.148E+00
DAV:   8    -0.886263691701E+02    0.10586E+00   -0.22258E-02   432   0.461E-01    0.955E-02
DAV:   9    -0.886269079221E+02   -0.53875E-03   -0.16263E-03   448   0.122E-01    0.690E-02
DAV:  10    -0.886267143460E+02    0.19358E-03   -0.15099E-04   432   0.364E-02    0.677E-03
DAV:  11    -0.886267061931E+02    0.81529E-05   -0.37481E-06   224   0.500E-03
   1 F= -.88626706E+02 E0= -.88570796E+02  d E =-.886267E+02
