       N       E                     dE             d eps       ncg     rms          rms(c)
DAV:   1    -0.102945243478E+03   -0.10295E+03   -0.54681E+02  2752   0.375E+01    0.558E+00
DAV:   2    -0.102915212351E+03    0.30031E-01   -0.13798E+01  2676   0.107E+01    0.950E-01
DAV:   3    -0.102939103425E+03   -0.23891E-01   -0.36279E-01  2676   0.202E+00    0.588E-01
DAV:   4    -0.102939843168E+03   -0.73974E-03   -0.80453E-03  3068   0.361E-01    0.297E-01
DAV:   5    -0.102940180617E+03   -0.33745E-03   -0.10465E-03  2696   0.121E-01    0.342E-02
DAV:   6    -0.102940169388E+03    0.11228E-04   -0.18526E-04  2728   0.491E-02    0.106E-02
DAV:   7    -0.102940166972E+03    0.24162E-05   -0.11620E-05  1440   0.200E-02
   1 F= -.10294017E+03 E0= -.10293600E+03  d E =-.124917E-01
