       N       E                     dE             d eps       ncg     rms          rms(c)
DAV:   1    -0.102944793134E+03   -0.10294E+03   -0.54681E+02  2744   0.375E+01    0.558E+00
DAV:   2    -0.102915376525E+03    0.29417E-01   -0.13805E+01  2676   0.107E+01    0.947E-01
DAV:   3    -0.102939100647E+03   -0.23724E-01   -0.35821E-01  2684   0.199E+00    0.587E-01
DAV:   4    -0.102939848262E+03   -0.74761E-03   -0.78721E-03  3036   0.352E-01    0.291E-01
DAV:   5    -0.102940180256E+03   -0.33199E-03   -0.10076E-03  2712   0.121E-01    0.338E-02
DAV:   6    -0.102940169347E+03    0.10909E-04   -0.17990E-04  2752   0.479E-02    0.104E-02
DAV:   7    -0.102940166909E+03    0.24379E-05   -0.10355E-05  1452   0.183E-02
   1 F= -.10294017E+03 E0= -.10293600E+03  d E =-.124917E-01
