   4   4   0   0
  0.1413215E+02  0.3837862E-09  0.3837862E-09  0.3837862E-09  0.5000000E-15
  1.000000000000000E-004
  CAR 
 unknown system                          
     23.35030573     -3.76637317  301      9.72975948      1.00000000
     -3.766  0.0000E+00  0.0000E+00
     -3.676  0.0000E+00  0.0000E+00
     -3.586  0.0000E+00  0.0000E+00
     -3.495  0.0000E+00  0.0000E+00
     -3.405  0.0000E+00  0.0000E+00
     -3.314  0.0000E+00  0.0000E+00
     -3.224  0.0000E+00  0.0000E+00
     -3.134  0.0000E+00  0.0000E+00
     -3.043  0.0000E+00  0.0000E+00
     -2.953  0.0000E+00  0.0000E+00
     -2.862  0.0000E+00  0.0000E+00
     -2.772  0.0000E+00  0.0000E+00
     -2.682  0.0000E+00  0.0000E+00
     -2.591  0.1053E-18  0.9518E-20
     -2.501  0.1679E-01  0.1518E-02
     -2.411  0.9547E-01  0.1110E-01
     -2.320  0.1457E+00  0.2626E-01
     -2.230  0.1896E+00  0.4387E-01
     -2.139  0.2231E+00  0.6509E-01
     -2.049  0.2391E+00  0.8917E-01
     -1.959  0.2774E+00  0.1155E+00
     -1.868  0.2708E+00  0.1436E+00
     -1.778  0.2841E+00  0.1718E+00
     -1.687  0.3277E+00  0.2071E+00
     -1.597  0.2995E+00  0.2390E+00
     -1.507  0.3583E+00  0.2766E+00
     -1.416  0.2827E+00  0.3093E+00
     -1.326  0.3820E+00  0.3535E+00
     -1.235  0.3426E+00  0.3904E+00
     -1.145  0.4477E+00  0.4339E+00
     -1.055  0.3924E+00  0.4751E+00
     -0.964  0.4929E+00  0.5216E+00
     -0.874  0.4515E+00  0.5679E+00
     -0.784  0.4506E+00  0.6151E+00
     -0.693  0.5194E+00  0.6650E+00
     -0.603  0.5837E+00  0.7181E+00
     -0.512  0.4835E+00  0.7653E+00
     -0.422  0.5690E+00  0.8206E+00
     -0.332  0.4769E+00  0.8709E+00
     -0.241  0.6223E+00  0.9298E+00
     -0.151  0.5111E+00  0.9841E+00
     -0.060  0.5566E+00  0.1038E+01
      0.030  0.6251E+00  0.1099E+01
      0.120  0.6566E+00  0.1160E+01
      0.211  0.5661E+00  0.1217E+01
      0.301  0.6582E+00  0.1278E+01
      0.392  0.6303E+00  0.1345E+01
      0.482  0.6294E+00  0.1405E+01
      0.572  0.6456E+00  0.1472E+01
      0.663  0.6394E+00  0.1535E+01
      0.753  0.6637E+00  0.1605E+01
      0.843  0.6755E+00  0.1670E+01
      0.934  0.6810E+00  0.1739E+01
      1.024  0.7264E+00  0.1808E+01
      1.115  0.6530E+00  0.1876E+01
      1.205  0.8011E+00  0.1951E+01
      1.295  0.6693E+00  0.2023E+01
      1.386  0.7498E+00  0.2094E+01
      1.476  0.7542E+00  0.2170E+01
      1.567  0.7755E+00  0.2243E+01
      1.657  0.8391E+00  0.2327E+01
      1.747  0.6996E+00  0.2395E+01
      1.838  0.7558E+00  0.2474E+01
      1.928  0.8837E+00  0.2557E+01
      2.019  0.7779E+00  0.2634E+01
      2.109  0.7915E+00  0.2711E+01
      2.199  0.7806E+00  0.2791E+01
      2.290  0.9927E+00  0.2882E+01
      2.380  0.7655E+00  0.2956E+01
      2.470  0.8573E+00  0.3046E+01
      2.561  0.6973E+00  0.3121E+01
      2.651  0.9290E+00  0.3211E+01
      2.742  0.8911E+00  0.3300E+01
      2.832  0.8919E+00  0.3390E+01
      2.922  0.6829E+00  0.3470E+01
      3.013  0.9363E+00  0.3566E+01
      3.103  0.7858E+00  0.3655E+01
      3.194  0.8764E+00  0.3751E+01
      3.284  0.8595E+00  0.3835E+01
      3.374  0.1006E+01  0.3937E+01
      3.465  0.9083E+00  0.4024E+01
      3.555  0.9928E+00  0.4121E+01
      3.646  0.9377E+00  0.4215E+01
      3.736  0.8370E+00  0.4308E+01
      3.826  0.8679E+00  0.4401E+01
      3.917  0.9978E+00  0.4513E+01
      4.007  0.9238E+00  0.4611E+01
      4.097  0.9251E+00  0.4706E+01
      4.188  0.9697E+00  0.4806E+01
      4.278  0.1123E+01  0.4914E+01
      4.369  0.9789E+00  0.5015E+01
      4.459  0.1039E+01  0.5125E+01
      4.549  0.1099E+01  0.5235E+01
      4.640  0.1010E+01  0.5337E+01
      4.730  0.1152E+01  0.5448E+01
      4.821  0.9741E+00  0.5551E+01
      4.911  0.1127E+01  0.5663E+01
      5.001  0.8197E+00  0.5752E+01
      5.092  0.9977E+00  0.5852E+01
      5.182  0.1033E+01  0.5961E+01
      5.273  0.1099E+01  0.6072E+01
      5.363  0.8979E+00  0.6168E+01
      5.453  0.1116E+01  0.6282E+01
      5.544  0.1033E+01  0.6390E+01
      5.634  0.9587E+00  0.6494E+01
      5.724  0.1138E+01  0.6611E+01
      5.815  0.1161E+01  0.6727E+01
      5.905  0.1121E+01  0.6840E+01
      5.996  0.1095E+01  0.6945E+01
      6.086  0.1266E+01  0.7069E+01
      6.176  0.1203E+01  0.7189E+01
      6.267  0.1068E+01  0.7300E+01
      6.357  0.1163E+01  0.7418E+01
      6.448  0.1375E+01  0.7556E+01
      6.538  0.1171E+01  0.7677E+01
      6.628  0.1272E+01  0.7808E+01
      6.719  0.1250E+01  0.7931E+01
      6.809  0.1258E+01  0.8065E+01
      6.900  0.1105E+01  0.8179E+01
      6.990  0.1334E+01  0.8311E+01
      7.080  0.1070E+01  0.8417E+01
      7.171  0.1339E+01  0.8549E+01
      7.261  0.1197E+01  0.8670E+01
      7.351  0.9973E+00  0.8770E+01
      7.442  0.1268E+01  0.8905E+01
      7.532  0.1055E+01  0.9013E+01
      7.623  0.1133E+01  0.9126E+01
      7.713  0.1153E+01  0.9238E+01
      7.803  0.1277E+01  0.9363E+01
      7.894  0.1102E+01  0.9477E+01
      7.984  0.1105E+01  0.9586E+01
      8.075  0.1235E+01  0.9714E+01
      8.165  0.1070E+01  0.9825E+01
      8.255  0.1218E+01  0.9953E+01
      8.346  0.1224E+01  0.1008E+02
      8.436  0.1265E+01  0.1021E+02
      8.527  0.1239E+01  0.1034E+02
      8.617  0.1388E+01  0.1048E+02
      8.707  0.1435E+01  0.1062E+02
      8.798  0.1435E+01  0.1077E+02
      8.888  0.1311E+01  0.1090E+02
      8.978  0.1095E+01  0.1101E+02
      9.069  0.1342E+01  0.1115E+02
      9.159  0.1261E+01  0.1128E+02
      9.250  0.1127E+01  0.1139E+02
      9.340  0.1041E+01  0.1150E+02
      9.430  0.1176E+01  0.1162E+02
      9.521  0.1015E+01  0.1173E+02
      9.611  0.9946E+00  0.1184E+02
      9.702  0.1180E+01  0.1196E+02
      9.792  0.1295E+01  0.1209E+02
      9.882  0.1253E+01  0.1222E+02
      9.973  0.1591E+01  0.1238E+02
     10.063  0.1267E+01  0.1251E+02
     10.154  0.1372E+01  0.1265E+02
     10.244  0.1364E+01  0.1279E+02
     10.334  0.1364E+01  0.1293E+02
     10.425  0.1497E+01  0.1308E+02
     10.515  0.1323E+01  0.1322E+02
     10.605  0.1211E+01  0.1335E+02
     10.696  0.1385E+01  0.1349E+02
     10.786  0.1301E+01  0.1362E+02
     10.877  0.1645E+01  0.1378E+02
     10.967  0.1336E+01  0.1392E+02
     11.057  0.1246E+01  0.1405E+02
     11.148  0.1328E+01  0.1419E+02
     11.238  0.1412E+01  0.1433E+02
     11.329  0.1137E+01  0.1446E+02
     11.419  0.1393E+01  0.1460E+02
     11.509  0.1463E+01  0.1474E+02
     11.600  0.1436E+01  0.1488E+02
     11.690  0.1343E+01  0.1502E+02
     11.781  0.1262E+01  0.1515E+02
     11.871  0.1177E+01  0.1527E+02
     11.961  0.1453E+01  0.1541E+02
     12.052  0.1547E+01  0.1557E+02
     12.142  0.1491E+01  0.1572E+02
     12.232  0.1315E+01  0.1585E+02
     12.323  0.1444E+01  0.1600E+02
     12.413  0.1262E+01  0.1612E+02
     12.504  0.1572E+01  0.1628E+02
     12.594  0.1573E+01  0.1644E+02
     12.684  0.1388E+01  0.1658E+02
     12.775  0.1589E+01  0.1674E+02
     12.865  0.1407E+01  0.1688E+02
     12.956  0.1400E+01  0.1702E+02
     13.046  0.1253E+01  0.1715E+02
     13.136  0.1569E+01  0.1731E+02
     13.227  0.1806E+01  0.1749E+02
     13.317  0.1368E+01  0.1763E+02
     13.408  0.1296E+01  0.1777E+02
     13.498  0.1582E+01  0.1792E+02
     13.588  0.1510E+01  0.1807E+02
     13.679  0.1666E+01  0.1824E+02
     13.769  0.1507E+01  0.1839E+02
     13.859  0.1458E+01  0.1854E+02
     13.950  0.1812E+01  0.1872E+02
     14.040  0.1261E+01  0.1885E+02
     14.131  0.1449E+01  0.1902E+02
     14.221  0.1559E+01  0.1917E+02
     14.311  0.1526E+01  0.1933E+02
     14.402  0.1582E+01  0.1949E+02
     14.492  0.1623E+01  0.1966E+02
     14.583  0.1460E+01  0.1981E+02
     14.673  0.1544E+01  0.1998E+02
     14.763  0.1480E+01  0.2013E+02
     14.854  0.1800E+01  0.2031E+02
     14.944  0.1598E+01  0.2047E+02
     15.035  0.1660E+01  0.2064E+02
     15.125  0.1427E+01  0.2079E+02
     15.215  0.1870E+01  0.2098E+02
     15.306  0.1546E+01  0.2113E+02
     15.396  0.1802E+01  0.2131E+02
     15.486  0.1510E+01  0.2147E+02
     15.577  0.1738E+01  0.2165E+02
     15.667  0.1718E+01  0.2182E+02
     15.758  0.1482E+01  0.2198E+02
     15.848  0.1968E+01  0.2218E+02
     15.938  0.1863E+01  0.2237E+02
     16.029  0.1772E+01  0.2255E+02
     16.119  0.1824E+01  0.2273E+02
     16.210  0.1788E+01  0.2291E+02
     16.300  0.2296E+01  0.2315E+02
     16.390  0.1636E+01  0.2332E+02
     16.481  0.1865E+01  0.2351E+02
     16.571  0.2073E+01  0.2371E+02
     16.662  0.1856E+01  0.2390E+02
     16.752  0.1964E+01  0.2409E+02
     16.842  0.1820E+01  0.2427E+02
     16.933  0.1761E+01  0.2446E+02
     17.023  0.1692E+01  0.2464E+02
     17.113  0.1773E+01  0.2483E+02
     17.204  0.1730E+01  0.2500E+02
     17.294  0.1883E+01  0.2520E+02
     17.385  0.1698E+01  0.2537E+02
     17.475  0.1889E+01  0.2557E+02
     17.565  0.1662E+01  0.2574E+02
     17.656  0.1631E+01  0.2591E+02
     17.746  0.1762E+01  0.2609E+02
     17.837  0.1852E+01  0.2627E+02
     17.927  0.1974E+01  0.2647E+02
     18.017  0.1460E+01  0.2663E+02
     18.108  0.1733E+01  0.2681E+02
     18.198  0.1903E+01  0.2700E+02
     18.289  0.1807E+01  0.2718E+02
     18.379  0.1656E+01  0.2735E+02
     18.469  0.1484E+01  0.2751E+02
     18.560  0.1726E+01  0.2770E+02
     18.650  0.1645E+01  0.2787E+02
     18.740  0.1818E+01  0.2804E+02
     18.831  0.1541E+01  0.2821E+02
     18.921  0.1608E+01  0.2839E+02
     19.012  0.1579E+01  0.2855E+02
     19.102  0.1668E+01  0.2873E+02
     19.192  0.1651E+01  0.2889E+02
     19.283  0.1580E+01  0.2906E+02
     19.373  0.1485E+01  0.2921E+02
     19.464  0.1394E+01  0.2936E+02
     19.554  0.1925E+01  0.2955E+02
     19.644  0.1328E+01  0.2969E+02
     19.735  0.1358E+01  0.2983E+02
     19.825  0.1534E+01  0.2998E+02
     19.916  0.1433E+01  0.3013E+02
     20.006  0.1385E+01  0.3026E+02
     20.096  0.1227E+01  0.3039E+02
     20.187  0.1101E+01  0.3051E+02
     20.277  0.1249E+01  0.3064E+02
     20.367  0.1120E+01  0.3075E+02
     20.458  0.9971E+00  0.3085E+02
     20.548  0.1064E+01  0.3096E+02
     20.639  0.9192E+00  0.3106E+02
     20.729  0.8929E+00  0.3115E+02
     20.819  0.9221E+00  0.3125E+02
     20.910  0.6942E+00  0.3132E+02
     21.000  0.9130E+00  0.3141E+02
     21.091  0.6783E+00  0.3148E+02
     21.181  0.7367E+00  0.3156E+02
     21.271  0.6244E+00  0.3163E+02
     21.362  0.5314E+00  0.3169E+02
     21.452  0.6070E+00  0.3175E+02
     21.543  0.5838E+00  0.3181E+02
     21.633  0.4227E+00  0.3186E+02
     21.723  0.4209E+00  0.3190E+02
     21.814  0.3920E+00  0.3194E+02
     21.904  0.1875E+00  0.3196E+02
     21.994  0.1969E+00  0.3199E+02
     22.085  0.3572E-01  0.3199E+02
     22.175  0.6751E-01  0.3200E+02
     22.266  0.0000E+00  0.3200E+02
     22.356  0.0000E+00  0.3200E+02
     22.446  0.0000E+00  0.3200E+02
     22.537  0.0000E+00  0.3200E+02
     22.627  0.0000E+00  0.3200E+02
     22.718  0.0000E+00  0.3200E+02
     22.808  0.0000E+00  0.3200E+02
     22.898  0.0000E+00  0.3200E+02
     22.989  0.0000E+00  0.3200E+02
     23.079  0.0000E+00  0.3200E+02
     23.170  0.0000E+00  0.3200E+02
     23.260  0.0000E+00  0.3200E+02
     23.350  0.0000E+00  0.3200E+02
