    4    4    1    1
  0.1413215E+02  0.3837862E-09  0.3837862E-09  0.3837862E-09  0.5000000E-15
  1.000000000000000E-004
  CAR 
 unknown system                          
   12 1330   16
 
  0.0000000E+00  0.0000000E+00  0.0000000E+00  0.2143347E-04
   1       -2.5338
   2        6.4173
   3        6.4173
   4        6.4173
   5        8.0412
   6        8.0412
   7        8.0412
   8       15.0007
   9       15.0007
  10       15.0007
  11       16.0912
  12       16.0912
  13       16.0912
  14       16.0912
  15       16.0912
  16       16.0912
 
  0.2777778E-01  0.0000000E+00  0.0000000E+00  0.1286008E-03
   1       -2.5261
   2        6.2692
   3        6.4243
   4        6.4243
   5        8.0482
   6        8.0482
   7        8.2022
   8       14.8063
   9       14.8063
  10       15.0083
  11       16.0391
  12       16.0391
  13       16.0975
  14       16.0975
  15       16.3000
  16       16.3000
 
  0.5555556E-01  0.0000000E+00  0.0000000E+00  0.1286008E-03
   1       -2.5028
   2        5.9289
   3        6.4451
   4        6.4451
   5        8.0693
   6        8.0693
   7        8.5812
   8       14.4174
   9       14.4174
  10       15.0313
  11       15.8913
  12       15.8913
  13       16.1165
  14       16.1165
  15       16.7319
  16       16.7319
 
  0.8333333E-01  0.0000000E+00  0.0000000E+00  0.1286008E-03
   1       -2.4641
   2        5.5176
   3        6.4798
   4        6.4798
   5        8.1044
   6        8.1044
   7        9.0571
   8       13.9854
   9       13.9854
  10       15.0697
  11       15.6685
  12       15.6685
  13       16.1481
  14       16.1481
  15       17.2359
  16       17.2359
 
  0.1111111E+00  0.0000000E+00  0.0000000E+00  0.1286008E-03
   1       -2.4099
   2        5.0846
   3        6.5284
   4        6.5284
   5        8.1533
   6        8.1533
   7        9.5803
   8       13.5481
   9       13.5481
  10       15.1233
  11       15.3934
  12       15.3934
  13       16.1923
  14       16.1923
  15       17.7737
  16       17.7737
 
  0.1388889E+00  0.0000000E+00  0.0000000E+00  0.1286008E-03
   1       -2.3402
   2        4.6483
   3        6.5909
   4        6.5909
   5        8.2157
   6        8.2157
   7       10.1328
   8       13.1165
   9       13.1165
  10       15.0851
  11       15.0851
  12       15.1923
  13       16.2493
  14       16.2493
  15       18.3345
  16       18.3345
 
  0.1666667E+00  0.0000000E+00  0.0000000E+00  0.1286008E-03
   1       -2.2552
   2        4.2163
   3        6.6673
   4        6.6673
   5        8.2914
   6        8.2914
   7       10.7065
   8       12.6948
   9       12.6948
  10       14.7578
  11       14.7578
  12       15.2765
  13       16.3189
  14       16.3189
  15       18.9140
  16       18.9140
 
  0.1944444E+00  0.0000000E+00  0.0000000E+00  0.1286008E-03
   1       -2.1547
   2        3.7925
   3        6.7577
   4        6.7577
   5        8.3799
   6        8.3799
   7       11.2979
   8       12.2849
   9       12.2849
  10       14.4216
  11       14.4216
  12       15.3760
  13       16.4011
  14       16.4011
  15       19.5102
  16       19.5102
 
  0.2222222E+00  0.0000000E+00  0.0000000E+00  0.1286008E-03
   1       -2.0389
   2        3.3789
   3        6.8619
   4        6.8619
   5        8.4805
   6        8.4805
   7       11.8877
   8       11.8877
   9       11.9047
  10       14.0837
  11       14.0837
  12       15.4908
  13       16.4961
  14       16.4961
  15       20.1221
  16       20.1221
 
  0.2500000E+00  0.0000000E+00  0.0000000E+00  0.1286008E-03
   1       -1.9078
   2        2.9766
   3        6.9801
   4        6.9801
   5        8.5925
   6        8.5925
   7       11.5038
   8       11.5038
   9       12.5258
  10       13.7495
  11       13.7495
  12       15.6208
  13       16.6037
  14       16.6037
  15       20.4506
  16       20.6908
 
  0.2777778E+00  0.0000000E+00  0.0000000E+00  0.1286008E-03
   1       -1.7614
   2        2.5866
   3        7.1122
   4        7.1122
   5        8.7146
   6        8.7146
   7       11.1335
   8       11.1335
   9       13.1603
  10       13.4233
  11       13.4233
  12       15.7660
  13       16.7240
  14       16.7240
  15       20.0717
  16       20.3529
 
  0.3055556E+00  0.0000000E+00  0.0000000E+00  0.1286008E-03
   1       -1.5999
   2        2.2094
   3        7.2583
   4        7.2583
   5        8.8453
   6        8.8453
   7       10.7770
   8       10.7770
   9       13.1090
  10       13.1090
  11       13.8075
  12       15.9264
  13       16.8570
  14       16.8570
  15       19.7034
  16       20.0368
 
  0.3333333E+00  0.0000000E+00  0.0000000E+00  0.1286008E-03
   1       -1.4232
   2        1.8452
   3        7.4184
   4        7.4184
   5        8.9822
   6        8.9822
   7       10.4343
   8       10.4343
   9       12.8107
  10       12.8107
  11       14.4669
  12       16.1019
  13       17.0028
  14       17.0028
  15       19.3457
  16       19.7312
 
  0.3611111E+00  0.0000000E+00  0.0000000E+00  0.1286008E-03
   1       -1.2314
   2        1.4946
   3        7.5925
   4        7.5925
   5        9.1217
   6        9.1217
   7       10.1057
   8       10.1057
   9       12.5329
  10       12.5329
  11       15.1380
  12       16.2924
  13       17.1612
  14       17.1612
  15       18.9998
  16       19.4368
 
  0.3888889E+00  0.0000000E+00  0.0000000E+00  0.1286008E-03
   1       -1.0247
   2        1.1576
   3        7.7806
   4        7.7806
   5        9.2589
   6        9.2589
   7        9.7910
   8        9.7910
   9       12.2816
  10       12.2816
  11       15.8206
  12       16.4978
  13       17.3323
  14       17.3323
  15       18.6665
  16       19.1539
 
  0.4166667E+00  0.0000000E+00  0.0000000E+00  0.1286008E-03
   1       -0.8030
   2        0.8346
   3        7.9827
   4        7.9827
   5        9.3861
   6        9.3861
   7        9.4905
   8        9.4905
   9       12.0651
  10       12.0651
  11       16.5139
  12       16.7182
  13       17.5161
  14       17.5161
  15       18.3462
  16       18.8829
 
  0.4444444E+00  0.0000000E+00  0.0000000E+00  0.1286008E-03
   1       -0.5665
   2        0.5256
   3        8.1988
   4        8.1988
   5        9.2040
   6        9.2040
   7        9.4926
   8        9.4926
   9       11.8945
  10       11.8945
  11       16.9534
  12       17.2176
  13       17.7125
  14       17.7125
  15       18.0394
  16       18.6240
 
  0.4722222E+00  0.0000000E+00  0.0000000E+00  0.1286008E-03
   1       -0.3153
   2        0.2309
   3        8.4290
   4        8.4290
   5        8.9316
   6        8.9316
   7        9.5651
   8        9.5651
   9       11.7835
  10       11.7835
  11       17.2033
  12       17.7465
  13       17.9216
  14       17.9216
  15       17.9311
  16       18.3775
 
  0.5000000E+00  0.0000000E+00  0.0000000E+00  0.6430041E-04
   1       -0.0495
   2       -0.0495
   3        8.6732
   4        8.6732
   5        8.6732
   6        8.6732
   7        9.5910
   8        9.5910
   9       11.7447
  10       11.7447
  11       17.4677
  12       17.4677
  13       18.1433
  14       18.1433
  15       18.1433
  16       18.1433
 
  0.2777778E-01  0.2777778E-01  0.0000000E+00  0.2572016E-03
   1       -2.5183
   2        6.2762
   3        6.2762
   4        6.4312
   5        8.0553
   6        8.2092
   7        8.2092
   8       14.6372
   9       14.8137
  10       14.8137
  11       16.0454
  12       16.0454
  13       16.1040
  14       16.3065
  15       16.3065
  16       16.3655
 
  0.5555556E-01  0.2777778E-01  0.0000000E+00  0.5144033E-03
   1       -2.4951
   2        5.9360
   3        6.2971
   4        6.4520
   5        8.0763
   6        8.2302
   7        8.5881
   8       14.2756
   9       14.4248
  10       14.8362
  11       15.8978
  12       16.0045
  13       16.0645
  14       16.3260
  15       16.7198
  16       16.7386
 
  0.8333333E-01  0.2777778E-01  0.0000000E+00  0.5144033E-03
   1       -2.4563
   2        5.5247
   3        6.3321
   4        6.4868
   5        8.1113
   6        8.2650
   7        9.0638
   8       13.8588
   9       13.9926
  10       14.8736
  11       15.6752
  12       15.7880
  13       16.0964
  14       16.3585
  15       17.1994
  16       17.2426
 
  0.1111111E+00  0.2777778E-01  0.0000000E+00  0.5144033E-03
   1       -2.4021
   2        5.0918
   3        6.3809
   4        6.5354
   5        8.1600
   6        8.3135
   7        9.5870
   8       13.4305
   9       13.5552
  10       14.9260
  11       15.4002
  12       15.5131
  13       16.1409
  14       16.4040
  15       17.7252
  16       17.7805
 
  0.1388889E+00  0.2777778E-01  0.0000000E+00  0.5144033E-03
   1       -2.3325
   2        4.6555
   3        6.4438
   4        6.5979
   5        8.2222
   6        8.3755
   7       10.1392
   8       13.0048
   9       13.1236
  10       14.9933
  11       15.0922
  12       15.2037
  13       16.1982
  14       16.4626
  15       18.2787
  16       18.3414
 
  0.1666667E+00  0.2777778E-01  0.0000000E+00  0.5144033E-03
   1       -2.2475
   2        4.2236
   3        6.5206
   4        6.6743
   5        8.2976
   6        8.4506
   7       10.7128
   8       12.5874
   9       12.7019
  10       14.7651
  11       14.8750
  12       15.0755
  13       16.2683
  14       16.5342
  15       18.8531
  16       18.9209
 
  0.1944444E+00  0.2777778E-01  0.0000000E+00  0.5144033E-03
   1       -2.1470
   2        3.7998
   3        6.6113
   4        6.7646
   5        8.3856
   6        8.5384
   7       11.3039
   8       12.1809
   9       12.2920
  10       14.4293
  11       14.5373
  12       15.1726
  13       16.3512
  14       16.6189
  15       19.4456
  16       19.5171
 
  0.2222222E+00  0.2777778E-01  0.0000000E+00  0.5144033E-03
   1       -2.0312
   2        3.3862
   3        6.7160
   4        6.8689
   5        8.4856
   6        8.6383
   7       11.7868
   8       11.8948
   9       11.9105
  10       14.0917
  11       14.1979
  12       15.2845
  13       16.4468
  14       16.7168
  15       20.0546
  16       20.1298
 
  0.2500000E+00  0.2777778E-01  0.0000000E+00  0.5144033E-03
   1       -1.9001
   2        2.9840
   3        6.8346
   4        6.9870
   5        8.5965
   6        8.7495
   7       11.4062
   8       11.5109
   9       12.5311
  10       13.7580
  11       13.8621
  12       15.4111
  13       16.5553
  14       16.8277
  15       20.0695
  16       20.6273
 
  0.2777778E+00  0.2777778E-01  0.0000000E+00  0.5144033E-03
   1       -1.7537
   2        2.5940
   3        6.9671
   4        7.1192
   5        8.7169
   6        8.8707
   7       11.0398
   8       11.1406
   9       13.1650
  10       13.4325
  11       13.5341
  12       15.5525
  13       16.6766
  14       16.9518
  15       19.7066
  16       20.3005
 
  0.3055556E+00  0.2777778E-01  0.0000000E+00  0.5144033E-03
   1       -1.5922
   2        2.2168
   3        7.1134
   4        7.2653
   5        8.8443
   6        9.0003
   7       10.6890
   8       10.7840
   9       13.1191
  10       13.2177
  11       13.8115
  12       15.7086
  13       16.8110
  14       17.0890
  15       19.3532
  16       19.9841
 
  0.3333333E+00  0.2777778E-01  0.0000000E+00  0.5144033E-03
   1       -1.4155
   2        1.8527
   3        7.2735
   4        7.4254
   5        8.9749
   6        9.1358
   7       10.3556
   8       10.4414
   9       12.8221
  10       12.9165
  11       14.4698
  12       15.8792
  13       16.9584
  14       17.2395
  15       19.0102
  16       19.6780
 
  0.3611111E+00  0.2777778E-01  0.0000000E+00  0.5144033E-03
   1       -1.2237
   2        1.5021
   3        7.4474
   4        7.5994
   5        9.1000
   6        9.2736
   7       10.0454
   8       10.1127
   9       12.5462
  10       12.6349
  11       15.1392
  12       16.0644
  13       17.1192
  14       17.4033
  15       18.6782
  16       19.3826
 
  0.3888889E+00  0.2777778E-01  0.0000000E+00  0.5144033E-03
   1       -1.0170
   2        1.1651
   3        7.6349
   4        7.7875
   5        9.1955
   6        9.4084
   7        9.7778
   8        9.7981
   9       12.2980
  10       12.3783
  11       15.8187
  12       16.2639
  13       17.2940
  14       17.5803
  15       18.3579
  16       19.0984
 
  0.4166667E+00  0.2777778E-01  0.0000000E+00  0.5144033E-03
   1       -0.7954
   2        0.8421
   3        7.8358
   4        7.9896
   5        9.1796
   6        9.4975
   7        9.5320
   8        9.6278
   9       12.0863
  10       12.1545
  11       16.4776
  12       16.5057
  13       17.4850
  14       17.7707
  15       18.0499
  16       18.8255
 
  0.4444444E+00  0.2777778E-01  0.0000000E+00  0.5144033E-03
   1       -0.5589
   2        0.5331
   3        8.0498
   4        8.2058
   5        8.9978
   6        9.2110
   7        9.6334
   8        9.6397
   9       11.9230
  10       11.9739
  11       16.7055
  12       17.1897
  13       17.7019
  14       17.7545
  15       17.9743
  16       18.5635
 
  0.4722222E+00  0.2777778E-01  0.0000000E+00  0.5144033E-03
   1       -0.3077
   2        0.2384
   3        8.2762
   4        8.4360
   5        8.7582
   6        8.9386
   7        9.6921
   8        9.6991
   9       11.8225
  10       11.8501
  11       16.9474
  12       17.4721
  13       17.7662
  14       18.0488
  15       18.1914
  16       18.3113
 
  0.5000000E+00  0.2777778E-01  0.0000000E+00  0.2572016E-03
   1       -0.0419
   2       -0.0419
   3        8.5136
   4        8.5136
   5        8.6802
   6        8.6802
   7        9.7186
   8        9.7186
   9       11.7971
  10       11.7971
  11       17.2029
  12       17.2029
  13       18.0630
  14       18.0630
  15       18.4217
  16       18.4217
 
  0.5555556E-01  0.5555556E-01  0.0000000E+00  0.2572016E-03
   1       -2.4718
   2        5.9572
   3        5.9572
   4        6.4729
   5        8.0972
   6        8.6087
   7        8.6087
   8       13.9499
   9       14.4467
  10       14.4467
  11       15.9173
  12       15.9173
  13       16.1424
  14       16.7586
  15       16.7586
  16       16.7952
 
  0.8333333E-01  0.5555556E-01  0.0000000E+00  0.5144033E-03
   1       -2.4331
   2        5.5461
   3        5.9924
   4        6.5076
   5        8.1319
   6        8.6430
   7        9.0841
   8       13.5565
   9       14.0143
  10       14.4833
  11       15.6951
  12       15.9497
  13       16.0417
  14       16.7920
  15       17.1285
  16       17.2629
 
  0.1111111E+00  0.5555556E-01  0.0000000E+00  0.5144033E-03
   1       -2.3789
   2        5.1133
   3        6.0418
   4        6.5562
   5        8.1802
   6        8.6908
   7        9.6068
   8       13.1432
   9       13.5768
  10       14.5344
  11       15.4208
  12       15.7980
  13       15.9950
  14       16.8387
  15       17.6012
  16       17.8010
 
  0.1388889E+00  0.5555556E-01  0.0000000E+00  0.5144033E-03
   1       -2.3093
   2        4.6772
   3        6.1053
   4        6.6187
   5        8.2418
   6        8.7518
   7       10.1586
   8       12.7280
   9       13.1450
  10       14.6002
  11       15.1134
  12       15.4977
  13       16.0534
  14       16.8988
  15       18.1290
  16       18.3618
 
  0.1666667E+00  0.5555556E-01  0.0000000E+00  0.5144033E-03
   1       -2.2243
   2        4.2454
   3        6.1828
   4        6.6951
   5        8.3162
   6        8.8257
   7       10.7315
   8       12.3185
   9       12.7233
  10       14.6805
  11       14.7872
  12       15.1715
  13       16.1248
  14       16.9722
  15       18.6881
  16       18.9414
 
  0.1944444E+00  0.5555556E-01  0.0000000E+00  0.5144033E-03
   1       -2.1238
   2        3.8217
   3        6.2743
   4        6.7855
   5        8.4028
   6        8.9121
   7       11.3219
   8       11.9188
   9       12.3133
  10       14.4522
  11       14.7754
  12       14.8337
  13       16.2093
  14       17.0591
  15       19.2701
  16       19.5376
 
  0.2222222E+00  0.5555556E-01  0.0000000E+00  0.5144033E-03
   1       -2.0080
   2        3.4082
   3        6.3798
   4        6.8897
   5        8.5005
   6        9.0102
   7       11.5314
   8       11.9161
   9       11.9275
  10       14.1159
  11       14.4930
  12       14.8847
  13       16.3070
  14       17.1594
  15       19.8711
  16       19.9782
 
  0.2500000E+00  0.5555556E-01  0.0000000E+00  0.5144033E-03
   1       -1.8770
   2        3.0062
   3        6.4993
   4        7.0079
   5        8.6078
   6        9.1192
   7       11.1584
   8       11.5321
   9       12.5469
  10       13.7837
  11       14.1551
  12       15.0086
  13       16.4179
  14       17.2731
  15       19.6047
  16       20.4885
 
  0.2777778E+00  0.5555556E-01  0.0000000E+00  0.5144033E-03
   1       -1.7307
   2        2.6163
   3        6.6326
   4        7.1401
   5        8.7221
   6        9.2377
   7       10.8024
   8       11.1617
   9       13.1791
  10       13.4602
  11       13.8242
  12       15.1468
  13       16.5423
  14       17.4002
  15       19.2413
  16       20.1526
 
  0.3055556E+00  0.5555556E-01  0.0000000E+00  0.5144033E-03
   1       -1.5691
   2        2.2391
   3        6.7797
   4        7.2862
   5        8.8385
   6        9.3638
   7       10.4675
   8       10.8052
   9       13.1497
  10       13.5039
  11       13.8232
  12       15.2994
  13       16.6804
  14       17.5408
  15       18.8887
  16       19.8354
 
  0.3333333E+00  0.5555556E-01  0.0000000E+00  0.5144033E-03
   1       -1.3925
   2        1.8751
   3        6.9405
   4        7.4463
   5        8.9464
   6        9.4946
   7       10.1628
   8       10.4625
   9       12.8569
  10       13.1973
  11       14.4779
  12       15.4664
  13       16.8330
  14       17.6949
  15       18.5476
  16       19.5279
 
  0.3611111E+00  0.5555556E-01  0.0000000E+00  0.5144033E-03
   1       -1.2007
   2        1.5245
   3        7.1148
   4        7.6204
   5        9.0205
   6        9.6258
   7        9.9116
   8       10.1338
   9       12.5873
  10       12.9081
  11       15.1416
  12       15.6475
  13       17.0012
  14       17.8625
  15       18.2184
  16       19.2304
 
  0.3888889E+00  0.5555556E-01  0.0000000E+00  0.5144033E-03
   1       -0.9941
   2        1.1876
   3        7.3024
   4        7.8085
   5        9.0063
   6        9.7507
   7        9.7648
   8        9.8191
   9       12.3489
  10       12.6408
  11       15.8107
  12       15.8429
  13       17.1882
  14       17.9016
  15       18.0435
  16       18.9431
 
  0.4166667E+00  0.5555556E-01  0.0000000E+00  0.5144033E-03
   1       -0.7725
   2        0.8647
   3        7.5030
   4        8.0106
   5        8.8673
   6        9.5185
   7        9.7537
   8        9.8595
   9       12.1524
  10       12.4014
  11       16.0523
  12       16.4755
  13       17.4033
  14       17.5974
  15       18.2380
  16       18.6659
 
  0.4444444E+00  0.5555556E-01  0.0000000E+00  0.5144033E-03
   1       -0.5360
   2        0.5558
   3        7.7159
   4        8.2267
   5        8.6528
   6        9.2320
   7        9.8205
   8        9.9389
   9       12.0122
  10       12.1987
  11       16.2756
  12       17.0979
  13       17.3063
  14       17.6840
  15       18.3976
  16       18.4459
 
  0.4722222E+00  0.5555556E-01  0.0000000E+00  0.5144033E-03
   1       -0.2849
   2        0.2611
   3        7.9403
   4        8.4146
   5        8.4570
   6        8.9596
   7        9.9015
   8        9.9748
   9       11.9436
  10       12.0450
  11       16.5129
  12       17.0284
  13       17.5627
  14       18.1354
  15       18.1448
  16       18.6672
 
  0.5000000E+00  0.5555556E-01  0.0000000E+00  0.2572016E-03
   1       -0.0191
   2       -0.0191
   3        8.1744
   4        8.1744
   5        8.7012
   6        8.7012
   7        9.9600
   8        9.9600
   9       11.9556
  10       11.9556
  11       16.7638
  12       16.7638
  13       17.8698
  14       17.8698
  15       18.7852
  16       18.7852
 
  0.8333333E-01  0.8333333E-01  0.0000000E+00  0.2572016E-03
   1       -2.3944
   2        5.5817
   3        5.5817
   4        6.5423
   5        8.1661
   6        9.1177
   7        9.1177
   8       13.1803
   9       14.0504
  10       14.0504
  11       15.7283
  12       15.7283
  13       16.2065
  14       17.1705
  15       17.2967
  16       17.2967
 
  0.1111111E+00  0.8333333E-01  0.0000000E+00  0.5144033E-03
   1       -2.3402
   2        5.1492
   3        5.6315
   4        6.5909
   5        8.2136
   6        9.1646
   7        9.6398
   8       12.7790
   9       13.6126
  10       14.1009
  11       15.4550
  12       15.7749
  13       16.1147
  14       17.3440
  15       17.4713
  16       17.8350
 
  0.1388889E+00  0.8333333E-01  0.0000000E+00  0.5144033E-03
   1       -2.2706
   2        4.7133
   3        5.6955
   4        6.6534
   5        8.2740
   6        9.2244
   7       10.1907
   8       12.3725
   9       13.1807
  10       14.1659
  11       15.1488
  12       15.8348
  13       15.8664
  14       17.4048
  15       17.9318
  16       18.3960
 
  0.1666667E+00  0.8333333E-01  0.0000000E+00  0.5144033E-03
   1       -2.1856
   2        4.2817
   3        5.7737
   4        6.7299
   5        8.3466
   6        9.2968
   7       10.7626
   8       11.9704
   9       12.7588
  10       14.2453
  11       14.8240
  12       15.5592
  13       15.9083
  14       17.4792
  15       18.4595
  16       18.9755
 
  0.1944444E+00  0.8333333E-01  0.0000000E+00  0.5144033E-03
   1       -2.0852
   2        3.8583
   3        5.8660
   4        6.8202
   5        8.4304
   6        9.3812
   7       11.3516
   8       11.5778
   9       12.3488
  10       14.3390
  11       14.4907
  12       15.2293
  13       15.9952
  14       17.5671
  15       19.0235
  16       19.5718
 
  0.2222222E+00  0.8333333E-01  0.0000000E+00  0.5144033E-03
   1       -1.9695
   2        3.4449
   3        5.9724
   4        6.9245
   5        8.5239
   6        9.4768
   7       11.1985
   8       11.9515
   9       11.9555
  10       14.1564
  11       14.4471
  12       14.8917
  13       16.0959
  14       17.6685
  15       19.5224
  16       19.6126
 
  0.2500000E+00  0.8333333E-01  0.0000000E+00  0.5144033E-03
   1       -1.8385
   2        3.0430
   3        6.0928
   4        7.0427
   5        8.6240
   6        9.5825
   7       10.8361
   8       11.5675
   9       12.5727
  10       13.8269
  11       14.5545
  12       14.5695
  13       16.2107
  14       17.7835
  15       19.1463
  16       20.2300
 
  0.2777778E+00  0.8333333E-01  0.0000000E+00  0.5144033E-03
   1       -1.6922
   2        2.6533
   3        6.2272
   4        7.1749
   5        8.7255
   6        9.6965
   7       10.4965
   8       11.1970
   9       13.2018
  10       13.5071
  11       14.2226
  12       14.7063
  13       16.3399
  14       17.9120
  15       18.7811
  16       19.9307
 
  0.3055556E+00  0.8333333E-01  0.0000000E+00  0.5144033E-03
   1       -1.5307
   2        2.2762
   3        6.3753
   4        7.3210
   5        8.8171
   6        9.8166
   7       10.1906
   8       10.8404
   9       13.2019
  10       13.8413
  11       13.8998
  12       14.8572
  13       16.4845
  14       18.0541
  15       18.4276
  16       19.6127
 
  0.3333333E+00  0.8333333E-01  0.0000000E+00  0.5144033E-03
   1       -1.3541
   2        1.9124
   3        6.5372
   4        7.4811
   5        8.8740
   6        9.9387
   7        9.9424
   8       10.4977
   9       12.9169
  10       13.5890
  11       14.4890
  12       15.0225
  13       16.6461
  14       18.0862
  15       18.2097
  16       19.3034
 
  0.3611111E+00  0.8333333E-01  0.0000000E+00  0.5144033E-03
   1       -1.1624
   2        1.5619
   3        6.7126
   4        7.6552
   5        8.8509
   6        9.7957
   7       10.0570
   8       10.1690
   9       12.6594
  10       13.2934
  11       15.1411
  12       15.2018
  13       16.8282
  14       17.7573
  15       18.3788
  16       19.0035
 
  0.3888889E+00  0.8333333E-01  0.0000000E+00  0.5144033E-03
   1       -0.9558
   2        1.2252
   3        6.9013
   4        7.8433
   5        8.7182
   6        9.7778
   7        9.8543
   8       10.1623
   9       12.4396
  10       13.0163
  11       15.3953
  12       15.7886
  13       17.0392
  14       17.4411
  15       18.5614
  16       18.7129
 
  0.4166667E+00  0.8333333E-01  0.0000000E+00  0.5144033E-03
   1       -0.7343
   2        0.9023
   3        7.1030
   4        8.0455
   5        8.5094
   6        9.5536
   7        9.8515
   8       10.2413
   9       12.2719
  10       12.7623
  11       15.6028
  12       16.4069
  13       17.1380
  14       17.3033
  15       18.4314
  16       18.7574
 
  0.4444444E+00  0.8333333E-01  0.0000000E+00  0.5144033E-03
   1       -0.4979
   2        0.5935
   3        7.3171
   4        8.2617
   5        8.2696
   6        9.2671
   7        9.9656
   8       10.2782
   9       12.1730
  10       12.5378
  11       15.8243
  12       16.8482
  13       16.9338
  14       17.6821
  15       18.1576
  16       18.9667
 
  0.4722222E+00  0.8333333E-01  0.0000000E+00  0.5144033E-03
   1       -0.2469
   2        0.2990
   3        7.5428
   4        8.0226
   5        8.4919
   6        8.9946
   7       10.0874
   8       10.2617
   9       12.1556
  10       12.3523
  11       16.0597
  12       16.5718
  13       17.3177
  14       17.8884
  15       18.2268
  16       19.1893
 
  0.5000000E+00  0.8333333E-01  0.0000000E+00  0.2572016E-03
   1        0.0188
   2        0.0188
   3        7.7788
   4        7.7788
   5        8.7362
   6        8.7362
   7       10.1931
   8       10.1931
   9       12.2195
  10       12.2195
  11       16.3089
  12       16.3089
  13       17.6160
  14       17.6160
  15       18.8792
  16       18.8792
 
  0.1111111E+00  0.1111111E+00  0.0000000E+00  0.2572016E-03
   1       -2.2861
   2        5.1994
   3        5.1994
   4        6.6395
   5        8.2598
   6        9.6856
   7        9.6856
   8       12.3864
   9       13.6628
  10       13.6628
  11       15.5031
  12       15.5031
  13       16.2962
  14       17.4830
  15       17.8826
  16       17.8826
 
  0.1388889E+00  0.1111111E+00  0.0000000E+00  0.5144033E-03
   1       -2.2165
   2        4.7638
   3        5.2639
   4        6.7021
   5        8.3183
   6        9.7440
   7       10.2352
   8       11.9871
   9       13.2307
  10       13.7273
  11       15.1986
  12       15.5650
  13       16.2167
  14       17.7623
  15       17.9438
  16       18.4437
 
  0.1666667E+00  0.1111111E+00  0.0000000E+00  0.5144033E-03
   1       -2.1316
   2        4.3326
   3        5.3427
   4        6.7785
   5        8.3879
   6        9.8144
   7       10.8056
   8       11.5918
   9       12.8086
  10       13.8061
  11       14.8757
  12       15.6409
  13       15.9737
  14       18.0186
  15       18.2160
  16       19.0234
 
  0.1944444E+00  0.1111111E+00  0.0000000E+00  0.5144033E-03
   1       -2.0312
   2        3.9094
   3        5.4357
   4        6.8689
   5        8.4671
   6        9.8962
   7       11.2068
   8       11.3926
   9       12.3984
  10       13.8992
  11       14.5449
  12       15.6695
  13       15.7310
  14       18.1070
  15       18.7463
  16       19.4666
 
  0.2222222E+00  0.1111111E+00  0.0000000E+00  0.5144033E-03
   1       -1.9155
   2        3.4963
   3        5.5429
   4        6.9732
   5        8.5528
   6        9.9884
   7       10.8376
   8       11.9938
   9       12.0010
  10       14.0066
  11       14.2138
  12       15.3435
  13       15.8358
  14       18.2090
  15       19.0769
  16       19.3169
 
  0.2500000E+00  0.1111111E+00  0.0000000E+00  0.5144033E-03
   1       -1.7845
   2        3.0946
   3        5.6642
   4        7.0914
   5        8.6394
   6       10.0895
   7       10.4912
   8       11.6169
   9       12.6073
  10       13.8885
  11       14.1283
  12       15.0117
  13       15.9558
  14       18.3246
  15       18.6983
  16       19.9145
 
  0.2777778E+00  0.1111111E+00  0.0000000E+00  0.5144033E-03
   1       -1.6383
   2        2.7051
   3        5.7996
   4        7.2236
   5        8.7154
   6       10.1796
   7       10.1971
   8       11.2464
   9       13.2313
  10       13.5746
  11       14.2641
  12       14.6821
  13       16.0919
  14       18.3314
  15       18.4538
  16       19.6583
 
  0.3055556E+00  0.1111111E+00  0.0000000E+00  0.5144033E-03
   1       -1.4769
   2        2.3282
   3        5.9488
   4        7.3698
   5        8.7566
   6        9.9271
   7       10.3078
   8       10.8897
   9       13.2780
  10       13.8631
  11       14.3592
  12       14.4142
  13       16.2462
  14       17.9768
  15       18.5965
  16       19.3392
 
  0.3333333E+00  0.1111111E+00  0.0000000E+00  0.5144033E-03
   1       -1.3004
   2        1.9645
   3        6.1119
   4        7.5299
   5        8.7220
   6        9.7743
   7       10.4160
   8       10.5470
   9       13.0060
  10       14.0466
  11       14.4987
  12       14.5785
  13       16.4221
  14       17.6347
  15       18.7527
  16       19.0283
 
  0.3611111E+00  0.1111111E+00  0.0000000E+00  0.5144033E-03
   1       -1.1088
   2        1.6143
   3        6.2886
   4        7.7040
   5        8.5851
   6        9.7468
   7       10.2182
   8       10.5130
   9       12.7687
  10       13.7471
  11       14.7569
  12       15.1295
  13       16.6278
  14       17.3055
  15       18.7262
  16       18.9224
 
  0.3888889E+00  0.1111111E+00  0.0000000E+00  0.5144033E-03
   1       -0.9023
   2        1.2777
   3        6.4788
   4        7.8922
   5        8.3726
   6        9.8163
   7        9.9034
   8       10.5856
   9       12.5804
  10       13.4633
  11       14.9494
  12       15.7363
  13       16.8818
  14       16.9894
  15       18.4329
  16       19.1055
 
  0.4166667E+00  0.1111111E+00  0.0000000E+00  0.5144033E-03
   1       -0.6809