 running on    8 nodes
 distr:  one band on    1 nodes,    8 groups
 vasp.4.6.28 25Jul05 complex 
 POSCAR found :  1 types and    4 ions
 LDA part: xc-table for Pade appr. of Perdew
 POSCAR, INCAR and KPOINTS ok, starting setup
 FFT: planning ...           1
 reading WAVECAR
 entering main loop
       N       E                     dE             d eps       ncg     rms          rms(c)
DAV:   1     0.179440375703E+02    0.17944E+02   -0.64920E+03 42560   0.102E+03
DAV:   2    -0.136323132463E+02   -0.31576E+02   -0.29673E+02 55704   0.121E+02
DAV:   3    -0.146494899005E+02   -0.10172E+01   -0.10093E+01 56856   0.161E+01
DAV:   4    -0.146562516079E+02   -0.67617E-02   -0.67586E-02 51096   0.153E+00
DAV:   5    -0.146563276858E+02   -0.76078E-04   -0.76077E-04 57648   0.168E-01    0.201E+00
DAV:   6    -0.145942365127E+02    0.62091E-01   -0.35779E-03 49664   0.320E-01    0.125E+00
DAV:   7    -0.145495895864E+02    0.44647E-01   -0.11956E-02 46776   0.543E-01    0.499E-02
DAV:   8    -0.145496247904E+02   -0.35204E-04   -0.11256E-04 59688   0.766E-02    0.137E-02
DAV:   9    -0.145496280763E+02   -0.32859E-05   -0.44490E-06 55112   0.932E-03    0.131E-03
DAV:  10    -0.145496277898E+02    0.28650E-06   -0.60673E-08 58512   0.205E-03    0.470E-04
DAV:  11    -0.145496277219E+02    0.67912E-07   -0.11481E-09 39616   0.233E-04    0.300E-05
DAV:  12    -0.145496277154E+02    0.65310E-08   -0.13887E-10 35080   0.749E-05
   1 F= -.14549628E+02 E0= -.14549600E+02  d E =-.561902E-04
