   4   4   0   0
  0.1131459E+02  0.3563688E-09  0.3563688E-09  0.3563688E-09  0.5000000E-15
  1.000000000000000E-004
  CAR 
 unknown system                          
     15.16916801     -6.49564633  301      4.23699772      1.00000000
     -6.496  0.0000E+00  0.0000E+00
     -6.423  0.0000E+00  0.0000E+00
     -6.351  0.0000E+00  0.0000E+00
     -6.279  0.0000E+00  0.0000E+00
     -6.207  0.0000E+00  0.0000E+00
     -6.135  0.0000E+00  0.0000E+00
     -6.062  0.0000E+00  0.0000E+00
     -5.990  0.0000E+00  0.0000E+00
     -5.918  0.0000E+00  0.0000E+00
     -5.846  0.0000E+00  0.0000E+00
     -5.773  0.0000E+00  0.0000E+00
     -5.701  0.0000E+00  0.0000E+00
     -5.629  0.0000E+00  0.0000E+00
     -5.557  0.6475E-12  0.4676E-13
     -5.485  0.1603E-01  0.1157E-02
     -5.412  0.9090E-01  0.7722E-02
     -5.340  0.6231E-01  0.1260E-01
     -5.268  0.1309E+00  0.2206E-01
     -5.196  0.1273E+00  0.3125E-01
     -5.124  0.9616E-01  0.3819E-01
     -5.051  0.3846E+00  0.6597E-01
     -4.979  0.3767E+00  0.9318E-01
     -4.907  0.0000E+00  0.9375E-01
     -4.835  0.1254E-01  0.9466E-01
     -4.762  0.1802E+00  0.1077E+00
     -4.690  0.4804E+00  0.1424E+00
     -4.618  0.3846E+00  0.1701E+00
     -4.546  0.3846E+00  0.1979E+00
     -4.474  0.1277E+00  0.2071E+00
     -4.401  0.3047E+00  0.2292E+00
     -4.329  0.3473E+00  0.2543E+00
     -4.257  0.5020E+00  0.2905E+00
     -4.185  0.3738E-04  0.2905E+00
     -4.113  0.9618E-01  0.2975E+00
     -4.040  0.7692E+00  0.3530E+00
     -3.968  0.5770E+00  0.3947E+00
     -3.896  0.3846E+00  0.4225E+00
     -3.824  0.3828E+00  0.4501E+00
     -3.751  0.7518E+00  0.5045E+00
     -3.679  0.3826E+00  0.5334E+00
     -3.607  0.0000E+00  0.5336E+00
     -3.535  0.2889E+00  0.5544E+00
     -3.463  0.1593E+00  0.5659E+00
     -3.390  0.5693E+00  0.6071E+00
     -3.318  0.1137E+01  0.6891E+00
     -3.246  0.3715E+00  0.7164E+00
     -3.174  0.4428E+00  0.7484E+00
     -3.101  0.7186E+00  0.8003E+00
     -3.029  0.7619E+00  0.8553E+00
     -2.957  0.1684E-03  0.8553E+00
     -2.885  0.2878E+00  0.8761E+00
     -2.813  0.1059E+01  0.9526E+00
     -2.740  0.4584E+00  0.9857E+00
     -2.668  0.1161E+01  0.1070E+01
     -2.596  0.3622E+00  0.1096E+01
     -2.524  0.1142E+01  0.1181E+01
     -2.452  0.2971E-07  0.1182E+01
     -2.379  0.7681E+00  0.1237E+01
     -2.307  0.1111E+01  0.1317E+01
     -2.235  0.1154E+01  0.1404E+01
     -2.163  0.1083E+00  0.1412E+01
     -2.090  0.1047E+01  0.1487E+01
     -2.018  0.1065E+01  0.1564E+01
     -1.946  0.2278E+00  0.1581E+01
     -1.874  0.1580E+01  0.1695E+01
     -1.802  0.5364E+00  0.1738E+01
     -1.729  0.7127E+00  0.1789E+01
     -1.657  0.1642E+01  0.1908E+01
     -1.585  0.1902E+01  0.2045E+01
     -1.513  0.1153E+01  0.2128E+01
     -1.441  0.1383E+01  0.2228E+01
     -1.368  0.5869E+00  0.2272E+01
     -1.296  0.1689E+01  0.2394E+01
     -1.224  0.1317E+01  0.2490E+01
     -1.152  0.3961E+01  0.2776E+01
     -1.079  0.2121E+01  0.2929E+01
     -1.007  0.4086E+01  0.3225E+01
     -0.935  0.3675E+01  0.3495E+01
     -0.863  0.4142E+01  0.3794E+01
     -0.791  0.3993E+01  0.4082E+01
     -0.718  0.5134E+01  0.4457E+01
     -0.646  0.3964E+01  0.4744E+01
     -0.574  0.7809E+01  0.5308E+01
     -0.502  0.2906E+01  0.5518E+01
     -0.429  0.4709E+01  0.5860E+01
     -0.357  0.1058E+02  0.6624E+01
     -0.285  0.5957E+01  0.7060E+01
     -0.213  0.6975E+01  0.7565E+01
     -0.141  0.1060E+02  0.8331E+01
     -0.068  0.8886E+01  0.8974E+01
      0.004  0.9167E+01  0.9640E+01
      0.076  0.6535E+01  0.1012E+02
      0.148  0.8054E+01  0.1070E+02
      0.220  0.9167E+01  0.1137E+02
      0.293  0.6646E+01  0.1186E+02
      0.365  0.7778E+01  0.1242E+02
      0.437  0.8220E+01  0.1302E+02
      0.509  0.1041E+02  0.1378E+02
      0.582  0.8339E+01  0.1439E+02
      0.654  0.1202E+02  0.1526E+02
      0.726  0.8547E+01  0.1589E+02
      0.798  0.1588E+02  0.1704E+02
      0.870  0.1087E+02  0.1783E+02
      0.943  0.1451E+02  0.1888E+02
      1.015  0.1447E+02  0.1994E+02
      1.087  0.1389E+02  0.2094E+02
      1.159  0.1855E+02  0.2229E+02
      1.231  0.1737E+02  0.2355E+02
      1.304  0.1292E+02  0.2448E+02
      1.376  0.8831E+01  0.2513E+02
      1.448  0.1008E+02  0.2587E+02
      1.520  0.9445E+01  0.2655E+02
      1.593  0.1116E+02  0.2736E+02
      1.665  0.1084E+02  0.2815E+02
      1.737  0.1314E+02  0.2910E+02
      1.809  0.1477E+02  0.3018E+02
      1.881  0.1174E+02  0.3104E+02
      1.954  0.1467E+02  0.3210E+02
      2.026  0.1313E+02  0.3305E+02
      2.098  0.9757E+01  0.3377E+02
      2.170  0.1181E+02  0.3463E+02
      2.242  0.1427E+02  0.3566E+02
      2.315  0.1166E+02  0.3651E+02
      2.387  0.1912E+02  0.3789E+02
      2.459  0.1883E+02  0.3927E+02
      2.531  0.2096E+02  0.4080E+02
      2.604  0.1414E+02  0.4182E+02
      2.676  0.2460E+01  0.4200E+02
      2.748  0.6547E+00  0.4205E+02
      2.820  0.1156E+01  0.4213E+02
      2.892  0.1241E+01  0.4222E+02
      2.965  0.2781E+01  0.4242E+02
      3.037  0.1914E+01  0.4256E+02
      3.109  0.1286E+01  0.4266E+02
      3.181  0.1119E+01  0.4274E+02
      3.254  0.4034E+00  0.4277E+02
      3.326  0.1603E+01  0.4288E+02
      3.398  0.1565E+01  0.4300E+02
      3.470  0.2568E+01  0.4318E+02
      3.542  0.5834E+00  0.4323E+02
      3.615  0.1314E+01  0.4332E+02
      3.687  0.2536E-04  0.4332E+02
      3.759  0.1153E+01  0.4341E+02
      3.831  0.1353E+01  0.4350E+02
      3.903  0.2188E+01  0.4366E+02
      3.976  0.2804E+01  0.4386E+02
      4.048  0.4806E+00  0.4390E+02
      4.120  0.3836E+00  0.4393E+02
      4.192  0.7648E+00  0.4398E+02
      4.265  0.1748E+01  0.4411E+02
      4.337  0.5360E+00  0.4415E+02
      4.409  0.2853E+00  0.4417E+02
      4.481  0.1305E+01  0.4426E+02
      4.553  0.1626E+01  0.4438E+02
      4.626  0.1790E+01  0.4451E+02
      4.698  0.7628E+00  0.4457E+02
      4.770  0.1180E+01  0.4465E+02
      4.842  0.1230E+01  0.4474E+02
      4.914  0.2151E+01  0.4490E+02
      4.987  0.3817E+00  0.4493E+02
      5.059  0.7659E+00  0.4498E+02
      5.131  0.4405E+00  0.4501E+02
      5.203  0.1579E+01  0.4513E+02
      5.276  0.0000E+00  0.4513E+02
      5.348  0.3109E+00  0.4515E+02
      5.420  0.2375E+01  0.4532E+02
      5.492  0.5723E+00  0.4536E+02
      5.564  0.2308E+01  0.4553E+02
      5.637  0.1150E+01  0.4561E+02
      5.709  0.8164E+00  0.4567E+02
      5.781  0.6932E-06  0.4567E+02
      5.853  0.1320E+01  0.4577E+02
      5.926  0.1145E+01  0.4585E+02
      5.998  0.1012E+01  0.4593E+02
      6.070  0.9941E+00  0.4600E+02
      6.142  0.1643E+01  0.4612E+02
      6.214  0.0000E+00  0.4612E+02
      6.287  0.3436E-04  0.4612E+02
      6.359  0.1538E+01  0.4623E+02
      6.431  0.9418E+00  0.4630E+02
      6.503  0.1499E+01  0.4641E+02
      6.575  0.5885E-01  0.4641E+02
      6.648  0.3861E+00  0.4644E+02
      6.720  0.2242E+01  0.4660E+02
      6.792  0.1201E+01  0.4669E+02
      6.864  0.4831E+00  0.4672E+02
      6.937  0.2862E+00  0.4674E+02
      7.009  0.1154E+01  0.4683E+02
      7.081  0.0000E+00  0.4683E+02
      7.153  0.8758E-02  0.4683E+02
      7.225  0.1406E+01  0.4693E+02
      7.298  0.1471E+01  0.4703E+02
      7.370  0.4371E+00  0.4707E+02
      7.442  0.5246E+00  0.4710E+02
      7.514  0.7700E+00  0.4716E+02
      7.586  0.2077E+00  0.4717E+02
      7.659  0.1048E+01  0.4725E+02
      7.731  0.1139E+01  0.4734E+02
      7.803  0.1261E-01  0.4734E+02
      7.875  0.7567E+00  0.4740E+02
      7.948  0.3570E+00  0.4742E+02
      8.020  0.1133E-01  0.4742E+02
      8.092  0.9088E+00  0.4749E+02
      8.164  0.1035E+01  0.4756E+02
      8.236  0.3846E+00  0.4759E+02
      8.309  0.1295E+01  0.4769E+02
      8.381  0.5104E+00  0.4772E+02
      8.453  0.7128E+00  0.4778E+02
      8.525  0.1533E+01  0.4789E+02
      8.598  0.3858E+00  0.4792E+02
      8.670  0.2114E+01  0.4807E+02
      8.742  0.1154E+01  0.4815E+02
      8.814  0.1116E+01  0.4823E+02
      8.886  0.8069E+00  0.4829E+02
      8.959  0.1154E+01  0.4837E+02
      9.031  0.6060E+00  0.4842E+02
      9.103  0.8167E+00  0.4848E+02
      9.175  0.1170E+01  0.4856E+02
      9.247  0.2926E+00  0.4858E+02
      9.320  0.1563E+01  0.4870E+02
      9.392  0.9079E+00  0.4876E+02
      9.464  0.7428E+00  0.4882E+02
      9.536  0.2531E+01  0.4900E+02
      9.609  0.1209E+01  0.4909E+02
      9.681  0.5567E+00  0.4913E+02
      9.753  0.1358E+01  0.4923E+02
      9.825  0.1686E-01  0.4923E+02
      9.897  0.1136E+01  0.4931E+02
      9.970  0.8830E+00  0.4937E+02
     10.042  0.2709E+00  0.4939E+02
     10.114  0.8315E+00  0.4945E+02
     10.186  0.9404E+00  0.4952E+02
     10.258  0.8567E+00  0.4958E+02
     10.331  0.1339E+01  0.4969E+02
     10.403  0.1761E-08  0.4969E+02
     10.475  0.1148E+01  0.4977E+02
     10.547  0.4223E+00  0.4980E+02
     10.620  0.1677E+01  0.4992E+02
     10.692  0.1151E+01  0.5000E+02
     10.764  0.1031E-02  0.5000E+02
     10.836  0.2176E+01  0.5016E+02
     10.908  0.1305E+00  0.5017E+02
     10.981  0.3921E-07  0.5017E+02
     11.053  0.3846E+00  0.5020E+02
     11.125  0.4681E+00  0.5023E+02
     11.197  0.9417E+00  0.5030E+02
     11.270  0.1459E+01  0.5041E+02
     11.342  0.4645E+00  0.5044E+02
     11.414  0.1142E-01  0.5044E+02
     11.486  0.5656E+00  0.5048E+02
     11.558  0.3700E+00  0.5051E+02
     11.631  0.5852E+00  0.5055E+02
     11.703  0.1770E+01  0.5068E+02
     11.775  0.9605E+00  0.5075E+02
     11.847  0.3846E+00  0.5078E+02
     11.919  0.1157E+01  0.5086E+02
     11.992  0.9179E+00  0.5093E+02
     12.064  0.1539E+01  0.5104E+02
     12.136  0.2929E+00  0.5106E+02
     12.208  0.9177E-01  0.5107E+02
     12.281  0.8252E+00  0.5113E+02
     12.353  0.2103E+01  0.5128E+02
     12.425  0.9575E+00  0.5135E+02
     12.497  0.1125E+01  0.5143E+02
     12.569  0.9908E+00  0.5150E+02
     12.642  0.2047E-02  0.5150E+02
     12.714  0.1537E+01  0.5161E+02
     12.786  0.3653E+00  0.5164E+02
     12.858  0.7692E+00  0.5170E+02
     12.930  0.1240E-04  0.5170E+02
     13.003  0.9708E+00  0.5177E+02
     13.075  0.2244E+00  0.5178E+02
     13.147  0.5358E+00  0.5182E+02
     13.219  0.7103E+00  0.5187E+02
     13.292  0.4436E+00  0.5191E+02
     13.364  0.4242E-13  0.5191E+02
     13.436  0.2560E+00  0.5192E+02
     13.508  0.7660E+00  0.5198E+02
     13.580  0.0000E+00  0.5198E+02
     13.653  0.0000E+00  0.5198E+02
     13.725  0.0000E+00  0.5198E+02
     13.797  0.0000E+00  0.5198E+02
     13.869  0.0000E+00  0.5198E+02
     13.941  0.0000E+00  0.5198E+02
     14.014  0.1357E-05  0.5198E+02
     14.086  0.1923E+00  0.5199E+02
     14.158  0.9818E-05  0.5199E+02
     14.230  0.9615E-01  0.5200E+02
     14.303  0.0000E+00  0.5200E+02
     14.375  0.0000E+00  0.5200E+02
     14.447  0.0000E+00  0.5200E+02
     14.519  0.0000E+00  0.5200E+02
     14.591  0.0000E+00  0.5200E+02
     14.664  0.0000E+00  0.5200E+02
     14.736  0.0000E+00  0.5200E+02
     14.808  0.0000E+00  0.5200E+02
     14.880  0.0000E+00  0.5200E+02
     14.953  0.0000E+00  0.5200E+02
     15.025  0.0000E+00  0.5200E+02
     15.097  0.0000E+00  0.5200E+02
     15.169  0.0000E+00  0.5200E+02
