    4    4    1    1
  0.1131459E+02  0.3563687E-09  0.3563687E-09  0.3563687E-09  0.5000000E-15
  1.000000000000000E-004
  CAR 
 unknown system                          
   44   84   26
 
  0.0000000E+00  0.0000000E+00  0.0000000E+00  0.5787037E-03
   1       -5.5109
   2       -0.9822
   3       -0.9822
   4       -0.9822
   5       -0.5004
   6       -0.5004
   7       -0.5004
   8        0.9878
   9        0.9878
  10        0.9878
  11        1.8732
  12        1.8732
  13        2.4606
  14        2.4606
  15        2.4606
  16        2.6257
  17        2.6257
  18        2.6257
  19        2.6257
  20        2.6257
  21        2.6257
  22        5.6511
  23        5.6511
  24        5.6511
  25       11.5971
  26       11.5971
 
  0.8333333E-01  0.0000000E+00  0.0000000E+00  0.3472222E-02
   1       -5.4237
   2       -0.9818
   3       -0.9406
   4       -0.9406
   5       -0.4765
   6       -0.4751
   7       -0.4751
   8        0.9610
   9        1.0092
  10        1.0092
  11        1.8488
  12        1.8830
  13        2.4291
  14        2.4291
  15        2.4504
  16        2.4640
  17        2.4640
  18        2.5886
  19        2.5886
  20        2.6258
  21        2.6258
  22        5.1319
  23        5.8898
  24        5.8898
  25       11.6272
  26       11.6272
 
  0.1666667E+00  0.0000000E+00  0.0000000E+00  0.3472222E-02
   1       -5.1642
   2       -0.9974
   3       -0.8216
   4       -0.8216
   5       -0.4060
   6       -0.3986
   7       -0.3986
   8        0.8826
   9        1.0728
  10        1.0728
  11        1.7785
  12        1.9117
  13        2.0851
  14        2.0851
  15        2.3375
  16        2.3375
  17        2.4204
  18        2.4823
  19        2.4823
  20        2.6259
  21        2.6259
  22        4.0278
  23        6.4992
  24        6.4992
  25       11.7206
  26       11.7206
 
  0.2500000E+00  0.0000000E+00  0.0000000E+00  0.3472222E-02
   1       -4.7389
   2       -1.0883
   3       -0.6438
   4       -0.6438
   5       -0.2931
   6       -0.2698
   7       -0.2698
   8        0.7589
   9        1.1771
  10        1.1771
  11        1.6377
  12        1.6377
  13        1.6714
  14        1.9576
  15        2.1968
  16        2.1968
  17        2.3208
  18        2.3208
  19        2.3729
  20        2.6261
  21        2.6261
  22        2.8839
  23        7.3292
  24        7.3292
  25       11.8852
  26       11.8852
 
  0.3333333E+00  0.0000000E+00  0.0000000E+00  0.3472222E-02
   1       -4.1610
   2       -1.3677
   3       -0.4420
   4       -0.4420
   5       -0.1443
   6       -0.0871
   7       -0.0871
   8        0.5993
   9        1.1976
  10        1.1976
  11        1.3189
  12        1.3189
  13        1.5449
  14        1.9986
  15        2.0176
  16        2.0316
  17        2.0316
  18        2.1228
  19        2.1228
  20        2.3112
  21        2.6263
  22        2.6263
  23        8.3017
  24        8.3017
  25       12.1313
  26       12.1313
 
  0.4166667E+00  0.0000000E+00  0.0000000E+00  0.3472222E-02
   1       -3.4560
   2       -1.9250
   3       -0.2719
   4       -0.2719
   5        0.0311
   6        0.1511
   7        0.1511
   8        0.4160
   9        0.7961
  10        0.7961
  11        1.4305
  12        1.4935
  13        1.4935
  14        1.5216
  15        1.8881
  16        1.8881
  17        1.9078
  18        1.9078
  19        2.0878
  20        2.2398
  21        2.6265
  22        2.6265
  23        9.3822
  24        9.3822
  25       11.8054
  26       11.8054
 
  0.5000000E+00  0.0000000E+00  0.0000000E+00  0.1736111E-02
   1       -2.6756
   2       -2.6756
   3       -0.2029
   4       -0.2029
   5        0.2221
   6        0.2221
   7        0.4458
   8        0.4458
   9        0.4458
  10        0.4458
  11        1.3862
  12        1.3862
  13        1.6933
  14        1.6933
  15        1.6933
  16        1.6933
  17        1.8287
  18        1.8287
  19        2.1636
  20        2.1636
  21        2.6265
  22        2.6265
  23       10.5537
  24       10.5537
  25       10.5537
  26       10.5537
 
  0.8333333E-01  0.8333333E-01  0.0000000E+00  0.6944444E-02
   1       -5.3370
   2       -0.9393
   3       -0.9393
   4       -0.9000
   5       -0.4516
   6       -0.4516
   7       -0.4506
   8        0.9459
   9        1.0194
  10        1.0284
  11        1.8421
  12        1.8773
  13        2.3452
  14        2.3779
  15        2.3779
  16        2.3989
  17        2.4595
  18        2.4595
  19        2.5885
  20        2.5885
  21        2.6020
  22        5.3680
  23        5.3680
  24        6.1096
  25       11.6572
  26       12.3279
 
  0.1666667E+00  0.8333333E-01  0.0000000E+00  0.1388889E-01
   1       -5.0786
   2       -0.9519
   3       -0.8174
   4       -0.7838
   5       -0.3825
   6       -0.3768
   7       -0.3765
   8        0.8753
   9        1.0769
  10        1.0851
  11        1.7813
  12        1.9035
  13        2.0131
  14        2.0137
  15        2.2403
  16        2.3111
  17        2.3458
  18        2.4283
  19        2.4820
  20        2.5884
  21        2.5892
  22        4.2834
  23        5.9511
  24        6.6855
  25       11.7480
  26       12.4553
 
  0.2500000E+00  0.8333333E-01  0.0000000E+00  0.1388889E-01
   1       -4.6554
   2       -1.0378
   3       -0.6348
   4       -0.6096
   5       -0.2718
   6       -0.2536
   7       -0.2502
   8        0.7560
   9        1.1748
  10        1.1792
  11        1.5694
  12        1.5967
  13        1.6833
  14        1.9548
  15        2.0033
  16        2.1759
  17        2.2046
  18        2.3203
  19        2.3670
  20        2.5861
  21        2.5881
  22        3.2220
  23        6.7200
  24        7.4884
  25       11.8922
  26       12.6781
 
  0.3333333E+00  0.8333333E-01  0.0000000E+00  0.1388889E-01
   1       -4.0806
   2       -1.3107
   3       -0.4262
   4       -0.4094
   5       -0.1261
   6       -0.0822
   7       -0.0712
   8        0.6008
   9        1.1374
  10        1.1771
  11        1.2778
  12        1.3201
  13        1.5874
  14        1.6542
  15        2.0170
  16        2.0232
  17        2.0395
  18        2.1222
  19        2.2504
  20        2.5393
  21        2.5857
  22        2.5878
  23        7.5987
  24        8.4420
  25       11.7402
  26       12.3705
 
  0.4166667E+00  0.8333333E-01  0.0000000E+00  0.1388889E-01
   1       -3.3799
   2       -1.8613
   3       -0.2474
   4       -0.2376
   5        0.0456
   6        0.1370
   7        0.1618
   8        0.4219
   9        0.7472
  10        0.7897
  11        1.3102
  12        1.3661
  13        1.4939
  14        1.6046
  15        1.8803
  16        1.8935
  17        1.9073
  18        2.0090
  19        2.1043
  20        2.3035
  21        2.5860
  22        2.5872
  23        8.5562
  24        9.5094
  25       10.6691
  26       11.9177
 
  0.5000000E+00  0.8333333E-01  0.0000000E+00  0.6944444E-02
   1       -2.6052
   2       -2.6052
   3       -0.1704
   4       -0.1704
   5        0.2324
   6        0.2324
   7        0.4118
   8        0.4118
   9        0.4493
  10        0.4493
  11        1.2829
  12        1.2829
  13        1.6932
  14        1.6932
  15        1.7728
  16        1.7728
  17        1.8284
  18        1.8284
  19        2.1955
  20        2.1955
  21        2.5866
  22        2.5866
  23        9.5812
  24        9.5812
  25       10.6719
  26       10.6719
 
  0.1666667E+00  0.1666667E+00  0.0000000E+00  0.6944444E-02
   1       -4.8240
   2       -0.8212
   3       -0.8212
   4       -0.6755
   5       -0.3117
   6       -0.3117
   7       -0.3115
   8        0.8326
   9        1.1112
  10        1.1207
  11        1.7592
  12        1.7935
  13        1.8304
  14        1.8304
  15        1.9121
  16        2.2338
  17        2.3389
  18        2.3389
  19        2.4812
  20        2.4812
  21        2.5315
  22        4.8499
  23        4.8499
  24        7.1950
  25       11.8094
  26       13.0892
 
  0.2500000E+00  0.1666667E+00  0.0000000E+00  0.1388889E-01
   1       -4.4071
   2       -0.8921
   3       -0.6238
   4       -0.5125
   5       -0.2080
   6       -0.2041
   7       -0.1928
   8        0.7370
   9        1.1725
  10        1.1975
  11        1.3917
  12        1.4699
  13        1.5675
  14        1.6901
  15        1.9726
  16        2.1136
  17        2.2045
  18        2.2887
  19        2.3189
  20        2.4800
  21        2.4983
  22        3.7840
  23        5.5462
  24        7.9372
  25       11.4274
  26       12.2466
 
  0.3333333E+00  0.1666667E+00  0.0000000E+00  0.1388889E-01
   1       -3.8420
   2       -1.1462
   3       -0.3939
   4       -0.3190
   5       -0.0717
   6       -0.0642
   7       -0.0248
   8        0.5998
   9        0.9822
  10        1.1134
  11        1.2115
  12        1.2888
  13        1.3297
  14        1.6320
  15        1.9717
  16        2.0435
  17        2.0678
  18        2.1208
  19        2.1812
  20        2.4786
  21        2.4837
  22        3.0122
  23        6.3213
  24        8.8447
  25       10.2504
  26       12.4261
 
  0.4166667E+00  0.1666667E+00  0.0000000E+00  0.1388889E-01
   1       -3.1552
   2       -1.6761
   3       -0.1870
   4       -0.1394
   5        0.0885
   6        0.0974
   7        0.1926
   8        0.4368
   9        0.6208
  10        0.7689
  11        1.1274
  12        1.1842
  13        1.4985
  14        1.6706
  15        1.8527
  16        1.8952
  17        1.9068
  18        2.0094
  19        2.1886
  20        2.4772
  21        2.4780
  22        2.5746
  23        7.1673
  24        9.1180
  25        9.8787
  26       12.2471
 
  0.5000000E+00  0.1666667E+00  0.0000000E+00  0.6944444E-02
   1       -2.3987
   2       -2.3987
   3       -0.0801
   4       -0.0801
   5        0.2620
   6        0.2620
   7        0.3192
   8        0.3192
   9        0.4585
  10        0.4585
  11        1.1213
  12        1.1213
  13        1.6946
  14        1.6946
  15        1.8155
  16        1.8155
  17        1.8182
  18        1.8182
  19        2.3421
  20        2.3421
  21        2.4767
  22        2.4767
  23        8.0940
  24        8.0940
  25       11.0174
  26       11.0174
 
  0.2500000E+00  0.2500000E+00  0.0000000E+00  0.6944444E-02
   1       -4.0017
   2       -0.6701
   3       -0.6701
   4       -0.3689
   5       -0.1216
   6       -0.1012
   7       -0.1012
   8        0.6812
   9        1.1600
  10        1.1600
  11        1.1733
  12        1.2555
  13        1.2622
  14        1.6519
  15        2.0142
  16        2.0537
  17        2.1634
  18        2.1634
  19        2.3172
  20        2.3172
  21        2.4166
  22        4.4110
  23        4.4110
  24        8.6153
  25       10.0824
  26       12.3588
 
  0.3333333E+00  0.2500000E+00  0.0000000E+00  0.1388889E-01
   1       -3.4543
   2       -0.8941
   3       -0.4061
   4       -0.1975
   5       -0.0200
   6        0.0185
   7        0.0485
   8        0.5830
   9        0.7981
  10        0.9673
  11        1.0027
  12        1.1577
  13        1.3639
  14        1.6084
  15        1.8947
  16        2.0103
  17        2.0646
  18        2.1199
  19        2.1907
  20        2.3158
  21        2.3636
  22        3.5315
  23        5.0958
  24        8.8092
  25        9.4685
  26       12.6597
 
  0.4166667E+00  0.2500000E+00  0.0000000E+00  0.1388889E-01
   1       -2.7931
   2       -1.3886
   3       -0.1542
   4       -0.0049
   5        0.0512
   6        0.1579
   7        0.2400
   8        0.4531
   9        0.4855
  10        0.7292
  11        0.9137
  12        1.0880
  13        1.5169
  14        1.6361
  15        1.7964
  16        1.8642
  17        1.9090
  18        1.9138
  19        2.3164
  20        2.3350
  21        2.3693
  22        2.9558
  23        5.8529
  24        7.6852
  25       10.4600
  26       12.7745
 
  0.5000000E+00  0.2500000E+00  0.0000000E+00  0.6944444E-02
   1       -2.0713
   2       -2.0713
   3        0.0144
   4        0.0144
   5        0.2206
   6        0.2206
   7        0.3068
   8        0.3068
   9        0.4696
  10        0.4696
  11        0.9820
  12        0.9820
  13        1.7028
  14        1.7028
  15        1.7518
  16        1.7518
  17        1.7790
  18        1.7790
  19        2.3214
  20        2.3214
  21        2.6045
  22        2.6045
  23        6.7068
  24        6.7068
  25       11.5670
  26       11.5670
 
  0.3333333E+00  0.3333333E+00  0.0000000E+00  0.6944444E-02
   1       -2.9349
   2       -0.5925
   3       -0.5925
   4       -0.0989
   5        0.0740
   6        0.1428
   7        0.1428
   8        0.5370
   9        0.6963
  10        0.6963
  11        0.8485
  12        1.1052
  13        1.4397
  14        1.5557
  15        1.7958
  16        1.9209
  17        1.9209
  18        2.1218
  19        2.1218
  20        2.2618
  21        2.3785
  22        4.1047
  23        4.1047
  24        7.5330
  25       10.2711
  26       13.0145
 
  0.4166667E+00  0.3333333E+00  0.0000000E+00  0.1388889E-01
   1       -2.3157
   2       -1.0360
   3       -0.3031
   4       -0.0556
   5        0.1955
   6        0.2500
   7        0.2979
   8        0.4596
   9        0.4799
  10        0.6661
  11        0.7435
  12        1.0141
  13        1.5551
  14        1.5628
  15        1.7109
  16        1.7822
  17        1.7837
  18        1.9188
  19        2.1302
  20        2.1920
  21        2.6191
  22        3.4005
  23        4.7563
  24        6.4393
  25       11.2201
  26       13.4914
 
  0.5000000E+00  0.3333333E+00  0.0000000E+00  0.6944444E-02
   1       -1.6522
   2       -1.6522
   3       -0.1079
   4       -0.1079
   5        0.3189
   6        0.3189
   7        0.3597
   8        0.3597
   9        0.4764
  10        0.4764
  11        0.8762
  12        0.8762
  13        1.6423
  14        1.6423
  15        1.6988
  16        1.6988
  17        1.7269
  18        1.7269
  19        2.1510
  20        2.1510
  21        2.9368
  22        2.9368
  23        5.5222
  24        5.5222
  25       12.2933
  26       12.2933
 
  0.4166667E+00  0.4166667E+00  0.0000000E+00  0.6944444E-02
   1       -1.7613
   2       -0.6765
   3       -0.6765
   4       -0.1787
   5        0.3581
   6        0.3581
   7        0.3668
   8        0.4464
   9        0.5783
  10        0.6153
  11        0.6153
  12        0.9263
  13        1.5048
  14        1.6234
  15        1.6485
  16        1.6594
  17        1.6594
  18        1.9436
  19        1.9436
  20        2.0745
  21        2.9319
  22        3.9268
  23        3.9268
  24        5.4046
  25       12.1308
  26       14.0444
 
  0.5000000E+00  0.4166667E+00  0.0000000E+00  0.6944444E-02
   1       -1.1893
   2       -1.1893
   3       -0.3788
   4       -0.3788
   5        0.4108
   6        0.4108
   7        0.4717
   8        0.4717
   9        0.5038
  10        0.5038
  11        0.7866
  12        0.7866
  13        1.5453
  14        1.5453
  15        1.5944
  16        1.5944
  17        1.7778
  18        1.7778
  19        1.9926
  20        1.9926
  21        3.3436
  22        3.3436
  23        4.5782
  24        4.5782
  25       13.1720
  26       13.1720
 
  0.5000000E+00  0.5000000E+00  0.0000000E+00  0.1736111E-02
   1       -0.7464
   2       -0.7464
   3       -0.7464
   4       -0.7464
   5        0.4501
   6        0.4501
   7        0.4501
   8        0.4501
   9        0.6702
  10        0.6702
  11        0.6702
  12        0.6702
  13        1.5240
  14        1.5240
  15        1.5240
  16        1.5240
  17        1.8655
  18        1.8655
  19        1.8655
  20        1.8655
  21        3.8690
  22        3.8690
  23        3.8690
  24        3.8690
  25       14.1844
  26       14.1844
 
  0.8333333E-01  0.8333333E-01  0.8333333E-01  0.4629630E-02
   1       -5.2506
   2       -0.8978
   3       -0.8978
   4       -0.8978
   5       -0.4275
   6       -0.4275
   7       -0.4275
   8        0.9319
   9        1.0373
  10        1.0373
  11        1.8546
  12        1.8546
  13        2.2930
  14        2.2930
  15        2.2930
  16        2.3715
  17        2.3715
  18        2.3715
  19        2.5846
  20        2.5846
  21        2.5846
  22        5.5805
  23        5.5805
  24        5.5805
  25       12.3691
  26       12.3691
 
  0.1666667E+00  0.8333333E-01  0.8333333E-01  0.1388889E-01
   1       -4.9936
   2       -0.9080
   3       -0.7792
   4       -0.7792
   5       -0.3596
   6       -0.3551
   7       -0.3551
   8        0.8679
   9        1.0861
  10        1.0906
  11        1.7905
  12        1.8911
  13        1.9493
  14        1.9493
  15        2.1345
  16        2.2892
  17        2.2915
  18        2.2915
  19        2.5378
  20        2.5731
  21        2.5731
  22        4.4952
  23        6.1243
  24        6.1243
  25       12.4939
  26       12.4939
 
  0.2500000E+00  0.8333333E-01  0.8333333E-01  0.1388889E-01
   1       -4.5725
   2       -0.9896
   3       -0.6011
   4       -0.6011
   5       -0.2508
   6       -0.2342
   7       -0.2342
   8        0.7539
   9        1.1729
  10        1.1786
  11        1.5333
  12        1.5333
  13        1.7005
  14        1.8645
  15        1.9491
  16        2.1572
  17        2.1674
  18        2.1674
  19        2.4712
  20        2.5634
  21        2.5634
  22        3.4359
  23        6.8620
  24        6.8620
  25       12.6741
  26       12.6741
 
  0.3333333E+00  0.8333333E-01  0.8333333E-01  0.1388889E-01
   1       -4.0011
   2       -1.2568
   3       -0.3950
   4       -0.3950
   5       -0.1076
   6       -0.0675
   7       -0.0675
   8        0.6034
   9        1.1227
  10        1.1227
  11        1.2603
  12        1.2992
  13        1.5223
  14        1.6323
  15        1.9898
  16        2.0146
  17        2.0146
  18        2.0244
  19        2.3908
  20        2.5579
  21        2.5579
  22        2.6758
  23        7.7163
  24        7.7163
  25       11.9748
  26       11.9748
 
  0.4166667E+00  0.8333333E-01  0.8333333E-01  0.1388889E-01
   1       -3.3053
   2       -1.8004
   3       -0.2137
   4       -0.2137
   5        0.0610
   6        0.1397
   7        0.1397
   8        0.4291
   9        0.7524
  10        0.7524
  11        1.2644
  12        1.2799
  13        1.4486
  14        1.6955
  15        1.8054
  16        1.8782
  17        1.8782
  18        2.1120
  19        2.2101
  20        2.3009
  21        2.5553
  22        2.5553
  23        8.6455
  24        8.6455
  25       10.8294
  26       10.8294
 
  0.5000000E+00  0.8333333E-01  0.8333333E-01  0.6944444E-02
   1       -2.5369
   2       -2.5369
   3       -0.1372
   4       -0.1372
   5        0.2440
   6        0.2440
   7        0.3322
   8        0.3322
   9        0.5008
  10        0.5008
  11        1.2243
  12        1.2243
  13        1.6206
  14        1.6206
  15        1.8211
  16        1.8211
  17        1.9017
  18        1.9017
  19        2.2061
  20        2.2061
  21        2.5545
  22        2.5545
  23        9.4278
  24        9.4278
  25        9.9734
  26        9.9734
 
  0.1666667E+00  0.1666667E+00  0.8333333E-01  0.1388889E-01
   1       -4.7405
   2       -0.7822
   3       -0.7822
   4       -0.6702
   5       -0.2908
   6       -0.2908
   7       -0.2906
   8        0.8278
   9        1.1167
  10        1.1220
  11        1.7371
  12        1.7728
  13        1.7728
  14        1.7817
  15        1.8937
  16        2.1872
  17        2.2183
  18        2.2183
  19        2.5311
  20        2.5311
  21        2.5403
  22        5.0052
  23        5.0052
  24        6.5914
  25       12.5587
  26       13.2316
 
  0.2500000E+00  0.1666667E+00  0.8333333E-01  0.2777778E-01
   1       -4.3264
   2       -0.8517
   3       -0.5925
   4       -0.5064
   5       -0.1875
   6       -0.1850
   7       -0.1764
   8        0.7378
   9        1.1707
  10        1.1888
  11        1.3654
  12        1.4187
  13        1.5128
  14        1.7220
  15        1.9593
  16        2.0728
  17        2.0873
  18        2.1216
  19        2.4675
  20        2.5044
  21        2.5073
  22        3.9134
  23        5.6646
  24        7.2557
  25       11.6691
  26       12.9649
 
  0.3333333E+00  0.1666667E+00  0.8333333E-01  0.2777778E-01
   1       -3.7656
   2       -1.1023
   3       -0.3701
   4       -0.3111
   5       -0.0515
   6       -0.0507
   7       -0.0215
   8        0.6065
   9        0.9826
  10        1.0754
  11        1.2053
  12        1.2442
  13        1.2928
  14        1.6912
  15        1.9201
  16        1.9438
  17        1.9894
  18        2.0580
  19        2.3734
  20        2.4831
  21        2.4836
  22        3.0841
  23        6.4138
  24        8.0352
  25       10.4444
  26       12.3180
 
  0.4166667E+00  0.1666667E+00  0.8333333E-01  0.2777778E-01
   1       -3.0849
   2       -1.6244
   3       -0.1609
   4       -0.1200
   5        0.0836
   6        0.1075
   7        0.1495
   8        0.4488
   9        0.6621
  10        0.7608
  11        1.0977
  12        1.1702
  13        1.4206
  14        1.7422
  15        1.7803
  16        1.8304
  17        1.8590
  18        2.1772
  19        2.2198
  20        2.4711
  21        2.4714
  22        2.5727
  23        7.2350
  24        8.7002
  25        9.5493
  26       11.1541
 
  0.5000000E+00  0.1666667E+00  0.8333333E-01  0.1388889E-01
   1       -2.3371
   2       -2.3371
   3       -0.0450
   4       -0.0450
   5        0.2087
   6        0.2087
   7        0.2783
   8        0.2783
   9        0.5471
  10        0.5471
  11        1.1012
  12        1.1012
  13        1.5719
  14        1.5719
  15        1.7924
  16        1.7924
  17        1.9856
  18        1.9856
  19        2.3238
  20        2.3238
  21        2.4675
  22        2.4675
  23        8.1127
  24        8.1127
  25       10.1121
  26       10.1121
 
  0.2500000E+00  0.2500000E+00  0.8333333E-01  0.1388889E-01
   1       -3.9248
   2       -0.6440
   3       -0.6440
   4       -0.3690
   5       -0.1018
   6       -0.0817
   7       -0.0817
   8        0.6881
   9        1.1449
  10        1.1449
  11        1.1710
  12        1.2266
  13        1.2305
  14        1.7008
  15        1.9573
  16        2.0160
  17        2.0160
  18        2.0379
  19        2.4218
  20        2.4218
  21        2.4454
  22        4.5011
  23        4.5011
  24        7.8215
  25       10.2879
  26       13.2132
 
  0.3333333E+00  0.2500000E+00  0.8333333E-01  0.2777778E-01
   1       -3.3834
   2       -0.8699
   3       -0.4011
   4       -0.2105
   5        0.0006
   6        0.0431
   7        0.0609
   8        0.5974
   9        0.8181
  10        0.9629
  11        0.9901
  12        1.1553
  13        1.3050
  14        1.6896
  15        1.8417
  16        1.8625
  17        1.9130
  18        2.1741
  19        2.3088
  20        2.3777
  21        2.3932
  22        3.5790
  23        5.1625
  24        8.2948
  25        9.2868
  26       12.8114
 
  0.4166667E+00  0.2500000E+00  0.8333333E-01  0.2777778E-01
   1       -2.7312
   2       -1.3549
   3       -0.1693
   4       -0.0459
   5        0.0722
   6        0.1858
   7        0.1970
   8        0.4747
   9        0.5780
  10        0.7585
  11        0.9132
  12        1.0856
  13        1.4051
  14        1.6929
  15        1.7495
  16        1.7732
  17        1.7986
  18        2.1479
  19        2.3500
  20        2.3519
  21        2.3594
  22        2.9579
  23        5.9010
  24        7.6503
  25        9.6765
  26       11.6439
 
  0.5000000E+00  0.2500000E+00  0.8333333E-01  0.1388889E-01
   1       -2.0224
   2       -2.0224
   3       -0.0065
   4       -0.0065
   5        0.1563
   6        0.1563
   7        0.3334
   8        0.3334
   9        0.5789
  10        0.5789
  11        0.9807
  12        0.9807
  13        1.5350
  14        1.5350
  15        1.7287
  16        1.7287
  17        1.9486
  18        1.9486
  19        2.3459
  20        2.3459
  21        2.5857
  22        2.5857
  23        6.7317
  24        6.7317
  25       10.5905
  26       10.5905
 
  0.3333333E+00  0.3333333E+00  0.8333333E-01  0.1388889E-01
   1       -2.8731
   2       -0.6015
   3       -0.6015
   4       -0.1467
   5        0.1078
   6        0.1747
   7        0.1747
   8        0.5623
   9        0.7247
  10        0.7247
  11        0.8706
  12        1.1062
  13        1.3347
  14        1.6791
  15        1.7325
  16        1.7837
  17        1.7837
  18        2.2456
  19        2.2456
  20        2.3076
  21        2.3589
  22        4.1379
  23        4.1379
  24        7.4778
  25        9.5306
  26       13.4628
 
  0.4166667E+00  0.3333333E+00  0.8333333E-01  0.2777778E-01
   1       -2.2678
   2       -1.0320
   3       -0.3565
   4       -0.1332
   5        0.2288
   6        0.2956
   7        0.3160
   8        0.4964
   9        0.5637
  10        0.7338
  11        0.7619
  12        1.0181
  13        1.3891
  14        1.6302
  15        1.6469
  16        1.6903
  17        1.7460
  18        2.0800
  19        2.2090
  20        2.2421
  21        2.5971
  22        3.4001
  23        4.7797
  24        6.4377
  25       10.3082
  26       12.2918
 
  0.5000000E+00  0.3333333E+00  0.8333333E-01  0.1388889E-01
   1       -1.6244
   2       -1.6244
   3       -0.1931
   4       -0.1931
   5        0.3231
   6        0.3231
   7        0.4051
   8        0.4051
   9        0.5961
  10        0.5961
  11        0.8851
  12        0.8851
  13        1.4892
  14        1.4892
  15        1.6287
  16        1.6287
  17        1.8968
  18        1.8968
  19        2.2078
  20        2.2078
  21        2.9179
  22        2.9179
  23        5.5364
  24        5.5364
  25       11.2393
  26       11.2393
 
  0.4166667E+00  0.4166667E+00  0.8333333E-01  0.1388889E-01
   1       -1.7350
   2       -0.7134
   3       -0.7134
   4       -0.2663
   5        0.3946
   6        0.4282
   7        0.4282
   8        0.5021
   9        0.6488
  10        0.6488
  11        0.6786
  12        0.9357
  13        1.3851
  14        1.5529
  15        1.5565
  16        1.5565
  17        1.7795
  18        2.0483
  19        2.0483
  20        2.1381
  21        2.9086
  22        3.9246
  23        3.9246
  24        5.4059
  25       11.1047
  26       13.0841
 
  0.5000000E+00  0.4166667E+00  0.8333333E-01  0.1388889E-01
   1       -1.1930
   2       -1.1930
   3       -0.4532
   4       -0.4532
   5        0.4826
   6        0.4826
   7        0.5085
   8        0.5085
   9        0.5986
  10        0.5986
  11        0.8020
  12        0.8020
  13        1.4404
  14        1.4404
  15        1.5158
  16        1.5158
  17        1.8912
  18        1.8912
  19        2.0684
  20        2.0684
  21        3.3250
  22        3.3250
  23        4.5769
  24        4.5769
  25       12.0323
  26       12.0323
 
  0.5000000E+00  0.5000000E+00  0.8333333E-01  0.3472222E-02
   1       -0.7883
   2       -0.7883
   3       -0.7883
   4       -0.7883
   5        0.5446
   6        0.5446
   7        0.5446
   8        0.5446
   9        0.6928
  10        0.6928
  11        0.6928
  12        0.6928
  13        1.4394
  14        1.4394
  15        1.4394
  16        1.4394
  17        1.9528
  18        1.9528
  19        1.9528
  20        1.9528
  21        3.8555
  22        3.8555
  23        3.8555
  24        3.8555
  25       12.9576
  26       12.9576
 
  0.1666667E+00  0.1666667E+00  0.1666667E+00  0.4629630E-02
   1       -4.4922
   2       -0.6715
   3       -0.6715
   4       -0.6715
   5       -0.2279
   6       -0.2279
   7       -0.2279
   8        0.8010
   9        1.1361
  10        1.1361
  11        1.5753
  12        1.5753
  13        1.5753
  14        1.8449
  15        1.8449
  16        2.0723
  17        2.0723
  18        2.0723
  19        2.5456
  20        2.5456
  21        2.5456
  22        5.4166
  23        5.4166
  24        5.4166
  25       13.4153
  26       13.4153
 
  0.2500000E+00  0.1666667E+00  0.1666667E+00  0.1388889E-01
   1       -4.0868
   2       -0.7386
   3       -0.5078
   4       -0.5078
   5       -0.1247
   6       -0.1243
   7       -0.1243
   8        0.7328
   9        1.1694
  10        1.1757
  11        1.2794
  12        1.2794
  13        1.3398
  14        1.7918
  15        1.9231
  16        1.9389
  17        1.9665
  18        1.9665
  19        2.5178
  20        2.5178
  21        2.5247
  22        4.2627
  23        5.9915
  24        5.9915
  25       12.0314
  26       12.0314
 
  0.3333333E+00  0.1666667E+00  0.1666667E+00  0.1388889E-01
   1       -3.5396
   2       -0.9803
   3       -0.3163
   4       -0.3163
   5        0.0031
   6        0.0031
   7        0.0115
   8        0.6233
   9        0.9787
  10        0.9787
  11        1.1164
  12        1.1827
  13        1.2414
  14        1.7612
  15        1.7971
  16        1.8620
  17        1.8620
  18        2.0516
  19        2.4722
  20        2.4788
  21        2.4788
  22        3.3337
  23        6.6647
  24        6.6647
  25       10.7853
  26       10.7853
 
  0.4166667E+00  0.1666667E+00  0.1666667E+00  0.1388889E-01
   1       -2.8789
   2       -1.4781
   3       -0.1209
   4       -0.1209
   5        0.0927
   6        0.0927
   7        0.1674
   8        0.4846
   9        0.7461
  10        0.7461
  11        1.0159
  12        1.1293
  13        1.3356
  14        1.6020
  15        1.7630
  16        1.7630
  17        1.9352
  18        2.1716
  19        2.3910
  20        2.4501
  21        2.4501
  22        2.6699
  23        7.3732
  24        7.3732
  25        9.7366
  26        9.7366
 
  0.5000000E+00  0.1666667E+00  0.1666667E+00  0.6944444E-02
   1       -2.1586
   2       -2.1586
   3        0.0321
   4        0.0321
   5        0.0565
   6        0.0565
   7        0.3290
   8        0.3290
   9        0.6590
  10        0.6590
  11        1.0460
  12        1.0460