  32  32   0   0
  0.1202155E+02  0.7272832E-09  0.7272832E-09  0.7272832E-09  0.5000000E-15
  1.000000000000000E-004
  CAR 
 unknown system                          
     14.65437995     -6.53669120  301      3.63904496      1.00000000
     -6.537  0.0000E+00  0.0000E+00
     -6.466  0.0000E+00  0.0000E+00
     -6.395  0.0000E+00  0.0000E+00
     -6.325  0.0000E+00  0.0000E+00
     -6.254  0.0000E+00  0.0000E+00
     -6.184  0.0000E+00  0.0000E+00
     -6.113  0.0000E+00  0.0000E+00
     -6.042  0.0000E+00  0.0000E+00
     -5.972  0.0000E+00  0.0000E+00
     -5.901  0.0000E+00  0.0000E+00
     -5.830  0.0000E+00  0.0000E+00
     -5.760  0.0000E+00  0.0000E+00
     -5.689  0.0000E+00  0.0000E+00
     -5.618  0.8492E-11  0.5998E-12
     -5.548  0.8254E-01  0.5830E-02
     -5.477  0.4954E+00  0.4082E-01
     -5.407  0.9972E+00  0.1113E+00
     -5.336  0.7382E+00  0.1634E+00
     -5.265  0.1761E+01  0.2878E+00
     -5.195  0.2559E+01  0.4685E+00
     -5.124  0.1638E-06  0.4723E+00
     -5.053  0.9910E+00  0.5423E+00
     -4.983  0.2512E+01  0.7197E+00
     -4.912  0.2562E+01  0.9007E+00
     -4.841  0.1958E+01  0.1039E+01
     -4.771  0.2043E+01  0.1183E+01
     -4.700  0.3962E+01  0.1464E+01
     -4.629  0.4478E-02  0.1464E+01
     -4.559  0.1901E+01  0.1598E+01
     -4.488  0.5223E+01  0.1967E+01
     -4.418  0.2195E+01  0.2128E+01
     -4.347  0.1985E+01  0.2268E+01
     -4.276  0.4467E+01  0.2584E+01
     -4.206  0.1472E+01  0.2688E+01
     -4.135  0.1979E+01  0.2828E+01
     -4.064  0.2482E+01  0.3003E+01
     -3.994  0.6446E+01  0.3459E+01
     -3.923  0.2132E+01  0.3609E+01
     -3.852  0.5938E+01  0.4029E+01
     -3.782  0.3962E+01  0.4309E+01
     -3.711  0.3675E+00  0.4335E+01
     -3.641  0.4555E+01  0.4657E+01
     -3.570  0.3966E+01  0.4939E+01
     -3.499  0.5696E+01  0.5341E+01
     -3.429  0.2617E+01  0.5526E+01
     -3.358  0.5943E+01  0.5953E+01
     -3.287  0.4586E+00  0.5986E+01
     -3.217  0.9290E+01  0.6642E+01
     -3.146  0.5605E+01  0.7049E+01
     -3.075  0.2026E+01  0.7192E+01
     -3.005  0.6233E+01  0.7632E+01
     -2.934  0.4223E+01  0.7931E+01
     -2.864  0.4064E+00  0.7960E+01
     -2.793  0.9306E+01  0.8617E+01
     -2.722  0.5980E+01  0.9039E+01
     -2.652  0.2493E+01  0.9220E+01
     -2.581  0.1333E+02  0.1016E+02
     -2.510  0.5833E+01  0.1058E+02
     -2.440  0.3066E+01  0.1080E+02
     -2.369  0.4536E+01  0.1112E+02
     -2.298  0.6266E+01  0.1156E+02
     -2.228  0.8971E+01  0.1220E+02
     -2.157  0.4955E+01  0.1255E+02
     -2.087  0.1009E+02  0.1326E+02
     -2.016  0.1112E+02  0.1405E+02
     -1.945  0.9584E+01  0.1472E+02
     -1.875  0.1443E+01  0.1482E+02
     -1.804  0.1058E+02  0.1557E+02
     -1.733  0.9178E+01  0.1622E+02
     -1.663  0.1911E+02  0.1757E+02
     -1.592  0.1038E+02  0.1831E+02
     -1.521  0.1187E+02  0.1915E+02
     -1.451  0.1462E+02  0.2019E+02
     -1.380  0.1327E+02  0.2113E+02
     -1.310  0.2590E+02  0.2296E+02
     -1.239  0.1969E+02  0.2436E+02
     -1.168  0.3512E+02  0.2684E+02
     -1.098  0.2058E+02  0.2831E+02
     -1.027  0.4629E+02  0.3158E+02
     -0.956  0.4069E+02  0.3446E+02
     -0.886  0.4012E+02  0.3730E+02
     -0.815  0.4397E+02  0.4041E+02
     -0.744  0.3447E+02  0.4286E+02
     -0.674  0.4902E+02  0.4632E+02
     -0.603  0.5787E+02  0.5041E+02
     -0.533  0.7020E+02  0.5541E+02
     -0.462  0.6295E+02  0.5990E+02
     -0.391  0.8400E+02  0.6584E+02
     -0.321  0.7991E+02  0.7149E+02
     -0.250  0.7398E+02  0.7676E+02
     -0.179  0.6496E+02  0.8138E+02
     -0.109  0.6976E+02  0.8634E+02
     -0.038  0.7010E+02  0.9135E+02
      0.033  0.6632E+02  0.9608E+02
      0.103  0.6368E+02  0.1006E+03
      0.174  0.8183E+02  0.1064E+03
      0.244  0.8215E+02  0.1122E+03
      0.315  0.8823E+02  0.1185E+03
      0.386  0.1106E+03  0.1263E+03
      0.456  0.1102E+03  0.1342E+03
      0.527  0.9503E+02  0.1409E+03
      0.598  0.1274E+03  0.1500E+03
      0.668  0.1215E+03  0.1586E+03
      0.739  0.1519E+03  0.1693E+03
      0.810  0.1499E+03  0.1799E+03
      0.880  0.1292E+03  0.1891E+03
      0.951  0.9897E+02  0.1962E+03
      1.021  0.1025E+03  0.2034E+03
      1.092  0.8120E+02  0.2092E+03
      1.163  0.8498E+02  0.2152E+03
      1.233  0.9642E+02  0.2221E+03
      1.304  0.1103E+03  0.2299E+03
      1.375  0.1278E+03  0.2389E+03
      1.445  0.1170E+03  0.2473E+03
      1.516  0.1234E+03  0.2560E+03
      1.587  0.1019E+03  0.2632E+03
      1.657  0.1021E+03  0.2704E+03
      1.728  0.1176E+03  0.2788E+03
      1.798  0.9157E+02  0.2854E+03
      1.869  0.1313E+03  0.2947E+03
      1.940  0.1623E+03  0.3061E+03
      2.010  0.2123E+03  0.3212E+03
      2.081  0.1277E+03  0.3303E+03
      2.152  0.5993E+02  0.3345E+03
      2.222  0.1320E+02  0.3355E+03
      2.293  0.2868E+02  0.3375E+03
      2.364  0.4628E+01  0.3378E+03
      2.434  0.1096E+02  0.3386E+03
      2.505  0.1124E+02  0.3394E+03
      2.575  0.1941E+02  0.3408E+03
      2.646  0.1280E+02  0.3417E+03
      2.717  0.5546E+01  0.3421E+03
      2.787  0.1165E+02  0.3429E+03
      2.858  0.1164E+02  0.3437E+03
      2.929  0.1758E+02  0.3450E+03
      2.999  0.6776E+01  0.3455E+03
      3.070  0.8282E+01  0.3461E+03
      3.141  0.9888E+01  0.3468E+03
      3.211  0.3084E+01  0.3470E+03
      3.282  0.1965E+02  0.3484E+03
      3.352  0.2156E+02  0.3499E+03
      3.423  0.1523E+01  0.3500E+03
      3.494  0.1004E+02  0.3507E+03
      3.564  0.8239E+01  0.3513E+03
      3.635  0.8414E+01  0.3519E+03
      3.706  0.4607E+01  0.3522E+03
      3.776  0.1331E+02  0.3532E+03
      3.847  0.1637E+01  0.3533E+03
      3.918  0.2031E+02  0.3547E+03
      3.988  0.3176E+01  0.3550E+03
      4.059  0.1408E+02  0.3559E+03
      4.129  0.2027E+02  0.3574E+03
      4.200  0.2039E+01  0.3575E+03
      4.271  0.3733E+01  0.3578E+03
      4.341  0.7140E+01  0.3583E+03
      4.412  0.7861E+01  0.3589E+03
      4.483  0.2240E+01  0.3590E+03
      4.553  0.1425E+02  0.3600E+03
      4.624  0.9817E+01  0.3607E+03
      4.695  0.1537E+02  0.3618E+03
      4.765  0.4645E+01  0.3622E+03
      4.836  0.6467E+01  0.3626E+03
      4.906  0.1122E+02  0.3634E+03
      4.977  0.6380E+01  0.3639E+03
      5.048  0.9835E+01  0.3646E+03
      5.118  0.7414E+01  0.3651E+03
      5.189  0.5077E+01  0.3654E+03
      5.260  0.9337E+01  0.3661E+03
      5.330  0.8311E+00  0.3662E+03
      5.401  0.1893E+02  0.3675E+03
      5.472  0.4434E+01  0.3678E+03
      5.542  0.1046E+02  0.3686E+03
      5.613  0.1154E+02  0.3694E+03
      5.683  0.3003E+01  0.3696E+03
      5.754  0.4558E+01  0.3699E+03
      5.825  0.7301E+01  0.3705E+03
      5.895  0.8945E+01  0.3711E+03
      5.966  0.9983E+01  0.3718E+03
      6.037  0.6593E+01  0.3723E+03
      6.107  0.5360E+01  0.3726E+03
      6.178  0.1916E+01  0.3728E+03
      6.249  0.4787E+01  0.3731E+03
      6.319  0.1416E+02  0.3741E+03
      6.390  0.1164E+02  0.3749E+03
      6.460  0.3633E-03  0.3749E+03
      6.531  0.3587E+01  0.3752E+03
      6.602  0.4275E+01  0.3755E+03
      6.672  0.1195E+02  0.3763E+03
      6.743  0.5014E+01  0.3767E+03
      6.814  0.9223E+01  0.3773E+03
      6.884  0.1531E+01  0.3775E+03
      6.955  0.2101E+00  0.3775E+03
      7.026  0.5708E+01  0.3779E+03
      7.096  0.8154E+01  0.3785E+03
      7.167  0.3850E+01  0.3787E+03
      7.238  0.8790E+01  0.3793E+03
      7.308  0.2565E+00  0.3794E+03
      7.379  0.8817E+01  0.3800E+03
      7.449  0.1302E+02  0.3809E+03
      7.520  0.5499E+01  0.3813E+03
      7.591  0.8988E+01  0.3820E+03
      7.661  0.8103E+01  0.3825E+03
      7.732  0.6607E+01  0.3830E+03
      7.803  0.8269E+01  0.3836E+03
      7.873  0.1160E+02  0.3844E+03
      7.944  0.9522E+01  0.3851E+03
      8.015  0.9310E+01  0.3858E+03
      8.085  0.6826E+01  0.3862E+03
      8.156  0.7706E+01  0.3868E+03
      8.226  0.1248E+02  0.3877E+03
      8.297  0.1319E+02  0.3886E+03
      8.368  0.1213E+02  0.3895E+03
      8.438  0.5500E+01  0.3899E+03
      8.509  0.3148E+01  0.3901E+03
      8.580  0.1049E+02  0.3908E+03
      8.650  0.1261E+02  0.3917E+03
      8.721  0.4572E+01  0.3921E+03
      8.792  0.1305E+02  0.3930E+03
      8.862  0.9124E+01  0.3936E+03
      8.933  0.1085E+02  0.3944E+03
      9.003  0.4442E+01  0.3947E+03
      9.074  0.1461E+02  0.3958E+03
      9.145  0.9156E+01  0.3964E+03
      9.215  0.1982E+01  0.3966E+03
      9.286  0.4028E+01  0.3968E+03
      9.357  0.7845E+01  0.3974E+03
      9.427  0.1301E+02  0.3983E+03
      9.498  0.1023E+02  0.3990E+03
      9.569  0.8459E+01  0.3996E+03
      9.639  0.7839E+01  0.4002E+03
      9.710  0.7157E+01  0.4007E+03
      9.780  0.9391E+01  0.4014E+03
      9.851  0.6142E+01  0.4018E+03
      9.922  0.5840E+01  0.4022E+03
      9.992  0.6136E+01  0.4027E+03
     10.063  0.1066E+02  0.4034E+03
     10.134  0.1160E+02  0.4042E+03
     10.204  0.4434E+00  0.4043E+03
     10.275  0.1225E+02  0.4051E+03
     10.346  0.7371E+01  0.4057E+03
     10.416  0.6809E+01  0.4061E+03
     10.487  0.2119E+01  0.4063E+03
     10.557  0.7353E+01  0.4068E+03
     10.628  0.9082E+01  0.4075E+03
     10.699  0.8592E+01  0.4081E+03
     10.769  0.1223E+02  0.4089E+03
     10.840  0.1114E+02  0.4097E+03
     10.911  0.7328E+01  0.4102E+03
     10.981  0.7742E+01  0.4108E+03
     11.052  0.1027E+02  0.4115E+03
     11.123  0.1056E+02  0.4123E+03
     11.193  0.6298E+01  0.4127E+03
     11.264  0.1223E+02  0.4136E+03
     11.334  0.1590E+02  0.4147E+03
     11.405  0.4383E+01  0.4150E+03
     11.476  0.1185E+02  0.4159E+03
     11.546  0.1538E+02  0.4170E+03
     11.617  0.6672E+01  0.4174E+03
     11.688  0.1591E+02  0.4185E+03
     11.758  0.2570E+01  0.4187E+03
     11.829  0.1551E+02  0.4198E+03
     11.900  0.7029E+01  0.4203E+03
     11.970  0.7665E+01  0.4209E+03
     12.041  0.1450E+02  0.4219E+03
     12.111  0.1750E+02  0.4231E+03
     12.182  0.4622E+01  0.4235E+03
     12.253  0.8252E+01  0.4241E+03
     12.323  0.9785E+01  0.4248E+03
     12.394  0.1854E+02  0.4261E+03
     12.465  0.9478E+01  0.4267E+03
     12.535  0.4504E+01  0.4271E+03
     12.606  0.1062E+02  0.4278E+03
     12.677  0.1519E+02  0.4289E+03
     12.747  0.6324E+01  0.4293E+03
     12.818  0.1051E+02  0.4301E+03
     12.888  0.7126E+01  0.4306E+03
     12.959  0.5237E+01  0.4310E+03
     13.030  0.1509E+01  0.4311E+03
     13.100  0.7832E+01  0.4316E+03
     13.171  0.0000E+00  0.4316E+03
     13.242  0.3320E+00  0.4317E+03
     13.312  0.2970E+01  0.4319E+03
     13.383  0.0000E+00  0.4319E+03
     13.454  0.0000E+00  0.4319E+03
     13.524  0.0000E+00  0.4319E+03
     13.595  0.0000E+00  0.4319E+03
     13.665  0.1151E+00  0.4319E+03
     13.736  0.1866E+01  0.4320E+03
     13.807  0.0000E+00  0.4320E+03
     13.877  0.0000E+00  0.4320E+03
     13.948  0.0000E+00  0.4320E+03
     14.019  0.0000E+00  0.4320E+03
     14.089  0.0000E+00  0.4320E+03
     14.160  0.0000E+00  0.4320E+03
     14.231  0.0000E+00  0.4320E+03
     14.301  0.0000E+00  0.4320E+03
     14.372  0.0000E+00  0.4320E+03
     14.442  0.0000E+00  0.4320E+03
     14.513  0.0000E+00  0.4320E+03
     14.584  0.0000E+00  0.4320E+03
     14.654  0.0000E+00  0.4320E+03
