   32   32    1    1
  0.1202155E+02  0.7272832E-09  0.7272832E-09  0.7272832E-09  0.5000000E-15
  1.000000000000000E-004
  CAR 
 unknown system                          
  352   40  216
 
  0.0000000E+00  0.0000000E+00  0.0000000E+00  0.2915452E-02
   1       -5.5735
   2       -2.8477
   3       -2.8418
   4       -2.8418
   5       -2.8418
   6       -2.8418
   7       -2.8360
   8       -1.3531
   9       -1.3531
  10       -1.3531
  11       -1.3531
  12       -1.1515
  13       -1.1514
  14       -1.1513
  15       -0.9826
  16       -0.9786
  17       -0.9786
  18       -0.9765
  19       -0.9761
  20       -0.9761
  21       -0.9761
  22       -0.9761
  23       -0.9756
  24       -0.9736
  25       -0.9736
  26       -0.9695
  27       -0.7105
  28       -0.7105
  29       -0.7105
  30       -0.4321
  31       -0.4286
  32       -0.4286
  33       -0.4286
  34       -0.4285
  35       -0.4251
  36       -0.0547
  37       -0.0515
  38       -0.0515
  39       -0.0514
  40       -0.0514
  41       -0.0484
  42        0.1497
  43        0.1516
  44        0.1516
  45        0.1557
  46        0.1557
  47        0.1558
  48        0.1558
  49        0.1559
  50        0.1561
  51        0.1561
  52        0.1573
  53        0.1574
  54        0.1574
  55        0.1584
  56        0.1584
  57        0.1589
  58        0.1589
  59        0.1590
  60        0.1590
  61        0.1591
  62        0.1591
  63        0.1623
  64        0.1623
  65        0.1667
  66        0.3576
  67        0.3620
  68        0.3620
  69        0.3625
  70        0.3630
  71        0.3630
  72        0.3630
  73        0.3631
  74        0.3633
  75        0.3640
  76        0.3640
  77        0.3684
  78        0.6143
  79        0.6144
  80        0.6144
  81        0.6145
  82        0.6145
  83        0.6145
  84        0.6145
  85        0.6146
  86        0.6427
  87        0.6427
  88        0.6428
  89        1.0060
  90        1.0088
  91        1.0090
  92        1.0090
  93        1.0090
  94        1.0119
  95        1.1308
  96        1.1318
  97        1.1331
  98        1.1331
  99        1.1341
 100        1.1341
 101        1.1341
 102        1.1341
 103        1.1350
 104        1.1350
 105        1.1366
 106        1.1372
 107        1.2829
 108        1.2829
 109        1.2861
 110        1.2861
 111        1.2865
 112        1.2865
 113        1.2865
 114        1.2865
 115        1.2868
 116        1.2868
 117        1.2899
 118        1.2899
 119        1.4086
 120        1.4105
 121        1.4105
 122        1.4106
 123        1.4107
 124        1.4125
 125        1.4390
 126        1.4390
 127        1.4415
 128        1.4419
 129        1.4422
 130        1.4423
 131        1.4423
 132        1.4423
 133        1.4425
 134        1.4432
 135        1.4461
 136        1.4461
 137        1.4482
 138        1.4489
 139        1.7113
 140        1.7128
 141        1.7128
 142        1.7128
 143        1.7128
 144        1.7144
 145        1.9831
 146        1.9831
 147        1.9832
 148        1.9969
 149        1.9970
 150        1.9970
 151        1.9970
 152        1.9970
 153        1.9970
 154        1.9970
 155        1.9970
 156        2.1321
 157        2.1331
 158        2.1331
 159        2.1331
 160        2.1331
 161        2.1331
 162        2.1338
 163        2.1339
 164        2.1339
 165        2.1339
 166        2.1339
 167        2.1349
 168        2.6960
 169        2.6961
 170        2.6961
 171        2.6961
 172        3.3037
 173        3.3041
 174        3.3041
 175        3.3058
 176        3.3063
 177        3.3064
 178        3.3064
 179        3.3064
 180        3.3069
 181        3.3086
 182        3.3086
 183        3.3091
 184        5.1652
 185        5.1652
 186        5.1654
 187        7.3029
 188        7.3029
 189        7.3029
 190        7.3029
 191        9.7810
 192        9.7810
 193        9.7875
 194        9.7875
 195        9.7882
 196        9.7882
 197        9.7882
 198        9.7884
 199        9.7889
 200        9.7889
 201        9.7954
 202        9.7954
 203       10.6361
 204       10.6362
 205       10.6362
 206       11.8687
 207       11.8739
 208       11.8739
 209       11.8740
 210       11.8740
 211       11.8789
 212       12.3193
 213       12.3199
 214       12.3200
 215       12.3200
 216       12.3204
 
  0.1428571E+00  0.0000000E+00  0.0000000E+00  0.5830904E-02
   1       -5.5122
   2       -3.4938
   3       -2.7920
   4       -2.7919
   5       -2.7919
   6       -2.7919
   7       -2.2038
   8       -1.3428
   9       -1.3415
  10       -1.3415
  11       -1.3415
  12       -1.3394
  13       -1.3394
  14       -1.3394
  15       -1.3381
  16       -1.1518
  17       -1.1229
  18       -1.1229
  19       -1.0041
  20       -1.0041
  21       -1.0041
  22       -1.0041
  23       -0.6944
  24       -0.6935
  25       -0.6935
  26       -0.6659
  27       -0.6659
  28       -0.6659
  29       -0.6658
  30       -0.4764
  31       -0.4762
  32       -0.4066
  33       -0.4066
  34       -0.4066
  35       -0.4065
  36       -0.2011
  37       -0.0789
  38       -0.0789
  39       -0.0446
  40       -0.0444
  41       -0.0444
  42       -0.0444
  43        0.0998
  44        0.1278
  45        0.1284
  46        0.1284
  47        0.1285
  48        0.1323
  49        0.1324
  50        0.1324
  51        0.1324
  52        0.1579
  53        0.1583
  54        0.1583
  55        0.1583
  56        0.1773
  57        0.1773
  58        0.1773
  59        0.1782
  60        0.2249
  61        0.2249
  62        0.2249
  63        0.2253
  64        0.2362
  65        0.2362
  66        0.2363
  67        0.2363
  68        0.3772
  69        0.3772
  70        0.3773
  71        0.3773
  72        0.4283
  73        0.4283
  74        0.4544
  75        0.4545
  76        0.4545
  77        0.4546
  78        0.6031
  79        0.6031
  80        0.6032
  81        0.6032
  82        0.6249
  83        0.6300
  84        0.6300
  85        0.6300
  86        0.6301
  87        0.6570
  88        0.6570
  89        0.9347
  90        0.9348
  91        0.9348
  92        0.9348
  93        1.0371
  94        1.0739
  95        1.0741
  96        1.0741
  97        1.0741
  98        1.1016
  99        1.1291
 100        1.1291
 101        1.1454
 102        1.1455
 103        1.1455
 104        1.1458
 105        1.1859
 106        1.1859
 107        1.1860
 108        1.1861
 109        1.2863
 110        1.2863
 111        1.2863
 112        1.2864
 113        1.3462
 114        1.3462
 115        1.3462
 116        1.3463
 117        1.3719
 118        1.3719
 119        1.3719
 120        1.3719
 121        1.4106
 122        1.4107
 123        1.4107
 124        1.4107
 125        1.4320
 126        1.4507
 127        1.4510
 128        1.4536
 129        1.4536
 130        1.4550
 131        1.5040
 132        1.5041
 133        1.5041
 134        1.5042
 135        1.5395
 136        1.5395
 137        1.5396
 138        1.5396
 139        1.6535
 140        1.7331
 141        1.7331
 142        1.7331
 143        1.7331
 144        1.7725
 145        1.8022
 146        1.8022
 147        1.8022
 148        1.8022
 149        1.9622
 150        1.9622
 151        1.9763
 152        1.9796
 153        1.9797
 154        1.9797
 155        1.9797
 156        2.0268
 157        2.0268
 158        2.1072
 159        2.1072
 160        2.1072
 161        2.1072
 162        2.1084
 163        2.1084
 164        2.1321
 165        2.1332
 166        2.1338
 167        2.1349
 168        2.8220
 169        2.8220
 170        2.8220
 171        2.8221
 172        2.8705
 173        2.8705
 174        2.8706
 175        2.8706
 176        3.2993
 177        3.2994
 178        3.2994
 179        3.2994
 180        3.8762
 181        3.8762
 182        3.8762
 183        3.8762
 184        4.7708
 185        5.3265
 186        5.3265
 187        7.4790
 188        7.4790
 189        7.4790
 190        7.4790
 191        8.8235
 192        8.8235
 193        9.0306
 194        9.0306
 195        9.0307
 196        9.0308
 197        9.8707
 198        9.8707
 199        9.8707
 200        9.8707
 201       10.6593
 202       10.6593
 203       10.8124
 204       10.8124
 205       11.1530
 206       11.6085
 207       11.6085
 208       12.1199
 209       12.1199
 210       12.1200
 211       12.1200
 212       12.2633
 213       12.2634
 214       12.2634
 215       12.2635
 216       12.4186
 
  0.2857143E+00  0.0000000E+00  0.0000000E+00  0.5830904E-02
   1       -5.3291
   2       -4.0955
   3       -2.6447
   4       -2.6447
   5       -2.6447
   6       -2.6447
   7       -1.7278
   8       -1.7277
   9       -1.7277
  10       -1.7277
  11       -1.6814
  12       -1.2993
  13       -1.2993
  14       -1.2993
  15       -1.2993
  16       -1.1618
  17       -1.0732
  18       -1.0732
  19       -1.0732
  20       -1.0732
  21       -1.0405
  22       -1.0405
  23       -0.6468
  24       -0.6422
  25       -0.6422
  26       -0.5995
  27       -0.5995
  28       -0.4245
  29       -0.4245
  30       -0.4245
  31       -0.4245
  32       -0.3441
  33       -0.3440
  34       -0.3440
  35       -0.3440
  36       -0.3416
  37       -0.2753
  38       -0.2753
  39       -0.0243
  40       -0.0242
  41       -0.0242
  42       -0.0241
  43        0.0662
  44        0.0663
  45        0.0663
  46        0.0663
  47        0.0891
  48        0.0893
  49        0.0893
  50        0.0894
  51        0.0905
  52        0.0906
  53        0.0906
  54        0.0906
  55        0.1641
  56        0.1648
  57        0.1648
  58        0.1648
  59        0.1837
  60        0.1838
  61        0.1838
  62        0.1845
  63        0.2456
  64        0.3980
  65        0.3980
  66        0.3980
  67        0.3980
  68        0.4277
  69        0.4278
  70        0.4278
  71        0.4278
  72        0.5234
  73        0.5234
  74        0.5234
  75        0.5235
  76        0.5707
  77        0.5707
  78        0.5707
  79        0.5708
  80        0.5725
  81        0.6760
  82        0.6760
  83        0.6760
  84        0.6761
  85        0.6998
  86        0.6998
  87        0.7356
  88        0.7356
  89        0.8084
  90        0.8085
  91        0.8085
  92        0.8085
  93        0.9611
  94        0.9612
  95        0.9612
  96        0.9612
  97        0.9878
  98        0.9878
  99        1.1194
 100        1.2131
 101        1.2132
 102        1.2132
 103        1.2132
 104        1.2673
 105        1.2673
 106        1.2674
 107        1.2674
 108        1.2868
 109        1.2868
 110        1.2868
 111        1.2868
 112        1.3267
 113        1.3267
 114        1.3267
 115        1.3268
 116        1.3847
 117        1.3994
 118        1.3995
 119        1.3997
 120        1.3997
 121        1.4058
 122        1.4063
 123        1.4063
 124        1.4066
 125        1.4182
 126        1.4294
 127        1.4294
 128        1.4294
 129        1.4294
 130        1.4741
 131        1.5536
 132        1.5536
 133        1.5972
 134        1.6218
 135        1.6218
 136        1.6218
 137        1.6221
 138        1.6223
 139        1.6223
 140        1.6590
 141        1.6590
 142        1.6590
 143        1.6590
 144        1.7607
 145        1.7607
 146        1.8251
 147        1.8251
 148        1.8251
 149        1.8251
 150        1.8294
 151        1.9008
 152        1.9008
 153        1.9287
 154        1.9287
 155        1.9287
 156        1.9288
 157        1.9561
 158        2.0319
 159        2.0319
 160        2.0319
 161        2.0319
 162        2.0366
 163        2.0366
 164        2.1321
 165        2.1333
 166        2.1337
 167        2.1349
 168        2.5270
 169        2.5270
 170        2.5270
 171        2.5270
 172        3.0091
 173        3.0092
 174        3.0092
 175        3.0092
 176        3.2760
 177        3.2760
 178        3.2760
 179        3.2760
 180        3.8858
 181        4.6131
 182        4.6131
 183        4.6132
 184        4.6132
 185        5.7573
 186        5.7573
 187        7.7968
 188        7.7968
 189        7.7969
 190        7.7969
 191        7.9247
 192        7.9247
 193        7.9864
 194        7.9865
 195        7.9866
 196        7.9866
 197       10.1137
 198       10.1137
 199       10.1137
 200       10.1137
 201       10.7302
 202       10.7302
 203       10.9660
 204       10.9660
 205       10.9660
 206       10.9661
 207       11.2880
 208       11.2880
 209       11.6717
 210       11.6717
 211       11.6717
 212       11.6717
 213       11.8899
 214       11.8899
 215       12.2895
 216       12.2895
 
  0.4285714E+00  0.0000000E+00  0.0000000E+00  0.5830904E-02
   1       -5.0274
   2       -4.6128
   3       -2.4075
   4       -2.4074
   5       -2.4074
   6       -2.4074
   7       -2.0941
   8       -2.0941
   9       -2.0941
  10       -2.0940
  11       -1.3577
  12       -1.2364
  13       -1.2364
  14       -1.2364
  15       -1.2363
  16       -1.2106
  17       -1.1571
  18       -1.1571
  19       -1.1570
  20       -1.1570
  21       -0.9132
  22       -0.9131
  23       -0.7574
  24       -0.7574
  25       -0.5696
  26       -0.5561
  27       -0.5561
  28       -0.4663
  29       -0.4341
  30       -0.4341
  31       -0.2602
  32       -0.2602
  33       -0.2601
  34       -0.2598
  35       -0.2579
  36       -0.2579
  37       -0.2576
  38       -0.2576
  39       -0.0355
  40       -0.0354
  41       -0.0354
  42       -0.0354
  43       -0.0245
  44       -0.0245
  45       -0.0245
  46       -0.0242
  47        0.0071
  48        0.0074
  49        0.0074
  50        0.0075
  51        0.0470
  52        0.0470
  53        0.0470
  54        0.0470
  55        0.1718
  56        0.1733
  57        0.1733
  58        0.1734
  59        0.1811
  60        0.1812
  61        0.1812
  62        0.1828
  63        0.3772
  64        0.4657
  65        0.4657
  66        0.4657
  67        0.4657
  68        0.4883
  69        0.5222
  70        0.5222
  71        0.5223
  72        0.5223
  73        0.5970
  74        0.5971
  75        0.5971
  76        0.5972
  77        0.6909
  78        0.6909
  79        0.6911
  80        0.6914
  81        0.6920
  82        0.6924
  83        0.6926
  84        0.6926
  85        0.7501
  86        0.7501
  87        0.7501
  88        0.7502
  89        0.7703
  90        0.7703
  91        0.8477
  92        0.8477
  93        0.8477
  94        0.8477
  95        0.8671
  96        0.8671
  97        1.0403
  98        1.0404
  99        1.0404
 100        1.0404
 101        1.0718
 102        1.0718
 103        1.2178
 104        1.2904
 105        1.2904
 106        1.2904
 107        1.2905
 108        1.3008
 109        1.3008
 110        1.3008
 111        1.3011
 112        1.3018
 113        1.3019
 114        1.3022
 115        1.3022
 116        1.3109
 117        1.3400
 118        1.3401
 119        1.3401
 120        1.3401
 121        1.3745
 122        1.3745
 123        1.3746
 124        1.3746
 125        1.3860
 126        1.3860
 127        1.3862
 128        1.3863
 129        1.4231
 130        1.4231
 131        1.5053
 132        1.5472
 133        1.6815
 134        1.6816
 135        1.7423
 136        1.7423
 137        1.7423
 138        1.7424
 139        1.7829
 140        1.7829
 141        1.7909
 142        1.7909
 143        1.7909
 144        1.7909
 145        1.8037
 146        1.8038
 147        1.8477
 148        1.8477
 149        1.8478
 150        1.8478
 151        1.8808
 152        1.9209
 153        1.9209
 154        1.9209
 155        1.9209
 156        1.9237
 157        1.9248
 158        1.9248
 159        2.0057
 160        2.0058
 161        2.0058
 162        2.0058
 163        2.0313
 164        2.1321
 165        2.1334
 166        2.1336
 167        2.1348
 168        2.2434
 169        2.2434
 170        2.2434
 171        2.2434
 172        2.8998
 173        3.1452
 174        3.1452
 175        3.1453
 176        3.1453
 177        3.2290
 178        3.2290
 179        3.2290
 180        3.2291
 181        5.5258
 182        5.5258
 183        5.5258
 184        5.5258
 185        6.3685
 186        6.3685
 187        6.5987
 188        6.5987
 189        6.5987
 190        6.5988
 191        7.1012
 192        7.1012
 193        8.7739
 194        8.7739
 195        8.7739
 196        8.7739
 197        9.7838
 198        9.7838
 199        9.7839
 200        9.7839
 201       10.5052
 202       10.5052
 203       10.5052
 204       10.5052
 205       10.8537
 206       10.8537
 207       11.0296
 208       11.0296
 209       11.0296
 210       11.0296
 211       11.0368
 212       11.0368
 213       12.5257
 214       12.5257
 215       12.5257
 216       12.5257
 
  0.0000000E+00  0.1428571E+00  0.0000000E+00  0.1166181E-01
   1       -5.5122
   2       -3.4938
   3       -2.7963
   4       -2.7919
   5       -2.7919
   6       -2.7876
   7       -2.2038
   8       -1.3457
   9       -1.3426
  10       -1.3417
  11       -1.3404
  12       -1.3394
  13       -1.3389
  14       -1.3383
  15       -1.3365
  16       -1.1518
  17       -1.1230
  18       -1.1229
  19       -1.0063
  20       -1.0044
  21       -1.0037
  22       -1.0018
  23       -0.6945
  24       -0.6935
  25       -0.6935
  26       -0.6687
  27       -0.6659
  28       -0.6658
  29       -0.6629
  30       -0.4764
  31       -0.4762
  32       -0.4091
  33       -0.4066
  34       -0.4066
  35       -0.4041
  36       -0.2011
  37       -0.0790
  38       -0.0788
  39       -0.0470
  40       -0.0445
  41       -0.0444
  42       -0.0419
  43        0.0997
  44        0.1257
  45        0.1279
  46        0.1285
  47        0.1302
  48        0.1307
  49        0.1324
  50        0.1333
  51        0.1346
  52        0.1552
  53        0.1582
  54        0.1583
  55        0.1613
  56        0.1749
  57        0.1773
  58        0.1773
  59        0.1800
  60        0.2230
  61        0.2240
  62        0.2256
  63        0.2271
  64        0.2343
  65        0.2363
  66        0.2364
  67        0.2385
  68        0.3755
  69        0.3766
  70        0.3779
  71        0.3788
  72        0.4282
  73        0.4283
  74        0.4527
  75        0.4546
  76        0.4546
  77        0.4565
  78        0.6027
  79        0.6029
  80        0.6032
  81        0.6034
  82        0.6248
  83        0.6299
  84        0.6301
  85        0.6301
  86        0.6304
  87        0.6570
  88        0.6571
  89        0.9322
  90        0.9348
  91        0.9348
  92        0.9374
  93        1.0371
  94        1.0735
  95        1.0741
  96        1.0741
  97        1.0747
  98        1.1019
  99        1.1290
 100        1.1291
 101        1.1440
 102        1.1455
 103        1.1456
 104        1.1469
 105        1.1845
 106        1.1859
 107        1.1859
 108        1.1873
 109        1.2839
 110        1.2863
 111        1.2864
 112        1.2886
 113        1.3440
 114        1.3462
 115        1.3463
 116        1.3483
 117        1.3697
 118        1.3719
 119        1.3719
 120        1.3740
 121        1.4093
 122        1.4107
 123        1.4109
 124        1.4120
 125        1.4320
 126        1.4502
 127        1.4511
 128        1.4535
 129        1.4540
 130        1.4550
 131        1.5020
 132        1.5040
 133        1.5040
 134        1.5062
 135        1.5378
 136        1.5395
 137        1.5396
 138        1.5413
 139        1.6535
 140        1.7319
 141        1.7331
 142        1.7331
 143        1.7343
 144        1.7725
 145        1.8008
 146        1.8017
 147        1.8027
 148        1.8036
 149        1.9622
 150        1.9622
 151        1.9763
 152        1.9792
 153        1.9796
 154        1.9796
 155        1.9800
 156        2.0268
 157        2.0269
 158        2.1067
 159        2.1070
 160        2.1072
 161        2.1073
 162        2.1084
 163        2.1089
 164        2.1332
 165        2.1332
 166        2.1338
 167        2.1339
 168        2.8205
 169        2.8220
 170        2.8220
 171        2.8237
 172        2.8691
 173        2.8705
 174        2.8705
 175        2.8721
 176        3.2974
 177        3.2992
 178        3.2996
 179        3.3013
 180        3.8741
 181        3.8762
 182        3.8762
 183        3.8784
 184        4.7707
 185        5.3265
 186        5.3267
 187        7.4781
 188        7.4788
 189        7.4792
 190        7.4799
 191        8.8235
 192        8.8235
 193        9.0266
 194        9.0307
 195        9.0307
 196        9.0349
 197        9.8650
 198        9.8707
 199        9.8708
 200        9.8764
 201       10.6591
 202       10.6593
 203       10.8124
 204       10.8125
 205       11.1532
 206       11.6084
 207       11.6085
 208       12.1153
 209       12.1200
 210       12.1200
 211       12.1242
 212       12.2604
 213       12.2632
 214       12.2636
 215       12.2664
 216       12.4186
 
  0.1428571E+00  0.1428571E+00  0.0000000E+00  0.2332362E-01
   1       -5.4510
   2       -3.4425
   3       -3.4385
   4       -2.7431
   5       -2.7431
   6       -2.1599
   7       -2.1563
   8       -1.8033
   9       -1.3752
  10       -1.3751
  11       -1.3474
  12       -1.3472
  13       -1.3445
  14       -1.3443
  15       -1.2792
  16       -1.2792
  17       -1.1229
  18       -1.1228
  19       -1.0950
  20       -0.9243
  21       -0.9223
  22       -0.7169
  23       -0.7162
  24       -0.7140
  25       -0.7132
  26       -0.6777
  27       -0.6774
  28       -0.6768
  29       -0.4762
  30       -0.4602
  31       -0.4579
  32       -0.4542
  33       -0.4514
  34       -0.3843
  35       -0.3842
  36       -0.1926
  37       -0.1908
  38       -0.0917
  39       -0.0897
  40       -0.0728
  41       -0.0717
  42       -0.0368
  43       -0.0368
  44        0.0776
  45        0.0777
  46        0.0949
  47        0.0961
  48        0.1037
  49        0.1055
  50        0.1307
  51        0.1492
  52        0.1794
  53        0.1797
  54        0.1815
  55        0.1818
  56        0.1931
  57        0.1932
  58        0.2268
  59        0.2283
  60        0.2286
  61        0.2298
  62        0.2526
  63        0.2741
  64        0.2753
  65        0.2759
  66        0.2772
  67        0.3185
  68        0.3206
  69        0.3944
  70        0.3971
  71        0.4247
  72        0.4255
  73        0.4637
  74        0.4643
  75        0.4656
  76        0.4662
  77        0.5636
  78        0.5686
  79        0.5687
  80        0.6079
  81        0.6079
  82        0.6148
  83        0.6412
  84        0.6412
  85        0.6566
  86        0.6567
  87        0.6639
  88        0.6703
  89        0.8887
  90        0.8888
  91        0.9527
  92        0.9530
  93        0.9967
  94        0.9992
  95        1.0722
  96        1.0728
  97        1.0728
  98        1.0734
  99        1.1144
 100        1.1279
 101        1.1287
 102        1.1295
 103        1.1301
 104        1.1314
 105        1.1317
 106        1.2057
 107        1.2072
 108        1.2084
 109        1.2289
 110        1.2291
 111        1.2365
 112        1.2367
 113        1.2730
 114        1.4072
 115        1.4072
 116        1.4274
 117        1.4384
 118        1.4386
 119        1.4457
 120        1.4468
 121        1.4479
 122        1.4489
 123        1.4498
 124        1.4503
 125        1.4516
 126        1.4525
 127        1.4542
 128        1.4543
 129        1.4560
 130        1.4948
 131        1.4971
 132        1.5280
 133        1.5302
 134        1.5904
 135        1.5905
 136        1.5933
 137        1.5937
 138        1.5942
 139        1.5947
 140        1.6063
 141        1.6645
 142        1.6659
 143        1.7153
 144        1.7153
 145        1.7424
 146        1.7424
 147        1.8078
 148        1.8079
 149        1.9413
 150        1.9419
 151        1.9424
 152        1.9455
 153        1.9884
 154        1.9884
 155        1.9908
 156        1.9908
 157        2.0113
 158        2.0117
 159        2.0843
 160        2.0843
 161        2.1064
 162        2.1067
 163        2.1072
 164        2.1077
 165        2.1084
 166        2.1090
 167        2.1174
 168        2.5191
 169        2.5672
 170        2.5672
 171        2.8587
 172        2.8588
 173        2.8601
 174        2.8602
 175        3.2316
 176        3.2317
 177        3.3471
 178        3.3491
 179        3.8759
 180        3.8767
 181        3.8779
 182        3.8786
 183        4.5339
 184        4.9295
 185        4.9302
 186        5.4788
 187        7.3362
 188        7.3362
 189        7.9293
 190        7.9294
 191        8.1674
 192        8.1703
 193        8.9090
 194        8.9131
 195        8.9260
 196        8.9261
 197        9.2990
 198        9.2991
 199        9.9375
 200        9.9440
 201       10.6826
 202       10.8898
 203       10.8929
 204       11.1823
 205       11.1830
 206       11.4845
 207       11.4855
 208       11.4864
 209       11.4874
 210       11.5582
 211       11.7022
 212       11.7024
 213       12.3392
 214       12.3441
 215       12.7858
 216       12.7931
 
  0.2857143E+00  0.1428571E+00  0.0000000E+00  0.2332362E-01
   1       -5.2686
   2       -4.0394
   3       -3.2822
   4       -2.5990
   5       -2.5990
   6       -2.2623
   7       -2.0239
   8       -1.7121
   9       -1.7120
  10       -1.6402
  11       -1.3892
  12       -1.3891
  13       -1.3578
  14       -1.3577
  15       -1.2268
  16       -1.1942
  17       -1.1942
  18       -1.1312
  19       -1.0389
  20       -1.0140
  21       -0.8289
  22       -0.8289
  23       -0.6307
  24       -0.6270
  25       -0.6269
  26       -0.5923
  27       -0.5874
  28       -0.5774
  29       -0.4853
  30       -0.4853
  31       -0.4126
  32       -0.3855
  33       -0.3454
  34       -0.3300
  35       -0.3207
  36       -0.3206
  37       -0.2752
  38       -0.2656
  39       -0.1639
  40       -0.1247
  41       -0.0532
  42       -0.0146
  43       -0.0144
  44       -0.0103
  45       -0.0101
  46       -0.0018
  47        0.0153
  48        0.0558
  49        0.0952
  50        0.0952
  51        0.1165
  52        0.1252
  53        0.1254
  54        0.1553
  55        0.1931
  56        0.2246
  57        0.2247
  58        0.2472
  59        0.2693
  60        0.2695
  61        0.2910
  62        0.2910
  63        0.3076
  64        0.3153
  65        0.3364
  66        0.3364
  67        0.4061
  68        0.4147
  69        0.4472
  70        0.4473
  71        0.4938
  72        0.4938
  73        0.5128
  74        0.5128
  75        0.5305
  76        0.5305
  77        0.5672
  78        0.5944
  79        0.5945
  80        0.6362
  81        0.6799
  82        0.6799
  83        0.6961
  84        0.7026
  85        0.7098
  86        0.7127
  87        0.7128
  88        0.7250
  89        0.7893
  90        0.7894
  91        0.8227
  92        0.8476
  93        0.9402
  94        0.9534
  95        0.9534
  96        0.9883
  97        1.0186
  98        1.0187
  99        1.1102
 100        1.1103
 101        1.1312
 102        1.1478
 103        1.1666
 104        1.2023
 105        1.2024
 106        1.2035
 107        1.2107
 108        1.2160
 109        1.2164
 110        1.2730
 111        1.2740
 112        1.2980
 113        1.2980
 114        1.3181
 115        1.3262
 116        1.3539
 117        1.3539
 118        1.3859
 119        1.3932
 120        1.3932
 121        1.4310
 122        1.4392
 123        1.4392
 124        1.4526
 125        1.4584
 126        1.4676
 127        1.4706
 128        1.5196
 129        1.5196
 130        1.5451
 131        1.5592
 132        1.5624
 133        1.5833
 134        1.5834
 135        1.6027
 136        1.6218
 137        1.6367
 138        1.6973
 139        1.7012
 140        1.7013
 141        1.7036
 142        1.7037
 143        1.7065
 144        1.7115
 145        1.7203
 146        1.7417
 147        1.8150
 148        1.8150
 149        1.8688
 150        1.8824
 151        1.9090
 152        1.9250
 153        1.9369
 154        1.9370
 155        1.9642
 156        1.9642
 157        1.9729
 158        1.9774
 159        2.0204
 160        2.0204
 161        2.0319
 162        2.0326
 163        2.0365
 164        2.1060
 165        2.1074
 166        2.1085
 167        2.1093
 168        2.2469
 169        2.5149
 170        2.5149
 171        2.5863
 172        2.5864
 173        2.8254
 174        2.8254
 175        2.9174
 176        3.5726
 177        3.5727
 178        3.8753
 179        3.8753
 180        3.9989
 181        4.0514
 182        4.6245
 183        4.6246
 184        5.3430
 185        5.3467
 186        5.8914
 187        7.0105
 188        7.3583
 189        7.5634
 190        7.5634
 191        7.8177
 192        7.8178
 193        8.0194
 194        8.6266
 195        8.6266
 196        8.6509
 197        9.1680
 198        9.3953
 199        9.3953
 200       10.2205
 201       10.2205
 202       10.7536
 203       10.7902
 204       10.8019
 205       10.8020
 206       10.8658
 207       11.1244
 208       11.2733
 209       11.4098
 210       11.8111
 211       11.8111
 212       11.8359
 213       11.9665
 214       11.9774
 215       12.4508
 216       12.6340
 
  0.4285714E+00  0.1428571E+00  0.0000000E+00  0.2332362E-01
   1       -4.9679
   2       -4.5547
   3       -3.0247
   4       -2.6787
   5       -2.3677
   6       -2.3676
   7       -2.0639
   8       -2.0639
   9       -1.8105
  10       -1.5355
  11       -1.3866
  12       -1.3864
  13       -1.3734
  14       -1.3733
  15       -1.3207
  16       -1.1774
  17       -1.0863
  18       -1.0862
  19       -0.9607
  20       -0.9607
  21       -0.9091
  22       -0.8889
  23       -0.7499
  24       -0.7351
  25       -0.5547
  26       -0.5432
  27       -0.5421
  28       -0.4529
  29       -0.4257
  30       -0.4219