 vasp.4.6.28 25Jul05 complex 
 executed on             LinuxIFC date 2016.01.20  17:25:47
 running on    8 nodes
 distr:  one band on    1 nodes,    8 groups


--------------------------------------------------------------------------------------------------------


 INCAR:
 POTCAR:   PAW_PBE Cu 05Jan2001                   
 POTCAR:   PAW_PBE Cu 05Jan2001                   
   VRHFIN =Cu: d10 p1                                                           
   LEXCH  = PE                                                                  
   EATOM  =  1390.9800 eV,  102.2341 Ry                                         
                                                                                
   TITEL  = PAW_PBE Cu 05Jan2001                                                
   LULTRA =        F    use ultrasoft PP ?                                      
   IUNSCR =        1    unscreen: 0-lin 1-nonlin 2-no                           
   RPACOR =    2.000    partial core radius                                     
   POMASS =   63.546; ZVAL   =   11.000    mass and valenz                      
   RCORE  =    2.300    outmost cutoff radius                                   
   RWIGS  =    2.480; RWIGS  =    1.312    wigner-seitz radius (au A)           
   ENMAX  =  273.214; ENMIN  =  204.910 eV                                      
   RCLOC  =    1.712    cutoff for local pot                                    
   LCOR   =        T    correct aug charges                                     
   LPAW   =        T    paw PP                                                  
   EAUG   =  516.456                                                            
   DEXC   =    -.008                                                            
   RMAX   =    2.789    core radius for proj-oper                               
   RAUG   =    1.300    factor for augmentation sphere                          
   RDEP   =    2.302    radius for radial grids                                 
   QCUT   =   -4.481; QGAM   =    8.962    optimization parameters              
                                                                                
   Description                                                                  
     l     E      TYP  RCUT    TYP  RCUT                                        
     2   .000     23  2.300                                                     
     2   .000     23  2.300                                                     
     0   .000     23  2.300                                                     
     0   .000     23  2.300                                                     
     1  -.200     23  2.300                                                     
     1   .000     23  2.300                                                     
     3   .000      7   .000                                                     
  local pseudopotential read in
  partial core-charges read in
  atomic valenz-charges read in
  non local Contribution for L=           2  read in
    real space projection operators read in
  non local Contribution for L=           2  read in
    real space projection operators read in
  non local Contribution for L=           0  read in
    real space projection operators read in
  non local Contribution for L=           0  read in
    real space projection operators read in
  non local Contribution for L=           1  read in
    real space projection operators read in
  non local Contribution for L=           1  read in
    real space projection operators read in
    PAW grid and wavefunctions read in
 
   number of l-projection  operators is LMAX  =           6
   number of lm-projection operators is LMMAX =          18
 

 ----------------------------------------------------------------------------- 
|                                                                             |
|  ADVICE TO THIS USER RUNNING 'VASP/VAMP'   (HEAR YOUR MASTER'S VOICE ...):  |
|                                                                             |
|      You have a (more or less) 'large supercell' and for larger cells       |
|      it might be more efficient to use real space projection operators      |
|      So try LREAL= Auto  in the INCAR   file.                               |
|      Mind: If you want to do an extremely accurate calculations keep the    |
|      reciprocal projection scheme          (i.e. LREAL=.FALSE.)             |
|                                                                             |
 ----------------------------------------------------------------------------- 

 PAW_PBE Cu 05Jan2001                   :
 energy of atom  1       EATOM=-1390.9800
 kinetic energy error for atom=    0.0032 (will be added to EATOM!!)
 
 EXHCAR: internal setup
 exchange correlation table for  LEXCH =        8
   RHO(1)=    0.500       N(1)  =     2000
   RHO(2)=  100.500       N(2)  =     4000
 
 POSCAR: Cu                                      
  positions in direct lattice
  No initial velocities read in
 


--------------------------------------------------------------------------------------------------------


 ion  position               nearest neighbor table
   1  0.002  0.000  0.000-   9 2.56  11 2.56  17 2.56  21 2.56  25 2.57  27 2.57  29 2.57  31 2.57
                            10 2.58  18 2.58  12 2.58  22 2.58
   2  0.500  0.000  0.000-   9 2.57  10 2.57  11 2.57  12 2.57  17 2.57  18 2.57  21 2.57  22 2.57
                            26 2.57  28 2.57  30 2.57  32 2.57
   3  0.000  0.500  0.000-   9 2.57  10 2.57  11 2.57  12 2.57  19 2.57  20 2.57  23 2.57  24 2.57
                            25 2.57  27 2.57  29 2.57  31 2.57
   4  0.500  0.500  0.000-   9 2.57  10 2.57  11 2.57  12 2.57  19 2.57  20 2.57  23 2.57  24 2.57
                            26 2.57  28 2.57  30 2.57  32 2.57
   5  0.000  0.000  0.500-  13 2.57  14 2.57  15 2.57  16 2.57  17 2.57  18 2.57  21 2.57  22 2.57
                            25 2.57  27 2.57  29 2.57  31 2.57
   6  0.500  0.000  0.500-  13 2.57  14 2.57  15 2.57  16 2.57  17 2.57  18 2.57  21 2.57  22 2.57
                            26 2.57  28 2.57  30 2.57  32 2.57
   7  0.000  0.500  0.500-  13 2.57  14 2.57  15 2.57  16 2.57  19 2.57  20 2.57  23 2.57  24 2.57
                            25 2.57  27 2.57  29 2.57  31 2.57
   8  0.500  0.500  0.500-  13 2.57  14 2.57  15 2.57  16 2.57  19 2.57  20 2.57  23 2.57  24 2.57
                            26 2.57  28 2.57  30 2.57  32 2.57
   9  0.250  0.250  0.000-   1 2.56   2 2.57   3 2.57   4 2.57  17 2.57  19 2.57  21 2.57  23 2.57
                            25 2.57  26 2.57  29 2.57  30 2.57
  10  0.750  0.250  0.000-   2 2.57   3 2.57   4 2.57  18 2.57  20 2.57  22 2.57  24 2.57  25 2.57
                            26 2.57  29 2.57  30 2.57   1 2.58
  11  0.250  0.750  0.000-   1 2.56   2 2.57   3 2.57   4 2.57  17 2.57  19 2.57  21 2.57  23 2.57
                            27 2.57  28 2.57  31 2.57  32 2.57
  12  0.750  0.750  0.000-   2 2.57   3 2.57   4 2.57  18 2.57  20 2.57  22 2.57  24 2.57  27 2.57
                            28 2.57  31 2.57  32 2.57   1 2.58
  13  0.250  0.250  0.500-   5 2.57   6 2.57   7 2.57   8 2.57  17 2.57  19 2.57  21 2.57  23 2.57
                            25 2.57  26 2.57  29 2.57  30 2.57
  14  0.750  0.250  0.500-   5 2.57   6 2.57   7 2.57   8 2.57  18 2.57  20 2.57  22 2.57  24 2.57
                            25 2.57  26 2.57  29 2.57  30 2.57
  15  0.250  0.750  0.500-   5 2.57   6 2.57   7 2.57   8 2.57  17 2.57  19 2.57  21 2.57  23 2.57
                            27 2.57  28 2.57  31 2.57  32 2.57
  16  0.750  0.750  0.500-   5 2.57   6 2.57   7 2.57   8 2.57  18 2.57  20 2.57  22 2.57  24 2.57
                            27 2.57  28 2.57  31 2.57  32 2.57
  17  0.250  0.000  0.250-   1 2.56   2 2.57   5 2.57   6 2.57   9 2.57  11 2.57  13 2.57  15 2.57
                            25 2.57  26 2.57  27 2.57  28 2.57
  18  0.750  0.000  0.250-   2 2.57   5 2.57   6 2.57  10 2.57  12 2.57  14 2.57  16 2.57  25 2.57
                            26 2.57  27 2.57  28 2.57   1 2.58
  19  0.250  0.500  0.250-   3 2.57   4 2.57   7 2.57   8 2.57   9 2.57  11 2.57  13 2.57  15 2.57
                            25 2.57  26 2.57  27 2.57  28 2.57
  20  0.750  0.500  0.250-   3 2.57   4 2.57   7 2.57   8 2.57  10 2.57  12 2.57  14 2.57  16 2.57
                            25 2.57  26 2.57  27 2.57  28 2.57
  21  0.250  0.000  0.750-   1 2.56   2 2.57   5 2.57   6 2.57   9 2.57  11 2.57  13 2.57  15 2.57
                            29 2.57  30 2.57  31 2.57  32 2.57
  22  0.750  0.000  0.750-   2 2.57   5 2.57   6 2.57  10 2.57  12 2.57  14 2.57  16 2.57  29 2.57
                            30 2.57  31 2.57  32 2.57   1 2.58
  23  0.250  0.500  0.750-   3 2.57   4 2.57   7 2.57   8 2.57   9 2.57  11 2.57  13 2.57  15 2.57
                            29 2.57  30 2.57  31 2.57  32 2.57
  24  0.750  0.500  0.750-   3 2.57   4 2.57   7 2.57   8 2.57  10 2.57  12 2.57  14 2.57  16 2.57
                            29 2.57  30 2.57  31 2.57  32 2.57
  25  0.000  0.250  0.250-   3 2.57   5 2.57   7 2.57   9 2.57  10 2.57  13 2.57  14 2.57  17 2.57
                            18 2.57  19 2.57  20 2.57   1 2.57
  26  0.500  0.250  0.250-   2 2.57   4 2.57   6 2.57   8 2.57   9 2.57  10 2.57  13 2.57  14 2.57
                            17 2.57  18 2.57  19 2.57  20 2.57
  27  0.000  0.750  0.250-   3 2.57   5 2.57   7 2.57  11 2.57  12 2.57  15 2.57  16 2.57  17 2.57
                            18 2.57  19 2.57  20 2.57   1 2.57
  28  0.500  0.750  0.250-   2 2.57   4 2.57   6 2.57   8 2.57  11 2.57  12 2.57  15 2.57  16 2.57
                            17 2.57  18 2.57  19 2.57  20 2.57
  29  0.000  0.250  0.750-   3 2.57   5 2.57   7 2.57   9 2.57  10 2.57  13 2.57  14 2.57  21 2.57
                            22 2.57  23 2.57  24 2.57   1 2.57
  30  0.500  0.250  0.750-   2 2.57   4 2.57   6 2.57   8 2.57   9 2.57  10 2.57  13 2.57  14 2.57
                            21 2.57  22 2.57  23 2.57  24 2.57
  31  0.000  0.750  0.750-   3 2.57   5 2.57   7 2.57  11 2.57  12 2.57  15 2.57  16 2.57  21 2.57
                            22 2.57  23 2.57  24 2.57   1 2.57
  32  0.500  0.750  0.750-   2 2.57   4 2.57   6 2.57   8 2.57  11 2.57  12 2.57  15 2.57  16 2.57
                            21 2.57  22 2.57  23 2.57  24 2.57
 
  LATTYP: Found a simple cubic cell.
 ALAT       =     7.2728316235
  
  Lattice vectors:
  
 A1 = (   7.2728316235,   0.0000000000,   0.0000000000)
 A2 = (   0.0000000000,   7.2728316235,   0.0000000000)
 A3 = (   0.0000000000,   0.0000000000,   7.2728316235)
 Subroutine PRICEL returns:
 Original cell was already a primitive cell.
 

Analysis of symmetry for initial positions (statically):

 Routine SETGRP: Setting up the symmetry group for a 
 simple cubic supercell.


 Subroutine GETGRP returns: Found  8 space group operations
 (whereof  8 operations were pure point group operations)
 out of a pool of 48 trial point group operations.


The static configuration has the point symmetry C_4v.

Analysis of symmetry for dynamics (positions and initial velocities):

 Subroutine DYNSYM returns: Found  8 space group operations
 (whereof  8 operations were pure point group operations)
 out of a pool of  8 trial space group operations
 (whereof  8 operations were pure point group operations)
 and found also     1 'primitive' translations


The dynamic configuration has the point symmetry C_4v.
 
 
 KPOINTS: Automatic mesh                          

Automatic generation of k-mesh.
 generate k-points for:   7   7   7
 
 Subroutine IBZKPT returns following result:
 ===========================================
 
 Found     40 irreducible k-points:
 
 Following reciprocal coordinates:
            Coordinates               Weight
  0.000000  0.000000  0.000000      1.000000
  0.142857  0.000000  0.000000      2.000000
  0.285714  0.000000  0.000000      2.000000
  0.428571  0.000000  0.000000      2.000000
  0.000000  0.142857  0.000000      4.000000
  0.142857  0.142857  0.000000      8.000000
  0.285714  0.142857  0.000000      8.000000
  0.428571  0.142857  0.000000      8.000000
  0.000000  0.285714  0.000000      4.000000
  0.142857  0.285714  0.000000      8.000000
  0.285714  0.285714  0.000000      8.000000
  0.428571  0.285714  0.000000      8.000000
  0.000000  0.428571  0.000000      4.000000
  0.142857  0.428571  0.000000      8.000000
  0.285714  0.428571  0.000000      8.000000
  0.428571  0.428571  0.000000      8.000000
  0.000000  0.142857  0.142857      4.000000
  0.142857  0.142857  0.142857      8.000000
  0.285714  0.142857  0.142857      8.000000
  0.428571  0.142857  0.142857      8.000000
  0.000000  0.285714  0.142857      8.000000
  0.142857  0.285714  0.142857     16.000000
  0.285714  0.285714  0.142857     16.000000
  0.428571  0.285714  0.142857     16.000000
  0.000000  0.428571  0.142857      8.000000
  0.142857  0.428571  0.142857     16.000000
  0.285714  0.428571  0.142857     16.000000
  0.428571  0.428571  0.142857     16.000000
  0.000000  0.285714  0.285714      4.000000
  0.142857  0.285714  0.285714      8.000000
  0.285714  0.285714  0.285714      8.000000
  0.428571  0.285714  0.285714      8.000000
  0.000000  0.428571  0.285714      8.000000
  0.142857  0.428571  0.285714     16.000000
  0.285714  0.428571  0.285714     16.000000
  0.428571  0.428571  0.285714     16.000000
  0.000000  0.428571  0.428571      4.000000
  0.142857  0.428571  0.428571      8.000000
  0.285714  0.428571  0.428571      8.000000
  0.428571  0.428571  0.428571      8.000000
 
 Following cartesian coordinates:
            Coordinates               Weight
  0.000000  0.000000  0.000000      1.000000
  0.019643  0.000000  0.000000      2.000000
  0.039285  0.000000  0.000000      2.000000
  0.058928  0.000000  0.000000      2.000000
  0.000000  0.019643  0.000000      4.000000
  0.019643  0.019643  0.000000      8.000000
  0.039285  0.019643  0.000000      8.000000
  0.058928  0.019643  0.000000      8.000000
  0.000000  0.039285  0.000000      4.000000
  0.019643  0.039285  0.000000      8.000000
  0.039285  0.039285  0.000000      8.000000
  0.058928  0.039285  0.000000      8.000000
  0.000000  0.058928  0.000000      4.000000
  0.019643  0.058928  0.000000      8.000000
  0.039285  0.058928  0.000000      8.000000
  0.058928  0.058928  0.000000      8.000000
  0.000000  0.019643  0.019643      4.000000
  0.019643  0.019643  0.019643      8.000000
  0.039285  0.019643  0.019643      8.000000
  0.058928  0.019643  0.019643      8.000000
  0.000000  0.039285  0.019643      8.000000
  0.019643  0.039285  0.019643     16.000000
  0.039285  0.039285  0.019643     16.000000
  0.058928  0.039285  0.019643     16.000000
  0.000000  0.058928  0.019643      8.000000
  0.019643  0.058928  0.019643     16.000000
  0.039285  0.058928  0.019643     16.000000
  0.058928  0.058928  0.019643     16.000000
  0.000000  0.039285  0.039285      4.000000
  0.019643  0.039285  0.039285      8.000000
  0.039285  0.039285  0.039285      8.000000
  0.058928  0.039285  0.039285      8.000000
  0.000000  0.058928  0.039285      8.000000
  0.019643  0.058928  0.039285     16.000000
  0.039285  0.058928  0.039285     16.000000
  0.058928  0.058928  0.039285     16.000000
  0.000000  0.058928  0.058928      4.000000
  0.019643  0.058928  0.058928      8.000000
  0.039285  0.058928  0.058928      8.000000
  0.058928  0.058928  0.058928      8.000000
 


--------------------------------------------------------------------------------------------------------




 Dimension of arrays:
   k-Points           NKPTS =     40   number of bands    NBANDS=    216
   number of dos      NEDOS =    301   number of ions     NIONS =     32
   non local maximal  LDIM  =      6   non local SUM 2l+1 LMDIM =     18
   total plane-waves  NPLWV = 157464
   max r-space proj   IRMAX =      1   max aug-charges    IRDMAX= 115115
   dimension x,y,z NGX =    54 NGY =   54 NGZ =   54
   dimension x,y,z NGXF=   108 NGYF=  108 NGZF=  108
   support grid    NGXF=   216 NGYF=  216 NGZF=  216
   ions per type =              32
 NGX,Y,Z   is equivalent  to a cutoff of  12.34, 12.34, 12.34 a.u.
 NGXF,Y,Z  is equivalent  to a cutoff of  24.69, 24.69, 24.69 a.u.


 I would recommend the setting:
   dimension x,y,z NGX =    53 NGY =   53 NGZ =   53
 SYSTEM =  unknown system                          
 POSCAR =  Cu                                      

 Startparameter for this run:
   NWRITE =      2    write-flag & timer
   PREC   = accura    medium, high low
   ISTART =      0    job   : 0-new  1-cont  2-samecut
   ICHARG =      2    charge: 1-file 2-atom 10-const
   ISPIN  =      1    spin polarized calculation?
   LNONCOLLINEAR =      F non collinear calculations
   LSORBIT =      F    spin-orbit coupling
   INIWAV =      1    electr: 0-lowe 1-rand  2-diag
   LASPH  =      F    aspherical Exc in radial PAW
   METAGGA=      F    non-selfconsistent MetaGGA calc.

 Electronic Relaxation 1
   ENCUT  =  500.0 eV  36.75 Ry    6.06 a.u.  13.26 13.26 13.26*2*pi/ulx,y,z
   ENINI  =  500.0     initial cutoff
   ENAUG  =  516.5 eV  augmentation charge cutoff
   NELM   =     60;   NELMIN=  2; NELMDL=  0     # of ELM steps 
   EDIFF  = 0.1E-07   stopping-criterion for ELM
   LREAL  =      F    real-space projection
   LCOMPAT=      F    compatible to vasp.4.4
   LREAL_COMPAT= F    compatible to vasp.4.5.1-3
   GGA_COMPAT  = T    GGA compatible to vasp.4.4-vasp.4.6
   LMAXPAW     = -100 max onsite density
   LMAXMIX     =    2 max onsite mixed and CHGCAR
   VOSKOWN=      0    Vosko Wilk Nusair interpolation
   ROPT   =    0.00000
 Ionic relaxation
   EDIFFG = 0.1E-06   stopping-criterion for IOM
   NSW    =      0    number of steps for IOM
   NBLOCK =      1;   KBLOCK =      1    inner block; outer block 
   IBRION =     -1    ionic relax: 0-MD 1-quasi-New 2-CG
   NFREE  =      0    steps in history (QN), initial steepest desc. (CG)
   ISIF   =      2    stress and relaxation
   IWAVPR =     10    prediction:  0-non 1-charg 2-wave 3-comb
   ISYM   =      2    0-nonsym 1-usesym 2-fastsym
   LCORR  =      T    Harris-Foulkes like correction to forces

   POTIM  =   0.50    time-step for ionic-motion
   TEIN   =    0.0    initial temperature
   TEBEG  =    0.0;   TEEND  =   0.0 temperature during run
   SMASS  =  -3.00    Nose mass-parameter (am)
   estimated Nose-frequenzy (Omega)   =  0.10E-29 period in steps =****** mass=  -0.121E-26a.u.
   NPACO  =    256;   APACO  = 16.0  distance and # of slots for P.C.
   PSTRESS=    0.0 pullay stress

  Mass of Ions in am
   POMASS =  63.55
  Ionic Valenz
   ZVAL   =  11.00
  Atomic Wigner-Seitz radii
   RWIGS  =  -1.00
   NELECT =     352.0000    total number of electrons
   NUPDOWN=      -1.0000    fix difference up-down

 DOS related values:
   EMIN   =  10.00;   EMAX   =-10.00  energy-range for DOS
   ISMEAR =     0;   SIGMA  =   0.01  broadening in eV -4-tet -1-fermi 0-gaus

 Electronic relaxation 2 (details)
   IALGO  =     38    algorithm
   LDIAG  =      T    sub-space diagonalisation
   IMIX   =      4    mixing-type and parameters
     AMIX     =   0.40;   BMIX     =  1.00
     AMIX_MAG =   1.60;   BMIX_MAG =  1.00
     AMIN     =   0.10
     WC   =   100.;   INIMIX=   1;  MIXPRE=   1

 Intra band minimization:
   WEIMIN = 0.0000     energy-eigenvalue tresh-hold
   EBREAK =  0.12E-10  absolut break condition
   DEPER  =   0.30     relativ break condition  

   TIME   =   0.10     timestep for ELM

  volume/ion in A,a.u.               =      12.02        81.13
  Fermi-wavevector in a.u.,eV,Ry     =   1.589347 34.368661  2.526025

 Second variation
   LSECVAR=     F    do a second variation
 
 Write flags
   LWAVE  =      F    write WAVECAR
   LCHARG =      F    write CHGCAR
   LVTOT  =      F    write LOCPOT, local potential
   LELF   =      F    write electronic localiz. function (ELF)
   LORBIT =      0    0 simple, 1 ext, 2 COOP (PROOUT)


 Dipole corrections
   IDIPOL =      0    1-x, 2-y, 3-z
   LDIPOL =      F    correct potential



--------------------------------------------------------------------------------------------------------


 Static calculation
 charge density will be updated during run
 non-spin polarized calculation
 Variant of blocked Davidson
 Davidson routine will perform the subspace rotation
 performe sub-space diagonalisation
    after iterative eigenvector-optimisation
 modified Broyden-mixing scheme, WC =      100.0
 initial mixing is a Kerker type mixing with AMIX =  0.4000 and BMIX =      1.0000
 Hartree-type preconditioning will be used
 using additional bands           40
 reciprocal scheme for non local part
 use partial core corrections
 calculate Harris-corrections to forces 
   (improved forces if not selfconsistent)
 use gradient corrections 
 use of overlap-Matrix (Vanderbilt PP)
 Gauss-broadening in eV      SIGMA  =   0.01


--------------------------------------------------------------------------------------------------------


  energy-cutoff  :      500.00
  volume of cell :      384.69
      direct lattice vectors                 reciprocal lattice vectors
     7.272831623  0.000000000  0.000000000     0.137498027  0.000000000  0.000000000
     0.000000000  7.272831623  0.000000000     0.000000000  0.137498027  0.000000000
     0.000000000  0.000000000  7.272831623     0.000000000  0.000000000  0.137498027

  length of vectors
     7.272831623  7.272831623  7.272831623     0.137498027  0.137498027  0.137498027


 
 k-points in units of 2pi/SCALE and weight: Automatic mesh                          
   0.00000000  0.00000000  0.00000000       0.003
   0.01964258  0.00000000  0.00000000       0.006
   0.03928515  0.00000000  0.00000000       0.006
   0.05892773  0.00000000  0.00000000       0.006
   0.00000000  0.01964258  0.00000000       0.012
   0.01964258  0.01964258  0.00000000       0.023
   0.03928515  0.01964258  0.00000000       0.023
   0.05892773  0.01964258  0.00000000       0.023
   0.00000000  0.03928515  0.00000000       0.012
   0.01964258  0.03928515  0.00000000       0.023
   0.03928515  0.03928515  0.00000000       0.023
   0.05892773  0.03928515  0.00000000       0.023
   0.00000000  0.05892773  0.00000000       0.012
   0.01964258  0.05892773  0.00000000       0.023
   0.03928515  0.05892773  0.00000000       0.023
   0.05892773  0.05892773  0.00000000       0.023
   0.00000000  0.01964258  0.01964258       0.012
   0.01964258  0.01964258  0.01964258       0.023
   0.03928515  0.01964258  0.01964258       0.023
   0.05892773  0.01964258  0.01964258       0.023
   0.00000000  0.03928515  0.01964258       0.023
   0.01964258  0.03928515  0.01964258       0.047
   0.03928515  0.03928515  0.01964258       0.047
   0.05892773  0.03928515  0.01964258       0.047
   0.00000000  0.05892773  0.01964258       0.023
   0.01964258  0.05892773  0.01964258       0.047
   0.03928515  0.05892773  0.01964258       0.047
   0.05892773  0.05892773  0.01964258       0.047
   0.00000000  0.03928515  0.03928515       0.012
   0.01964258  0.03928515  0.03928515       0.023
   0.03928515  0.03928515  0.03928515       0.023
   0.05892773  0.03928515  0.03928515       0.023
   0.00000000  0.05892773  0.03928515       0.023
   0.01964258  0.05892773  0.03928515       0.047
   0.03928515  0.05892773  0.03928515       0.047
   0.05892773  0.05892773  0.03928515       0.047
   0.00000000  0.05892773  0.05892773       0.012
   0.01964258  0.05892773  0.05892773       0.023
   0.03928515  0.05892773  0.05892773       0.023
   0.05892773  0.05892773  0.05892773       0.023
 
 k-points in reciprocal lattice and weights: Automatic mesh                          
   0.00000000  0.00000000  0.00000000       0.003
   0.14285714  0.00000000  0.00000000       0.006
   0.28571429  0.00000000  0.00000000       0.006
   0.42857143  0.00000000  0.00000000       0.006
   0.00000000  0.14285714  0.00000000       0.012
   0.14285714  0.14285714  0.00000000       0.023
   0.28571429  0.14285714  0.00000000       0.023
   0.42857143  0.14285714  0.00000000       0.023
   0.00000000  0.28571429  0.00000000       0.012
   0.14285714  0.28571429  0.00000000       0.023
   0.28571429  0.28571429  0.00000000       0.023
   0.42857143  0.28571429  0.00000000       0.023
   0.00000000  0.42857143  0.00000000       0.012
   0.14285714  0.42857143  0.00000000       0.023
   0.28571429  0.42857143  0.00000000       0.023
   0.42857143  0.42857143  0.00000000       0.023
   0.00000000  0.14285714  0.14285714       0.012
   0.14285714  0.14285714  0.14285714       0.023
   0.28571429  0.14285714  0.14285714       0.023
   0.42857143  0.14285714  0.14285714       0.023
   0.00000000  0.28571429  0.14285714       0.023
   0.14285714  0.28571429  0.14285714       0.047
   0.28571429  0.28571429  0.14285714       0.047
   0.42857143  0.28571429  0.14285714       0.047
   0.00000000  0.42857143  0.14285714       0.023
   0.14285714  0.42857143  0.14285714       0.047
   0.28571429  0.42857143  0.14285714       0.047
   0.42857143  0.42857143  0.14285714       0.047
   0.00000000  0.28571429  0.28571429       0.012
   0.14285714  0.28571429  0.28571429       0.023
   0.28571429  0.28571429  0.28571429       0.023
   0.42857143  0.28571429  0.28571429       0.023
   0.00000000  0.42857143  0.28571429       0.023
   0.14285714  0.42857143  0.28571429       0.047
   0.28571429  0.42857143  0.28571429       0.047
   0.42857143  0.42857143  0.28571429       0.047
   0.00000000  0.42857143  0.42857143       0.012
   0.14285714  0.42857143  0.42857143       0.023
   0.28571429  0.42857143  0.42857143       0.023
   0.42857143  0.42857143  0.42857143       0.023
 
 position of ions in fractional coordinates (direct lattice) 
   0.00250000  0.00000000  0.00000000
   0.50000000  0.00000000  0.00000000
   0.00000000  0.50000000  0.00000000
   0.50000000  0.50000000  0.00000000
   0.00000000  0.00000000  0.50000000
   0.50000000  0.00000000  0.50000000
   0.00000000  0.50000000  0.50000000
   0.50000000  0.50000000  0.50000000
   0.25000000  0.25000000  0.00000000
   0.75000000  0.25000000  0.00000000
   0.25000000  0.75000000  0.00000000
   0.75000000  0.75000000  0.00000000
   0.25000000  0.25000000  0.50000000
   0.75000000  0.25000000  0.50000000
   0.25000000  0.75000000  0.50000000
   0.75000000  0.75000000  0.50000000
   0.25000000  0.00000000  0.25000000
   0.75000000  0.00000000  0.25000000
   0.25000000  0.50000000  0.25000000
   0.75000000  0.50000000  0.25000000
   0.25000000  0.00000000  0.75000000
   0.75000000  0.00000000  0.75000000
   0.25000000  0.50000000  0.75000000
   0.75000000  0.50000000  0.75000000
   0.00000000  0.25000000  0.25000000
   0.50000000  0.25000000  0.25000000
   0.00000000  0.75000000  0.25000000
   0.50000000  0.75000000  0.25000000
   0.00000000  0.25000000  0.75000000
   0.50000000  0.25000000  0.75000000
   0.00000000  0.75000000  0.75000000
   0.50000000  0.75000000  0.75000000
 
 position of ions in cartesian coordinates  (Angst):
   0.01818208  0.00000000  0.00000000
   3.63641581  0.00000000  0.00000000
   0.00000000  3.63641581  0.00000000
   3.63641581  3.63641581  0.00000000
   0.00000000  0.00000000  3.63641581
   3.63641581  0.00000000  3.63641581
   0.00000000  3.63641581  3.63641581
   3.63641581  3.63641581  3.63641581
   1.81820791  1.81820791  0.00000000
   5.45462372  1.81820791  0.00000000
   1.81820791  5.45462372  0.00000000
   5.45462372  5.45462372  0.00000000
   1.81820791  1.81820791  3.63641581
   5.45462372  1.81820791  3.63641581
   1.81820791  5.45462372  3.63641581
   5.45462372  5.45462372  3.63641581
   1.81820791  0.00000000  1.81820791
   5.45462372  0.00000000  1.81820791
   1.81820791  3.63641581  1.81820791
   5.45462372  3.63641581  1.81820791
   1.81820791  0.00000000  5.45462372
   5.45462372  0.00000000  5.45462372
   1.81820791  3.63641581  5.45462372
   5.45462372  3.63641581  5.45462372
   0.00000000  1.81820791  1.81820791
   3.63641581  1.81820791  1.81820791
   0.00000000  5.45462372  1.81820791
   3.63641581  5.45462372  1.81820791
   0.00000000  1.81820791  5.45462372
   3.63641581  1.81820791  5.45462372
   0.00000000  5.45462372  5.45462372
   3.63641581  5.45462372  5.45462372
 


--------------------------------------------------------------------------------------------------------


 k-point  1 :  0.00000.00000.0000  plane waves:   9771
 k-point  2 :  0.14290.00000.0000  plane waves:   9759
 k-point  3 :  0.28570.00000.0000  plane waves:   9758
 k-point  4 :  0.42860.00000.0000  plane waves:   9782
 k-point  5 :  0.00000.14290.0000  plane waves:   9759
 k-point  6 :  0.14290.14290.0000  plane waves:   9761
 k-point  7 :  0.28570.14290.0000  plane waves:   9762
 k-point  8 :  0.42860.14290.0000  plane waves:   9784
 k-point  9 :  0.00000.28570.0000  plane waves:   9758
 k-point 10 :  0.14290.28570.0000  plane waves:   9762
 k-point 11 :  0.28570.28570.0000  plane waves:   9731
 k-point 12 :  0.42860.28570.0000  plane waves:   9769
 k-point 13 :  0.00000.42860.0000  plane waves:   9782
 k-point 14 :  0.14290.42860.0000  plane waves:   9784
 k-point 15 :  0.28570.42860.0000  plane waves:   9769
 k-point 16 :  0.42860.42860.0000  plane waves:   9748
 k-point 17 :  0.00000.14290.1429  plane waves:   9761
 k-point 18 :  0.14290.14290.1429  plane waves:   9777
 k-point 19 :  0.28570.14290.1429  plane waves:   9765
 k-point 20 :  0.42860.14290.1429  plane waves:   9767
 k-point 21 :  0.00000.28570.1429  plane waves:   9762
 k-point 22 :  0.14290.28570.1429  plane waves:   9765
 k-point 23 :  0.28570.28570.1429  plane waves:   9760
 k-point 24 :  0.42860.28570.1429  plane waves:   9773
 k-point 25 :  0.00000.42860.1429  plane waves:   9784
 k-point 26 :  0.14290.42860.1429  plane waves:   9767
 k-point 27 :  0.28570.42860.1429  plane waves:   9773
 k-point 28 :  0.42860.42860.1429  plane waves:   9767
 k-point 29 :  0.00000.28570.2857  plane waves:   9731
 k-point 30 :  0.14290.28570.2857  plane waves:   9760
 k-point 31 :  0.28570.28570.2857  plane waves:   9762
 k-point 32 :  0.42860.28570.2857  plane waves:   9775
 k-point 33 :  0.00000.42860.2857  plane waves:   9769
 k-point 34 :  0.14290.42860.2857  plane waves:   9773
 k-point 35 :  0.28570.42860.2857  plane waves:   9775
 k-point 36 :  0.42860.42860.2857  plane waves:   9759
 k-point 37 :  0.00000.42860.4286  plane waves:   9748
 k-point 38 :  0.14290.42860.4286  plane waves:   9767
 k-point 39 :  0.28570.42860.4286  plane waves:   9759
 k-point 40 :  0.42860.42860.4286  plane waves:   9787

 maximum and minimum number of plane-waves per node :   9787  9731

 maximum number of plane-waves:   9787
 maximal index in each direction: 
   IXMAX= 13   IYMAX= 13   IZMAX= 13
   IXMIN=-13   IYMIN=-13   IZMIN=-13

 NGX is ok and might be reduce to  54
 NGY is ok and might be reduce to  54
 NGZ is ok and might be reduce to  54

 parallel 3dFFT wavefunction:
    minimum data exchange during FFTs selected (reduces bandwidth)
 parallel 3dFFT charge:
    minimum data exchange during FFTs selected (reduces bandwidth)

 For storing wavefunctions 1350.00 MBYTES are necessary
 For predicting wavefunctions   73.63 MBYTES are necessary
Broyden mixing: mesh for mixing (old mesh)
   NGX = 27   NGY = 27   NGZ = 27
  (NGX  =108   NGY  =108   NGZ  =108)
 gives a total of  19683 points
 initial charge density was supplied:
 charge density of overlapping atoms calculated
 number of electron  352.0000000 magnetization 
 keeping initial charge density in first step


--------------------------------------------------------------------------------------------------------


 Maximum index for augmentation-charges        14000 (set IRDMAX)


--------------------------------------------------------------------------------------------------------


 First call to EWALD:  gamma=   0.244
 Maximum number of real-space cells 3x 3x 3
 Maximum number of reciprocal cells 3x 3x 3

    FEWALD:  VPU time    0.01: CPU time    0.01


----------------------------------------- Iteration    1(   1)  ---------------------------------------


    POTLOK:  VPU time    0.45: CPU time    0.46
    SETDIJ:  VPU time    1.07: CPU time    1.07
    EDDAV :  VPU time  438.37: CPU time  440.67
    DOS   :  VPU time    0.00: CPU time   -0.00
    ------------------------------------------
      LOOP:  VPU time  439.95: CPU time  442.27

 eigenvalue-minimisations  : 17280
 total energy-change (2. order) : 0.3264063E+04  (-0.1450964E+05)
 number of electron  352.0000000 magnetization 
 augmentation part   352.0000000 magnetization 

 Free energy of the ion-electron system (eV)
  ---------------------------------------------------
  alpha Z        PSCENC =      3400.89143748
  Ewald energy   TEWEN  =    -35149.00326928
  -1/2 Hartree   DENC   =    -10547.96656640
  -V(xc)+E(xc)   XCENC  =      1403.29638271
  PAW double counting   =     34625.67335558   -39234.46421604
  entropy T*S    EENTRO =        -0.00017756
  eigenvalues    EBANDS =      4254.37744980
  atomic energy  EATOM  =     44511.25856501
  ---------------------------------------------------
  free energy    TOTEN  =      3264.06296129 eV

  energy without entropy =     3264.06313886  energy(sigma->0) =     3264.06305007


--------------------------------------------------------------------------------------------------------




----------------------------------------- Iteration    1(   2)  ---------------------------------------


    EDDAV :  VPU time  438.53: CPU time  440.81
    DOS   :  VPU time   -0.00: CPU time   -0.00
    ------------------------------------------
      LOOP:  VPU time  438.59: CPU time  440.88

 eigenvalue-minimisations  : 17280
 total energy-change (2. order) :-0.2949616E+04  (-0.2828966E+04)
 number of electron  352.0000000 magnetization 
 augmentation part   352.0000000 magnetization 

 Free energy of the ion-electron system (eV)
  ---------------------------------------------------
  alpha Z        PSCENC =      3400.89143748
  Ewald energy   TEWEN  =    -35149.00326928
  -1/2 Hartree   DENC   =    -10547.96656640
  -V(xc)+E(xc)   XCENC  =      1403.29638271
  PAW double counting   =     34625.67335558   -39234.46421604
  entropy T*S    EENTRO =        -0.00042643
  eigenvalues    EBANDS =      1304.76215106
  atomic energy  EATOM  =     44511.25856501
  ---------------------------------------------------
  free energy    TOTEN  =       314.44741368 eV

  energy without entropy =      314.44784012  energy(sigma->0) =      314.44762690


--------------------------------------------------------------------------------------------------------




----------------------------------------- Iteration    1(   3)  ---------------------------------------


    EDDAV :  VPU time  438.19: CPU time  440.47
    DOS   :  VPU time    0.00: CPU time   -0.00
    ------------------------------------------
      LOOP:  VPU time  438.25: CPU time  440.53

 eigenvalue-minimisations  : 17280
 total energy-change (2. order) :-0.4372222E+03  (-0.3944480E+03)
 number of electron  352.0000000 magnetization 
 augmentation part   352.0000000 magnetization 

 Free energy of the ion-electron system (eV)
  ---------------------------------------------------
  alpha Z        PSCENC =      3400.89143748
  Ewald energy   TEWEN  =    -35149.00326928
  -1/2 Hartree   DENC   =    -10547.96656640
  -V(xc)+E(xc)   XCENC  =      1403.29638271
  PAW double counting   =     34625.67335558   -39234.46421604
  entropy T*S    EENTRO =        -0.00099989
  eigenvalues    EBANDS =       867.54048416
  atomic energy  EATOM  =     44511.25856501
  ---------------------------------------------------
  free energy    TOTEN  =      -122.77482669 eV

  energy without entropy =     -122.77382679  energy(sigma->0) =     -122.77432674


--------------------------------------------------------------------------------------------------------




----------------------------------------- Iteration    1(   4)  ---------------------------------------


    EDDAV :  VPU time  463.37: CPU time  465.80
    DOS   :  VPU time    0.00: CPU time   -0.00
    ------------------------------------------
      LOOP:  VPU time  463.43: CPU time  465.86

 eigenvalue-minimisations  : 18456
 total energy-change (2. order) :-0.2373260E+02  (-0.2322238E+02)
 number of electron  352.0000000 magnetization 
 augmentation part   352.0000000 magnetization 

 Free energy of the ion-electron system (eV)
  ---------------------------------------------------
  alpha Z        PSCENC =      3400.89143748
  Ewald energy   TEWEN  =    -35149.00326928
  -1/2 Hartree   DENC   =    -10547.96656640
  -V(xc)+E(xc)   XCENC  =      1403.29638271
  PAW double counting   =     34625.67335558   -39234.46421604
  entropy T*S    EENTRO =        -0.00120218
  eigenvalues    EBANDS =       843.80808753
  atomic energy  EATOM  =     44511.25856501
  ---------------------------------------------------
  free energy    TOTEN  =      -146.50742559 eV

  energy without entropy =     -146.50622341  energy(sigma->0) =     -146.50682450


--------------------------------------------------------------------------------------------------------




----------------------------------------- Iteration    1(   5)  ---------------------------------------


    EDDAV :  VPU time  465.49: CPU time  467.89
    DOS   :  VPU time   -0.00: CPU time   -0.00
    CHARGE:  VPU time   19.11: CPU time   19.22
    MIXING:  VPU time    0.02: CPU time    0.02
    ------------------------------------------
      LOOP:  VPU time  484.68: CPU time  487.20

 eigenvalue-minimisations  : 18512
 total energy-change (2. order) :-0.1899332E+00  (-0.1896324E+00)
 number of electron  351.9999998 magnetization 
 augmentation part   214.2804942 magnetization 

 Broyden mixing:
  rms(total) = 0.39376E+01    rms(broyden)= 0.39376E+01
  rms(prec ) = 0.58168E+01
  weight for this iteration     100.00

 Free energy of the ion-electron system (eV)
  ---------------------------------------------------
  alpha Z        PSCENC =      3400.89143748
  Ewald energy   TEWEN  =    -35149.00326928
  -1/2 Hartree   DENC   =    -10547.96656640
  -V(xc)+E(xc)   XCENC  =      1403.29638271
  PAW double counting   =     34625.67335558   -39234.46421604
  entropy T*S    EENTRO =        -0.00120351
  eigenvalues    EBANDS =       843.61815562
  atomic energy  EATOM  =     44511.25856501
  ---------------------------------------------------
  free energy    TOTEN  =      -146.69735883 eV

  energy without entropy =     -146.69615532  energy(sigma->0) =     -146.69675708


--------------------------------------------------------------------------------------------------------




----------------------------------------- Iteration    1(   6)  ---------------------------------------


    POTLOK:  VPU time    0.47: CPU time    0.48
    SETDIJ:  VPU time    1.03: CPU time    1.04
    EDDAV :  VPU time  463.20: CPU time  466.13
    DOS   :  VPU time   -0.00: CPU time   -0.00
    CHARGE:  VPU time   18.88: CPU time   19.06
    MIXING:  VPU time    0.02: CPU time    0.02
    ------------------------------------------
      LOOP:  VPU time  483.66: CPU time  486.78

 eigenvalue-minimisations  : 18616
 total energy-change (2. order) : 0.1747284E+02  (-0.2642567E+02)
 number of electron  351.9999999 magnetization 
 augmentation part   238.6143608 magnetization 

 Broyden mixing:
  rms(total) = 0.17769E+01    rms(broyden)= 0.17768E+01
  rms(prec ) = 0.24675E+01
  weight for this iteration     100.00

 eigenvalues of (default mixing * dielectric matrix)
  average eigenvalue GAMMA=   0.6910
  0.6910

 Free energy of the ion-electron system (eV)
  ---------------------------------------------------
  alpha Z        PSCENC =      3400.89143748
  Ewald energy   TEWEN  =    -35149.00326928
  -1/2 Hartree   DENC   =     -9752.81930681
  -V(xc)+E(xc)   XCENC  =      1363.03902745
  PAW double counting   =     33842.41842729   -38193.06967011
  entropy T*S    EENTRO =        -0.00071016
  eigenvalues    EBANDS =      -151.93901578
  atomic energy  EATOM  =     44511.25856501
  ---------------------------------------------------
  free energy    TOTEN  =      -129.22451492 eV

  energy without entropy =     -129.22380476  energy(sigma->0) =     -129.22415984


--------------------------------------------------------------------------------------------------------




----------------------------------------- Iteration    1(   7)  ---------------------------------------


    POTLOK:  VPU time    0.46: CPU time    0.46
    SETDIJ:  VPU time    1.03: CPU time    1.04
    EDDAV :  VPU time  476.77: CPU time  478.06
    DOS   :  VPU time    0.00: CPU time   -0.00
    CHARGE:  VPU time   19.48: CPU time   19.53
    MIXING:  VPU time    0.02: CPU time    0.02
    ------------------------------------------
      LOOP:  VPU time  497.82: CPU time  499.20

 eigenvalue-minimisations  : 19256
 total energy-change (2. order) : 0.9854172E+01  (-0.4579471E+01)
 number of electron  351.9999998 magnetization 
 augmentation part   229.8177985 magnetization 

 Broyden mixing:
  rms(total) = 0.29179E+00    rms(broyden)= 0.29173E+00
  rms(prec ) = 0.44472E+00
  weight for this iteration     100.00

 eigenvalues of (default mixing * dielectric matrix)
  average eigenvalue GAMMA=   1.2880
  1.9210  0.6550

 Free energy of the ion-electron system (eV)
  ---------------------------------------------------
  alpha Z        PSCENC =      3400.89143748
  Ewald energy   TEWEN  =    -35149.00326928
  -1/2 Hartree   DENC   =     -9971.43282990
  -V(xc)+E(xc)   XCENC  =      1374.59623295
  PAW double counting   =     34502.80699747   -39043.14598683
  entropy T*S    EENTRO =        -0.00078122
  eigenvalues    EBANDS =       254.65929174
  atomic energy  EATOM  =     44511.25856501
  ---------------------------------------------------
  free energy    TOTEN  =      -119.37034258 eV

  energy without entropy =     -119.36956136  energy(sigma->0) =     -119.36995197


--------------------------------------------------------------------------------------------------------




----------------------------------------- Iteration    1(   8)  ---------------------------------------


    POTLOK:  VPU time    0.48: CPU time    0.48
    SETDIJ:  VPU time    1.03: CPU time    1.04
    EDDAV :  VPU time  451.27: CPU time  452.51
    DOS   :  VPU time    0.00: CPU time   -0.00
    CHARGE:  VPU time   18.85: CPU time   18.90
    MIXING:  VPU time    0.02: CPU time    0.02
    ------------------------------------------
      LOOP:  VPU time  471.71: CPU time  473.01

 eigenvalue-minimisations  : 17944
 total energy-change (2. order) : 0.2474267E+00  (-0.6067744E-01)
 number of electron  351.9999998 magnetization 
 augmentation part   229.4243909 magnetization 

 Broyden mixing:
  rms(total) = 0.20887E+00    rms(broyden)= 0.20886E+00
  rms(prec ) = 0.31214E+00
  weight for this iteration     100.00

 eigenvalues of (default mixing * dielectric matrix)
  average eigenvalue GAMMA=   1.1713
  2.1810  0.6665  0.6665

 Free energy of the ion-electron system (eV)
  ---------------------------------------------------
  alpha Z        PSCENC =      3400.89143748
  Ewald energy   TEWEN  =    -35149.00326928
  -1/2 Hartree   DENC   =     -9893.47603686
  -V(xc)+E(xc)   XCENC  =      1371.05591837
  PAW double counting   =     34935.57014162   -39554.23206527
  entropy T*S    EENTRO =        -0.00076421
  eigenvalues    EBANDS =       258.81315729
  atomic energy  EATOM  =     44511.25856501
  ---------------------------------------------------
  free energy    TOTEN  =      -119.12291585 eV

  energy without entropy =     -119.12215164  energy(sigma->0) =     -119.12253375


--------------------------------------------------------------------------------------------------------




----------------------------------------- Iteration    1(   9)  ---------------------------------------


    POTLOK:  VPU time    0.47: CPU time    0.47
    SETDIJ:  VPU time    1.03: CPU time    1.03
    EDDAV :  VPU time  469.45: CPU time  472.26
    DOS   :  VPU time    0.00: CPU time   -0.00
    CHARGE:  VPU time   18.81: CPU time   18.94
    MIXING:  VPU time    0.01: CPU time    0.02
    ------------------------------------------
      LOOP:  VPU time  489.84: CPU time  492.78

 eigenvalue-minimisations  : 18904
 total energy-change (2. order) : 0.7352725E-01  (-0.8148665E-02)
 number of electron  351.9999998 magnetization 
 augmentation part   229.8358901 magnetization 

 Broyden mixing:
  rms(total) = 0.89403E-01    rms(broyden)= 0.89402E-01
  rms(prec ) = 0.13391E+00
  weight for this iteration     100.00

 eigenvalues of (default mixing * dielectric matrix)
  average eigenvalue GAMMA=   1.1536
  2.5758  1.0264  0.6828  0.3294

 Free energy of the ion-electron system (eV)
  ---------------------------------------------------
  alpha Z        PSCENC =      3400.89143748
  Ewald energy   TEWEN  =    -35149.00326928
  -1/2 Hartree   DENC   =     -9863.28435474
  -V(xc)+E(xc)   XCENC  =      1369.59669054
  PAW double counting   =     35000.39524597   -39626.75611762
  entropy T*S    EENTRO =        -0.00087062
  eigenvalues    EBANDS =       237.85328466
  atomic energy  EATOM  =     44511.25856501
  ---------------------------------------------------
  free energy    TOTEN  =      -119.04938860 eV

  energy without entropy =     -119.04851798  energy(sigma->0) =     -119.04895329


--------------------------------------------------------------------------------------------------------




----------------------------------------- Iteration    1(  10)  ---------------------------------------


    POTLOK:  VPU time    0.45: CPU time    0.46
    SETDIJ:  VPU time    1.03: CPU time    1.04
    EDDAV :  VPU time  488.25: CPU time  489.93
    DOS   :  VPU time    0.00: CPU time   -0.00
    CHARGE:  VPU time   18.91: CPU time   18.98
    MIXING:  VPU time    0.02: CPU time    0.02
    ------------------------------------------
      LOOP:  VPU time  508.72: CPU time  510.49

 eigenvalue-minimisations  : 19824
 total energy-change (2. order) : 0.1226971E-01  (-0.7930448E-02)
 number of electron  351.9999998 magnetization 
 augmentation part   230.1924556 magnetization 

 Broyden mixing:
  rms(total) = 0.12086E-01    rms(broyden)= 0.12081E-01
  rms(prec ) = 0.17327E-01
  weight for this iteration     100.00

 eigenvalues of (default mixing * dielectric matrix)
  average eigenvalue GAMMA=   1.2473
  2.6083  1.7630  0.8583  0.6980  0.3088

 Free energy of the ion-electron system (eV)
  ---------------------------------------------------
  alpha Z        PSCENC =      3400.89143748
  Ewald energy   TEWEN  =    -35149.00326928
  -1/2 Hartree   DENC   =     -9842.45668942
  -V(xc)+E(xc)   XCENC  =      1368.58731600
  PAW double counting   =     35044.98086111   -39675.90445979
  entropy T*S    EENTRO =        -0.00106500
  eigenvalues    EBANDS =       222.61018501
  atomic energy  EATOM  =     44511.25856501
  ---------------------------------------------------
  free energy    TOTEN  =      -119.03711889 eV

  energy without entropy =     -119.03605389  energy(sigma->0) =     -119.03658639


--------------------------------------------------------------------------------------------------------




----------------------------------------- Iteration    1(  11)  ---------------------------------------


    POTLOK:  VPU time    0.47: CPU time    0.47
    SETDIJ:  VPU time    1.03: CPU time    1.03
    EDDAV :  VPU time  454.15: CPU time  457.17
    DOS   :  VPU time    0.00: CPU time   -0.00
    CHARGE:  VPU time   18.70: CPU time   18.83
    MIXING:  VPU time    0.02: CPU time    0.02
    ------------------------------------------
      LOOP:  VPU time  474.41: CPU time  477.60

 eigenvalue-minimisations  : 18136
 total energy-change (2. order) :-0.5265172E-03  (-0.6518219E-03)
 number of electron  351.9999998 magnetization 
 augmentation part   230.1846928 magnetization 

 Broyden mixing:
  rms(total) = 0.79239E-02    rms(broyden)= 0.79236E-02
  rms(prec ) = 0.11457E-01
  weight for this iteration     100.00

 eigenvalues of (default mixing * dielectric matrix)
  average eigenvalue GAMMA=   1.1835
  2.6339  2.1734  0.8789  0.6989  0.2988  0.4168

 Free energy of the ion-electron system (eV)
  ---------------------------------------------------
  alpha Z        PSCENC =      3400.89143748
  Ewald energy   TEWEN  =    -35149.00326928
  -1/2 Hartree   DENC   =     -9844.71565954
  -V(xc)+E(xc)   XCENC  =      1368.69469946
  PAW double counting   =     35050.48190968   -39680.58415593
  entropy T*S    EENTRO =        -0.00105271
  eigenvalues    EBANDS =       223.93988044
  atomic energy  EATOM  =     44511.25856501
  ---------------------------------------------------
  free energy    TOTEN  =      -119.03764541 eV

  energy without entropy =     -119.03659270  energy(sigma->0) =     -119.03711905


--------------------------------------------------------------------------------------------------------




----------------------------------------- Iteration    1(  12)  ---------------------------------------


    POTLOK:  VPU time    0.47: CPU time    0.47
    SETDIJ:  VPU time    1.02: CPU time    1.03
    EDDAV :  VPU time  464.24: CPU time  466.95
    DOS   :  VPU time    0.00: CPU time   -0.00
    CHARGE:  VPU time   18.91: CPU time   19.03
    MIXING:  VPU time    0.02: CPU time    0.02
    ------------------------------------------
      LOOP:  VPU time  484.72: CPU time  487.57

 eigenvalue-minimisations  : 18688
 total energy-change (2. order) : 0.9617647E-04  (-0.5140917E-04)
 number of electron  351.9999998 magnetization 
 augmentation part   230.1695761 magnetization 

 Broyden mixing:
  rms(total) = 0.37523E-02    rms(broyden)= 0.37522E-02
  rms(prec ) = 0.51400E-02
  weight for this iteration     100.00

 eigenvalues of (default mixing * dielectric matrix)
  average eigenvalue GAMMA=   1.1194
  2.6614  2.2699  0.8004  0.8004  0.6559  0.3240  0.3240

 Free energy of the ion-electron system (eV)
  ---------------------------------------------------
  alpha Z        PSCENC =      3400.89143748
  Ewald energy   TEWEN  =    -35149.00326928
  -1/2 Hartree   DENC   =     -9845.51687704
  -V(xc)+E(xc)   XCENC  =      1368.73378768
  PAW double counting   =     35055.66281883   -39685.80382583
  entropy T*S    EENTRO =        -0.00104470
  eigenvalues    EBANDS =       224.74085863
  atomic energy  EATOM  =     44511.25856501
  ---------------------------------------------------
  free energy    TOTEN  =      -119.03754923 eV

  energy without entropy =     -119.03650453  energy(sigma->0) =     -119.03702688


--------------------------------------------------------------------------------------------------------




----------------------------------------- Iteration    1(  13)  ---------------------------------------


    POTLOK:  VPU time    0.85: CPU time    0.89
    SETDIJ:  VPU time    1.03: CPU time    1.03
    EDDAV :  VPU time  463.49: CPU time  464.33
    DOS   :  VPU time    0.00: CPU time   -0.00
    CHARGE:  VPU time   18.93: CPU time   18.97
    MIXING:  VPU time    0.02: CPU time    0.02
    ------------------------------------------
      LOOP:  VPU time  484.40: CPU time  485.32

 eigenvalue-minimisations  : 18576
 total energy-change (2. order) : 0.9029158E-05  (-0.6123051E-05)
 number of electron  351.9999998 magnetization 
 augmentation part   230.1656594 magnetization 

 Broyden mixing:
  rms(total) = 0.22162E-02    rms(broyden)= 0.22161E-02
  rms(prec ) = 0.29058E-02
  weight for this iteration     100.00

 eigenvalues of (default mixing * dielectric matrix)
  average eigenvalue GAMMA=   1.1698
  2.6809  2.2989  1.0704  1.0704  0.8985  0.6912  0.3000  0.3479

 Free energy of the ion-electron system (eV)
  ---------------------------------------------------
  alpha Z        PSCENC =      3400.89143748
  Ewald energy   TEWEN  =    -35149.00326928
  -1/2 Hartree   DENC   =     -9845.34836857
  -V(xc)+E(xc)   XCENC  =      1368.72623331
  PAW double counting   =     35058.58855579   -39688.98968561
  entropy T*S    EENTRO =        -0.00104360
  eigenvalues    EBANDS =       224.84003529
  atomic energy  EATOM  =     44511.25856501
  ---------------------------------------------------
  free energy    TOTEN  =      -119.03754020 eV

  energy without entropy =     -119.03649660  energy(sigma->0) =     -119.03701840


--------------------------------------------------------------------------------------------------------




----------------------------------------- Iteration    1(  14)  ---------------------------------------


    POTLOK:  VPU time    0.46: CPU time    0.46
    SETDIJ:  VPU time    1.03: CPU time    1.03
    EDDAV :  VPU time  512.11: CPU time  514.65
    DOS   :  VPU time    0.00: CPU time   -0.00
    CHARGE:  VPU time   18.68: CPU time   18.78
    MIXING:  VPU time    0.02: CPU time    0.02
    ------------------------------------------
      LOOP:  VPU time  532.36: CPU time  535.02

 eigenvalue-minimisations  : 21272
 total energy-change (2. order) : 0.4555659E-05  (-0.3036959E-05)
 number of electron  351.9999998 magnetization 
 augmentation part   230.1654634 magnetization 

 Broyden mixing:
  rms(total) = 0.12730E-02    rms(broyden)= 0.12730E-02
  rms(prec ) = 0.17874E-02
  weight for this iteration     100.00

 eigenvalues of (default mixing * dielectric matrix)
  average eigenvalue GAMMA=   1.1359
  2.6833  2.3070  1.2850  1.2850  0.9031  0.6917  0.3006  0.4145  0.3528

 Free energy of the ion-electron system (eV)
  ---------------------------------------------------
  alpha Z        PSCENC =      3400.89143748
  Ewald energy   TEWEN  =    -35149.00326928
  -1/2 Hartree   DENC   =     -9845.27439611
  -V(xc)+E(xc)   XCENC  =      1368.72232036
  PAW double counting   =     35060.58967772   -39691.00010444
  entropy T*S    EENTRO =        -0.00104442
  eigenvalues    EBANDS =       224.77927804
  atomic energy  EATOM  =     44511.25856501
  ---------------------------------------------------
  free energy    TOTEN  =      -119.03753565 eV

  energy without entropy =     -119.03649122  energy(sigma->0) =     -119.03701344


--------------------------------------------------------------------------------------------------------




----------------------------------------- Iteration    1(  15)  ---------------------------------------


    POTLOK:  VPU time    0.46: CPU time    0.46
    SETDIJ:  VPU time    1.03: CPU time    1.03
    EDDAV :  VPU time  452.89: CPU time  455.19
    DOS   :  VPU time    0.00: CPU time   -0.00
    CHARGE:  VPU time   18.72: CPU time   18.83
    MIXING:  VPU time    0.02: CPU time    0.02
    ------------------------------------------
      LOOP:  VPU time  473.18: CPU time  475.60

 eigenvalue-minimisations  : 18112
 total energy-change (2. order) : 0.1500994E-05  (-0.1036168E-05)
 number of electron  351.9999998 magnetization 
 augmentation part   230.1640207 magnetization 

 Broyden mixing:
  rms(total) = 0.93883E-03    rms(broyden)= 0.93882E-03
  rms(prec ) = 0.12705E-02
  weight for this iteration     100.00

 eigenvalues of (default mixing * dielectric matrix)
  average eigenvalue GAMMA=   1.1812
  2.6140  2.3269  1.7408  1.7408  0.8708  0.8708  0.6855  0.3443  0.3011  0.3168

 Free energy of the ion-electron system (eV)
  ---------------------------------------------------
  alpha Z        PSCENC =      3400.89143748
  Ewald energy   TEWEN  =    -35149.00326928
  -1/2 Hartree   DENC   =     -9845.31686627
  -V(xc)+E(xc)   XCENC  =      1368.72439997
  PAW double counting   =     35060.76819696   -39691.18577932
  entropy T*S    EENTRO =        -0.00104389
  eigenvalues    EBANDS =       224.82682520
  atomic energy  EATOM  =     44511.25856501
  ---------------------------------------------------
  free energy    TOTEN  =      -119.03753415 eV

  energy without entropy =     -119.03649025  energy(sigma->0) =     -119.03701220


--------------------------------------------------------------------------------------------------------




----------------------------------------- Iteration    1(  16)  ---------------------------------------


    POTLOK:  VPU time    0.47: CPU time    0.47
    SETDIJ:  VPU time    1.03: CPU time    1.04
    EDDAV :  VPU time  481.65: CPU time  484.07
    DOS   :  VPU time    0.00: CPU time   -0.00
    CHARGE:  VPU time   18.81: CPU time   18.92
    MIXING:  VPU time    0.02: CPU time    0.02
    ------------------------------------------
      LOOP:  VPU time  502.05: CPU time  504.58

 eigenvalue-minimisations  : 19720
 total energy-change (2. order) : 0.4740286E-05  (-0.1290271E-05)
 number of electron  351.9999998 magnetization 
 augmentation part   230.1596923 magnetization 

 Broyden mixing:
  rms(total) = 0.52709E-03    rms(broyden)= 0.52706E-03
  rms(prec ) = 0.77903E-03
  weight for this iteration     100.00

 eigenvalues of (default mixing * dielectric matrix)
  average eigenvalue GAMMA=   1.2143
  2.6807  2.4161  2.4161  1.2273  1.0169  1.0169  0.9342  0.6882  0.3464  0.3005
  0.3143

 Free energy of the ion-electron system (eV)
  ---------------------------------------------------
  alpha Z        PSCENC =      3400.89143748
  Ewald energy   TEWEN  =    -35149.00326928
  -1/2 Hartree   DENC   =     -9845.50335019
  -V(xc)+E(xc)   XCENC  =      1368.73344850
  PAW double counting   =     35061.23132721   -39691.65693079
  entropy T*S    EENTRO =        -0.00104182
  eigenvalues    EBANDS =       225.01228448
  atomic energy  EATOM  =     44511.25856501
  ---------------------------------------------------
  free energy    TOTEN  =      -119.03752941 eV

  energy without entropy =     -119.03648758  energy(sigma->0) =     -119.03700849


--------------------------------------------------------------------------------------------------------




----------------------------------------- Iteration    1(  17)  ---------------------------------------


    POTLOK:  VPU time    0.47: CPU time    0.47
    SETDIJ:  VPU time    1.03: CPU time    1.03
    EDDAV :  VPU time  477.02: CPU time  477.88
    DOS   :  VPU time    0.00: CPU time   -0.00
    CHARGE:  VPU time   18.88: CPU time   18.92
    MIXING:  VPU time    0.02: CPU time    0.03
    ------------------------------------------
      LOOP:  VPU time  497.48: CPU time  498.39

 eigenvalue-minimisations  : 19352
 total energy-change (2. order) :-0.6896182E-05  (-0.3836935E-06)
 number of electron  351.9999998 magnetization 
 augmentation part   230.1615968 magnetization 

 Broyden mixing:
  rms(total) = 0.22551E-03    rms(broyden)= 0.22549E-03
  rms(prec ) = 0.33366E-03
  weight for this iteration     100.00

 eigenvalues of (default mixing * dielectric matrix)
  average eigenvalue GAMMA=   1.1522
  2.6724  2.4189  2.4189  1.2476  1.0482  1.0482  0.9378  0.6882  0.3004  0.3709
  0.3562  0.3187

 Free energy of the ion-electron system (eV)
  ---------------------------------------------------
  alpha Z        PSCENC =      3400.89143748
  Ewald energy   TEWEN  =    -35149.00326928
  -1/2 Hartree   DENC   =     -9845.35646879
  -V(xc)+E(xc)   XCENC  =      1368.72628187
  PAW double counting   =     35061.62524750   -39692.08294053
  entropy T*S    EENTRO =        -0.00104304
  eigenvalues    EBANDS =       224.90465349
  atomic energy  EATOM  =     44511.25856501
  ---------------------------------------------------
  free energy    TOTEN  =      -119.03753630 eV

  energy without entropy =     -119.03649326  energy(sigma->0) =     -119.03701478


--------------------------------------------------------------------------------------------------------




----------------------------------------- Iteration    1(  18)  ---------------------------------------


    POTLOK:  VPU time    0.45: CPU time    0.46
    SETDIJ:  VPU time    1.03: CPU time    1.03
    EDDAV :  VPU time  457.05: CPU time  458.70
    DOS   :  VPU time    0.00: CPU time   -0.00
    CHARGE:  VPU time   18.86: CPU time   18.93
    MIXING:  VPU time    0.02: CPU time    0.02
    ------------------------------------------
      LOOP:  VPU time  477.48: CPU time  479.22

 eigenvalue-minimisations  : 18304
 total energy-change (2. order) : 0.6695336E-07  (-0.2975841E-07)
 number of electron  351.9999998 magnetization 
 augmentation part   230.1615293 magnetization 

 Broyden mixing:
  rms(total) = 0.17722E-03    rms(broyden)= 0.17721E-03
  rms(prec ) = 0.25800E-03
  weight for this iteration     100.00

 eigenvalues of (default mixing * dielectric matrix)
  average eigenvalue GAMMA=   1.1407
  2.6148  2.4459  2.4459  1.3888  1.0801  1.0801  0.8864  0.8864  0.6874  0.3004
  0.3126  0.3438  0.3565

 Free energy of the ion-electron system (eV)
  ---------------------------------------------------
  alpha Z        PSCENC =      3400.89143748
  Ewald energy   TEWEN  =    -35149.00326928
  -1/2 Hartree   DENC   =     -9845.36232863
  -V(xc)+E(xc)   XCENC  =      1368.72657412
  PAW double counting   =     35061.64237948   -39692.10245937
  entropy T*S    EENTRO =        -0.00104295
  eigenvalues    EBANDS =       224.91260790
  atomic energy  EATOM  =     44511.25856501
  ---------------------------------------------------
  free energy    TOTEN  =      -119.03753624 eV

  energy without entropy =     -119.03649329  energy(sigma->0) =     -119.03701476


--------------------------------------------------------------------------------------------------------




----------------------------------------- Iteration    1(  19)  ---------------------------------------


    POTLOK:  VPU time    0.45: CPU time    0.46
    SETDIJ:  VPU time    1.03: CPU time    1.03
    EDDAV :  VPU time  457.18: CPU time  458.03
    DOS   :  VPU time    0.00: CPU time   -0.00
    CHARGE:  VPU time   18.79: CPU time   18.83
    MIXING:  VPU time    0.02: CPU time    0.02
    ------------------------------------------
      LOOP:  VPU time  477.53: CPU time  478.44

 eigenvalue-minimisations  : 18296
 total energy-change (2. order) : 0.3468595E-06  (-0.3006847E-07)
 number of electron  351.9999998 magnetization 
 augmentation part   230.1608041 magnetization 

 Broyden mixing:
  rms(total) = 0.44669E-04    rms(broyden)= 0.44614E-04
  rms(prec ) = 0.69293E-04
  weight for this iteration     100.00

 eigenvalues of (default mixing * dielectric matrix)
  average eigenvalue GAMMA=   1.2086
  2.7910  2.5268  2.5268  1.4150  1.3529  1.3529  0.9983  0.9983  0.9553  0.6879
  0.3005  0.3148  0.3475  0.3530

 Free energy of the ion-electron system (eV)
  ---------------------------------------------------
  alpha Z        PSCENC =      3400.89143748
  Ewald energy   TEWEN  =    -35149.00326928
  -1/2 Hartree   DENC   =     -9845.38971241
  -V(xc)+E(xc)   XCENC  =      1368.72794390
  PAW double counting   =     35061.69135150   -39692.16156652
  entropy T*S    EENTRO =        -0.00104254
  eigenvalues    EBANDS =       224.94875698
  atomic energy  EATOM  =     44511.25856501
  ---------------------------------------------------
  free energy    TOTEN  =      -119.03753589 eV

  energy without entropy =     -119.03649335  energy(sigma->0) =     -119.03701462


--------------------------------------------------------------------------------------------------------




----------------------------------------- Iteration    1(  20)  ---------------------------------------


    POTLOK:  VPU time    0.51: CPU time    0.51
    SETDIJ:  VPU time    1.03: CPU time    1.03
    EDDAV :  VPU time  424.67: CPU time  425.45
    DOS   :  VPU time    0.00: CPU time   -0.00
    CHARGE:  VPU time   18.72: CPU time   18.76
    MIXING:  VPU time    0.02: CPU time    0.02
    ------------------------------------------
      LOOP:  VPU time  445.02: CPU time  445.84

 eigenvalue-minimisations  : 16560
 total energy-change (2. order) :-0.3551177E-06  (-0.5886000E-08)
 number of electron  351.9999998 magnetization 
 augmentation part   230.1608655 magnetization 

 Broyden mixing:
  rms(total) = 0.25700E-04    rms(broyden)= 0.25616E-04
  rms(prec ) = 0.37821E-04
  weight for this iteration     100.00

 eigenvalues of (default mixing * dielectric matrix)
  average eigenvalue GAMMA=   1.1795
  2.8808  2.5076  2.5076  1.6410  1.6410  1.0626  1.0626  1.0067  1.0067  0.6879
  0.3005  0.3152  0.3460  0.3632  0.3632

 Free energy of the ion-electron system (eV)
  ---------------------------------------------------
  alpha Z        PSCENC =      3400.89143748
  Ewald energy   TEWEN  =    -35149.00326928
  -1/2 Hartree   DENC   =     -9845.38410962
  -V(xc)+E(xc)   XCENC  =      1368.72765305
  PAW double counting   =     35061.70710046   -39692.17668722
  entropy T*S    EENTRO =        -0.00104261
  eigenvalues    EBANDS =       224.94281650
  atomic energy  EATOM  =     44511.25856501
  ---------------------------------------------------
  free energy    TOTEN  =      -119.03753624 eV

  energy without entropy =     -119.03649364  energy(sigma->0) =     -119.03701494


--------------------------------------------------------------------------------------------------------




----------------------------------------- Iteration    1(  21)  ---------------------------------------


    POTLOK:  VPU time    0.47: CPU time    0.47
    SETDIJ:  VPU time    1.03: CPU time    1.04
    EDDAV :  VPU time  294.14: CPU time  294.69
    DOS   :  VPU time    0.00: CPU time   -0.00
    CHARGE:  VPU time   18.90: CPU time   18.94
    MIXING:  VPU time    0.02: CPU time    0.02
    ------------------------------------------
      LOOP:  VPU time  314.62: CPU time  315.22

 eigenvalue-minimisations  :  9624
 total energy-change (2. order) :-0.6652408E-07  (-0.9027732E-09)
 number of electron  351.9999998 magnetization 
 augmentation part   230.1609408 magnetization 

 Broyden mixing:
  rms(total) = 0.27185E-04    rms(broyden)= 0.27106E-04
  rms(prec ) = 0.36782E-04
  weight for this iteration     100.00

 eigenvalues of (default mixing * dielectric matrix)
  average eigenvalue GAMMA=   1.2363
  2.6841  2.6841  2.5965  2.5965  1.6069  1.3040  1.0253  1.0253  0.9496  0.9496
  0.6879  0.3005  0.3149  0.3641  0.3457  0.3457

 Free energy of the ion-electron system (eV)
  ---------------------------------------------------
  alpha Z        PSCENC =      3400.89143748
  Ewald energy   TEWEN  =    -35149.00326928
  -1/2 Hartree   DENC   =     -9845.38067085
  -V(xc)+E(xc)   XCENC  =      1368.72747940
  PAW double counting   =     35061.70460252   -39692.17318643
  entropy T*S    EENTRO =        -0.00104266
  eigenvalues    EBANDS =       224.93854851
  atomic energy  EATOM  =     44511.25856501
  ---------------------------------------------------
  free energy    TOTEN  =      -119.03753631 eV

  energy without entropy =     -119.03649365  energy(sigma->0) =     -119.03701498


--------------------------------------------------------------------------------------------------------




----------------------------------------- Iteration    1(  22)  ---------------------------------------


    POTLOK:  VPU time    0.46: CPU time    0.47
    SETDIJ:  VPU time    1.03: CPU time    1.04
    EDDAV :  VPU time  294.80: CPU time  295.81
    DOS   :  VPU time    0.00: CPU time   -0.00
    CHARGE:  VPU time   18.80: CPU time   18.83
    MIXING:  VPU time    0.02: CPU time    0.02
    ------------------------------------------
      LOOP:  VPU time  315.18: CPU time  316.25

 eigenvalue-minimisations  :  9624
 total energy-change (2. order) : 0.1042572E-06  (-0.3608653E-09)
 number of electron  351.9999998 magnetization 
 augmentation part   230.1609547 magnetization 

 Broyden mixing:
  rms(total) = 0.17381E-04    rms(broyden)= 0.17258E-04
  rms(prec ) = 0.24895E-04
  weight for this iteration     100.00

 eigenvalues of (default mixing * dielectric matrix)
  average eigenvalue GAMMA=   1.2179
  2.7770  2.7770  2.5938  2.5938  1.4741  1.2296  1.1209  1.1209  0.9454  0.9454
  0.6880  0.7738  0.3005  0.3149  0.3613  0.3471  0.3406

 Free energy of the ion-electron system (eV)
  ---------------------------------------------------
  alpha Z        PSCENC =      3400.89143748
  Ewald energy   TEWEN  =    -35149.00326928
  -1/2 Hartree   DENC   =     -9845.38095279
  -V(xc)+E(xc)   XCENC  =      1368.72749093
  PAW double counting   =     35061.69797644   -39692.16586452
  entropy T*S    EENTRO =        -0.00104266
  eigenvalues    EBANDS =       224.93812319
  atomic energy  EATOM  =     44511.25856501
  ---------------------------------------------------
  free energy    TOTEN  =      -119.03753621 eV

  energy without entropy =     -119.03649354  energy(sigma->0) =     -119.03701488


--------------------------------------------------------------------------------------------------------




----------------------------------------- Iteration    1(  23)  ---------------------------------------


    POTLOK:  VPU time    0.47: CPU time    0.47
    SETDIJ:  VPU time    1.03: CPU time    1.04
    EDDAV :  VPU time  294.13: CPU time  294.69
    DOS   :  VPU time    0.00: CPU time   -0.00
    CHARGE:  VPU time   18.86: CPU time   18.89
    MIXING:  VPU time    0.02: CPU time    0.03
    ------------------------------------------
      LOOP:  VPU time  314.58: CPU time  315.18

 eigenvalue-minimisations  :  9576
 total energy-change (2. order) :-0.2111483E-07  (-0.1349545E-09)
 number of electron  351.9999998 magnetization 
 augmentation part   230.1609118 magnetization 

 Broyden mixing:
  rms(total) = 0.71584E-05    rms(broyden)= 0.68549E-05
  rms(prec ) = 0.99936E-05
  weight for this iteration     100.00

 eigenvalues of (default mixing * dielectric matrix)
  average eigenvalue GAMMA=   1.1797
  2.7709  2.5359  2.5359  2.4236  1.6637  1.3666  1.3666  0.9740  0.9740  0.9712
  0.9712  0.6879  0.3005  0.3146  0.3625  0.3468  0.3344  0.3344

 Free energy of the ion-electron system (eV)
  ---------------------------------------------------
  alpha Z        PSCENC =      3400.89143748
  Ewald energy   TEWEN  =    -35149.00326928
  -1/2 Hartree   DENC   =     -9845.38230895
  -V(xc)+E(xc)   XCENC  =      1368.72755960
  PAW double counting   =     35061.70154032   -39692.17027608
  entropy T*S    EENTRO =        -0.00104264
  eigenvalues    EBANDS =       224.94025831
  atomic energy  EATOM  =     44511.25856501
  ---------------------------------------------------
  free energy    TOTEN  =      -119.03753623 eV

  energy without entropy =     -119.03649359  energy(sigma->0) =     -119.03701491


--------------------------------------------------------------------------------------------------------




----------------------------------------- Iteration    1(  24)  ---------------------------------------


    POTLOK:  VPU time    0.46: CPU time    0.47
    SETDIJ:  VPU time    1.03: CPU time    1.04
    EDDAV :  VPU time  293.02: CPU time  294.77
    DOS   :  VPU time    0.00: CPU time   -0.00
    CHARGE:  VPU time   18.70: CPU time   18.83
    MIXING:  VPU time    0.03: CPU time    0.03
    ------------------------------------------
      LOOP:  VPU time  313.29: CPU time  315.20

 eigenvalue-minimisations  :  9576
 total energy-change (2. order) :-0.1861190E-07  (-0.5035748E-10)
 number of electron  351.9999998 magnetization 
 augmentation part   230.1608959 magnetization 

 Broyden mixing:
  rms(total) = 0.42017E-05    rms(broyden)= 0.36610E-05
  rms(prec ) = 0.52612E-05
  weight for this iteration     100.00
  WARNING: grid for Broyden might be to small

 eigenvalues of (default mixing * dielectric matrix)
  average eigenvalue GAMMA=   1.1807
  2.7152  2.4925  2.4925  2.3127  2.3127  1.3942  1.3942  1.0131  1.0131  0.9665
  0.9665  0.6880  0.7194  0.3005  0.3149  0.3621  0.3467  0.3442  0.2838

 Free energy of the ion-electron system (eV)
  ---------------------------------------------------
  alpha Z        PSCENC =      3400.89143748
  Ewald energy   TEWEN  =    -35149.00326928
  -1/2 Hartree   DENC   =     -9845.38264525
  -V(xc)+E(xc)   XCENC  =      1368.72757693
  PAW double counting   =     35061.70327418   -39692.17233847
  entropy T*S    EENTRO =        -0.00104263
  eigenvalues    EBANDS =       224.94090579
  atomic energy  EATOM  =     44511.25856501
  ---------------------------------------------------
  free energy    TOTEN  =      -119.03753625 eV

  energy without entropy =     -119.03649362  energy(sigma->0) =     -119.03701493


--------------------------------------------------------------------------------------------------------




----------------------------------------- Iteration    1(  25)  ---------------------------------------


    POTLOK:  VPU time    0.73: CPU time    0.73
    SETDIJ:  VPU time    1.03: CPU time    1.04
    EDDAV :  VPU time  293.51: CPU time  295.25
    DOS   :  VPU time   -0.00: CPU time   -0.00
    ------------------------------------------
      LOOP:  VPU time  295.33: CPU time  297.08

 eigenvalue-minimisations  :  9576
 total energy-change (2. order) : 0.1404260E-08  (-0.9209269E-11)
 number of electron  351.9999998 magnetization 
 augmentation part   230.1608959 magnetization 

 Free energy of the ion-electron system (eV)
  ---------------------------------------------------
  alpha Z        PSCENC =      3400.89143748
  Ewald energy   TEWEN  =    -35149.00326928
  -1/2 Hartree   DENC   =     -9845.38265681
  -V(xc)+E(xc)   XCENC  =      1368.72757713
  PAW double counting   =     35061.70316157   -39692.17213550
  entropy T*S    EENTRO =        -0.00104263
  eigenvalues    EBANDS =       224.94082680
  atomic energy  EATOM  =     44511.25856501
  ---------------------------------------------------
  free energy    TOTEN  =      -119.03753624 eV

  energy without entropy =     -119.03649361  energy(sigma->0) =     -119.03701493


--------------------------------------------------------------------------------------------------------




 average (electrostatic) potential at core
  the test charge radii are     1.0053
  (the norm of the test charge is              1.0000)
       1 -40.0420       2 -40.0419       3 -40.0419       4 -40.0419       5 -40.0419
       6 -40.0419       7 -40.0419       8 -40.0419       9 -40.0444      10 -40.0394
      11 -40.0444      12 -40.0394      13 -40.0420      14 -40.0418      15 -40.0420
      16 -40.0418      17 -40.0444      18 -40.0394      19 -40.0420      20 -40.0418
      21 -40.0444      22 -40.0394      23 -40.0420      24 -40.0418      25 -40.0419
      26 -40.0419      27 -40.0419      28 -40.0419      29 -40.0419      30 -40.0419
      31 -40.0419      32 -40.0419
 
 
 
 E-fermi :   3.6390     XC(G=0): -12.6973     alpha+bet : -9.4615
   add alpha+bet to get absolut eigen values

 k-point   1 :       0.0000    0.0000    0.0000
  band No.  band energies     occupation 
      1      -5.5735      2.00000
      2      -2.8477      2.00000
      3      -2.8418      2.00000
      4      -2.8418      2.00000
      5      -2.8418      2.00000
      6      -2.8418      2.00000
      7      -2.8360      2.00000
      8      -1.3531      2.00000
      9      -1.3531      2.00000
     10      -1.3531      2.00000
     11      -1.3531      2.00000
     12      -1.1515      2.00000
     13      -1.1514      2.00000
     14      -1.1513      2.00000
     15      -0.9826      2.00000
     16      -0.9786      2.00000
     17      -0.9786      2.00000
     18      -0.9765      2.00000
     19      -0.9761      2.00000
     20      -0.9761      2.00000
     21      -0.9761      2.00000
     22      -0.9761      2.00000
     23      -0.9756      2.00000
     24      -0.9736      2.00000
     25      -0.9736      2.00000
     26      -0.9695      2.00000
     27      -0.7105      2.00000
     28      -0.7105      2.00000
     29      -0.7105      2.00000
     30      -0.4321      2.00000
     31      -0.4286      2.00000
     32      -0.4286      2.00000
     33      -0.4286      2.00000
     34      -0.4285      2.00000
     35      -0.4251      2.00000
     36      -0.0547      2.00000
     37      -0.0515      2.00000
     38      -0.0515      2.00000
     39      -0.0514      2.00000
     40      -0.0514      2.00000
     41      -0.0484      2.00000
     42       0.1497      2.00000
     43       0.1516      2.00000
     44       0.1516      2.00000
     45       0.1557      2.00000
     46       0.1557      2.00000
     47       0.1558      2.00000
     48       0.1558      2.00000
     49       0.1559      2.00000
     50       0.1561      2.00000
     51       0.1561      2.00000
     52       0.1573      2.00000
     53       0.1574      2.00000
     54       0.1574      2.00000
     55       0.1584      2.00000
     56       0.1584      2.00000
     57       0.1589      2.00000
     58       0.1589      2.00000
     59       0.1590      2.00000
     60       0.1590      2.00000
     61       0.1591      2.00000
     62       0.1591      2.00000
     63       0.1623      2.00000
     64       0.1623      2.00000
     65       0.1667      2.00000
     66       0.3576      2.00000
     67       0.3620      2.00000
     68       0.3620      2.00000
     69       0.3625      2.00000
     70       0.3630      2.00000
     71       0.3630      2.00000
     72       0.3630      2.00000
     73       0.3631      2.00000
     74       0.3633      2.00000
     75       0.3640      2.00000
     76       0.3640      2.00000
     77       0.3684      2.00000
     78       0.6143      2.00000
     79       0.6144      2.00000
     80       0.6144      2.00000
     81       0.6145      2.00000
     82       0.6145      2.00000
     83       0.6145      2.00000
     84       0.6145      2.00000
     85       0.6146      2.00000
     86       0.6427      2.00000
     87       0.6427      2.00000
     88       0.6428      2.00000
     89       1.0060      2.00000
     90       1.0088      2.00000
     91       1.0090      2.00000
     92       1.0090      2.00000
     93       1.0090      2.00000
     94       1.0119      2.00000
     95       1.1308      2.00000
     96       1.1318      2.00000
     97       1.1331      2.00000
     98       1.1331      2.00000
     99       1.1341      2.00000
    100       1.1341      2.00000
    101       1.1341      2.00000
    102       1.1341      2.00000
    103       1.1350      2.00000
    104       1.1350      2.00000
    105       1.1366      2.00000
    106       1.1372      2.00000
    107       1.2829      2.00000
    108       1.2829      2.00000
    109       1.2861      2.00000
    110       1.2861      2.00000
    111       1.2865      2.00000
    112       1.2865      2.00000
    113       1.2865      2.00000
    114       1.2865      2.00000
    115       1.2868      2.00000
    116       1.2868      2.00000
    117       1.2899      2.00000
    118       1.2899      2.00000
    119       1.4086      2.00000
    120       1.4105      2.00000
    121       1.4105      2.00000
    122       1.4106      2.00000
    123       1.4107      2.00000
    124       1.4125      2.00000
    125       1.4390      2.00000
    126       1.4390      2.00000
    127       1.4415      2.00000
    128       1.4419      2.00000
    129       1.4422      2.00000
    130       1.4423      2.00000
    131       1.4423      2.00000
    132       1.4423      2.00000
    133       1.4425      2.00000
    134       1.4432      2.00000
    135       1.4461      2.00000
    136       1.4461      2.00000
    137       1.4482      2.00000
    138       1.4489      2.00000
    139       1.7113      2.00000
    140       1.7128      2.00000
    141       1.7128      2.00000
    142       1.7128      2.00000
    143       1.7128      2.00000
    144       1.7144      2.00000
    145       1.9831      2.00000
    146       1.9831      2.00000
    147       1.9832      2.00000
    148       1.9969      2.00000
    149       1.9970      2.00000
    150       1.9970      2.00000
    151       1.9970      2.00000
    152       1.9970      2.00000
    153       1.9970      2.00000
    154       1.9970      2.00000
    155       1.9970      2.00000
[...]
     72       0.6179      2.00000
     73       0.6184      2.00000
     74       0.6468      2.00000
     75       0.6482      2.00000
     76       0.6496      2.00000
     77       0.6897      2.00000
     78       0.6899      2.00000
     79       0.6913      2.00000
     80       0.6914      2.00000
     81       0.6926      2.00000
     82       0.6928      2.00000
     83       0.7016      2.00000
     84       0.7033      2.00000
     85       0.7049      2.00000
     86       0.7717      2.00000
     87       0.7718      2.00000
     88       0.7866      2.00000
     89       0.7876      2.00000
     90       0.7888      2.00000
     91       0.8021      2.00000
     92       0.8021      2.00000
     93       0.8031      2.00000
     94       0.8036      2.00000
     95       0.8037      2.00000
     96       0.8043      2.00000
     97       0.8049      2.00000
     98       0.8052      2.00000
     99       0.8136      2.00000
    100       0.8142      2.00000
    101       0.8148      2.00000
    102       0.8425      2.00000
    103       0.8430      2.00000
    104       0.8433      2.00000
    105       1.1147      2.00000
    106       1.1147      2.00000
    107       1.1148      2.00000
    108       1.2207      2.00000
    109       1.2207      2.00000
    110       1.2223      2.00000
    111       1.2223      2.00000
    112       1.2236      2.00000
    113       1.2238      2.00000
    114       1.2335      2.00000
    115       1.2354      2.00000
    116       1.2371      2.00000
    117       1.3017      2.00000
    118       1.3036      2.00000
    119       1.3054      2.00000
    120       1.3409      2.00000
    121       1.3410      2.00000
    122       1.3422      2.00000
    123       1.3422      2.00000
    124       1.3435      2.00000
    125       1.3435      2.00000
    126       1.4268      2.00000
    127       1.4270      2.00000
    128       1.4270      2.00000
    129       1.4506      2.00000
    130       1.4518      2.00000
    131       1.4528      2.00000
    132       1.4649      2.00000
    133       1.4649      2.00000
    134       1.4853      2.00000
    135       1.4868      2.00000
    136       1.4882      2.00000
    137       1.5654      2.00000
    138       1.5667      2.00000
    139       1.5680      2.00000
    140       1.6118      2.00000
    141       1.6118      2.00000
    142       1.6350      2.00000
    143       1.6359      2.00000
    144       1.6369      2.00000
    145       2.0052      2.00000
    146       2.0055      2.00000
    147       2.0059      2.00000
    148       2.0193      2.00000
    149       2.0197      2.00000
    150       2.0200      2.00000
    151       2.0200      2.00000
    152       2.0203      2.00000
    153       2.0203      2.00000
    154       2.0212      2.00000
    155       2.0215      2.00000
    156       2.0216      2.00000
    157       2.0217      2.00000
    158       2.0218      2.00000
    159       2.0224      2.00000
    160       2.0266      2.00000
    161       2.0267      2.00000
    162       2.0270      2.00000
    163       2.0364      2.00000
    164       2.0366      2.00000
    165       2.0370      2.00000
    166       2.0458      2.00000
    167       2.0459      2.00000
    168       2.0460      2.00000
    169       3.7307      0.00000
    170       3.7324      0.00000
    171       3.7340      0.00000
    172       4.1005      0.00000
    173       4.1014      0.00000
    174       4.1031      0.00000
    175       4.1031      0.00000
    176       4.1048      0.00000
    177       4.1058      0.00000
    178       4.3926      0.00000
    179       4.3928      0.00000
    180       4.3930      0.00000
    181       4.6892      0.00000
    182       4.6896      0.00000
    183       4.6900      0.00000
    184       5.1176      0.00000
    185       5.1191      0.00000
    186       5.1208      0.00000
    187       5.1208      0.00000
    188       5.1225      0.00000
    189       5.1241      0.00000
    190       5.4589      0.00000
    191       5.4610      0.00000
    192       5.4632      0.00000
    193       9.0277      0.00000
    194       9.0286      0.00000
    195       9.0294      0.00000
    196       9.4665      0.00000
    197       9.4674      0.00000
    198       9.4683      0.00000
    199      10.0810      0.00000
    200      10.0822      0.00000
    201      10.0852      0.00000
    202      10.0852      0.00000
    203      10.0881      0.00000
    204      10.0892      0.00000
    205      10.5430      0.00000
    206      10.5439      0.00000
    207      10.5466      0.00000
    208      10.5467      0.00000
    209      10.5495      0.00000
    210      10.5503      0.00000
    211      11.1870      0.00000
    212      11.1879      0.00000
    213      11.1888      0.00000
    214      11.6570      0.00000
    215      11.6582      0.00000
    216      11.6593      0.00000


--------------------------------------------------------------------------------------------------------


 soft charge-density along one line, spin component           1
         0         1         2         3         4         5         6         7         8         9
 total charge-density along one line
 
 pseudopotential strength for first ion, spin component:           1
 -6.509   0.000  -0.000   0.000   0.000  -0.225  -0.000   0.000
  0.000  -6.509  -0.000   0.000  -0.000  -0.000  -0.225   0.000
 -0.000  -0.000  -6.491   0.000  -0.000   0.000   0.000  -0.233
  0.000   0.000   0.000  -6.509   0.000  -0.000  -0.000  -0.000
  0.000  -0.000  -0.000   0.000  -6.491  -0.000   0.000   0.000
 -0.225  -0.000   0.000  -0.000  -0.000   1.669   0.000  -0.000
 -0.000  -0.225   0.000  -0.000   0.000   0.000   1.669  -0.000
  0.000   0.000  -0.233  -0.000   0.000  -0.000  -0.000   1.672
 -0.000  -0.000  -0.000  -0.225  -0.000   0.000   0.000   0.000
 -0.000   0.000   0.000  -0.000  -0.233   0.000  -0.000  -0.000
 -0.000  -0.000   0.000  -0.000  -0.000  -0.000  -0.000  -0.000
  0.000   0.000  -0.000   0.000   0.000  -0.000  -0.000   0.000
  0.000  -0.000   0.000  -0.000   0.000   0.000   0.000   0.000
 -0.000  -0.000  -0.000   0.000  -0.000  -0.000   0.000   0.000
 -0.000  -0.000  -0.000  -0.000   0.000  -0.000  -0.000  -0.000
 -0.000   0.000  -0.000   0.000   0.000  -0.000  -0.000   0.000
  0.000  -0.000  -0.000  -0.000   0.000  -0.000  -0.000   0.000
  0.000   0.000  -0.000   0.000   0.000  -0.000  -0.000   0.000
 total augmentation occupancy for first ion, spin component:           1
  1.904  -0.000  -0.003  -0.001  -0.001  -0.014  -0.000   0.001   0.000   0.000   0.007   0.000   0.002   0.000  -0.000  -0.000
 -0.000   1.906  -0.000  -0.001  -0.003  -0.000  -0.017   0.001   0.001   0.001   0.005   0.000  -0.000   0.000  -0.000  -0.000
 -0.003  -0.000   1.921  -0.000  -0.003   0.001   0.001  -0.062   0.001   0.002   0.012   0.002   0.000  -0.000  -0.000  -0.000
 -0.001  -0.001  -0.000   1.909   0.001   0.000   0.001   0.001  -0.021   0.000   0.003  -0.000   0.000   0.002  -0.000  -0.000
 -0.001  -0.003  -0.003   0.001   1.910   0.000   0.001   0.002   0.000  -0.054   0.007   0.001   0.000   0.000   0.000   0.000
 -0.014  -0.000   0.001   0.000   0.000   0.075   0.000   0.001  -0.000  -0.000  -0.002   0.000   0.002  -0.000   0.000  -0.000
 -0.000  -0.017   0.001   0.001   0.001   0.000   0.077  -0.001  -0.000   0.001  -0.001   0.001   0.000  -0.000   0.000   0.000
  0.001   0.001  -0.062   0.001   0.002   0.001  -0.001   0.074  -0.001  -0.001  -0.007   0.000   0.000   0.000  -0.001   0.000
  0.000   0.001   0.001  -0.021   0.000  -0.000  -0.000  -0.001   0.080  -0.001   0.001   0.001  -0.000   0.002   0.000   0.000
  0.000   0.001   0.002   0.000  -0.054  -0.000   0.001  -0.001  -0.001   0.071  -0.004   0.000  -0.000  -0.000   0.001   0.000
  0.007   0.005   0.012   0.003   0.007  -0.002  -0.001  -0.007   0.001  -0.004   1.200  -0.352  -0.000   0.000   0.006   0.000
  0.000   0.000   0.002  -0.000   0.001   0.000   0.001   0.000   0.001   0.000  -0.352   0.149   0.000   0.000  -0.002  -0.000
  0.002  -0.000   0.000   0.000   0.000   0.002   0.000   0.000  -0.000  -0.000  -0.000   0.000   0.187  -0.001   0.001  -0.013
  0.000   0.000  -0.000   0.002   0.000  -0.000  -0.000   0.000   0.002  -0.000   0.000   0.000  -0.001   0.188  -0.002  -0.000
 -0.000  -0.000  -0.000  -0.000   0.000   0.000   0.000  -0.001   0.000   0.001   0.006  -0.002   0.001  -0.002   0.188  -0.000
 -0.000  -0.000  -0.000  -0.000   0.000  -0.000   0.000   0.000   0.000   0.000   0.000  -0.000  -0.013  -0.000  -0.000   0.001
 -0.000  -0.000  -0.000  -0.000   0.000   0.000   0.000  -0.000  -0.000   0.000   0.000  -0.000  -0.000  -0.013  -0.000   0.000
  0.000  -0.000   0.000   0.000  -0.000  -0.000  -0.000   0.000  -0.000  -0.000  -0.000   0.000  -0.000  -0.000  -0.013   0.000


------------------------ aborting loop because EDIFF is reached ----------------------------------------




--------------------------------------------------------------------------------------------------------


    CHARGE:  VPU time   18.83: CPU time   18.96
    FORLOC:  VPU time    0.04: CPU time    0.04
    FORNL :  VPU time   62.92: CPU time   63.06
    STRESS:  VPU time  239.49: CPU time  240.48
    FORCOR:  VPU time    0.44: CPU time    0.45
    FORHAR:  VPU time    0.13: CPU time    0.13
    MIXING:  VPU time    0.02: CPU time    0.02


--------------------------------------------------------------------------------------------------------



  FREE ENERGIE OF THE ION-ELECTRON SYSTEM (eV)
  ---------------------------------------------------
  free  energy   TOTEN  =      -119.037536 eV

  energy  without entropy=     -119.036494  energy(sigma->0) =     -119.037015
 

  FORCE on cell =-STRESS in cart. coord.  units (eV/reduce length):
  Direction    X        Y        Z        XY       YZ       ZX
  --------------------------------------------------------------------------------------
  Alpha Z   3400.89   3400.89   3400.89
  Ewald   -11716.50 -11716.32 -11716.32     -0.00     -0.00     -0.00
  Hartree   3281.71   3281.84   3281.84     -0.00     -0.00     -0.00
  E(xc)    -2004.38  -2004.38  -2004.38     -0.00      0.00     -0.00
  Local     3886.96   3886.65   3886.65     -0.00     -0.00      0.00
  n-local  -1171.77  -1174.70  -1168.83      1.83      1.01      0.20
  augment   1809.19   1809.19   1809.19     -0.00     -0.00     -0.00
  Kinetic   2513.86   2511.44   2516.29      0.22     -1.10     -2.41
  -------------------------------------------------------------------------------------
  Total       -0.04     -0.04     -0.04      0.00      0.00      0.00
  in kB       -0.15     -0.15     -0.15      0.00      0.00      0.00
  external pressure =       -0.15 kB  Pullay stress =        0.00 kB


 VOLUME and BASIS-vectors are now :
 -----------------------------------------------------------------------------
  energy-cutoff  :      500.00
  volume of cell :      384.69
      direct lattice vectors                 reciprocal lattice vectors
     7.272831623  0.000000000  0.000000000     0.137498027  0.000000000  0.000000000
     0.000000000  7.272831623  0.000000000     0.000000000  0.137498027  0.000000000
     0.000000000  0.000000000  7.272831623     0.000000000  0.000000000  0.137498027

  length of vectors
     7.272831623  7.272831623  7.272831623     0.137498027  0.137498027  0.137498027


 FORCES acting on ions
    electron-ion (+dipol)            ewald-force                    non-local-force                 convergence-correction
 -----------------------------------------------------------------------------------------------
   0.106E+02 -.176E-12 0.433E-05   -.107E+02 -.178E-14 0.258E-13   -.443E-01 -.136E-19 0.000E+00   0.887E-05 -.487E-13 -.355E-13
   -.279E+01 -.138E-12 -.440E-05   0.282E+01 0.213E-13 0.163E-12   -.337E-01 0.000E+00 0.169E-19   -.109E-04 -.364E-13 -.102E-12
   0.885E+00 0.911E-12 0.179E-09   -.894E+00 -.444E-14 0.124E-12   0.798E-02 0.271E-19 -.847E-21   -.749E-05 0.925E-13 -.111E-12
   -.715E+00 -.473E-11 0.182E-09   0.702E+00 0.924E-13 0.163E-12   0.129E-01 0.000E+00 0.000E+00   0.779E-05 0.118E-12 -.157E-12
   0.885E+00 -.158E-12 0.214E-07   -.894E+00 0.400E-13 0.462E-13   0.798E-02 0.000E+00 -.805E-20   -.619E-05 -.668E-13 -.313E-13
   -.715E+00 -.138E-12 0.214E-07   0.702E+00 -.355E-13 0.711E-14   0.129E-01 0.000E+00 0.000E+00   0.759E-05 -.605E-13 -.145E-12
   0.371E+00 0.897E-12 -.483E-10   -.369E+00 0.133E-13 -.178E-13   -.243E-02 -.678E-20 0.136E-19   -.258E-04 0.103E-12 -.113E-12
   -.347E+00 -.459E-11 -.542E-10   0.345E+00 0.924E-13 -.107E-12   0.148E-02 0.000E+00 0.678E-20   0.257E-04 0.147E-12 -.186E-12
   -.135E+01 -.260E+01 0.308E-09   0.135E+01 0.262E+01 0.711E-14   0.953E-02 0.243E-02 -.136E-19   -.755E-06 -.453E-05 -.766E-13
   -.136E+01 0.256E+01 0.314E-09   0.137E+01 -.257E+01 0.107E-13   0.100E-01 -.296E-02 0.000E+00   0.117E-05 0.136E-04 -.797E-13
   -.135E+01 0.260E+01 0.308E-09   0.135E+01 -.262E+01 0.782E-13   0.953E-02 -.243E-02 -.271E-19   -.755E-06 0.453E-05 -.925E-13
   -.136E+01 -.256E+01 0.315E-09   0.137E+01 0.257E+01 0.192E-12   0.100E-01 0.296E-02 -.678E-20   0.117E-05 -.136E-04 -.101E-12
   -.345E-01 -.214E+00 -.127E-09   0.391E-01 0.214E+00 0.995E-13   -.412E-02 -.375E-03 -.136E-19   -.349E-06 -.530E-05 -.149E-12
   -.430E-01 0.213E+00 -.131E-09   0.477E-01 -.214E+00 -.107E-13   -.412E-02 0.366E-03 0.847E-21   0.112E-06 0.134E-04 -.983E-13
   -.345E-01 0.214E+00 -.126E-09   0.391E-01 -.214E+00 -.782E-13   -.412E-02 0.375E-03 -.847E-21   -.349E-06 0.530E-05 -.135E-12
   -.430E-01 -.213E+00 -.132E-09   0.477E-01 0.214E+00 -.782E-13   -.412E-02 -.366E-03 -.339E-20   0.112E-06 -.134E-04 -.647E-13
   -.135E+01 -.178E-12 -.260E+01   0.135E+01 -.453E-13 0.262E+01   0.953E-02 -.271E-19 0.243E-02   -.978E-06 -.183E-13 -.436E-05
   -.136E+01 -.162E-12 0.256E+01   0.137E+01 -.109E-12 -.257E+01   0.100E-01 0.271E-19 -.296E-02   0.946E-06 -.577E-13 0.134E-04
   -.345E-01 0.787E-12 -.214E+00   0.391E-01 -.790E-13 0.214E+00   -.412E-02 -.542E-19 -.375E-03   -.295E-06 0.747E-13 -.513E-05
   -.430E-01 0.377E-11 0.213E+00   0.477E-01 -.293E-13 -.214E+00   -.412E-02 0.000E+00 0.366E-03   0.169E-06 0.916E-13 0.132E-04
   -.135E+01 -.172E-12 0.260E+01   0.135E+01 -.364E-13 -.262E+01   0.953E-02 0.271E-19 -.243E-02   -.978E-06 -.411E-13 0.436E-05
   -.136E+01 -.143E-12 -.256E+01   0.137E+01 -.150E-12 0.257E+01   0.100E-01 0.271E-19 0.296E-02   0.946E-06 -.824E-13 -.134E-04
   -.345E-01 0.114E-11 0.214E+00   0.391E-01 -.773E-13 -.214E+00   -.412E-02 -.271E-19 0.375E-03   -.295E-06 0.877E-13 0.513E-05
   -.430E-01 0.335E-11 -.213E+00   0.477E-01 -.773E-13 0.214E+00   -.412E-02 0.271E-19 -.366E-03   0.169E-06 0.115E-12 -.132E-04
   0.168E+01 0.132E-01 0.132E-01   -.169E+01 -.132E-01 -.132E-01   0.608E-02 -.317E-04 -.317E-04   -.725E-05 0.384E-05 0.384E-05
   -.939E+00 -.390E-02 -.390E-02   0.948E+00 0.397E-02 0.397E-02   -.816E-02 -.724E-04 -.724E-04   0.740E-05 0.451E-05 0.451E-05
   0.168E+01 -.132E-01 0.132E-01   -.169E+01 0.132E-01 -.132E-01   0.608E-02 0.317E-04 -.317E-04   -.725E-05 -.384E-05 0.384E-05
   -.939E+00 0.390E-02 -.390E-02   0.948E+00 -.397E-02 0.397E-02   -.816E-02 0.724E-04 -.724E-04   0.740E-05 -.451E-05 0.451E-05
   0.168E+01 0.132E-01 -.132E-01   -.169E+01 -.132E-01 0.132E-01   0.608E-02 -.317E-04 0.317E-04   -.725E-05 0.384E-05 -.384E-05
   -.939E+00 -.390E-02 0.390E-02   0.948E+00 0.397E-02 -.397E-02   -.816E-02 -.724E-04 0.724E-04   0.740E-05 0.451E-05 -.451E-05
   0.168E+01 -.132E-01 -.132E-01   -.169E+01 0.132E-01 0.132E-01   0.608E-02 0.317E-04 0.317E-04   -.725E-05 -.384E-05 -.384E-05
   -.939E+00 0.390E-02 0.390E-02   0.948E+00 -.397E-02 -.397E-02   -.816E-02 0.724E-04 0.724E-04   0.740E-05 -.451E-05 -.451E-05
 -----------------------------------------------------------------------------------------------
   0.157E-04 0.358E-10 -.185E-08   0.742E-13 -.701E-13 -.945E-13   -.847E-04 0.244E-18 0.163E-18   0.195E-06 0.184E-12 -.353E-11
 
 
 POSITION                                       TOTAL-FORCE (eV/Angst)
 -----------------------------------------------------------------------------------
      0.01818      0.00000      0.00000        -0.118952     -0.000000      0.000000
      3.63642      0.00000      0.00000         0.002089      0.000000      0.000000
      0.00000      3.63642      0.00000        -0.000776     -0.000000      0.000000
      3.63642      3.63642      0.00000         0.000100      0.000000     -0.000000
      0.00000      0.00000      3.63642        -0.000776      0.000000      0.000000
      3.63642      0.00000      3.63642         0.000100      0.000000     -0.000000
      0.00000      3.63642      3.63642         0.000054      0.000000     -0.000000
      3.63642      3.63642      3.63642        -0.000541      0.000000      0.000000
      1.81821      1.81821      0.00000         0.014854      0.017134      0.000000
      5.45462      1.81821      0.00000         0.014025     -0.015969      0.000000
      1.81821      5.45462      0.00000         0.014854     -0.017134     -0.000000
      5.45462      5.45462      0.00000         0.014025      0.015969      0.000000
      1.81821      1.81821      3.63642         0.000513      0.000362      0.000000
      5.45462      1.81821      3.63642         0.000511     -0.000365      0.000000
      1.81821      5.45462      3.63642         0.000513     -0.000362      0.000000
      5.45462      5.45462      3.63642         0.000511      0.000365     -0.000000
      1.81821      0.00000      1.81821         0.014854      0.000000      0.017134
      5.45462      0.00000      1.81821         0.014025      0.000000     -0.015969
      1.81821      3.63642      1.81821         0.000513      0.000000      0.000362
      5.45462      3.63642      1.81821         0.000511      0.000000     -0.000365
      1.81821      0.00000      5.45462         0.014854      0.000000     -0.017134
      5.45462      0.00000      5.45462         0.014025      0.000000      0.015969
      1.81821      3.63642      5.45462         0.000513      0.000000     -0.000362
      5.45462      3.63642      5.45462         0.000511      0.000000      0.000365
      0.00000      1.81821      1.81821        -0.001387     -0.000059     -0.000059
      3.63642      1.81821      1.81821         0.001159      0.000006      0.000006
      0.00000      5.45462      1.81821        -0.001387      0.000059     -0.000059
      3.63642      5.45462      1.81821         0.001159     -0.000006      0.000006
      0.00000      1.81821      5.45462        -0.001387     -0.000059      0.000059
      3.63642      1.81821      5.45462         0.001159      0.000006     -0.000006
      0.00000      5.45462      5.45462        -0.001387      0.000059      0.000059
      3.63642      5.45462      5.45462         0.001159     -0.000006     -0.000006
 -----------------------------------------------------------------------------------
    total drift:                               -0.000069      0.000000     -0.000000


--------------------------------------------------------------------------------------------------------



 mean value of Nose-termostat <S>:     1.000 mean value of <T> :     0.000
 mean temperature <T/S>/<1/S>  :     0.000

     LOOP+:  VPU time11440.30: CPU time11488.83
  
  
 General timing and accounting informations for this job:
 ========================================================
  
                  Total CPU time used (sec):    11498.360
                            User time (sec):    11002.881
                          System time (sec):      495.479
                         Elapsed time (sec):    11547.120
  
                   Maximum memory used (kb):     2511056.
                   Average memory used (kb):           0.
  
                          Minor page faults:       419555
                          Major page faults:            0
                 Voluntary context switches:         1128
