       N       E                     dE             d eps       ncg     rms          rms(c)
DAV:   1    -0.118122489094E+03   -0.11812E+03   -0.48854E+01  1120   0.892E+00    0.278E-01
DAV:   2    -0.118268181288E+03   -0.14569E+00   -0.15589E+00   924   0.278E+00    0.939E-02
DAV:   3    -0.118269282468E+03   -0.11012E-02   -0.23971E-02   944   0.445E-01    0.412E-02
DAV:   4    -0.118269204537E+03    0.77931E-04   -0.19252E-04   980   0.807E-02    0.193E-02
DAV:   5    -0.118269199051E+03    0.54861E-05   -0.67592E-05   944   0.245E-02
   1 F= -.11826920E+03 E0= -.11826120E+03  d E =-.239833E-01
