  32  32   0   0
  0.1202155E+02  0.7272832E-09  0.7272832E-09  0.7272832E-09  0.5000000E-15
  1.000000000000000E-004
  CAR 
 unknown system                          
     14.65160705     -6.53654633  301      3.63904351      1.00000000
     -6.537  0.0000E+00  0.0000E+00
     -6.466  0.0000E+00  0.0000E+00
     -6.395  0.0000E+00  0.0000E+00
     -6.325  0.0000E+00  0.0000E+00
     -6.254  0.0000E+00  0.0000E+00
     -6.183  0.0000E+00  0.0000E+00
     -6.113  0.0000E+00  0.0000E+00
     -6.042  0.0000E+00  0.0000E+00
     -5.972  0.0000E+00  0.0000E+00
     -5.901  0.0000E+00  0.0000E+00
     -5.830  0.0000E+00  0.0000E+00
     -5.760  0.0000E+00  0.0000E+00
     -5.689  0.0000E+00  0.0000E+00
     -5.618  0.8541E-11  0.6032E-12
     -5.548  0.8255E-01  0.5830E-02
     -5.477  0.4955E+00  0.4082E-01
     -5.407  0.9972E+00  0.1113E+00
     -5.336  0.7378E+00  0.1634E+00
     -5.265  0.1757E+01  0.2875E+00
     -5.195  0.2562E+01  0.4685E+00
     -5.124  0.1560E-06  0.4723E+00
     -5.053  0.9911E+00  0.5423E+00
     -4.983  0.2511E+01  0.7196E+00
     -4.912  0.2553E+01  0.9000E+00
     -4.841  0.1966E+01  0.1039E+01
     -4.771  0.2044E+01  0.1183E+01
     -4.700  0.3963E+01  0.1464E+01
     -4.630  0.4267E-02  0.1464E+01
     -4.559  0.1872E+01  0.1596E+01
     -4.488  0.5242E+01  0.1966E+01
     -4.418  0.2203E+01  0.2128E+01
     -4.347  0.1985E+01  0.2268E+01
     -4.276  0.4451E+01  0.2583E+01
     -4.206  0.1490E+01  0.2688E+01
     -4.135  0.1979E+01  0.2828E+01
     -4.065  0.2481E+01  0.3003E+01
     -3.994  0.6431E+01  0.3457E+01
     -3.923  0.2151E+01  0.3609E+01
     -3.853  0.5939E+01  0.4029E+01
     -3.782  0.3963E+01  0.4309E+01
     -3.711  0.3547E+00  0.4334E+01
     -3.641  0.4570E+01  0.4657E+01
     -3.570  0.3967E+01  0.4939E+01
     -3.500  0.5670E+01  0.5340E+01
     -3.429  0.2644E+01  0.5526E+01
     -3.358  0.5944E+01  0.5953E+01
     -3.288  0.4315E+00  0.5984E+01
     -3.217  0.9311E+01  0.6641E+01
     -3.146  0.5582E+01  0.7047E+01
     -3.076  0.2027E+01  0.7190E+01
     -3.005  0.6256E+01  0.7632E+01
     -2.935  0.4212E+01  0.7930E+01
     -2.864  0.4165E+00  0.7960E+01
     -2.793  0.9259E+01  0.8613E+01
     -2.723  0.6023E+01  0.9039E+01
     -2.652  0.2407E+01  0.9214E+01
     -2.581  0.1342E+02  0.1016E+02
     -2.511  0.5818E+01  0.1057E+02
     -2.440  0.3018E+01  0.1080E+02
     -2.370  0.4481E+01  0.1111E+02
     -2.299  0.6370E+01  0.1156E+02
     -2.228  0.8897E+01  0.1219E+02
     -2.158  0.4915E+01  0.1254E+02
     -2.087  0.1019E+02  0.1326E+02
     -2.016  0.1104E+02  0.1404E+02
     -1.946  0.9693E+01  0.1472E+02
     -1.875  0.1314E+01  0.1482E+02
     -1.805  0.1063E+02  0.1557E+02
     -1.734  0.9183E+01  0.1622E+02
     -1.663  0.1912E+02  0.1757E+02
     -1.593  0.1041E+02  0.1830E+02
     -1.522  0.1171E+02  0.1914E+02
     -1.451  0.1478E+02  0.2018E+02
     -1.381  0.1292E+02  0.2111E+02
     -1.310  0.2606E+02  0.2295E+02
     -1.240  0.1915E+02  0.2431E+02
     -1.169  0.3559E+02  0.2683E+02
     -1.098  0.2038E+02  0.2828E+02
     -1.028  0.4626E+02  0.3154E+02
     -0.957  0.4062E+02  0.3443E+02
     -0.886  0.3997E+02  0.3726E+02
     -0.816  0.4409E+02  0.4037E+02
     -0.745  0.3464E+02  0.4283E+02
     -0.674  0.4887E+02  0.4629E+02
     -0.604  0.5771E+02  0.5037E+02
     -0.533  0.7031E+02  0.5535E+02
     -0.463  0.6317E+02  0.5984E+02
     -0.392  0.8382E+02  0.6577E+02
     -0.321  0.8017E+02  0.7145E+02
     -0.251  0.7390E+02  0.7670E+02
     -0.180  0.6526E+02  0.8132E+02
     -0.109  0.6951E+02  0.8627E+02
     -0.039  0.7071E+02  0.9130E+02
      0.032  0.6687E+02  0.9605E+02
      0.102  0.6351E+02  0.1006E+03
      0.173  0.8123E+02  0.1063E+03
      0.244  0.8202E+02  0.1121E+03
      0.314  0.8879E+02  0.1184E+03
      0.385  0.1100E+03  0.1262E+03
      0.456  0.1101E+03  0.1341E+03
      0.526  0.9469E+02  0.1408E+03
      0.597  0.1263E+03  0.1498E+03
      0.667  0.1225E+03  0.1585E+03
      0.738  0.1517E+03  0.1692E+03
      0.809  0.1494E+03  0.1798E+03
      0.879  0.1299E+03  0.1891E+03
      0.950  0.9878E+02  0.1961E+03
      1.021  0.1029E+03  0.2034E+03
      1.091  0.8140E+02  0.2092E+03
      1.162  0.8451E+02  0.2152E+03
      1.232  0.9607E+02  0.2220E+03
      1.303  0.1098E+03  0.2298E+03
      1.374  0.1278E+03  0.2388E+03
      1.444  0.1162E+03  0.2471E+03
      1.515  0.1244E+03  0.2559E+03
      1.586  0.1021E+03  0.2631E+03
      1.656  0.1018E+03  0.2703E+03
      1.727  0.1175E+03  0.2787E+03
      1.797  0.9165E+02  0.2852E+03
      1.868  0.1313E+03  0.2945E+03
      1.939  0.1607E+03  0.3059E+03
      2.009  0.2128E+03  0.3210E+03
      2.080  0.1303E+03  0.3302E+03
      2.151  0.6051E+02  0.3345E+03
      2.221  0.1320E+02  0.3354E+03
      2.292  0.2884E+02  0.3375E+03
      2.362  0.4298E+01  0.3378E+03
      2.433  0.1118E+02  0.3386E+03
      2.504  0.1144E+02  0.3394E+03
      2.574  0.1947E+02  0.3408E+03
      2.645  0.1275E+02  0.3417E+03
      2.716  0.5704E+01  0.3421E+03
      2.786  0.1171E+02  0.3429E+03
      2.857  0.1137E+02  0.3437E+03
      2.927  0.1756E+02  0.3450E+03
      2.998  0.6904E+01  0.3455E+03
      3.069  0.8223E+01  0.3461E+03
      3.139  0.9891E+01  0.3468E+03
      3.210  0.3088E+01  0.3470E+03
      3.281  0.1936E+02  0.3483E+03
      3.351  0.2152E+02  0.3499E+03
      3.422  0.2106E+01  0.3500E+03
      3.493  0.9756E+01  0.3507E+03
      3.563  0.8385E+01  0.3513E+03
      3.634  0.8024E+01  0.3519E+03
      3.704  0.5023E+01  0.3522E+03
      3.775  0.1312E+02  0.3531E+03
      3.846  0.1633E+01  0.3533E+03
      3.916  0.2032E+02  0.3547E+03
      3.987  0.3330E+01  0.3550E+03
      4.058  0.1370E+02  0.3559E+03
      4.128  0.2061E+02  0.3574E+03
      4.199  0.2183E+01  0.3575E+03
      4.269  0.3675E+01  0.3578E+03
      4.340  0.7040E+01  0.3583E+03
      4.411  0.8160E+01  0.3589E+03
      4.481  0.2149E+01  0.3590E+03
      4.552  0.1419E+02  0.3600E+03
      4.623  0.9397E+01  0.3607E+03
      4.693  0.1558E+02  0.3618E+03
      4.764  0.4710E+01  0.3622E+03
      4.834  0.6061E+01  0.3626E+03
      4.905  0.1157E+02  0.3634E+03
      4.976  0.6504E+01  0.3639E+03
      5.046  0.9815E+01  0.3646E+03
      5.117  0.7098E+01  0.3651E+03
      5.188  0.5295E+01  0.3654E+03
      5.258  0.9331E+01  0.3661E+03
      5.329  0.6999E+00  0.3662E+03
      5.399  0.1879E+02  0.3675E+03
      5.470  0.4320E+01  0.3678E+03
      5.541  0.1061E+02  0.3686E+03
      5.611  0.1148E+02  0.3694E+03
      5.682  0.3122E+01  0.3696E+03
      5.753  0.4758E+01  0.3699E+03
      5.823  0.7278E+01  0.3704E+03
      5.894  0.8789E+01  0.3711E+03
      5.964  0.1031E+02  0.3718E+03
      6.035  0.6262E+01  0.3722E+03
      6.106  0.5659E+01  0.3726E+03
      6.176  0.1948E+01  0.3728E+03
      6.247  0.4308E+01  0.3731E+03
      6.318  0.1419E+02  0.3741E+03
      6.388  0.1221E+02  0.3749E+03
      6.459  0.1471E-03  0.3749E+03
      6.529  0.3227E+01  0.3752E+03
      6.600  0.4305E+01  0.3755E+03
      6.671  0.1228E+02  0.3763E+03
      6.741  0.4709E+01  0.3767E+03
      6.812  0.9351E+01  0.3773E+03
      6.883  0.1659E+01  0.3775E+03
      6.953  0.1252E+00  0.3775E+03
      7.024  0.5764E+01  0.3779E+03
      7.094  0.8092E+01  0.3784E+03
      7.165  0.3426E+01  0.3787E+03
      7.236  0.9283E+01  0.3793E+03
      7.306  0.2277E+00  0.3794E+03
      7.377  0.8756E+01  0.3800E+03
      7.448  0.1268E+02  0.3809E+03
      7.518  0.5926E+01  0.3813E+03
      7.589  0.9135E+01  0.3820E+03
      7.660  0.7463E+01  0.3825E+03
      7.730  0.7319E+01  0.3830E+03
      7.801  0.8243E+01  0.3836E+03
      7.871  0.1143E+02  0.3844E+03
      7.942  0.9836E+01  0.3851E+03
      8.013  0.8963E+01  0.3857E+03
      8.083  0.7053E+01  0.3862E+03
      8.154  0.7637E+01  0.3868E+03
      8.225  0.1203E+02  0.3876E+03
      8.295  0.1239E+02  0.3885E+03
      8.366  0.1316E+02  0.3895E+03
      8.436  0.5568E+01  0.3898E+03
      8.507  0.2928E+01  0.3901E+03
      8.578  0.1070E+02  0.3908E+03
      8.648  0.1225E+02  0.3917E+03
      8.719  0.4668E+01  0.3920E+03
      8.790  0.1353E+02  0.3930E+03
      8.860  0.9010E+01  0.3936E+03
      8.931  0.1066E+02  0.3944E+03
      9.001  0.4980E+01  0.3947E+03
      9.072  0.1382E+02  0.3957E+03
      9.143  0.9950E+01  0.3964E+03
      9.213  0.1982E+01  0.3966E+03
      9.284  0.3996E+01  0.3968E+03
      9.355  0.7679E+01  0.3974E+03
      9.425  0.1286E+02  0.3983E+03
      9.496  0.1040E+02  0.3990E+03
      9.566  0.7701E+01  0.3996E+03
      9.637  0.8621E+01  0.4002E+03
      9.708  0.6891E+01  0.4007E+03
      9.778  0.9468E+01  0.4014E+03
      9.849  0.6253E+01  0.4018E+03
      9.920  0.5891E+01  0.4022E+03
      9.990  0.6077E+01  0.4027E+03
     10.061  0.1072E+02  0.4034E+03
     10.131  0.1144E+02  0.4042E+03
     10.202  0.4974E+00  0.4043E+03
     10.273  0.1181E+02  0.4051E+03
     10.343  0.7893E+01  0.4057E+03
     10.414  0.6340E+01  0.4061E+03
     10.485  0.2571E+01  0.4063E+03
     10.555  0.7072E+01  0.4068E+03
     10.626  0.9038E+01  0.4074E+03
     10.696  0.8370E+01  0.4080E+03
     10.767  0.1239E+02  0.4089E+03
     10.838  0.1144E+02  0.4097E+03
     10.908  0.7392E+01  0.4102E+03
     10.979  0.7770E+01  0.4108E+03
     11.050  0.9658E+01  0.4115E+03
     11.120  0.1064E+02  0.4122E+03
     11.191  0.6639E+01  0.4127E+03
     11.262  0.1235E+02  0.4136E+03
     11.332  0.1619E+02  0.4147E+03
     11.403  0.4109E+01  0.4150E+03
     11.473  0.1172E+02  0.4158E+03
     11.544  0.1562E+02  0.4170E+03
     11.615  0.6546E+01  0.4174E+03
     11.685  0.1589E+02  0.4185E+03
     11.756  0.2322E+01  0.4187E+03
     11.827  0.1559E+02  0.4198E+03
     11.897  0.7101E+01  0.4203E+03
     11.968  0.7416E+01  0.4209E+03
     12.038  0.1349E+02  0.4218E+03
     12.109  0.1860E+02  0.4231E+03
     12.180  0.4323E+01  0.4234E+03
     12.250  0.8533E+01  0.4240E+03
     12.321  0.9934E+01  0.4247E+03
     12.392  0.1834E+02  0.4260E+03
     12.462  0.9790E+01  0.4267E+03
     12.533  0.4532E+01  0.4271E+03
     12.603  0.1000E+02  0.4278E+03
     12.674  0.1607E+02  0.4289E+03
     12.745  0.6100E+01  0.4293E+03
     12.815  0.1073E+02  0.4301E+03
     12.886  0.6668E+01  0.4306E+03
     12.957  0.5127E+01  0.4309E+03
     13.027  0.2075E+01  0.4311E+03
     13.098  0.7364E+01  0.4316E+03
     13.168  0.4238E+00  0.4316E+03
     13.239  0.1272E+00  0.4316E+03
     13.310  0.3175E+01  0.4319E+03
     13.380  0.0000E+00  0.4319E+03
     13.451  0.0000E+00  0.4319E+03
     13.522  0.0000E+00  0.4319E+03
     13.592  0.0000E+00  0.4319E+03
     13.663  0.5022E-01  0.4319E+03
     13.733  0.1931E+01  0.4320E+03
     13.804  0.0000E+00  0.4320E+03
     13.875  0.0000E+00  0.4320E+03
     13.945  0.0000E+00  0.4320E+03
     14.016  0.0000E+00  0.4320E+03
     14.087  0.0000E+00  0.4320E+03
     14.157  0.0000E+00  0.4320E+03
     14.228  0.0000E+00  0.4320E+03
     14.298  0.0000E+00  0.4320E+03
     14.369  0.0000E+00  0.4320E+03
     14.440  0.0000E+00  0.4320E+03
     14.510  0.0000E+00  0.4320E+03
     14.581  0.0000E+00  0.4320E+03
     14.652  0.0000E+00  0.4320E+03
