   32   32    1    1
  0.1202155E+02  0.7272832E-09  0.7272832E-09  0.7272832E-09  0.5000000E-15
  1.000000000000000E-004
  CAR 
 unknown system                          
  352   20  216
 
  0.0000000E+00  0.0000000E+00  0.0000000E+00  0.2915452E-02
   1       -5.5734
   2       -2.8418
   3       -2.8418
   4       -2.8418
   5       -2.8418
   6       -2.8418
   7       -2.8418
   8       -1.3531
   9       -1.3531
  10       -1.3531
  11       -1.3531
  12       -1.1513
  13       -1.1513
  14       -1.1513
  15       -0.9761
  16       -0.9761
  17       -0.9761
  18       -0.9761
  19       -0.9761
  20       -0.9761
  21       -0.9761
  22       -0.9761
  23       -0.9761
  24       -0.9761
  25       -0.9761
  26       -0.9761
  27       -0.7105
  28       -0.7105
  29       -0.7105
  30       -0.4285
  31       -0.4285
  32       -0.4285
  33       -0.4285
  34       -0.4285
  35       -0.4285
  36       -0.0514
  37       -0.0514
  38       -0.0514
  39       -0.0514
  40       -0.0514
  41       -0.0514
  42        0.1560
  43        0.1560
  44        0.1560
  45        0.1560
  46        0.1560
  47        0.1560
  48        0.1560
  49        0.1560
  50        0.1560
  51        0.1560
  52        0.1560
  53        0.1560
  54        0.1589
  55        0.1589
  56        0.1589
  57        0.1589
  58        0.1589
  59        0.1589
  60        0.1589
  61        0.1589
  62        0.1589
  63        0.1589
  64        0.1589
  65        0.1589
  66        0.3630
  67        0.3630
  68        0.3630
  69        0.3630
  70        0.3630
  71        0.3630
  72        0.3630
  73        0.3630
  74        0.3630
  75        0.3630
  76        0.3630
  77        0.3630
  78        0.6145
  79        0.6145
  80        0.6145
  81        0.6145
  82        0.6145
  83        0.6145
  84        0.6145
  85        0.6145
  86        0.6427
  87        0.6427
  88        0.6427
  89        1.0090
  90        1.0090
  91        1.0090
  92        1.0090
  93        1.0090
  94        1.0090
  95        1.1341
  96        1.1341
  97        1.1341
  98        1.1341
  99        1.1341
 100        1.1341
 101        1.1341
 102        1.1341
 103        1.1341
 104        1.1341
 105        1.1341
 106        1.1341
 107        1.2865
 108        1.2865
 109        1.2865
 110        1.2865
 111        1.2865
 112        1.2865
 113        1.2865
 114        1.2865
 115        1.2865
 116        1.2865
 117        1.2865
 118        1.2865
 119        1.4106
 120        1.4106
 121        1.4106
 122        1.4106
 123        1.4106
 124        1.4106
 125        1.4423
 126        1.4423
 127        1.4423
 128        1.4423
 129        1.4423
 130        1.4423
 131        1.4423
 132        1.4423
 133        1.4423
 134        1.4423
 135        1.4423
 136        1.4423
 137        1.4482
 138        1.4482
 139        1.7128
 140        1.7128
 141        1.7128
 142        1.7128
 143        1.7128
 144        1.7128
 145        1.9831
 146        1.9831
 147        1.9831
 148        1.9970
 149        1.9970
 150        1.9970
 151        1.9970
 152        1.9970
 153        1.9970
 154        1.9970
 155        1.9970
 156        2.1331
 157        2.1331
 158        2.1331
 159        2.1331
 160        2.1331
 161        2.1331
 162        2.1339
 163        2.1339
 164        2.1339
 165        2.1339
 166        2.1339
 167        2.1339
 168        2.6960
 169        2.6960
 170        2.6960
 171        2.6960
 172        3.3064
 173        3.3064
 174        3.3064
 175        3.3064
 176        3.3064
 177        3.3064
 178        3.3064
 179        3.3064
 180        3.3064
 181        3.3064
 182        3.3064
 183        3.3064
 184        5.1652
 185        5.1652
 186        5.1652
 187        7.3029
 188        7.3029
 189        7.3029
 190        7.3029
 191        9.7882
 192        9.7882
 193        9.7882
 194        9.7882
 195        9.7882
 196        9.7882
 197        9.7882
 198        9.7882
 199        9.7882
 200        9.7882
 201        9.7882
 202        9.7882
 203       10.6362
 204       10.6362
 205       10.6362
 206       11.8739
 207       11.8739
 208       11.8739
 209       11.8739
 210       11.8739
 211       11.8739
 212       12.3200
 213       12.3200
 214       12.3200
 215       12.3200
 216       12.3200
 
  0.1428571E+00  0.0000000E+00  0.0000000E+00  0.1749271E-01
   1       -5.5122
   2       -3.4938
   3       -2.7919
   4       -2.7919
   5       -2.7919
   6       -2.7919
   7       -2.2038
   8       -1.3414
   9       -1.3414
  10       -1.3414
  11       -1.3414
  12       -1.3394
  13       -1.3394
  14       -1.3394
  15       -1.3394
  16       -1.1518
  17       -1.1229
  18       -1.1229
  19       -1.0040
  20       -1.0040
  21       -1.0040
  22       -1.0040
  23       -0.6944
  24       -0.6934
  25       -0.6934
  26       -0.6658
  27       -0.6658
  28       -0.6658
  29       -0.6658
  30       -0.4762
  31       -0.4762
  32       -0.4066
  33       -0.4066
  34       -0.4066
  35       -0.4066
  36       -0.2010
  37       -0.0788
  38       -0.0788
  39       -0.0444
  40       -0.0444
  41       -0.0444
  42       -0.0444
  43        0.1000
  44        0.1285
  45        0.1285
  46        0.1285
  47        0.1285
  48        0.1324
  49        0.1324
  50        0.1324
  51        0.1324
  52        0.1583
  53        0.1583
  54        0.1583
  55        0.1583
  56        0.1773
  57        0.1773
  58        0.1773
  59        0.1773
  60        0.2250
  61        0.2250
  62        0.2250
  63        0.2250
  64        0.2362
  65        0.2362
  66        0.2363
  67        0.2363
  68        0.3773
  69        0.3773
  70        0.3773
  71        0.3773
  72        0.4283
  73        0.4283
  74        0.4545
  75        0.4545
  76        0.4545
  77        0.4545
  78        0.6031
  79        0.6031
  80        0.6031
  81        0.6031
  82        0.6249
  83        0.6301
  84        0.6301
  85        0.6301
  86        0.6301
  87        0.6571
  88        0.6571
  89        0.9348
  90        0.9348
  91        0.9348
  92        0.9348
  93        1.0372
  94        1.0741
  95        1.0741
  96        1.0741
  97        1.0741
  98        1.1019
  99        1.1291
 100        1.1291
 101        1.1455
 102        1.1455
 103        1.1455
 104        1.1455
 105        1.1859
 106        1.1859
 107        1.1859
 108        1.1859
 109        1.2863
 110        1.2863
 111        1.2863
 112        1.2863
 113        1.3463
 114        1.3463
 115        1.3463
 116        1.3463
 117        1.3719
 118        1.3719
 119        1.3719
 120        1.3719
 121        1.4107
 122        1.4107
 123        1.4107
 124        1.4107
 125        1.4319
 126        1.4510
 127        1.4510
 128        1.4535
 129        1.4535
 130        1.4547
 131        1.5040
 132        1.5040
 133        1.5040
 134        1.5040
 135        1.5395
 136        1.5395
 137        1.5395
 138        1.5395
 139        1.6535
 140        1.7331
 141        1.7331
 142        1.7331
 143        1.7331
 144        1.7725
 145        1.8022
 146        1.8022
 147        1.8022
 148        1.8022
 149        1.9622
 150        1.9622
 151        1.9763
 152        1.9796
 153        1.9796
 154        1.9796
 155        1.9796
 156        2.0268
 157        2.0268
 158        2.1072
 159        2.1072
 160        2.1072
 161        2.1072
 162        2.1084
 163        2.1084
 164        2.1332
 165        2.1332
 166        2.1338
 167        2.1338
 168        2.8221
 169        2.8221
 170        2.8221
 171        2.8221
 172        2.8705
 173        2.8705
 174        2.8705
 175        2.8705
 176        3.2994
 177        3.2994
 178        3.2994
 179        3.2994
 180        3.8762
 181        3.8762
 182        3.8762
 183        3.8762
 184        4.7707
 185        5.3265
 186        5.3265
 187        7.4790
 188        7.4790
 189        7.4790
 190        7.4790
 191        8.8235
 192        8.8235
 193        9.0307
 194        9.0307
 195        9.0307
 196        9.0307
 197        9.8707
 198        9.8707
 199        9.8707
 200        9.8707
 201       10.6593
 202       10.6593
 203       10.8124
 204       10.8124
 205       11.1532
 206       11.6085
 207       11.6085
 208       12.1200
 209       12.1200
 210       12.1200
 211       12.1200
 212       12.2635
 213       12.2635
 214       12.2635
 215       12.2651
 216       12.4186
 
  0.2857143E+00  0.0000000E+00  0.0000000E+00  0.1749271E-01
   1       -5.3291
   2       -4.0955
   3       -2.6447
   4       -2.6447
   5       -2.6447
   6       -2.6447
   7       -1.7277
   8       -1.7277
   9       -1.7277
  10       -1.7277
  11       -1.6815
  12       -1.2992
  13       -1.2992
  14       -1.2992
  15       -1.2992
  16       -1.1617
  17       -1.0732
  18       -1.0732
  19       -1.0732
  20       -1.0732
  21       -1.0404
  22       -1.0404
  23       -0.6467
  24       -0.6422
  25       -0.6422
  26       -0.5995
  27       -0.5995
  28       -0.4245
  29       -0.4245
  30       -0.4245
  31       -0.4245
  32       -0.3440
  33       -0.3440
  34       -0.3440
  35       -0.3440
  36       -0.3415
  37       -0.2753
  38       -0.2753
  39       -0.0241
  40       -0.0241
  41       -0.0241
  42       -0.0241
  43        0.0664
  44        0.0664
  45        0.0664
  46        0.0664
  47        0.0894
  48        0.0894
  49        0.0894
  50        0.0894
  51        0.0905
  52        0.0905
  53        0.0905
  54        0.0905
  55        0.1648
  56        0.1648
  57        0.1648
  58        0.1648
  59        0.1837
  60        0.1837
  61        0.1837
  62        0.1837
  63        0.2454
  64        0.3980
  65        0.3980
  66        0.3980
  67        0.3980
  68        0.4277
  69        0.4277
  70        0.4277
  71        0.4277
  72        0.5235
  73        0.5235
  74        0.5235
  75        0.5235
  76        0.5707
  77        0.5707
  78        0.5707
  79        0.5707
  80        0.5724
  81        0.6761
  82        0.6761
  83        0.6761
  84        0.6761
  85        0.6999
  86        0.6999
  87        0.7356
  88        0.7356
  89        0.8085
  90        0.8085
  91        0.8085
  92        0.8085
  93        0.9612
  94        0.9612
  95        0.9612
  96        0.9612
  97        0.9878
  98        0.9878
  99        1.1194
 100        1.2132
 101        1.2132
 102        1.2132
 103        1.2132
 104        1.2674
 105        1.2674
 106        1.2674
 107        1.2674
 108        1.2868
 109        1.2868
 110        1.2868
 111        1.2868
 112        1.3268
 113        1.3268
 114        1.3268
 115        1.3268
 116        1.3847
 117        1.3999
 118        1.3999
 119        1.3999
 120        1.3999
 121        1.4061
 122        1.4061
 123        1.4061
 124        1.4061
 125        1.4174
 126        1.4293
 127        1.4293
 128        1.4293
 129        1.4293
 130        1.4741
 131        1.5536
 132        1.5536
 133        1.5973
 134        1.6219
 135        1.6219
 136        1.6219
 137        1.6219
 138        1.6222
 139        1.6222
 140        1.6590
 141        1.6590
 142        1.6590
 143        1.6590
 144        1.7606
 145        1.7606
 146        1.8251
 147        1.8251
 148        1.8251
 149        1.8251
 150        1.8294
 151        1.9008
 152        1.9008
 153        1.9287
 154        1.9287
 155        1.9287
 156        1.9287
 157        1.9561
 158        2.0319
 159        2.0319
 160        2.0319
 161        2.0319
 162        2.0366
 163        2.0366
 164        2.1333
 165        2.1333
 166        2.1337
 167        2.1337
 168        2.5270
 169        2.5270
 170        2.5270
 171        2.5270
 172        3.0092
 173        3.0092
 174        3.0092
 175        3.0092
 176        3.2760
 177        3.2760
 178        3.2760
 179        3.2760
 180        3.8856
 181        4.6131
 182        4.6131
 183        4.6131
 184        4.6131
 185        5.7573
 186        5.7573
 187        7.7969
 188        7.7969
 189        7.7969
 190        7.7969
 191        7.9248
 192        7.9248
 193        7.9864
 194        7.9864
 195        7.9864
 196        7.9864
 197       10.1137
 198       10.1137
 199       10.1137
 200       10.1137
 201       10.7302
 202       10.7302
 203       10.9661
 204       10.9661
 205       10.9661
 206       10.9661
 207       11.2880
 208       11.2880
 209       11.6717
 210       11.6717
 211       11.6717
 212       11.6717
 213       11.8897
 214       11.8897
 215       12.2895
 216       12.2896
 
  0.4285714E+00  0.0000000E+00  0.0000000E+00  0.1749271E-01
   1       -5.0274
   2       -4.6128
   3       -2.4074
   4       -2.4074
   5       -2.4074
   6       -2.4074
   7       -2.0941
   8       -2.0941
   9       -2.0941
  10       -2.0941
  11       -1.3577
  12       -1.2363
  13       -1.2363
  14       -1.2363
  15       -1.2363
  16       -1.2106
  17       -1.1571
  18       -1.1571
  19       -1.1571
  20       -1.1571
  21       -0.9131
  22       -0.9131
  23       -0.7574
  24       -0.7574
  25       -0.5695
  26       -0.5560
  27       -0.5560
  28       -0.4663
  29       -0.4341
  30       -0.4341
  31       -0.2598
  32       -0.2598
  33       -0.2598
  34       -0.2598
  35       -0.2580
  36       -0.2580
  37       -0.2580
  38       -0.2580
  39       -0.0353
  40       -0.0353
  41       -0.0353
  42       -0.0353
  43       -0.0245
  44       -0.0245
  45       -0.0245
  46       -0.0245
  47        0.0075
  48        0.0075
  49        0.0075
  50        0.0075
  51        0.0470
  52        0.0470
  53        0.0470
  54        0.0470
  55        0.1734
  56        0.1734
  57        0.1734
  58        0.1734
  59        0.1810
  60        0.1810
  61        0.1810
  62        0.1810
  63        0.3772
  64        0.4657
  65        0.4657
  66        0.4657
  67        0.4657
  68        0.4882
  69        0.5222
  70        0.5222
  71        0.5222
  72        0.5222
  73        0.5971
  74        0.5971
  75        0.5971
  76        0.5971
  77        0.6916
  78        0.6916
  79        0.6916
  80        0.6916
  81        0.6920
  82        0.6920
  83        0.6920
  84        0.6920
  85        0.7502
  86        0.7502
  87        0.7502
  88        0.7502
  89        0.7704
  90        0.7704
  91        0.8477
  92        0.8477
  93        0.8477
  94        0.8477
  95        0.8671
  96        0.8671
  97        1.0404
  98        1.0404
  99        1.0404
 100        1.0404
 101        1.0718
 102        1.0718
 103        1.2179
 104        1.2905
 105        1.2905
 106        1.2905
 107        1.2905
 108        1.3011
 109        1.3011
 110        1.3011
 111        1.3011
 112        1.3018
 113        1.3018
 114        1.3018
 115        1.3018
 116        1.3107
 117        1.3400
 118        1.3400
 119        1.3400
 120        1.3400
 121        1.3746
 122        1.3746
 123        1.3746
 124        1.3746
 125        1.3860
 126        1.3860
 127        1.3860
 128        1.3860
 129        1.4230
 130        1.4230
 131        1.5054
 132        1.5472
 133        1.6816
 134        1.6816
 135        1.7424
 136        1.7424
 137        1.7424
 138        1.7424
 139        1.7830
 140        1.7830
 141        1.7909
 142        1.7909
 143        1.7909
 144        1.7909
 145        1.8038
 146        1.8038
 147        1.8477
 148        1.8477
 149        1.8477
 150        1.8477
 151        1.8807
 152        1.9209
 153        1.9209
 154        1.9209
 155        1.9209
 156        1.9237
 157        1.9248
 158        1.9248
 159        2.0058
 160        2.0058
 161        2.0058
 162        2.0058
 163        2.0311
 164        2.1334
 165        2.1334
 166        2.1336
 167        2.1336
 168        2.2434
 169        2.2434
 170        2.2434
 171        2.2434
 172        2.8998
 173        3.1453
 174        3.1453
 175        3.1453
 176        3.1453
 177        3.2290
 178        3.2290
 179        3.2290
 180        3.2290
 181        5.5258
 182        5.5258
 183        5.5258
 184        5.5258
 185        6.3685
 186        6.3685
 187        6.5987
 188        6.5987
 189        6.5987
 190        6.5987
 191        7.1012
 192        7.1012
 193        8.7739
 194        8.7739
 195        8.7739
 196        8.7739
 197        9.7839
 198        9.7839
 199        9.7839
 200        9.7839
 201       10.5052
 202       10.5052
 203       10.5052
 204       10.5052
 205       10.8537
 206       10.8537
 207       11.0296
 208       11.0296
 209       11.0296
 210       11.0296
 211       11.0368
 212       11.0368
 213       12.5257
 214       12.5257
 215       12.5257
 216       12.5257
 
  0.1428571E+00  0.1428571E+00  0.0000000E+00  0.3498542E-01
   1       -5.4510
   2       -3.4405
   3       -3.4405
   4       -2.7431
   5       -2.7431
   6       -2.1581
   7       -2.1581
   8       -1.8033
   9       -1.3750
  10       -1.3750
  11       -1.3458
  12       -1.3458
  13       -1.3458
  14       -1.3458
  15       -1.2792
  16       -1.2792
  17       -1.1228
  18       -1.1228
  19       -1.0949
  20       -0.9233
  21       -0.9233
  22       -0.7150
  23       -0.7150
  24       -0.7150
  25       -0.7150
  26       -0.6776
  27       -0.6776
  28       -0.6768
  29       -0.4761
  30       -0.4588
  31       -0.4588
  32       -0.4530
  33       -0.4530
  34       -0.3843
  35       -0.3843
  36       -0.1916
  37       -0.1916
  38       -0.0907
  39       -0.0907
  40       -0.0722
  41       -0.0722
  42       -0.0368
  43       -0.0368
  44        0.0777
  45        0.0777
  46        0.0958
  47        0.0958
  48        0.1045
  49        0.1045
  50        0.1307
  51        0.1492
  52        0.1807
  53        0.1807
  54        0.1807
  55        0.1807
  56        0.1931
  57        0.1931
  58        0.2284
  59        0.2284
  60        0.2284
  61        0.2284
  62        0.2525
  63        0.2756
  64        0.2756
  65        0.2756
  66        0.2756
  67        0.3196
  68        0.3196
  69        0.3958
  70        0.3958
  71        0.4251
  72        0.4251
  73        0.4650
  74        0.4650
  75        0.4650
  76        0.4650
  77        0.5637
  78        0.5686
  79        0.5686
  80        0.6080
  81        0.6080
  82        0.6148
  83        0.6412
  84        0.6412
  85        0.6567
  86        0.6567
  87        0.6639
  88        0.6704
  89        0.8888
  90        0.8888
  91        0.9529
  92        0.9529
  93        0.9980
  94        0.9980
  95        1.0728
  96        1.0728
  97        1.0728
  98        1.0728
  99        1.1145
 100        1.1293
 101        1.1293
 102        1.1302
 103        1.1302
 104        1.1302
 105        1.1302
 106        1.2070
 107        1.2070
 108        1.2075
 109        1.2290
 110        1.2290
 111        1.2365
 112        1.2365
 113        1.2731
 114        1.4073
 115        1.4073
 116        1.4274
 117        1.4386
 118        1.4386
 119        1.4466
 120        1.4466
 121        1.4495
 122        1.4495
 123        1.4495
 124        1.4495
 125        1.4507
 126        1.4531
 127        1.4531
 128        1.4547
 129        1.4547
 130        1.4959
 131        1.4959
 132        1.5290
 133        1.5290
 134        1.5905
 135        1.5905
 136        1.5939
 137        1.5939
 138        1.5939
 139        1.5939
 140        1.6062
 141        1.6651
 142        1.6651
 143        1.7153
 144        1.7153
 145        1.7424
 146        1.7424
 147        1.8078
 148        1.8078
 149        1.9418
 150        1.9418
 151        1.9419
 152        1.9455
 153        1.9884
 154        1.9884
 155        1.9908
 156        1.9908
 157        2.0114
 158        2.0114
 159        2.0843
 160        2.0843
 161        2.1068
 162        2.1068
 163        2.1076
 164        2.1076
 165        2.1084
 166        2.1084
 167        2.1173
 168        2.5192
 169        2.5672
 170        2.5672
 171        2.8595
 172        2.8595
 173        2.8595
 174        2.8595
 175        3.2316
 176        3.2316
 177        3.3481
 178        3.3481
 179        3.8773
 180        3.8773
 181        3.8773
 182        3.8773
 183        4.5339
 184        4.9297
 185        4.9297
 186        5.4788
 187        7.3362
 188        7.3362
 189        7.9294
 190        7.9294
 191        8.1688
 192        8.1688
 193        8.9111
 194        8.9111
 195        8.9260
 196        8.9260
 197        9.2990
 198        9.2990
 199        9.9408
 200        9.9408
 201       10.6826
 202       10.8913
 203       10.8913
 204       11.1828
 205       11.1828
 206       11.4859
 207       11.4859
 208       11.4859
 209       11.4859
 210       11.5581
 211       11.7023
 212       11.7023
 213       12.3417
 214       12.3417
 215       12.7857
 216       12.7934
 
  0.2857143E+00  0.1428571E+00  0.0000000E+00  0.6997085E-01
   1       -5.2686
   2       -4.0394
   3       -3.2822
   4       -2.5990
   5       -2.5990
   6       -2.2623
   7       -2.0239
   8       -1.7120
   9       -1.7120
  10       -1.6402
  11       -1.3891
  12       -1.3891
  13       -1.3578
  14       -1.3578
  15       -1.2268
  16       -1.1942
  17       -1.1942
  18       -1.1312
  19       -1.0389
  20       -1.0140
  21       -0.8288
  22       -0.8288
  23       -0.6306
  24       -0.6270
  25       -0.6269
  26       -0.5923
  27       -0.5874
  28       -0.5774
  29       -0.4853
  30       -0.4853
  31       -0.4126
  32       -0.3855
  33       -0.3454
  34       -0.3300
  35       -0.3206
  36       -0.3206
  37       -0.2752
  38       -0.2655
  39       -0.1638
  40       -0.1247
  41       -0.0530
  42       -0.0143
  43       -0.0143
  44       -0.0103
  45       -0.0103
  46       -0.0018
  47        0.0153
  48        0.0559
  49        0.0953
  50        0.0953
  51        0.1167
  52        0.1253
  53        0.1253
  54        0.1552
  55        0.1931
  56        0.2247
  57        0.2247
  58        0.2473
  59        0.2693
  60        0.2693
  61        0.2910
  62        0.2910
  63        0.3077
  64        0.3154
  65        0.3363
  66        0.3363
  67        0.4061
  68        0.4147
  69        0.4473
  70        0.4473
  71        0.4938
  72        0.4938
  73        0.5128
  74        0.5128
  75        0.5305
  76        0.5305
  77        0.5672
  78        0.5945
  79        0.5945
  80        0.6362
  81        0.6800
  82        0.6800
  83        0.6961
  84        0.7027
  85        0.7099
  86        0.7128
  87        0.7128
  88        0.7250
  89        0.7894
  90        0.7894
  91        0.8226
  92        0.8476
  93        0.9402
  94        0.9534
  95        0.9534
  96        0.9883
  97        1.0187
  98        1.0187
  99        1.1103
 100        1.1103
 101        1.1312
 102        1.1479
 103        1.1666
 104        1.2026
 105        1.2026
 106        1.2032
 107        1.2107
 108        1.2160
 109        1.2160
 110        1.2730
 111        1.2740
 112        1.2980
 113        1.2980
 114        1.3181
 115        1.3263
 116        1.3539
 117        1.3539
 118        1.3859
 119        1.3932
 120        1.3932
 121        1.4311
 122        1.4392
 123        1.4392
 124        1.4526
 125        1.4584
 126        1.4676
 127        1.4707
 128        1.5196
 129        1.5196
 130        1.5451
 131        1.5592
 132        1.5624
 133        1.5833
 134        1.5833
 135        1.6026
 136        1.6218
 137        1.6366
 138        1.6974
 139        1.7014
 140        1.7014
 141        1.7036
 142        1.7036
 143        1.7063
 144        1.7113
 145        1.7202
 146        1.7416
 147        1.8150
 148        1.8150
 149        1.8688
 150        1.8824
 151        1.9090
 152        1.9251
 153        1.9369
 154        1.9369
 155        1.9642
 156        1.9642
 157        1.9729
 158        1.9774
 159        2.0204
 160        2.0204
 161        2.0319
 162        2.0326
 163        2.0365
 164        2.1064
 165        2.1079
 166        2.1083
 167        2.1087
 168        2.2469
 169        2.5149
 170        2.5149
 171        2.5863
 172        2.5863
 173        2.8254
 174        2.8254
 175        2.9174
 176        3.5727
 177        3.5727
 178        3.8753
 179        3.8753
 180        3.9989
 181        4.0512
 182        4.6245
 183        4.6245
 184        5.3431
 185        5.3466
 186        5.8914
 187        7.0105
 188        7.3583
 189        7.5635
 190        7.5635
 191        7.8177
 192        7.8177
 193        8.0194
 194        8.6266
 195        8.6266
 196        8.6509
 197        9.1680
 198        9.3953
 199        9.3953
 200       10.2205
 201       10.2205
 202       10.7536
 203       10.7903
 204       10.8020
 205       10.8020
 206       10.8657
 207       11.1244
 208       11.2733
 209       11.4098
 210       11.8112
 211       11.8112
 212       11.8359
 213       11.9664
 214       11.9774
 215       12.4509
 216       12.6343
 
  0.4285714E+00  0.1428571E+00  0.0000000E+00  0.6997085E-01
   1       -4.9678
   2       -4.5547
   3       -3.0247
   4       -2.6787
   5       -2.3676
   6       -2.3676
   7       -2.0639
   8       -2.0639
   9       -1.8105
  10       -1.5355
  11       -1.3863
  12       -1.3863
  13       -1.3734
  14       -1.3734
  15       -1.3207
  16       -1.1774
  17       -1.0862
  18       -1.0862
  19       -0.9607
  20       -0.9607
  21       -0.9091
  22       -0.8889
  23       -0.7499
  24       -0.7351
  25       -0.5546
  26       -0.5431
  27       -0.5421
  28       -0.4528
  29       -0.4257
  30       -0.4219
  31       -0.3954
  32       -0.3644
  33       -0.3092
  34       -0.3092
  35       -0.2813
  36       -0.2534
  37       -0.2404
  38       -0.2404
  39       -0.1766
  40       -0.1432
  41       -0.1186
  42       -0.1038
  43       -0.1038
  44       -0.0578
  45       -0.0480
  46       -0.0480
  47       -0.0231
  48        0.0146
  49        0.0220
  50        0.0220
  51        0.0699
  52        0.0699
  53        0.1331
  54        0.1336
  55        0.1482
  56        0.1949
  57        0.2477
  58        0.2477
  59        0.2631
  60        0.2631
  61        0.3627
  62        0.3635
  63        0.3635
  64        0.3767
  65        0.3950
  66        0.4414
  67        0.4414
  68        0.4855
  69        0.5163
  70        0.5246
  71        0.5246
  72        0.5658
  73        0.5658
  74        0.5995
  75        0.5995
  76        0.5999
  77        0.5999
  78        0.6564
  79        0.6862
  80        0.6862
  81        0.6933
  82        0.6958
  83        0.6958
  84        0.7441
  85        0.7441
  86        0.7603
  87        0.7720
  88        0.7740
  89        0.7941
  90        0.7941
  91        0.8428
  92        0.8428
  93        0.8578
  94        0.8680
  95        0.9029
  96        0.9029
  97        0.9510
  98        0.9510
  99        0.9914
 100        0.9914
 101        1.0269
 102        1.0510
 103        1.1394
 104        1.1500
 105        1.1500
 106        1.1608
 107        1.1785
 108        1.1785
 109        1.2145
 110        1.2319
 111        1.2700
 112        1.2988
 113        1.2988
 114        1.3158
 115        1.3443
 116        1.3592
 117        1.3592
 118        1.3750
 119        1.3883
 120        1.3985
 121        1.4033
 122        1.4204
 123        1.4460
 124        1.4535
 125        1.4582
 126        1.4684
 127        1.4684
 128        1.5014
 129        1.5078
 130        1.5099
 131        1.5110
 132        1.5110
 133        1.5472
 134        1.6694
 135        1.6877
 136        1.7180
 137        1.7180
 138        1.7301
 139        1.7825
 140        1.7826
 141        1.7882
 142        1.8080
 143        1.8099
 144        1.8104
 145        1.8104
 146        1.8183
 147        1.8183
 148        1.8390
 149        1.8390
 150        1.8443
 151        1.8714
 152        1.9015
 153        1.9015
 154        1.9195
 155        1.9245
 156        1.9255
 157        1.9273
 158        1.9273
 159        1.9332
 160        1.9931
 161        1.9931
 162        2.0245
 163        2.1062
 164        2.1067
 165        2.1081
 166        2.1082
 167        2.2313
 168        2.2313
 169        2.2384
 170        2.3261
 171        2.5538
 172        2.6821
 173        2.6821
 174        2.7664
 175        2.7664
 176        3.0986
 177        3.7699
 178        3.7699
 179        3.8522
 180        3.8522
 181        4.8426
 182        5.5464
 183        5.5464
 184        5.8623
 185        5.9251
 186        6.3083
 187        6.4857
 188        6.6055
 189        6.6245
 190        6.6245
 191        7.2053
 192        7.4188
 193        8.1689
 194        8.1689
 195        9.0842
 196        9.0842
 197        9.5266
 198        9.5266
 199        9.5791
 200        9.7425
 201        9.7425
 202       10.1258
 203       10.2174
 204       10.2174
 205       10.5971
 206       10.5971
 207       10.8756
 208       11.0443
 209       11.4305
 210       11.5015
 211       11.6626
 212       12.0065
 213       12.0092
 214       12.0434
 215       12.3376
 216       13.0922
 
  0.2857143E+00  0.2857143E+00  0.0000000E+00  0.3498542E-01
   1       -5.0878
   2       -3.8726
   3       -3.8726
   4       -2.7753
   5       -2.4650
   6       -2.4650
   7       -1.6691
   8       -1.6691
   9       -1.6691
  10       -1.6691
  11       -1.5196
  12       -1.5196
  13       -1.4680
  14       -1.4680
  15       -1.0716
  16       -1.0716
  17       -1.0427
  18       -1.0427
  19       -0.9374
  20       -0.8298
  21       -0.8298
  22       -0.6217
  23       -0.6217
  24       -0.6217
  25       -0.6217
  26       -0.5821
  27       -0.5821
  28       -0.5808
  29       -0.5583
  30       -0.5583