   4   4   0   0
  0.2043332E+02  0.4339766E-09  0.4339766E-09  0.4339766E-09  0.5000000E-15
  1.000000000000000E-004
  CAR 
 unknown system                          
     14.58349880     -5.36147599  301      3.59823852      1.00000000
     -5.361  0.0000E+00  0.0000E+00
     -5.295  0.0000E+00  0.0000E+00
     -5.229  0.0000E+00  0.0000E+00
     -5.162  0.0000E+00  0.0000E+00
     -5.096  0.0000E+00  0.0000E+00
     -5.029  0.0000E+00  0.0000E+00
     -4.963  0.0000E+00  0.0000E+00
     -4.896  0.0000E+00  0.0000E+00
     -4.830  0.0000E+00  0.0000E+00
     -4.763  0.0000E+00  0.0000E+00
     -4.697  0.0000E+00  0.0000E+00
     -4.630  0.0000E+00  0.0000E+00
     -4.564  0.0000E+00  0.0000E+00
     -4.497  0.1905E-10  0.1266E-11
     -4.431  0.1740E-01  0.1157E-02
     -4.364  0.1043E+00  0.8094E-02
     -4.298  0.2083E+00  0.2195E-01
     -4.231  0.1386E+00  0.3121E-01
     -4.165  0.1031E+00  0.3810E-01
     -4.098  0.4125E+00  0.6562E-01
     -4.032  0.4144E+00  0.9352E-01
     -3.965  0.9452E-12  0.9375E-01
     -3.899  0.2079E+00  0.1076E+00
     -3.832  0.5196E+00  0.1422E+00
     -3.766  0.4152E+00  0.1700E+00
     -3.699  0.4176E+00  0.1979E+00
     -3.633  0.1393E+00  0.2072E+00
     -3.566  0.4180E+00  0.2350E+00
     -3.500  0.8355E+00  0.2905E+00
     -3.433  0.1333E-06  0.2905E+00
     -3.367  0.4848E+00  0.3227E+00
     -3.300  0.5140E+00  0.3569E+00
     -3.234  0.9786E+00  0.4220E+00
     -3.168  0.2711E+00  0.4405E+00
     -3.101  0.1383E+01  0.5324E+00
     -3.035  0.1614E-01  0.5336E+00
     -2.968  0.4158E+00  0.5612E+00
     -2.902  0.1326E+00  0.5702E+00
     -2.835  0.1390E+01  0.6626E+00
     -2.769  0.1324E+01  0.7507E+00
     -2.702  0.3210E+00  0.7720E+00
     -2.636  0.9042E+00  0.8321E+00
     -2.569  0.7670E+00  0.8831E+00
     -2.503  0.1227E+01  0.9647E+00
     -2.436  0.6778E+00  0.1010E+01
     -2.370  0.2140E+01  0.1152E+01
     -2.303  0.8656E+00  0.1210E+01
     -2.237  0.1838E+01  0.1333E+01
     -2.170  0.2337E+01  0.1488E+01
     -2.104  0.4400E+01  0.1781E+01
     -2.037  0.1811E+01  0.1901E+01
     -1.971  0.4893E+01  0.2227E+01
     -1.904  0.4035E+01  0.2496E+01
     -1.838  0.2350E+01  0.2653E+01
     -1.771  0.9216E+01  0.3266E+01
     -1.705  0.6239E+01  0.3681E+01
     -1.638  0.5785E+01  0.4066E+01
     -1.572  0.1202E+02  0.4867E+01
     -1.505  0.8941E+01  0.5462E+01
     -1.439  0.7643E+01  0.5970E+01
     -1.372  0.1394E+02  0.6897E+01
     -1.306  0.5765E+01  0.7281E+01
     -1.240  0.7185E+01  0.7760E+01
     -1.173  0.1119E+02  0.8504E+01
     -1.107  0.7430E+01  0.8998E+01
     -1.040  0.6429E+01  0.9426E+01
     -0.974  0.7319E+01  0.9913E+01
     -0.907  0.5378E+01  0.1027E+02
     -0.841  0.5526E+01  0.1064E+02
     -0.774  0.1232E+02  0.1146E+02
     -0.708  0.5137E+01  0.1180E+02
     -0.641  0.1332E+02  0.1269E+02
     -0.575  0.9369E+01  0.1331E+02
     -0.508  0.1259E+02  0.1415E+02
     -0.442  0.9704E+01  0.1480E+02
     -0.375  0.1308E+02  0.1567E+02
     -0.309  0.7946E+01  0.1620E+02
     -0.242  0.1090E+02  0.1692E+02
     -0.176  0.1543E+02  0.1795E+02
     -0.109  0.1383E+02  0.1887E+02
     -0.043  0.1585E+02  0.1992E+02
      0.024  0.1863E+02  0.2116E+02
      0.090  0.1596E+02  0.2223E+02
      0.157  0.1072E+02  0.2294E+02
      0.223  0.1373E+02  0.2385E+02
      0.290  0.8461E+01  0.2442E+02
      0.356  0.8102E+01  0.2496E+02
      0.423  0.7445E+01  0.2545E+02
      0.489  0.9580E+01  0.2609E+02
      0.556  0.8801E+01  0.2668E+02
      0.622  0.1077E+02  0.2739E+02
      0.688  0.1232E+02  0.2822E+02
      0.755  0.1263E+02  0.2906E+02
      0.821  0.1081E+02  0.2978E+02
      0.888  0.1152E+02  0.3054E+02
      0.954  0.9100E+01  0.3115E+02
      1.021  0.1343E+02  0.3204E+02
      1.087  0.9152E+01  0.3265E+02
      1.154  0.8055E+01  0.3319E+02
      1.220  0.9080E+01  0.3379E+02
      1.287  0.1016E+02  0.3447E+02
      1.353  0.9396E+01  0.3509E+02
      1.420  0.9994E+01  0.3576E+02
      1.486  0.8077E+01  0.3629E+02
      1.553  0.1367E+02  0.3720E+02
      1.619  0.1473E+02  0.3818E+02
      1.686  0.1250E+02  0.3902E+02
      1.752  0.1917E+02  0.4029E+02
      1.819  0.1074E+02  0.4101E+02
      1.885  0.7872E+01  0.4153E+02
      1.952  0.6140E+01  0.4194E+02
      2.018  0.1034E+01  0.4201E+02
      2.085  0.5051E+00  0.4204E+02
      2.151  0.1167E+00  0.4205E+02
      2.218  0.2222E+01  0.4220E+02
      2.284  0.3431E+01  0.4243E+02
      2.351  0.1253E+01  0.4251E+02
      2.417  0.8341E+00  0.4257E+02
      2.484  0.1406E-12  0.4257E+02
      2.550  0.7621E+00  0.4262E+02
      2.617  0.6962E-01  0.4262E+02
      2.683  0.3693E+01  0.4287E+02
      2.749  0.1470E+01  0.4297E+02
      2.816  0.1506E+01  0.4307E+02
      2.882  0.5656E+00  0.4311E+02
      2.949  0.1941E+01  0.4323E+02
      3.015  0.0000E+00  0.4323E+02
      3.082  0.2843E-01  0.4324E+02
      3.148  0.1225E+01  0.4332E+02
      3.215  0.1379E+01  0.4341E+02
      3.281  0.2590E+01  0.4358E+02
      3.348  0.1302E+01  0.4367E+02
      3.414  0.1253E+01  0.4375E+02
      3.481  0.1796E+01  0.4387E+02
      3.547  0.7961E-04  0.4387E+02
      3.614  0.2500E+01  0.4404E+02
      3.680  0.3359E+00  0.4406E+02
      3.747  0.8246E-01  0.4407E+02
      3.813  0.2463E+01  0.4423E+02
      3.880  0.1305E+01  0.4432E+02
      3.946  0.1240E+01  0.4440E+02
      4.013  0.1251E+01  0.4448E+02
      4.079  0.1671E+01  0.4459E+02
      4.146  0.1339E+01  0.4468E+02
      4.212  0.7637E+00  0.4473E+02
      4.279  0.1658E+01  0.4484E+02
      4.345  0.8336E+00  0.4490E+02
      4.412  0.1048E+01  0.4497E+02
      4.478  0.9573E+00  0.4503E+02
      4.545  0.8065E+00  0.4509E+02
      4.611  0.1684E+01  0.4520E+02
      4.677  0.1245E+01  0.4528E+02
      4.744  0.2080E+01  0.4542E+02
      4.810  0.1394E+01  0.4551E+02
      4.877  0.9370E+00  0.4558E+02
      4.943  0.1427E+01  0.4567E+02
      5.010  0.1220E+01  0.4575E+02
      5.076  0.3884E+00  0.4578E+02
      5.143  0.1877E+01  0.4590E+02
      5.209  0.7510E+00  0.4595E+02
      5.276  0.8106E+00  0.4601E+02
      5.342  0.4404E+00  0.4603E+02
      5.409  0.3580E+01  0.4627E+02
      5.475  0.1126E+01  0.4635E+02
      5.542  0.4175E+00  0.4638E+02
      5.608  0.3094E+00  0.4640E+02
      5.675  0.1655E+01  0.4651E+02
      5.741  0.1044E+01  0.4658E+02
      5.808  0.1107E+01  0.4665E+02
      5.874  0.2412E+01  0.4681E+02
      5.941  0.1398E+01  0.4690E+02
      6.007  0.3250E+01  0.4712E+02
      6.074  0.5476E+00  0.4716E+02
      6.140  0.2000E+01  0.4729E+02
      6.207  0.1248E+01  0.4737E+02
      6.273  0.2086E+01  0.4751E+02
      6.340  0.2035E+01  0.4765E+02
      6.406  0.8332E+00  0.4770E+02
      6.473  0.9365E+00  0.4776E+02
      6.539  0.1403E+01  0.4786E+02
      6.606  0.2080E+01  0.4800E+02
      6.672  0.1693E+01  0.4811E+02
      6.738  0.2089E+00  0.4812E+02
      6.805  0.1233E+01  0.4820E+02
      6.871  0.2086E+01  0.4834E+02
      6.938  0.9753E+00  0.4841E+02
      7.004  0.1740E+01  0.4853E+02
      7.071  0.4179E+00  0.4855E+02
      7.137  0.4178E+00  0.4858E+02
      7.204  0.1400E+01  0.4867E+02
      7.270  0.1259E+01  0.4876E+02
      7.337  0.1923E+01  0.4889E+02
      7.403  0.1190E+01  0.4897E+02
      7.470  0.4780E+00  0.4900E+02
      7.536  0.5411E+00  0.4903E+02
      7.603  0.1168E+01  0.4911E+02
      7.669  0.4116E+00  0.4914E+02
      7.736  0.2738E+01  0.4932E+02
      7.802  0.1423E+01  0.4942E+02
      7.869  0.1572E+01  0.4952E+02
      7.935  0.8509E+00  0.4958E+02
      8.002  0.2165E+01  0.4972E+02
      8.068  0.1498E+01  0.4982E+02
      8.135  0.1395E+01  0.4991E+02
      8.201  0.1953E+01  0.5004E+02
      8.268  0.1907E+01  0.5017E+02
      8.334  0.0000E+00  0.5017E+02
      8.401  0.2405E+00  0.5019E+02
      8.467  0.1121E+01  0.5026E+02
      8.534  0.3006E+01  0.5046E+02
      8.600  0.2363E+01  0.5062E+02
      8.666  0.1474E+01  0.5072E+02
      8.733  0.3683E+01  0.5096E+02
      8.799  0.1687E+01  0.5107E+02
      8.866  0.2327E+01  0.5123E+02
      8.932  0.1104E+01  0.5130E+02
      8.999  0.4180E+00  0.5133E+02
      9.065  0.4176E+00  0.5136E+02
      9.132  0.9403E+00  0.5142E+02
      9.198  0.2080E+01  0.5156E+02
      9.265  0.1576E+01  0.5166E+02
      9.331  0.8286E+00  0.5172E+02
      9.398  0.2381E+00  0.5173E+02
      9.464  0.1798E+00  0.5175E+02
      9.531  0.2446E+01  0.5191E+02
      9.597  0.4812E+00  0.5194E+02
      9.664  0.1659E+01  0.5205E+02
      9.730  0.2068E+01  0.5219E+02
      9.797  0.1249E+01  0.5227E+02
      9.863  0.1990E+01  0.5241E+02
      9.930  0.1553E+01  0.5251E+02
      9.996  0.2154E+01  0.5265E+02
     10.063  0.1186E+01  0.5273E+02
     10.129  0.5573E+00  0.5277E+02
     10.196  0.1440E+01  0.5287E+02
     10.262  0.2016E+01  0.5300E+02
     10.329  0.3078E+00  0.5302E+02
     10.395  0.1310E+01  0.5311E+02
     10.462  0.2192E+01  0.5325E+02
     10.528  0.1728E+01  0.5337E+02
     10.595  0.9138E+00  0.5343E+02
     10.661  0.1684E+01  0.5354E+02
     10.727  0.1239E+01  0.5362E+02
     10.794  0.8445E+00  0.5368E+02
     10.860  0.1720E+01  0.5379E+02
     10.927  0.2123E+01  0.5394E+02
     10.993  0.4902E+00  0.5397E+02
     11.060  0.2631E+01  0.5414E+02
     11.126  0.9364E+00  0.5421E+02
     11.193  0.1849E+01  0.5433E+02
     11.259  0.3652E+01  0.5457E+02
     11.326  0.1998E+01  0.5470E+02
     11.392  0.8804E+00  0.5476E+02
     11.459  0.4178E+00  0.5479E+02
     11.525  0.1598E+01  0.5490E+02
     11.592  0.3088E+00  0.5492E+02
     11.658  0.1768E+01  0.5503E+02
     11.725  0.1325E+01  0.5512E+02
     11.791  0.8356E+00  0.5518E+02
     11.858  0.4283E+00  0.5521E+02
     11.924  0.2051E+01  0.5534E+02
     11.991  0.6089E+00  0.5538E+02
     12.057  0.2033E+01  0.5552E+02
     12.124  0.9113E+00  0.5558E+02
     12.190  0.1030E+01  0.5565E+02
     12.257  0.6916E+00  0.5570E+02
     12.323  0.9389E+00  0.5576E+02
     12.390  0.4167E+00  0.5579E+02
     12.456  0.7921E-03  0.5579E+02
     12.523  0.1044E+01  0.5586E+02
     12.589  0.2862E-12  0.5586E+02
     12.655  0.6400E+00  0.5590E+02
     12.722  0.1423E+00  0.5591E+02
     12.788  0.3954E+00  0.5593E+02
     12.855  0.7258E+00  0.5598E+02
     12.921  0.0000E+00  0.5598E+02
     12.988  0.0000E+00  0.5598E+02
     13.054  0.4010E-03  0.5598E+02
     13.121  0.1041E+00  0.5599E+02
     13.187  0.1925E-09  0.5599E+02
     13.254  0.1741E-01  0.5599E+02
     13.320  0.0000E+00  0.5599E+02
     13.387  0.0000E+00  0.5599E+02
     13.453  0.0000E+00  0.5599E+02
     13.520  0.0000E+00  0.5599E+02
     13.586  0.0000E+00  0.5599E+02
     13.653  0.4377E-04  0.5599E+02
     13.719  0.1392E+00  0.5600E+02
     13.786  0.0000E+00  0.5600E+02
     13.852  0.0000E+00  0.5600E+02
     13.919  0.0000E+00  0.5600E+02
     13.985  0.0000E+00  0.5600E+02
     14.052  0.0000E+00  0.5600E+02
     14.118  0.0000E+00  0.5600E+02
     14.185  0.0000E+00  0.5600E+02
     14.251  0.0000E+00  0.5600E+02
     14.318  0.0000E+00  0.5600E+02
     14.384  0.0000E+00  0.5600E+02
     14.451  0.0000E+00  0.5600E+02
     14.517  0.0000E+00  0.5600E+02
     14.583  0.0000E+00  0.5600E+02
