    4    4    1    1
  0.2043332E+02  0.4339766E-09  0.4339766E-09  0.4339766E-09  0.5000000E-15
  1.000000000000000E-004
  CAR 
 unknown system                          
   44   84   28
 
  0.0000000E+00  0.0000000E+00  0.0000000E+00  0.5787037E-03
   1       -4.4549
   2       -1.9770
   3       -1.9770
   4       -1.9770
   5       -1.7576
   6       -1.7576
   7       -1.7576
   8       -0.2459
   9       -0.2459
  10       -0.2459
  11        0.8517
  12        0.8517
  13        1.6865
  14        1.6865
  15        1.6865
  16        1.9527
  17        1.9527
  18        1.9527
  19        1.9527
  20        1.9527
  21        1.9527
  22        5.1386
  23        5.1386
  24        5.1386
  25        8.1248
  26        8.1248
  27        8.1248
  28       13.2269
 
  0.8333333E-01  0.0000000E+00  0.0000000E+00  0.3472222E-02
   1       -4.3858
   2       -1.9563
   3       -1.9344
   4       -1.9344
   5       -1.7350
   6       -1.7233
   7       -1.7233
   8       -0.2756
   9       -0.2184
  10       -0.2184
  11        0.8206
  12        0.8651
  13        1.6430
  14        1.6430
  15        1.6713
  16        1.7797
  17        1.7797
  18        1.8989
  19        1.8989
  20        1.9527
  21        1.9527
  22        4.4990
  23        5.3650
  24        5.3650
  25        8.0815
  26        8.0815
  27        8.8880
  28       13.0732
 
  0.1666667E+00  0.0000000E+00  0.0000000E+00  0.3472222E-02
   1       -4.1805
   2       -1.9017
   3       -1.8111
   4       -1.8111
   5       -1.6683
   6       -1.6204
   7       -1.6204
   8       -0.3618
   9       -0.1364
  10       -0.1364
  11        0.7316
  12        0.9043
  13        1.3668
  14        1.3668
  15        1.5160
  16        1.5160
  17        1.6269
  18        1.7466
  19        1.7466
  20        1.9529
  21        1.9529
  22        3.3484
  23        5.9371
  24        5.9371
  25        7.9642
  26        7.9642
  27       10.4148
  28       12.6378
 
  0.2500000E+00  0.0000000E+00  0.0000000E+00  0.3472222E-02
   1       -3.8465
   2       -1.8394
   3       -1.6226
   4       -1.6226
   5       -1.5606
   6       -1.4493
   7       -1.4493
   8       -0.4959
   9       -0.0019
  10       -0.0019
  11        0.5980
  12        0.8662
  13        0.8662
  14        0.9673
  15        1.3194
  16        1.3194
  17        1.5195
  18        1.5195
  19        1.5570
  20        1.9533
  21        1.9533
  22        2.2145
  23        6.6983
  24        6.6983
  25        7.8069
  26        7.8069
  27       11.9910
  28       11.9910
 
  0.3333333E+00  0.0000000E+00  0.0000000E+00  0.3472222E-02
   1       -3.4002
   2       -1.8291
   3       -1.4170
   4       -1.4002
   5       -1.4002
   6       -1.2109
   7       -1.2109
   8       -0.6656
   9        0.1818
  10        0.1818
  11        0.3602
  12        0.3602
  13        0.4462
  14        1.0502
  15        1.0854
  16        1.0854
  17        1.2467
  18        1.2467
  19        1.2575
  20        1.4670
  21        1.9536
  22        1.9536
  23        7.5592
  24        7.5592
  25        7.6542
  26        7.6542
  27       11.2012
  28       11.2012
 
  0.4166667E+00  0.0000000E+00  0.0000000E+00  0.3472222E-02
   1       -2.8772
   2       -1.9769
   3       -1.2450
   4       -1.2030
   5       -1.2030
   6       -0.9067
   7       -0.9067
   8       -0.8566
   9       -0.1142
  10       -0.1142
  11        0.3247
  12        0.4090
  13        0.4090
  14        0.6040
  15        0.8773
  16        0.8773
  17        0.9563
  18        0.9563
  19        1.1483
  20        1.3639
  21        1.9538
  22        1.9538
  23        7.5458
  24        7.5458
  25        8.4718
  26        8.4718
  27       10.3245
  28       10.3245
 
  0.5000000E+00  0.0000000E+00  0.0000000E+00  0.1736111E-02
   1       -2.3564
   2       -2.3564
   3       -1.1194
   4       -1.1194
   5       -1.0543
   6       -1.0543
   7       -0.5395
   8       -0.5395
   9       -0.5395
  10       -0.5395
  11        0.3265
  12        0.3265
  13        0.6713
  14        0.6713
  15        0.6713
  16        0.6713
  17        0.7892
  18        0.7892
  19        1.2552
  20        1.2552
  21        1.9538
  22        1.9538
  23        7.5069
  24        7.5069
  25        9.4035
  26        9.4035
  27        9.4035
  28        9.4035
 
  0.8333333E-01  0.8333333E-01  0.0000000E+00  0.6944444E-02
   1       -4.3173
   2       -1.9133
   3       -1.9133
   4       -1.8980
   5       -1.7011
   6       -1.7011
   7       -1.6844
   8       -0.2872
   9       -0.2082
  10       -0.1932
  11        0.8126
  12        0.8583
  13        1.5990
  14        1.5990
  15        1.6018
  16        1.6604
  17        1.7465
  18        1.7465
  19        1.8988
  20        1.8988
  21        1.9166
  22        4.7140
  23        4.7140
  24        5.5744
  25        8.0321
  26        8.8549
  27        8.8549
  28       12.4998
 
  0.1666667E+00  0.8333333E-01  0.0000000E+00  0.1388889E-01
   1       -4.1141
   2       -1.8573
   3       -1.7924
   4       -1.7886
   5       -1.6357
   6       -1.5996
   7       -1.5693
   8       -0.3625
   9       -0.1349
  10       -0.1189
  11        0.7358
  12        0.8945
  13        1.2492
  14        1.2975
  15        1.4467
  16        1.4813
  17        1.5508
  18        1.6708
  19        1.7462
  20        1.8979
  21        1.8985
  22        3.5899
  23        5.2248
  24        6.1162
  25        7.8952
  26        8.7752
  27       10.3519
  28       11.8711
 
  0.2500000E+00  0.8333333E-01  0.0000000E+00  0.1388889E-01
   1       -3.7836
   2       -1.7927
   3       -1.6265
   4       -1.5976
   5       -1.5302
   6       -1.4308
   7       -1.3849
   8       -0.4911
   9       -0.0023
  10       -0.0013
  11        0.6141
  12        0.7595
  13        0.8271
  14        0.9649
  15        1.1701
  16        1.2938
  17        1.3506
  18        1.5185
  19        1.5690
  20        1.8940
  21        1.8981
  22        2.5431
  23        5.8365
  24        6.8528
  25        7.7025
  26        8.7094
  27       11.2633
  28       12.0552
 
  0.3333333E+00  0.8333333E-01  0.0000000E+00  0.1388889E-01
   1       -3.3420
   2       -1.7800
   3       -1.4152
   4       -1.3896
   5       -1.3715
   6       -1.1959
   7       -1.1495
   8       -0.6558
   9        0.1326
  10        0.1806
  11        0.2678
  12        0.3408
  13        0.5028
  14        0.7719
  15        1.0596
  16        1.0701
  17        1.1170
  18        1.2453
  19        1.4090
  20        1.7895
  21        1.8936
  22        1.8974
  23        6.4078
  24        7.4940
  25        7.6967
  26        8.7576
  27       10.6740
  28       11.3174
 
  0.4166667E+00  0.8333333E-01  0.0000000E+00  0.1388889E-01
   1       -2.8242
   2       -1.9274
   3       -1.2213
   4       -1.1999
   5       -1.1702
   6       -0.8966
   7       -0.8843
   8       -0.8419
   9       -0.1843
  10       -0.1203
  11        0.1772
  12        0.3715
  13        0.4074
  14        0.5494
  15        0.8740
  16        0.9035
  17        0.9547
  18        1.0999
  19        1.1735
  20        1.4610
  21        1.8943
  22        1.8965
  23        6.8308
  24        7.2960
  25        8.5982
  26        9.0220
  27       10.0805
  28       10.4408
 
  0.5000000E+00  0.8333333E-01  0.0000000E+00  0.6944444E-02
   1       -2.3070
   2       -2.3070
   3       -1.0907
   4       -1.0907
   5       -1.0349
   6       -1.0349
   7       -0.5725
   8       -0.5725
   9       -0.5362
  10       -0.5362
  11        0.1834
  12        0.1834
  13        0.6696
  14        0.6696
  15        0.7821
  16        0.7821
  17        0.8014
  18        0.8014
  19        1.3034
  20        1.3034
  21        1.8954
  22        1.8954
  23        7.0974
  24        7.0974
  25        9.5002
  26        9.5002
  27        9.5231
  28        9.5231
 
  0.1666667E+00  0.1666667E+00  0.0000000E+00  0.6944444E-02
   1       -3.9171
   2       -1.7284
   3       -1.7284
   4       -1.7263
   5       -1.5382
   6       -1.5382
   7       -1.4310
   8       -0.3953
   9       -0.0975
  10       -0.0681
  11        0.7093
  12        0.9084
  13        1.0046
  14        1.0046
  15        1.0660
  16        1.3786
  17        1.5505
  18        1.5505
  19        1.7447
  20        1.7447
  21        1.8103
  22        4.1061
  23        4.1061
  24        6.5981
  25        7.6964
  26       10.1787
  27       10.1787
  28       11.1444
 
  0.2500000E+00  0.1666667E+00  0.0000000E+00  0.1388889E-01
   1       -3.5971
   2       -1.6569
   3       -1.6025
   4       -1.5297
   5       -1.4393
   6       -1.3765
   7       -1.2322
   8       -0.4912
   9        0.0055
  10        0.0122
  11        0.5140
  12        0.6248
  13        0.6811
  14        0.6984
  15        0.9921
  16        1.2161
  17        1.3739
  18        1.4783
  19        1.5158
  20        1.7425
  21        1.7619
  22        3.0956
  23        4.6916
  24        7.2806
  25        7.3959
  26        9.9490
  27       10.5714
  28       11.6173
 
  0.3333333E+00  0.1666667E+00  0.0000000E+00  0.1388889E-01
   1       -3.1702
   2       -1.6371
   3       -1.4209
   4       -1.3079
   5       -1.2913
   6       -1.1521
   7       -1.0081
   8       -0.6336
   9        0.0478
  10        0.0608
  11        0.1849
  12        0.2772
  13        0.3222
  14        0.5618
  15        1.0204
  16        1.1246
  17        1.1559
  18        1.2417
  19        1.3271
  20        1.7398
  21        1.7425
  22        2.3187
  23        5.2639
  24        7.0371
  25        8.0846
  26        9.7462
  27       10.1470
  28       11.6534
 
  0.4166667E+00  0.1666667E+00  0.0000000E+00  0.1388889E-01
   1       -2.6694
   2       -1.7845
   3       -1.1959
   4       -1.1512
   5       -1.0750
   6       -0.8676
   7       -0.8109
   8       -0.8015
   9       -0.3593
  10       -0.1413
  11        0.0300
  12        0.0492
  13        0.4069
  14        0.6332
  15        0.8551
  16        0.9427
  17        0.9509
  18        1.0962
  19        1.2940
  20        1.7360
  21        1.7371
  22        1.8141
  23        5.7842
  24        6.6523
  25        8.9587
  26        9.6448
  27        9.8514
  28       10.7763
 
  0.5000000E+00  0.1666667E+00  0.0000000E+00  0.6944444E-02
   1       -2.1642
   2       -2.1642
   3       -1.0146
   4       -1.0146
   5       -0.9786
   6       -0.9786
   7       -0.6495
   8       -0.6495
   9       -0.5279
  10       -0.5279
  11       -0.0246
  12       -0.0246
  13        0.6667
  14        0.6667
  15        0.8173
  16        0.8173
  17        0.8367
  18        0.8367
  19        1.5080
  20        1.5080
  21        1.7352
  22        1.7352
  23        6.2419
  24        6.2419
  25        9.6802
  26        9.6802
  27        9.8666
  28        9.8666
 
  0.2500000E+00  0.2500000E+00  0.0000000E+00  0.6944444E-02
   1       -3.2954
   2       -1.5249
   3       -1.4452
   4       -1.4452
   5       -1.2892
   6       -1.2892
   7       -1.0330
   8       -0.5290
   9        0.0209
  10        0.0790
  11        0.2091
  12        0.2091
  13        0.4671
  14        0.5790
  15        1.0882
  16        1.1058
  17        1.3265
  18        1.3265
  19        1.5119
  20        1.5119
  21        1.6397
  22        3.6742
  23        3.6742
  24        6.9316
  25        7.9079
  26       10.1261
  27       11.0726
  28       11.0726
 
  0.3333333E+00  0.2500000E+00  0.0000000E+00  0.1388889E-01
   1       -2.8946
   2       -1.4136
   3       -1.3883
   4       -1.1846
   5       -1.1742
   6       -1.0825
   7       -0.8278
   8       -0.6192
   9       -0.2177
  10       -0.0815
  11        0.0149
  12        0.1566
  13        0.2183
  14        0.5323
  15        0.9294
  16        1.1323
  17        1.1919
  18        1.2375
  19        1.2951
  20        1.5082
  21        1.5639
  22        2.8567
  23        4.2429
  24        6.3948
  25        8.6671
  26        9.8925
  27       10.5582
  28       12.0487
 
  0.4166667E+00  0.2500000E+00  0.0000000E+00  0.1388889E-01
   1       -2.4256
   2       -1.5668
   3       -1.1929
   4       -1.0385
   5       -0.9309
   6       -0.8234
   7       -0.7468
   8       -0.6862
   9       -0.5807
  10       -0.2302
  11       -0.1853
  12       -0.0663
  13        0.4208
  14        0.5888
  15        0.7999
  16        0.9318
  17        0.9488
  18        0.9848
  19        1.5066
  20        1.5262
  21        1.5392
  22        2.2614
  23        4.7905
  24        5.8521
  25        9.5089
  26        9.8275
  27       10.1615
  28       11.2964
 
  0.5000000E+00  0.2500000E+00  0.0000000E+00  0.6944444E-02
   1       -1.9464
   2       -1.9464
   3       -0.9505
   4       -0.9505
   5       -0.8920
   6       -0.8920
   7       -0.6903
   8       -0.6903
   9       -0.5199
  10       -0.5199
  11       -0.1871
  12       -0.1871
  13        0.6700
  14        0.6700
  15        0.7596
  16        0.7596
  17        0.7945
  18        0.7945
  19        1.5106
  20        1.5106
  21        1.8462
  22        1.8462
  23        5.3215
  24        5.3215
  25        9.9164
  26        9.9164
  27       10.3960
  28       10.3960
 
  0.3333333E+00  0.3333333E+00  0.0000000E+00  0.6944444E-02
   1       -2.5335
   2       -1.3094
   3       -1.1374
   4       -1.1374
   5       -0.9926
   6       -0.9926
   7       -0.6469
   8       -0.6373
   9       -0.4296
  10       -0.4296
  11       -0.0281
  12       -0.0212
  13        0.3092
  14        0.4668
  15        0.8042
  16        1.0183
  17        1.0183
  18        1.2360
  19        1.2360
  20        1.4149
  21        1.5495
  22        3.3939
  23        3.3939
  24        5.7117
  25        9.3874
  26        9.8467
  27       11.2911
  28       11.2911
 
  0.4166667E+00  0.3333333E+00  0.0000000E+00  0.1388889E-01
   1       -2.1167
   2       -1.3197
   3       -1.1808
   4       -0.8904
   5       -0.8904
   6       -0.7706
   7       -0.6969
   8       -0.6820
   9       -0.5354
  10       -0.4293
  11       -0.2638
  12       -0.1131
  13        0.4703
  14        0.4819
  15        0.6967
  16        0.8285
  17        0.8353
  18        0.9550
  19        1.2425
  20        1.3178
  21        1.8629
  22        2.7367
  23        3.9312
  24        5.0691
  25        9.9655
  26       10.1994
  27       10.6837
  28       11.9616
 
  0.5000000E+00  0.3333333E+00  0.0000000E+00  0.6944444E-02
   1       -1.6892
   2       -1.6892
   3       -1.0047
   4       -1.0047
   5       -0.7869
   6       -0.7869
   7       -0.5844
   8       -0.5844
   9       -0.5209
  10       -0.5209
  11       -0.2757
  12       -0.2757
  13        0.6225
  14        0.6225
  15        0.6921
  16        0.6921
  17        0.7023
  18        0.7023
  19        1.2655
  20        1.2655
  21        2.2447
  22        2.2447
  23        4.4818
  24        4.4818
  25       10.2423
  26       10.2423
  27       11.0669
  28       11.0669
 
  0.4166667E+00  0.4166667E+00  0.0000000E+00  0.6944444E-02
   1       -1.7774
   2       -1.1513
   3       -1.1432
   4       -1.1432
   5       -0.7190
   6       -0.7190
   7       -0.6721
   8       -0.4900
   9       -0.4900
  10       -0.4184
  11       -0.3846
  12       -0.1597
  13        0.4137
  14        0.5774
  15        0.5807
  16        0.6640
  17        0.6640
  18        0.9805
  19        0.9805
  20        1.1506
  21        2.2409
  22        3.2345
  23        3.2345
  24        4.3734
  25       10.2490
  26       10.9875
  27       11.2770
  28       11.2770
 
  0.5000000E+00  0.4166667E+00  0.0000000E+00  0.6944444E-02
   1       -1.4450
   2       -1.4450
   3       -1.1160
   4       -1.1160
   5       -0.6816
   6       -0.6816
   7       -0.5427
   8       -0.5427
   9       -0.4209
  10       -0.4209
  11       -0.2906
  12       -0.2906
  13        0.4870
  14        0.4870
  15        0.5556
  16        0.5556
  17        0.7510
  18        0.7510
  19        1.0403
  20        1.0403
  21        2.6855
  22        2.6855
  23        3.7704
  24        3.7704
  25       10.6832
  26       10.6832
  27       11.8385
  28       11.8393
 
  0.5000000E+00  0.5000000E+00  0.0000000E+00  0.1736111E-02
   1       -1.2555
   2       -1.2555
   3       -1.2555
   4       -1.2555
   5       -0.5959
   6       -0.5959
   7       -0.5959
   8       -0.5959
   9       -0.3073
  10       -0.3073
  11       -0.3073
  12       -0.3073
  13        0.4479
  14        0.4479
  15        0.4479
  16        0.4479
  17        0.8647
  18        0.8647
  19        0.8647
  20        0.8647
  21        3.1828
  22        3.1828
  23        3.1828
  24        3.1828
  25       11.2556
  26       11.2556
  27       11.2556
  28       11.2556
 
  0.8333333E-01  0.8333333E-01  0.8333333E-01  0.4629630E-02
   1       -4.2496
   2       -1.8769
   3       -1.8769
   4       -1.8769
   5       -1.6624
   6       -1.6624
   7       -1.6624
   8       -0.2965
   9       -0.1849
  10       -0.1849
  11        0.8294
  12        0.8294
  13        1.5647
  14        1.5647
  15        1.5647
  16        1.5893
  17        1.5893
  18        1.5893
  19        1.8895
  20        1.8895
  21        1.8895
  22        4.9067
  23        4.9067
  24        4.9067
  25        8.8120
  26        8.8120
  27        8.8120
  28       12.6451
 
  0.1666667E+00  0.8333333E-01  0.8333333E-01  0.1388889E-01
   1       -4.0488
   2       -1.8210
   3       -1.7715
   4       -1.7715
   5       -1.5971
   6       -1.5473
   7       -1.5473
   8       -0.3616
   9       -0.1220
  10       -0.1155
  11        0.7485
  12        0.8791
  13        1.1993
  14        1.1993
  15        1.3809
  16        1.4541
  17        1.4689
  18        1.4689
  19        1.8166
  20        1.8726
  21        1.8726
  22        3.7897
  23        5.3786
  24        5.3786
  25        8.6999
  26        8.6999
  27       10.2596
  28       12.0525
 
  0.2500000E+00  0.8333333E-01  0.8333333E-01  0.1388889E-01
   1       -3.7223
   2       -1.7562
   3       -1.6059
   4       -1.6059
   5       -1.4922
   6       -1.3633
   7       -1.3633
   8       -0.4832
   9       -0.0062
  10       -0.0013
  11        0.6372
  12        0.7293
  13        0.7293
  14        0.9585
  15        1.0464
  16        1.2777
  17        1.2998
  18        1.2998
  19        1.7136
  20        1.8592
  21        1.8592
  22        2.7564
  23        5.9549
  24        5.9549
  25        8.5726
  26        8.5726
  27       11.5120
  28       11.5120
 
  0.3333333E+00  0.8333333E-01  0.8333333E-01  0.1388889E-01
   1       -3.2864
   2       -1.7423
   3       -1.3937
   4       -1.3937
   5       -1.3536
   6       -1.1304
   7       -1.1304
   8       -0.6418
   9        0.1098
  10        0.1550
  11        0.2565
  12        0.2565
  13        0.5623
  14        0.6244
  15        1.0557
  16        1.0629
  17        1.0864
  18        1.0864
  19        1.5917
  20        1.8514
  21        1.8514
  22        1.9449
  23        6.4839
  24        6.4839
  25        8.5196
  26        8.5196
  27       11.0302
  28       11.0302
 
  0.4166667E+00  0.8333333E-01  0.8333333E-01  0.1388889E-01
   1       -2.7757
   2       -1.8881
   3       -1.1895
   4       -1.1725
   5       -1.1725
   6       -0.8794
   7       -0.8794
   8       -0.8218
   9       -0.1750
  10       -0.1750
  11        0.1207
  12        0.2573
  13        0.3486
  14        0.6683
  15        0.8131
  16        0.8887
  17        0.8887
  18        1.1860
  19        1.3676
  20        1.4583
  21        1.8477
  22        1.8477
  23        6.8261
  24        6.8261
  25        8.6069
  26        8.6069
  27       10.6232
  28       10.6232
 
  0.5000000E+00  0.8333333E-01  0.8333333E-01  0.6944444E-02
   1       -2.2647
   2       -2.2647
   3       -1.0621
   4       -1.0621
   5       -1.0087
   6       -1.0087
   7       -0.6720
   8       -0.6720
   9       -0.4612
  10       -0.4612
  11        0.1066
  12        0.1066
  13        0.5718
  14        0.5718
  15        0.8028
  16        0.8028
  17        0.9548
  18        0.9548
  19        1.3204
  20        1.3204
  21        1.8466
  22        1.8466
  23        6.9326
  24        6.9326
  25        8.6987
  26        8.6987
  27       10.4362
  28       10.4362
 
  0.1666667E+00  0.1666667E+00  0.8333333E-01  0.1388889E-01
   1       -3.8552
   2       -1.7163
   3       -1.7163
   4       -1.7088
   5       -1.4822
   6       -1.4822
   7       -1.4071
   8       -0.3874
   9       -0.0894
  10       -0.0712
  11        0.7393
  12        0.8851
  13        0.9628
  14        0.9628
  15        0.9887
  16        1.3157
  17        1.3771
  18        1.3771
  19        1.8091
  20        1.8091
  21        1.8216
  22        4.2528
  23        4.2528
  24        5.7709
  25        8.4860
  26        9.9949
  27        9.9949
  28       11.4278
 
  0.2500000E+00  0.1666667E+00  0.8333333E-01  0.2777778E-01
   1       -3.5411
   2       -1.6519
   3       -1.5888
   4       -1.5523
   5       -1.3778
   6       -1.2981
   7       -1.2077
   8       -0.4735
   9       -0.0023
  10        0.0043
  11        0.4952
  12        0.6224
  13        0.6361
  14        0.6669
  15        0.9758
  16        1.1679
  17        1.1966
  18        1.2576
  19        1.7157
  20        1.7724
  21        1.7728
  22        3.2260
  23        4.8063
  24        6.2528
  25        8.1979
  26        9.6146
  27       11.0267
  28       11.2180
 
  0.3333333E+00  0.1666667E+00  0.8333333E-01  0.2777778E-01
   1       -3.1233
   2       -1.6361
   3       -1.4109
   4       -1.3400
   5       -1.2440
   6       -1.0700
   7       -0.9876
   8       -0.6063
   9        0.0498
  10        0.0538
  11        0.1406
  12        0.2164
  13        0.2760
  14        0.6401
  15        0.9689
  16        0.9962
  17        1.0832
  18        1.1128
  19        1.5800
  20        1.7385
  21        1.7412
  22        2.3965
  23        5.3605
  24        6.6143
  25        8.0078
  26        9.2069
  27       10.8500
  28       11.9110
 
  0.4166667E+00  0.1666667E+00  0.8333333E-01  0.2777778E-01
   1       -2.6348
   2       -1.7782
   3       -1.1861
   4       -1.1029
   5       -1.0927
   6       -0.8634
   7       -0.8184
   8       -0.7642
   9       -0.3028
  10       -0.1540
  11        0.0109
  12        0.0117
  13        0.3086
  14        0.7314
  15        0.7781
  16        0.8383
  17        0.8975
  18        1.2804
  19        1.3695
  20        1.7208
  21        1.7230
  22        1.8145
  23        5.8680
  24        6.6036
  25        8.1367
  26        8.8252
  27       10.8886
  28       11.5141
 
  0.5000000E+00  0.1666667E+00  0.8333333E-01  0.1388889E-01
   1       -2.1446
   2       -2.1446
   3       -0.9872
   4       -0.9872
   5       -0.9304
   6       -0.9304
   7       -0.7990
   8       -0.7990
   9       -0.3905
  10       -0.3905
  11       -0.0512
  12       -0.0512
  13        0.5072
  14        0.5072
  15        0.7902
  16        0.7902
  17        1.0608
  18        1.0608
  19        1.4871
  20        1.4871
  21        1.7164
  22        1.7164
  23        6.2990
  24        6.2990
  25        8.4659
  26        8.4659
  27       11.1319
  28       11.1319
 
  0.2500000E+00  0.2500000E+00  0.8333333E-01  0.1388889E-01
   1       -3.2489
   2       -1.5189
   3       -1.4920
   4       -1.4920
   5       -1.1920
   6       -1.1920
   7       -1.0094
   8       -0.4963
   9        0.0127
  10        0.0494
  11        0.1992
  12        0.1992
  13        0.4134
  14        0.6426
  15        1.0116
  16        1.0860
  17        1.1172
  18        1.1172
  19        1.6576
  20        1.6576
  21        1.6808
  22        3.7702
  23        3.7702
  24        6.5381
  25        7.7941
  26       10.5104
  27       10.5104
  28       10.8511
 
  0.3333333E+00  0.2500000E+00  0.8333333E-01  0.2777778E-01
   1       -2.8632
   2       -1.4805
   3       -1.3919
   4       -1.2887
   5       -1.0598
   6       -0.9616
   7       -0.8146
   8       -0.5698
   9       -0.1896
  10       -0.0845
  11        0.0075
  12        0.1331
  13        0.1470
  14        0.6371
  15        0.8623
  16        0.9056
  17        0.9946
  18        1.2750
  19        1.5027
  20        1.5947
  21        1.6047
  22        2.9122
  23        4.3252
  24        6.4106
  25        7.8160
  26        9.8310
  27       10.9249
  28       11.3442
 
  0.4166667E+00  0.2500000E+00  0.8333333E-01  0.2777778E-01
   1       -2.4162
   2       -1.6221
   3       -1.2105
   4       -1.0592
   5       -0.9276
   6       -0.8073
   7       -0.7150
   8       -0.6792
   9       -0.4284
  10       -0.2336
  11       -0.1344
  12       -0.0732
  13        0.2837
  14        0.6744
  15        0.7431
  16        0.7650
  17        0.8425
  18        1.2827
  19        1.5171
  20        1.5534
  21        1.5568
  22        2.2688
  23        4.8712
  24        5.9387
  25        8.2134
  26        9.2293
  27       11.2100
  28       12.1861
 
  0.5000000E+00  0.2500000E+00  0.8333333E-01  0.1388889E-01
   1       -1.9674
   2       -1.9674
   3       -0.9949
   4       -0.9949
   5       -0.8093
   6       -0.8093
   7       -0.8024
   8       -0.8024
   9       -0.3299
  10       -0.3299
  11       -0.1933
  12       -0.1933
  13        0.4607
  14        0.4607
  15        0.7300
  16        0.7300
  17        1.0111
  18        1.0111
  19        1.5404
  20        1.5404
  21        1.8277
  22        1.8277
  23        5.4080
  24        5.4080
  25        8.6981
  26        8.6981
  27       11.6759
  28       11.6759
 
  0.3333333E+00  0.3333333E+00  0.8333333E-01  0.1388889E-01
   1       -2.5263
   2       -1.3312
   3       -1.3012
   4       -1.3012
   5       -0.8166
   6       -0.8166
   7       -0.6588
   8       -0.5605
   9       -0.3910
  10       -0.3910
  11       -0.0231
  12        0.0067
  13        0.1820
  14        0.6222
  15        0.7197
  16        0.8191
  17        0.8191
  18        1.4171
  19        1.4171
  20        1.4807
  21        1.5271
  22        3.4424
  23        3.4424
  24        5.8050
  25        8.1202
  26       10.5003
  27       10.5003
  28       11.1968
 
  0.4166667E+00  0.3333333E+00  0.8333333E-01  0.2777778E-01
   1       -2.1449
   2       -1.4588
   3       -1.2324
   4       -1.1441
   5       -0.7009
   6       -0.6675
   7       -0.6064
   8       -0.5899
   9       -0.4839
  10       -0.4196
  11       -0.1221
  12       -0.1103
  13        0.2615
  14        0.6063
  15        0.6122
  16        0.7049
  17        0.7194
  18        1.1914
  19        1.3577
  20        1.3883
  21        1.8406
  22        2.7471
  23        3.9824
  24        5.1510
  25        8.5918
  26        9.7674
  27       11.2406
  28       11.6431
 
  0.5000000E+00  0.3333333E+00  0.8333333E-01  0.1388889E-01
   1       -1.7663
   2       -1.7663
   3       -1.1278
   4       -1.1278
   5       -0.6748
   6       -0.6748
   7       -0.6416
   8       -0.6416
   9       -0.2719
  10       -0.2719
  11       -0.2702
  12       -0.2702
  13        0.4080
  14        0.4080
  15        0.6076
  16        0.6076
  17        0.9356
  18        0.9356
  19        1.3457
  20        1.3457
  21        2.2305
  22        2.2305
  23        4.5449
  24        4.5449
  25        9.1386
  26        9.1386
  27       12.0521
  28       12.0521
 
  0.4166667E+00  0.4166667E+00  0.8333333E-01  0.1388889E-01
   1       -1.8542
   2       -1.3319
   3       -1.3319
   4       -1.2463
   5       -0.5509
   6       -0.5462
   7       -0.5462
   8       -0.5309
   9       -0.4154
  10       -0.4154
  11       -0.1373
  12       -0.1213
  13        0.2565
  14        0.4872
  15        0.5192
  16        0.5192
  17        0.7548
  18        1.1349
  19        1.1349
  20        1.2406
  21        2.2221
  22        3.2517
  23        3.2517
  24        4.4285
  25        9.0996
  26       10.4143
  27       10.4143
  28       11.9979
 
  0.5000000E+00  0.4166667E+00  0.8333333E-01  0.1388889E-01
   1       -1.5758
   2       -1.5758
   3       -1.2673
   4       -1.2673
   5       -0.5550
   6       -0.5550
   7       -0.5188
   8       -0.5188
   9       -0.2472
  10       -0.2472
  11       -0.2059
  12       -0.2059
  13        0.3460
  14        0.3460
  15        0.4509
  16        0.4509
  17        0.9112
  18        0.9112
  19        1.1483
  20        1.1483
  21        2.6781
  22        2.6781
  23        3.8022
  24        3.8022
  25        9.7046
  26        9.7046
  27       11.1588
  28       11.1588
 
  0.5000000E+00  0.5000000E+00  0.8333333E-01  0.3472222E-02
   1       -1.4120
   2       -1.4120
   3       -1.4120
   4       -1.4120
   5       -0.4992
   6       -0.4992
   7       -0.4992
   8       -0.4992
   9       -0.1773
  10       -0.1773
  11       -0.1773
  12       -0.1773
  13        0.3363
  14        0.3363
  15        0.3363
  16        0.3363
  17        0.9858
  18        0.9858
  19        0.9858
  20        0.9858
  21        3.1898
  22        3.1898
  23        3.1898
  24        3.1898
  25       10.3778
  26       10.3778
  27       10.3778
  28       10.3778
 
  0.1666667E+00  0.1666667E+00  0.1666667E+00  0.4629630E-02
   1       -3.6720
   2       -1.6638
   3       -1.6638
   4       -1.6638
   5       -1.3358
   6       -1.3358
   7       -1.3358
   8       -0.3854
   9       -0.0619
  10       -0.0619
  11        0.7715
  12        0.7715
  13        0.7715
  14        0.8241
  15        0.8241
  16        1.1614
  17        1.1614
  18        1.1614
  19        1.8266
  20        1.8266
  21        1.8266
  22        4.6272
  23        4.6272
  24        4.6272
  25        9.4999
  26        9.4999
  27        9.4999
  28       12.2817
 
  0.2500000E+00  0.1666667E+00  0.1666667E+00  0.1388889E-01