   4   4   0   0
  0.2209942E+02  0.4454651E-09  0.4454651E-09  0.4454651E-09  0.5000000E-15
  1.000000000000000E-004
  CAR 
 unknown system                          
     11.77759317     -5.31160177  301      1.62511876      1.00000000
     -5.312  0.0000E+00  0.0000E+00
     -5.255  0.0000E+00  0.0000E+00
     -5.198  0.0000E+00  0.0000E+00
     -5.141  0.0000E+00  0.0000E+00
     -5.084  0.0000E+00  0.0000E+00
     -5.027  0.0000E+00  0.0000E+00
     -4.970  0.0000E+00  0.0000E+00
     -4.913  0.0000E+00  0.0000E+00
     -4.856  0.0000E+00  0.0000E+00
     -4.799  0.0000E+00  0.0000E+00
     -4.742  0.0000E+00  0.0000E+00
     -4.685  0.0000E+00  0.0000E+00
     -4.628  0.0000E+00  0.0000E+00
     -4.571  0.2999E-08  0.1708E-09
     -4.514  0.2028E-01  0.1155E-02
     -4.457  0.1214E+00  0.8070E-02
     -4.400  0.2423E+00  0.2187E-01
     -4.343  0.1629E+00  0.3115E-01
     -4.286  0.1210E+00  0.3804E-01
     -4.229  0.4828E+00  0.6555E-01
     -4.172  0.4924E+00  0.9359E-01
     -4.115  0.2767E-02  0.9375E-01
     -4.058  0.2436E+00  0.1076E+00
     -4.001  0.6094E+00  0.1423E+00
     -3.944  0.4882E+00  0.1702E+00
     -3.888  0.5970E+00  0.2042E+00
     -3.831  0.8980E-01  0.2093E+00
     -3.774  0.1335E+01  0.2853E+00
     -3.717  0.9125E-01  0.2905E+00
     -3.660  0.5941E+00  0.3244E+00
     -3.603  0.5149E+00  0.3537E+00
     -3.546  0.1234E+01  0.4240E+00
     -3.489  0.3210E+01  0.6069E+00
     -3.432  0.7120E+01  0.1012E+01
     -3.375  0.9704E+01  0.1565E+01
     -3.318  0.1415E+02  0.2371E+01
     -3.261  0.1567E+02  0.3264E+01
     -3.204  0.1758E+02  0.4265E+01
     -3.147  0.2576E+02  0.5732E+01
     -3.090  0.1770E+02  0.6741E+01
     -3.033  0.2251E+02  0.8023E+01
     -2.976  0.1269E+02  0.8746E+01
     -2.919  0.1609E+02  0.9662E+01
     -2.862  0.1240E+02  0.1037E+02
     -2.805  0.1444E+02  0.1119E+02
     -2.748  0.1581E+02  0.1209E+02
     -2.691  0.1600E+02  0.1300E+02
     -2.634  0.2158E+02  0.1423E+02
     -2.577  0.1667E+02  0.1518E+02
     -2.520  0.1393E+02  0.1598E+02
     -2.463  0.1908E+02  0.1706E+02
     -2.406  0.2038E+02  0.1822E+02
     -2.349  0.3065E+02  0.1997E+02
     -2.293  0.2630E+02  0.2147E+02
     -2.236  0.1609E+02  0.2238E+02
     -2.179  0.1805E+02  0.2341E+02
     -2.122  0.1457E+02  0.2424E+02
     -2.065  0.1945E+02  0.2535E+02
     -2.008  0.1842E+02  0.2640E+02
     -1.951  0.1926E+02  0.2750E+02
     -1.894  0.2126E+02  0.2871E+02
     -1.837  0.2123E+02  0.2992E+02
     -1.780  0.2271E+02  0.3121E+02
     -1.723  0.1438E+02  0.3203E+02
     -1.666  0.1934E+02  0.3313E+02
     -1.609  0.1682E+02  0.3409E+02
     -1.552  0.1695E+02  0.3506E+02
     -1.495  0.1944E+02  0.3616E+02
     -1.438  0.2597E+02  0.3764E+02
     -1.381  0.2711E+02  0.3919E+02
     -1.324  0.1957E+02  0.4030E+02
     -1.267  0.1146E+02  0.4095E+02
     -1.210  0.4359E+01  0.4120E+02
     -1.153  0.1967E+00  0.4121E+02
     -1.096  0.1623E+01  0.4131E+02
     -1.039  0.4073E+00  0.4133E+02
     -0.982  0.1357E+00  0.4134E+02
     -0.925  0.4936E+00  0.4136E+02
     -0.868  0.1198E-01  0.4137E+02
     -0.811  0.2910E+01  0.4153E+02
     -0.754  0.5125E+00  0.4156E+02
     -0.698  0.2417E+01  0.4170E+02
     -0.641  0.6203E+00  0.4173E+02
     -0.584  0.3550E+00  0.4175E+02
     -0.527  0.2933E+00  0.4177E+02
     -0.470  0.2799E+00  0.4179E+02
     -0.413  0.1805E+01  0.4189E+02
     -0.356  0.6169E+00  0.4192E+02
     -0.299  0.1158E+01  0.4199E+02
     -0.242  0.1260E+01  0.4206E+02
     -0.185  0.1654E+01  0.4216E+02
     -0.128  0.1259E+00  0.4216E+02
     -0.071  0.5157E+00  0.4219E+02
     -0.014  0.2401E+01  0.4233E+02
      0.043  0.8974E-02  0.4233E+02
      0.100  0.1426E+01  0.4241E+02
      0.157  0.5234E+00  0.4244E+02
      0.214  0.1083E-01  0.4244E+02
      0.271  0.1574E+01  0.4253E+02
      0.328  0.1258E+01  0.4260E+02
      0.385  0.2101E+01  0.4272E+02
      0.442  0.1380E+01  0.4280E+02
      0.499  0.9426E+00  0.4285E+02
      0.556  0.7947E+00  0.4290E+02
      0.613  0.6868E+00  0.4294E+02
      0.670  0.1916E+00  0.4295E+02
      0.727  0.4645E+00  0.4298E+02
      0.784  0.2098E+01  0.4310E+02
      0.841  0.9732E+00  0.4315E+02
      0.897  0.5724E+00  0.4318E+02
      0.954  0.8569E+00  0.4323E+02
      1.011  0.2711E+01  0.4339E+02
      1.068  0.4923E+00  0.4342E+02
      1.125  0.1210E+01  0.4348E+02
      1.182  0.1228E+01  0.4355E+02
      1.239  0.7769E+00  0.4360E+02
      1.296  0.1531E+01  0.4369E+02
      1.353  0.2081E+01  0.4380E+02
      1.410  0.4876E+00  0.4383E+02
      1.467  0.9706E+00  0.4389E+02
      1.524  0.4653E-02  0.4389E+02
      1.581  0.9042E+00  0.4394E+02
      1.638  0.1392E+01  0.4402E+02
      1.695  0.1605E+01  0.4411E+02
      1.752  0.1705E+01  0.4421E+02
      1.809  0.1461E+01  0.4429E+02
      1.866  0.1167E+01  0.4436E+02
      1.923  0.7842E+00  0.4440E+02
      1.980  0.2260E+01  0.4453E+02
      2.037  0.1556E+01  0.4462E+02
      2.094  0.1638E+01  0.4471E+02
      2.151  0.3593E+00  0.4473E+02
      2.208  0.4781E+00  0.4476E+02
      2.265  0.1715E+01  0.4486E+02
      2.322  0.1133E+01  0.4492E+02
      2.379  0.1112E+01  0.4499E+02
      2.435  0.6842E+00  0.4502E+02
      2.492  0.2665E+01  0.4518E+02
      2.549  0.1720E+01  0.4527E+02
      2.606  0.9469E-03  0.4527E+02
      2.663  0.1620E+01  0.4537E+02
      2.720  0.1058E+01  0.4543E+02
      2.777  0.1262E+01  0.4550E+02
      2.834  0.2412E+01  0.4564E+02
      2.891  0.1084E+01  0.4570E+02
      2.948  0.9057E-03  0.4570E+02
      3.005  0.4911E+00  0.4573E+02
      3.062  0.1932E+01  0.4584E+02
      3.119  0.6983E+00  0.4588E+02
      3.176  0.2914E+00  0.4589E+02
      3.233  0.4368E+00  0.4592E+02
      3.290  0.3513E+01  0.4612E+02
      3.347  0.1389E+01  0.4620E+02
      3.404  0.1678E+01  0.4629E+02
      3.461  0.1307E+01  0.4637E+02
      3.518  0.1139E+01  0.4643E+02
      3.575  0.1081E+01  0.4649E+02
      3.632  0.4302E+00  0.4652E+02
      3.689  0.1462E+01  0.4660E+02
      3.746  0.3034E+00  0.4662E+02
      3.803  0.4876E+00  0.4665E+02
      3.860  0.6495E+00  0.4668E+02
      3.917  0.2096E+01  0.4680E+02
      3.974  0.1958E+01  0.4691E+02
      4.030  0.1431E-01  0.4691E+02
      4.087  0.7791E+00  0.4696E+02
      4.144  0.3213E+01  0.4714E+02
      4.201  0.1115E+01  0.4721E+02
      4.258  0.2079E+01  0.4732E+02
      4.315  0.2339E+01  0.4746E+02
      4.372  0.8898E+00  0.4751E+02
      4.429  0.8406E+00  0.4756E+02
      4.486  0.2019E+01  0.4767E+02
      4.543  0.1291E+01  0.4774E+02
      4.600  0.1835E+01  0.4785E+02
      4.657  0.1876E+01  0.4796E+02
      4.714  0.1077E+01  0.4802E+02
      4.771  0.1110E+01  0.4808E+02
      4.828  0.8205E+00  0.4813E+02
      4.885  0.1869E+01  0.4823E+02
      4.942  0.9238E+00  0.4829E+02
      4.999  0.1865E+01  0.4839E+02
      5.056  0.7672E+00  0.4844E+02
      5.113  0.2745E+01  0.4859E+02
      5.170  0.2329E+01  0.4873E+02
      5.227  0.5126E+00  0.4875E+02
      5.284  0.2858E+01  0.4892E+02
      5.341  0.7000E+00  0.4896E+02
      5.398  0.9575E+00  0.4901E+02
      5.455  0.4878E+00  0.4904E+02
      5.512  0.3595E+00  0.4906E+02
      5.569  0.2538E+01  0.4920E+02
      5.625  0.1469E+01  0.4929E+02
      5.682  0.2621E+01  0.4944E+02
      5.739  0.3787E+00  0.4946E+02
      5.796  0.7215E+00  0.4950E+02
      5.853  0.1365E+01  0.4958E+02
      5.910  0.2411E+01  0.4972E+02
      5.967  0.9735E+00  0.4977E+02
      6.024  0.9770E+00  0.4983E+02
      6.081  0.3473E+00  0.4985E+02
      6.138  0.2509E+01  0.4999E+02
      6.195  0.1973E+01  0.5010E+02
      6.252  0.4662E-01  0.5010E+02
      6.309  0.9393E+00  0.5016E+02
      6.366  0.2962E+01  0.5033E+02
      6.423  0.4882E+00  0.5035E+02
      6.480  0.1234E+01  0.5042E+02
      6.537  0.1982E+01  0.5054E+02
      6.594  0.1866E+01  0.5064E+02
      6.651  0.1522E+01  0.5073E+02
      6.708  0.3688E+01  0.5094E+02
      6.765  0.5076E+00  0.5097E+02
      6.822  0.1538E+01  0.5106E+02
      6.879  0.1139E+01  0.5112E+02
      6.936  0.1092E+01  0.5118E+02
      6.993  0.4875E+00  0.5121E+02
      7.050  0.1310E+01  0.5129E+02
      7.107  0.1147E+01  0.5135E+02
      7.164  0.2801E+01  0.5151E+02
      7.220  0.3031E+01  0.5168E+02
      7.277  0.2049E+01  0.5180E+02
      7.334  0.1777E+01  0.5190E+02
      7.391  0.2529E+01  0.5205E+02
      7.448  0.2408E+01  0.5218E+02
      7.505  0.1154E+01  0.5225E+02
      7.562  0.2013E+01  0.5236E+02
      7.619  0.2951E+01  0.5253E+02
      7.676  0.1143E+00  0.5254E+02
      7.733  0.1187E+01  0.5261E+02
      7.790  0.4351E+00  0.5263E+02
      7.847  0.1548E+01  0.5272E+02
      7.904  0.1891E+01  0.5283E+02
      7.961  0.7523E+00  0.5287E+02
      8.018  0.2986E+01  0.5304E+02
      8.075  0.2401E+01  0.5318E+02
      8.132  0.2713E+01  0.5333E+02
      8.189  0.8835E+00  0.5338E+02
      8.246  0.2046E+01  0.5350E+02
      8.303  0.1818E+01  0.5360E+02
      8.360  0.2712E+01  0.5376E+02
      8.417  0.1762E+01  0.5386E+02
      8.474  0.3835E+01  0.5407E+02
      8.531  0.1505E+01  0.5416E+02
      8.588  0.1332E+01  0.5424E+02
      8.645  0.7996E+00  0.5428E+02
      8.702  0.1921E+01  0.5439E+02
      8.759  0.3352E+01  0.5458E+02
      8.815  0.4046E-03  0.5458E+02
      8.872  0.5025E+00  0.5461E+02
      8.929  0.9603E+00  0.5467E+02
      8.986  0.1404E+01  0.5475E+02
      9.043  0.5579E+00  0.5478E+02
      9.100  0.2470E+01  0.5492E+02
      9.157  0.3055E+01  0.5509E+02
      9.214  0.3346E+01  0.5528E+02
      9.271  0.2935E+00  0.5530E+02
      9.328  0.3467E+00  0.5532E+02
      9.385  0.2454E+01  0.5546E+02
      9.442  0.7914E+00  0.5550E+02
      9.499  0.2909E+00  0.5552E+02
      9.556  0.1245E+01  0.5559E+02
      9.613  0.9544E+00  0.5565E+02
      9.670  0.1343E+01  0.5572E+02
      9.727  0.1574E+01  0.5581E+02
      9.784  0.2994E-01  0.5581E+02
      9.841  0.0000E+00  0.5581E+02
      9.898  0.6614E-05  0.5581E+02
      9.955  0.9757E+00  0.5587E+02
     10.012  0.7308E+00  0.5591E+02
     10.069  0.1102E+01  0.5597E+02
     10.126  0.1580E+00  0.5598E+02
     10.183  0.0000E+00  0.5598E+02
     10.240  0.0000E+00  0.5598E+02
     10.297  0.0000E+00  0.5598E+02
     10.353  0.0000E+00  0.5598E+02
     10.410  0.0000E+00  0.5598E+02
     10.467  0.0000E+00  0.5598E+02
     10.524  0.0000E+00  0.5598E+02
     10.581  0.0000E+00  0.5598E+02
     10.638  0.0000E+00  0.5598E+02
     10.695  0.3063E-11  0.5598E+02
     10.752  0.1135E+00  0.5599E+02
     10.809  0.8372E-02  0.5599E+02
     10.866  0.4094E-01  0.5599E+02
     10.923  0.1216E+00  0.5600E+02
     10.980  0.3450E-04  0.5600E+02
     11.037  0.2028E-01  0.5600E+02
     11.094  0.0000E+00  0.5600E+02
     11.151  0.0000E+00  0.5600E+02
     11.208  0.0000E+00  0.5600E+02
     11.265  0.0000E+00  0.5600E+02
     11.322  0.0000E+00  0.5600E+02
     11.379  0.0000E+00  0.5600E+02
     11.436  0.0000E+00  0.5600E+02
     11.493  0.0000E+00  0.5600E+02
     11.550  0.0000E+00  0.5600E+02
     11.607  0.0000E+00  0.5600E+02
     11.664  0.0000E+00  0.5600E+02
     11.721  0.0000E+00  0.5600E+02
     11.778  0.0000E+00  0.5600E+02
