    4    4    1    1
  0.2209942E+02  0.4454651E-09  0.4454651E-09  0.4454651E-09  0.5000000E-15
  1.000000000000000E-004
  CAR 
 unknown system                          
   44   84   28
 
  0.0000000E+00  0.0000000E+00  0.0000000E+00  0.5787037E-03
   1       -4.5348
   2       -3.5394
   3       -3.5394
   4       -3.5394
   5       -3.4809
   6       -3.4809
   7       -3.4809
   8       -2.5386
   9       -2.5386
  10       -2.5386
  11       -1.8916
  12       -1.8916
  13       -1.4117
  14       -1.4117
  15       -1.4117
  16       -1.2591
  17       -1.2591
  18       -1.2591
  19       -1.2591
  20       -1.2591
  21       -1.2591
  22        3.3622
  23        3.3622
  24        3.3622
  25        6.5013
  26        6.5013
  27        6.5013
  28       11.0008
 
  0.8333333E-01  0.0000000E+00  0.0000000E+00  0.3472222E-02
   1       -4.4755
   2       -3.5190
   3       -3.5132
   4       -3.5132
   5       -3.4660
   6       -3.4576
   7       -3.4576
   8       -2.5559
   9       -2.5213
  10       -2.5213
  11       -1.9087
  12       -1.8837
  13       -1.4342
  14       -1.4342
  15       -1.4202
  16       -1.3317
  17       -1.3317
  18       -1.2870
  19       -1.2870
  20       -1.2590
  21       -1.2590
  22        2.8520
  23        3.4882
  24        3.4882
  25        6.5167
  26        6.5167
  27        7.1140
  28       10.7417
 
  0.1666667E+00  0.0000000E+00  0.0000000E+00  0.3472222E-02
   1       -4.3005
   2       -3.4604
   3       -3.4382
   4       -3.4382
   5       -3.4221
   6       -3.3877
   7       -3.3877
   8       -2.6064
   9       -2.4697
  10       -2.4697
  11       -1.9560
  12       -1.8605
  13       -1.5268
  14       -1.5268
  15       -1.4993
  16       -1.4993
  17       -1.4450
  18       -1.3673
  19       -1.3673
  20       -1.2589
  21       -1.2589
  22        1.8601
  23        3.8430
  24        3.8430
  25        6.5637
  26        6.5637
  27        8.4145
  28       10.0988
 
  0.2500000E+00  0.0000000E+00  0.0000000E+00  0.3472222E-02
   1       -4.0210
   2       -3.3709
   3       -3.3515
   4       -3.3255
   5       -3.3255
   6       -3.2719
   7       -3.2719
   8       -2.6859
   9       -2.3856
  10       -2.3856
  11       -2.0192
  12       -1.8235
  13       -1.7958
  14       -1.7958
  15       -1.5989
  16       -1.5989
  17       -1.4901
  18       -1.4901
  19       -1.4842
  20       -1.2588
  21       -1.2588
  22        0.8186
  23        4.3760
  24        4.3760
  25        6.6423
  26        6.6423
  27        9.2752
  28        9.2752
 
  0.3333333E+00  0.0000000E+00  0.0000000E+00  0.3472222E-02
   1       -3.6682
   2       -3.2656
   3       -3.2584
   4       -3.1960
   5       -3.1960
   6       -3.1112
   7       -3.1112
   8       -2.7880
   9       -2.2719
  10       -2.2719
  11       -2.0939
  12       -2.0939
  13       -2.0617
  14       -1.7749
  15       -1.7154
  16       -1.7154
  17       -1.6418
  18       -1.6418
  19       -1.5350
  20       -1.2587
  21       -1.2587
  22       -0.1513
  23        5.0391
  24        5.0391
  25        6.7467
  26        6.7467
  27        8.3875
  28        8.3875
 
  0.4166667E+00  0.0000000E+00  0.0000000E+00  0.3472222E-02
   1       -3.3305
   2       -3.1739
   3       -3.1482
   4       -3.0849
   5       -3.0849
   6       -2.9076
   7       -2.9076
   8       -2.9048
   9       -2.3900
  10       -2.3900
  11       -2.1330
  12       -2.1330
  13       -1.9887
  14       -1.8171
  15       -1.8171
  16       -1.8081
  17       -1.8081
  18       -1.7178
  19       -1.5937
  20       -1.2586
  21       -1.2586
  22       -0.9940
  23        5.7962
  24        5.7962
  25        6.8525
  26        6.8525
  27        7.4923
  28        7.4923
 
  0.5000000E+00  0.0000000E+00  0.0000000E+00  0.1736111E-02
   1       -3.1603
   2       -3.1603
   3       -3.0392
   4       -3.0392
   5       -3.0277
   6       -3.0277
   7       -2.6650
   8       -2.6650
   9       -2.6650
  10       -2.6650
  11       -1.9755
  12       -1.9755
  13       -1.9755
  14       -1.9755
  15       -1.8595
  16       -1.8595
  17       -1.6560
  18       -1.6560
  19       -1.6405
  20       -1.6405
  21       -1.2585
  22       -1.2585
  23        6.6211
  24        6.6211
  25        6.6211
  26        6.6211
  27        6.9020
  28        6.9020
 
  0.8333333E-01  0.8333333E-01  0.0000000E+00  0.6944444E-02
   1       -4.4170
   2       -3.4945
   3       -3.4927
   4       -3.4927
   5       -3.4430
   6       -3.4430
   7       -3.4278
   8       -2.5615
   9       -2.5152
  10       -2.5049
  11       -1.9131
  12       -1.8870
  13       -1.4559
  14       -1.4530
  15       -1.4530
  16       -1.3811
  17       -1.3493
  18       -1.3493
  19       -1.2871
  20       -1.2871
  21       -1.2788
  22        2.9687
  23        2.9687
  24        3.6110
  25        6.5316
  26        7.1376
  27        7.1376
  28        9.9745
 
  0.1666667E+00  0.8333333E-01  0.0000000E+00  0.1388889E-01
   1       -4.2446
   2       -3.4360
   3       -3.4336
   4       -3.4173
   5       -3.4000
   6       -3.3741
   7       -3.3444
   8       -2.6052
   9       -2.4692
  10       -2.4568
  11       -1.9537
  12       -1.8652
  13       -1.5939
  14       -1.5581
  15       -1.5186
  16       -1.5150
  17       -1.4675
  18       -1.3929
  19       -1.3676
  20       -1.2885
  21       -1.2873
  22        1.9713
  23        3.2933
  24        3.9578
  25        6.5746
  26        7.2081
  27        8.4388
  28        9.1088
 
  0.2500000E+00  0.8333333E-01  0.0000000E+00  0.1388889E-01
   1       -3.9697
   2       -3.3432
   3       -3.3381
   4       -3.3309
   5       -3.3038
   6       -3.2598
   7       -3.2186
   8       -2.6815
   9       -2.3864
  10       -2.3820
  11       -2.0092
  12       -1.8466
  13       -1.8232
  14       -1.8156
  15       -1.6241
  16       -1.6147
  17       -1.5799
  18       -1.4907
  19       -1.4478
  20       -1.2903
  21       -1.2876
  22        0.9322
  23        3.7712
  24        4.4818
  25        6.6344
  26        7.3211
  27        8.2721
  28        9.3578
 
  0.3333333E+00  0.8333333E-01  0.0000000E+00  0.1388889E-01
   1       -3.6240
   2       -3.2398
   3       -3.2363
   4       -3.2100
   5       -3.1735
   6       -3.1015
   7       -3.0632
   8       -2.7806
   9       -2.3013
  10       -2.2731
  11       -2.1335
  12       -2.1046
  13       -2.0222
  14       -1.7702
  15       -1.7662
  16       -1.7272
  17       -1.7020
  18       -1.6428
  19       -1.5108
  20       -1.2903
  21       -1.2880
  22       -0.0292
  23        4.3503
  24        5.1367
  25        6.6361
  26        7.4508
  27        7.5823
  28        8.4693
 
  0.4166667E+00  0.8333333E-01  0.0000000E+00  0.1388889E-01
   1       -3.2933
   2       -3.1422
   3       -3.1321
   4       -3.0833
   5       -3.0625
   6       -2.9012
   7       -2.8944
   8       -2.8846
   9       -2.4156
  10       -2.3935
  11       -2.2365
  12       -2.1344
  13       -1.9392
  14       -1.8893
  15       -1.8242
  16       -1.8100
  17       -1.8093
  18       -1.6910
  19       -1.5820
  20       -1.2899
  21       -1.2886
  22       -0.8544
  23        4.9908
  24        5.8872
  25        6.2919
  26        7.3311
  27        7.5120
  28        7.5755
 
  0.5000000E+00  0.8333333E-01  0.0000000E+00  0.6944444E-02
   1       -3.1259
   2       -3.1259
   3       -3.0219
   4       -3.0219
   5       -3.0143
   6       -3.0143
   7       -2.6704
   8       -2.6704
   9       -2.6629
  10       -2.6629
  11       -2.1127
  12       -2.1127
  13       -1.9768
  14       -1.9768
  15       -1.8600
  16       -1.8600
  17       -1.6725
  18       -1.6725
  19       -1.4650
  20       -1.4650
  21       -1.2892
  22       -1.2892
  23        5.6593
  24        5.6593
  25        6.7073
  26        6.7073
  27        7.4256
  28        7.4256
 
  0.1666667E+00  0.1666667E+00  0.0000000E+00  0.6944444E-02
   1       -4.0801
   2       -3.4020
   3       -3.3567
   4       -3.3567
   5       -3.3339
   6       -3.3339
   7       -3.2453
   8       -2.6215
   9       -2.4469
  10       -2.4196
  11       -1.9698
  12       -1.8514
  13       -1.7050
  14       -1.7050
  15       -1.6758
  16       -1.5748
  17       -1.4595
  18       -1.4595
  19       -1.3685
  20       -1.3685
  21       -1.3372
  22        2.2766
  23        2.2766
  24        4.2852
  25        6.5919
  26        8.1394
  27        8.5010
  28        8.5010
 
  0.2500000E+00  0.1666667E+00  0.0000000E+00  0.1388889E-01
   1       -3.8204
   2       -3.3261
   3       -3.2694
   4       -3.2636
   5       -3.2409
   6       -3.2245
   7       -3.1116
   8       -2.6773
   9       -2.3788
  10       -2.3676
  11       -2.0082
  12       -1.9596
  13       -1.8847
  14       -1.8432
  15       -1.7929
  16       -1.6614
  17       -1.5603
  18       -1.4925
  19       -1.4837
  20       -1.3700
  21       -1.3629
  22        1.2369
  23        2.7202
  24        4.7863
  25        6.4930
  26        7.3984
  27        8.5452
  28        9.6006
 
  0.3333333E+00  0.1666667E+00  0.0000000E+00  0.1388889E-01
   1       -3.4979
   2       -3.2123
   3       -3.1845
   4       -3.1520
   5       -3.1078
   6       -3.0732
   7       -2.9614
   8       -2.7629
   9       -2.3391
  10       -2.2718
  11       -2.2299
  12       -2.1406
  13       -2.0010
  14       -1.9959
  15       -1.7630
  16       -1.6923
  17       -1.6827
  18       -1.6453
  19       -1.5369
  20       -1.3725
  21       -1.3717
  22        0.2844
  23        3.2572
  24        5.4199
  25        5.9589
  26        7.2290
  27        8.4132
  28        8.7097
 
  0.4166667E+00  0.1666667E+00  0.0000000E+00  0.1388889E-01
   1       -3.1899
   2       -3.0844
   3       -3.0764
   4       -3.0507
   5       -2.9972
   6       -2.8827
   7       -2.8656
   8       -2.8178
   9       -2.4803
  10       -2.4058
  11       -2.3517
  12       -2.1670
  13       -2.1359
  14       -1.8754
  15       -1.8474
  16       -1.8122
  17       -1.7998
  18       -1.6169
  19       -1.5137
  20       -1.3752
  21       -1.3735
  22       -0.5284
  23        3.8616
  24        5.2317
  25        6.1530
  26        7.3996
  27        7.8195
  28        8.0686
 
  0.5000000E+00  0.1666667E+00  0.0000000E+00  0.6944444E-02
   1       -3.0285
   2       -3.0285
   3       -2.9763
   4       -2.9763
   5       -2.9756
   6       -2.9756
   7       -2.6769
   8       -2.6769
   9       -2.6576
  10       -2.6576
  11       -2.3067
  12       -2.3067
  13       -1.9796
  14       -1.9796
  15       -1.8667
  16       -1.8667
  17       -1.7277
  18       -1.7277
  19       -1.3750
  20       -1.3750
  21       -1.1452
  22       -1.1452
  23        4.5221
  24        4.5221
  25        6.9600
  26        6.9600
  27        7.6980
  28        7.6980
 
  0.2500000E+00  0.2500000E+00  0.0000000E+00  0.6944444E-02
   1       -3.5895
   2       -3.2746
   3       -3.1680
   4       -3.1680
   5       -3.1433
   6       -3.1433
   7       -2.9760
   8       -2.6958
   9       -2.3428
  10       -2.3390
  11       -2.0992
  12       -2.0992
  13       -2.0421
  14       -2.0195
  15       -1.7348
  16       -1.6905
  17       -1.5697
  18       -1.5697
  19       -1.4951
  20       -1.4951
  21       -1.4315
  22        1.6708
  23        1.6708
  24        5.2588
  25        5.8407
  26        7.1774
  27        9.5937
  28        9.5937
 
  0.3333333E+00  0.2500000E+00  0.0000000E+00  0.1388889E-01
   1       -3.3119
   2       -3.1838
   3       -3.0940
   4       -3.0286
   5       -3.0237
   6       -3.0045
   7       -2.8321
   8       -2.7483
   9       -2.3514
  10       -2.3456
  11       -2.2536
  12       -2.2491
  13       -2.2124
  14       -2.0446
  15       -1.8221
  16       -1.6863
  17       -1.6486
  18       -1.6154
  19       -1.5104
  20       -1.4979
  21       -1.4727
  22        0.7148
  23        2.1931
  24        4.9919
  25        5.8648
  26        7.3150
  27        9.0106
  28        9.0949
 
  0.4166667E+00  0.2500000E+00  0.0000000E+00  0.1388889E-01
   1       -3.0590
   2       -3.0487
   3       -3.0078
   4       -2.9110
   5       -2.8959
   6       -2.8547
   7       -2.8258
   8       -2.7147
   9       -2.5603
  10       -2.4327
  11       -2.4134
  12       -2.3909
  13       -2.1297
  14       -1.9510
  15       -1.8915
  16       -1.8148
  17       -1.8082
  18       -1.6984
  19       -1.4998
  20       -1.4918
  21       -1.2204
  22       -0.1075
  23        2.7868
  24        4.1845
  25        6.5743
  26        7.5851
  27        8.2100
  28        8.4420
 
  0.5000000E+00  0.2500000E+00  0.0000000E+00  0.6944444E-02
   1       -2.9254
   2       -2.9254
   3       -2.9157
   4       -2.9157
   5       -2.8894
   6       -2.8894
   7       -2.6558
   8       -2.6558
   9       -2.6526
  10       -2.6526
  11       -2.4640
  12       -2.4640
  13       -1.9794
  14       -1.9794
  15       -1.8917
  16       -1.8917
  17       -1.8163
  18       -1.8163
  19       -1.4989
  20       -1.4989
  21       -0.7607
  22       -0.7607
  23        3.4495
  24        3.4495
  25        7.3629
  26        7.3629
  27        7.9618
  28        7.9618
 
  0.3333333E+00  0.3333333E+00  0.0000000E+00  0.6944444E-02
   1       -3.1213
   2       -3.1053
   3       -2.9713
   4       -2.9713
   5       -2.8735
   6       -2.8735
   7       -2.7541
   8       -2.6954
   9       -2.4784
  10       -2.4784
  11       -2.3331
  12       -2.3287
  13       -2.1998
  14       -2.1043
  15       -1.8968
  16       -1.7275
  17       -1.7275
  18       -1.6508
  19       -1.6508
  20       -1.5572
  21       -1.2343
  22        1.2267
  23        1.2267
  24        4.0647
  25        6.4427
  26        7.5382
  27        9.5082
  28        9.5082
 
  0.4166667E+00  0.3333333E+00  0.0000000E+00  0.1388889E-01
   1       -3.0240
   2       -2.9211
   3       -2.9068
   4       -2.8216
   5       -2.7878
   6       -2.7780
   7       -2.7428
   8       -2.6264
   9       -2.5903
  10       -2.5867
  11       -2.4827
  12       -2.3977
  13       -2.1025
  14       -2.0574
  15       -1.9578
  16       -1.8513
  17       -1.8132
  18       -1.8109
  19       -1.6489
  20       -1.6109
  21       -0.8443
  22        0.3861
  23        1.8121
  24        3.2241
  25        7.1269
  26        7.8661
  27        8.7277
  28        8.8484
 
  0.5000000E+00  0.3333333E+00  0.0000000E+00  0.6944444E-02
   1       -2.8945
   2       -2.8945
   3       -2.8424
   4       -2.8424
   5       -2.7772
   6       -2.7772
   7       -2.6539
   8       -2.6539
   9       -2.5783
  10       -2.5783
  11       -2.5290
  12       -2.5290
  13       -1.9690
  14       -1.9690
  15       -1.9464
  16       -1.9464
  17       -1.9310
  18       -1.9310
  19       -1.6382
  20       -1.6382
  21       -0.3080
  22       -0.3080
  23        2.4751
  24        2.4751
  25        7.8949
  26        7.8949
  27        8.3010
  28        8.3010
 
  0.4166667E+00  0.4166667E+00  0.0000000E+00  0.6944444E-02
   1       -2.9643
   2       -2.8437
   3       -2.7898
   4       -2.7898
   5       -2.7662
   6       -2.7492
   7       -2.7492
   8       -2.5741
   9       -2.5741
  10       -2.5627
  11       -2.4785
  12       -2.3493
  13       -2.1322
  14       -2.0401
  15       -2.0283
  16       -1.9362
  17       -1.9362
  18       -1.8011
  19       -1.8011
  20       -1.7071
  21       -0.3684
  22        0.9557
  23        0.9557
  24        2.3661
  25        7.7873
  26        8.2473
  27        9.3395
  28        9.3421
 
  0.5000000E+00  0.4166667E+00  0.0000000E+00  0.6944444E-02
   1       -2.8740
   2       -2.8740
   3       -2.7940
   4       -2.7940
   5       -2.7682
   6       -2.7682
   7       -2.6696
   8       -2.6696
   9       -2.4608
  10       -2.4608
  11       -2.4352
  12       -2.4352
  13       -2.0534
  14       -2.0534
  15       -2.0324
  16       -2.0324
  17       -1.9369
  18       -1.9369
  19       -1.7691
  20       -1.7691
  21        0.2281
  22        0.2281
  23        1.6120
  24        1.6120
  25        8.5350
  26        8.5350
  27        8.7363
  28        8.7363
 
  0.5000000E+00  0.5000000E+00  0.0000000E+00  0.1736111E-02
   1       -2.8421
   2       -2.8421
   3       -2.8421
   4       -2.8421
   5       -2.7075
   6       -2.7075
   7       -2.7075
   8       -2.7075
   9       -2.3713
  10       -2.3713
  11       -2.3713
  12       -2.3713
  13       -2.1090
  14       -2.1090
  15       -2.1090
  16       -2.1090
  17       -1.8718
  18       -1.8718
  19       -1.8718
  20       -1.8718
  21        0.8642
  22        0.8642
  23        0.8642
  24        0.8642
  25        9.2641
  26        9.2641
  27        9.2641
  28        9.2770
 
  0.8333333E-01  0.8333333E-01  0.8333333E-01  0.4629630E-02
   1       -4.3595
   2       -3.4751
   3       -3.4751
   4       -3.4751
   5       -3.4124
   6       -3.4124
   7       -3.4124
   8       -2.5640
   9       -2.5006
  10       -2.5006
  11       -1.9031
  12       -1.9031
  13       -1.4755
  14       -1.4755
  15       -1.4755
  16       -1.4108
  17       -1.4108
  18       -1.4108
  19       -1.2937
  20       -1.2937
  21       -1.2937
  22        3.0816
  23        3.0816
  24        3.0816
  25        7.1593
  26        7.1593
  27        7.1593
  28       10.0632
 
  0.1666667E+00  0.8333333E-01  0.8333333E-01  0.1388889E-01
   1       -4.1902
   2       -3.4203
   3       -3.4182
   4       -3.4182
   5       -3.3656
   6       -3.3280
   7       -3.3280
   8       -2.6000
   9       -2.4592
  10       -2.4570
  11       -1.9462
  12       -1.8738
  13       -1.6109
  14       -1.6109
  15       -1.5345
  16       -1.5144
  17       -1.5144
  18       -1.4966
  19       -1.3343
  20       -1.3025
  21       -1.3025
  22        2.0778
  23        3.3972
  24        3.3972
  25        7.2189
  26        7.2189
  27        8.4538
  28        9.2058
 
  0.2500000E+00  0.8333333E-01  0.8333333E-01  0.1388889E-01
   1       -3.9215
   2       -3.3409
   3       -3.3214
   4       -3.3214
   5       -3.2865
   6       -3.2025
   7       -3.2025
   8       -2.6711
   9       -2.3856
  10       -2.3835
  11       -1.9943
  12       -1.8612
  13       -1.8612
  14       -1.8271
  15       -1.6304
  16       -1.6294
  17       -1.6093
  18       -1.6093
  19       -1.3923
  20       -1.3087
  21       -1.3087
  22        1.0384
  23        3.8650
  24        3.8650
  25        7.2731
  26        7.2731
  27        8.4226
  28        8.4226
 
  0.3333333E+00  0.8333333E-01  0.8333333E-01  0.1388889E-01
   1       -3.5863
   2       -3.2493
   3       -3.1930
   4       -3.1930
   5       -3.1810
   6       -3.0499
   7       -3.0499
   8       -2.7645
   9       -2.3148
  10       -2.2889
  11       -2.1403
  12       -2.1403
  13       -1.9777
  14       -1.7972
  15       -1.7660
  16       -1.7545
  17       -1.7217
  18       -1.7217
  19       -1.4616
  20       -1.3122
  21       -1.3122
  22        0.0795
  23        4.4353
  24        4.4353
  25        7.0677
  26        7.0677
  27        8.0090
  28        8.0090
 
  0.4166667E+00  0.8333333E-01  0.8333333E-01  0.1388889E-01
   1       -3.2702
   2       -3.1582
   3       -3.0706
   4       -3.0635
   5       -3.0635
   6       -2.8808
   7       -2.8808
   8       -2.8696
   9       -2.4124
  10       -2.4124
  11       -2.2773
  12       -2.1705
  13       -1.9867
  14       -1.8940
  15       -1.8226
  16       -1.8226
  17       -1.7878
  18       -1.6945
  19       -1.5377
  20       -1.3138
  21       -1.3138
  22       -0.7452
  23        5.0687
  24        5.0687
  25        6.4599
  26        6.4599
  27        8.0934
  28        8.0934
 
  0.5000000E+00  0.8333333E-01  0.8333333E-01  0.6944444E-02
   1       -3.1217
   2       -3.1217
   3       -3.0045
   4       -3.0045
   5       -2.9728
   6       -2.9728
   7       -2.7245
   8       -2.7245
   9       -2.6107
  10       -2.6107
  11       -2.1700
  12       -2.1700
  13       -2.0362
  14       -2.0362
  15       -1.8656
  16       -1.8656
  17       -1.6168
  18       -1.6168
  19       -1.3816
  20       -1.3816
  21       -1.3143
  22       -1.3143
  23        5.6423
  24        5.6423
  25        5.8714
  26        5.8714
  27        8.2102
  28        8.2102
 
  0.1666667E+00  0.1666667E+00  0.8333333E-01  0.1388889E-01
   1       -4.0313
   2       -3.3870
   3       -3.3689
   4       -3.3689
   5       -3.2779
   6       -3.2779
   7       -3.2276
   8       -2.6051
   9       -2.4418
  10       -2.4244
  11       -1.9522
  12       -1.8660
  13       -1.7160
  14       -1.7160
  15       -1.7055
  16       -1.6094
  17       -1.5551
  18       -1.5551
  19       -1.3376
  20       -1.3376
  21       -1.3317
  22        2.3723
  23        2.3723
  24        3.6909
  25        7.1996
  26        8.3036
  27        8.4507
  28        8.4507
 
  0.2500000E+00  0.1666667E+00  0.8333333E-01  0.2777778E-01
   1       -3.7829
   2       -3.3134
   3       -3.2982
   4       -3.2760
   5       -3.1930
   6       -3.1521
   7       -3.0943
   8       -2.6487
   9       -2.3839
  10       -2.3730
  11       -1.9813
  12       -1.9675
  13       -1.9163
  14       -1.8524
  15       -1.8063
  16       -1.6875
  17       -1.6503
  18       -1.6251
  19       -1.3863
  20       -1.3573
  21       -1.3558
  22        1.3280
  23        2.8049
  24        4.1330
  25        6.8292
  26        7.8876
  27        8.1348
  28        9.1300
 
  0.3333333E+00  0.1666667E+00  0.8333333E-01  0.2777778E-01
   1       -3.4818
   2       -3.2170
   3       -3.2012
   4       -3.1480
   5       -3.0802
   6       -3.0069
   7       -2.9483
   8       -2.7191
   9       -2.3454
  10       -2.2986
  11       -2.2283
  12       -2.1649
  13       -2.0114
  14       -1.9373
  15       -1.7812
  16       -1.7788
  17       -1.7249
  18       -1.7083
  19       -1.4503
  20       -1.3738
  21       -1.3709
  22        0.3694
  23        3.3332
  24        4.6803
  25        6.0840
  26        7.4380
  27        8.0082
  28        9.1757
 
  0.4166667E+00  0.1666667E+00  0.8333333E-01  0.2777778E-01
   1       -3.2117
   2       -3.1381
   3       -3.0641
   4       -3.0090
   5       -2.9595
   6       -2.8694
   7       -2.8231
   8       -2.7944
   9       -2.4571
  10       -2.4047
  11       -2.3644
  12       -2.1924
  13       -2.1807
  14       -1.9256
  15       -1.8617
  16       -1.8284
  17       -1.7760
  18       -1.5316
  19       -1.5241
  20       -1.3817
  21       -1.3798
  22       -0.4577
  23        3.9326
  24        5.2608
  25        5.3554
  26        6.6927
  27        8.3216
  28        9.1205
 
  0.5000000E+00  0.1666667E+00  0.8333333E-01  0.1388889E-01
   1       -3.1009
   2       -3.1009
   3       -2.9592
   4       -2.9592
   5       -2.8632
   6       -2.8632
   7       -2.7768
   8       -2.7768
   9       -2.5567
  10       -2.5567
  11       -2.3228
  12       -2.3228
  13       -2.0663
  14       -2.0663
  15       -1.8865
  16       -1.8865
  17       -1.6334
  18       -1.6334
  19       -1.3833
  20       -1.3833
  21       -1.1087
  22       -1.1087
  23        4.5926
  24        4.5926
  25        5.9778
  26        5.9778
  27        8.7348
  28        8.7348
 
  0.2500000E+00  0.2500000E+00  0.8333333E-01  0.1388889E-01
   1       -3.5742
   2       -3.2657
   3       -3.2136
   4       -3.2136
   5       -3.0649
   6       -3.0649
   7       -2.9606
   8       -2.6404
   9       -2.3569
  10       -2.3468
  11       -2.1018
  12       -2.1018
  13       -2.0388
  14       -2.0044
  15       -1.7788
  16       -1.7075
  17       -1.6932
  18       -1.6932
  19       -1.4159
  20       -1.4159
  21       -1.4092
  22        1.7480
  23        1.7480
  24        4.5434
  25        5.9532
  26        7.9477
  27        8.6577
  28        8.6577
 
  0.3333333E+00  0.2500000E+00  0.8333333E-01  0.2777778E-01
   1       -3.3375
   2       -3.1790
   3       -3.1458
   4       -3.0923
   5       -2.9457
   6       -2.9260
   7       -2.8254
   8       -2.6602
   9       -2.3456
  10       -2.3380
  11       -2.2950
  12       -2.2465
  13       -2.2177
  14       -1.9791
  15       -1.8617
  16       -1.8083
  17       -1.7671
  18       -1.5275
  19       -1.4871
  20       -1.4506
  21       -1.4498
  22        0.7817
  23        2.2604
  24        5.0599
  25        5.0660
  26        7.8239
  27        8.2067
  28        9.1825
 
  0.4166667E+00  0.2500000E+00  0.8333333E-01  0.2777778E-01
   1       -3.1427
   2       -3.0853
   3       -3.0579
   4       -2.9443
   5       -2.8415
   6       -2.8121
   7       -2.7417
   8       -2.6832
   9       -2.4998
  10       -2.4168
  11       -2.3946
  12       -2.3842
  13       -2.2023
  14       -1.9458
  15       -1.9267
  16       -1.8612
  17       -1.8496
  18       -1.5793
  19       -1.4737
  20       -1.4733
  21       -1.2254
  22       -0.0576
  23        2.8483
  24        4.2467
  25        5.6592
  26        7.0426
  27        8.5919
  28        9.6775
 
  0.5000000E+00  0.2500000E+00  0.8333333E-01  0.1388889E-01
   1       -3.0631
   2       -3.0631
   3       -2.9199
   4       -2.9199
   5       -2.7943
   6       -2.7943
   7       -2.7085
   8       -2.7085
   9       -2.4992
  10       -2.4992
  11       -2.4654
  12       -2.4654
  13       -2.0827
  14       -2.0827
  15       -1.9314
  16       -1.9314
  17       -1.7005
  18       -1.7005
  19       -1.4809
  20       -1.4809
  21       -0.7374
  22       -0.7374
  23        3.5091
  24        3.5091
  25        6.3212
  26        6.3212
  27        9.0899
  28        9.0899
 
  0.3333333E+00  0.3333333E+00  0.8333333E-01  0.1388889E-01
   1       -3.1928
   2       -3.1242
   3       -3.0428
   4       -3.0428
   5       -2.8063
   6       -2.8063
   7       -2.7097
   8       -2.6224
   9       -2.4471
  10       -2.4471
  11       -2.3109
  12       -2.3012
  13       -2.2758
  14       -2.0129
  15       -1.9469
  16       -1.8570
  17       -1.8570
  18       -1.5410
  19       -1.5410
  20       -1.5203
  21       -1.2470
  22        1.2826
  23        1.2826
  24        4.1224
  25        5.5513
  26        8.3066
  27        8.3066
  28        8.5254
 
  0.4166667E+00  0.3333333E+00  0.8333333E-01  0.2777778E-01
   1       -3.0813
   2       -3.0376
   3       -3.0125
   4       -2.9263
   5       -2.7677
   6       -2.6696
   7       -2.6607
   8       -2.6114
   9       -2.5372
  10       -2.5085
  11       -2.3748
  12       -2.3704
  13       -2.2073
  14       -2.0087
  15       -1.9769
  16       -1.9316
  17       -1.9278
  18       -1.6485
  19       -1.5813
  20       -1.5707
  21       -0.8442
  22        0.4265
  23        1.8624
  24        3.2755
  25        6.1283
  26        7.5059
  27        8.8877
  28        8.9592
 
  0.5000000E+00  0.3333333E+00  0.8333333E-01  0.1388889E-01
   1       -3.0202
   2       -3.0202
   3       -2.9303
   4       -2.9303
   5       -2.7467
   6       -2.7467
   7       -2.5928
   8       -2.5928
   9       -2.5065
  10       -2.5065
  11       -2.4294
  12       -2.4294
  13       -2.1007
  14       -2.1007
  15       -2.0033
  16       -2.0033
  17       -1.7817
  18       -1.7817
  19       -1.5920
  20       -1.5920
  21       -0.2877
  22       -0.2877
  23        2.5242
  24        2.5242
  25        6.7807
  26        6.7807
  27        9.5056
  28        9.5056
 
  0.4166667E+00  0.4166667E+00  0.8333333E-01  0.1388889E-01
   1       -3.0309
   2       -2.9993
   3       -2.9494
   4       -2.9494
   5       -2.6872
   6       -2.6872
   7       -2.6566
   8       -2.6111
   9       -2.4563
  10       -2.4563
  11       -2.3311
  12       -2.2697
  13       -2.2281
  14       -2.0848
  15       -2.0300
  16       -2.0300
  17       -1.9344
  18       -1.7018
  19       -1.7018
  20       -1.6552
  21       -0.3587
  22        0.9931
  23        0.9931
  24        2.4100
  25        6.6918
  26        8.0717
  27        8.0717
  28        9.4348
 
  0.5000000E+00  0.4166667E+00  0.8333333E-01  0.1388889E-01
   1       -2.9874
   2       -2.9874
   3       -2.9527
   4       -2.9527
   5       -2.6932
   6       -2.6932
   7       -2.6373
   8       -2.6373
   9       -2.3521
  10       -2.3521
  11       -2.3396
  12       -2.3396
  13       -2.1364
  14       -2.1364
  15       -2.0936
  16       -2.0936
  17       -1.8322
  18       -1.8322
  19       -1.7054
  20       -1.7054
  21        0.2513
  22        0.2513
  23        1.6511
  24        1.6511
  25        7.3403
  26        7.3403
  27        8.7318
  28        8.7318
 
  0.5000000E+00  0.5000000E+00  0.8333333E-01  0.3472222E-02
   1       -2.9689
   2       -2.9689
   3       -2.9689
   4       -2.9689
   5       -2.6628
   6       -2.6628
   7       -2.6628
   8       -2.6628
   9       -2.2592
  10       -2.2592
  11       -2.2592
  12       -2.2592
  13       -2.1770
  14       -2.1770
  15       -2.1770
  16       -2.1770
  17       -1.8006
  18       -1.8006
  19       -1.8006
  20       -1.8006
  21        0.8943
  22        0.8943
  23        0.8943
  24        0.8943
  25        7.9916
  26        7.9916
  27        7.9916
  28        7.9916
 
  0.1666667E+00  0.1666667E+00  0.1666667E+00  0.4629630E-02
   1       -3.8907
   2       -3.3455
   3       -3.3455
   4       -3.3455
   5       -3.1736
   6       -3.1736
   7       -3.1736
   8       -2.5701
   9       -2.4244
  10       -2.4244
  11       -1.9022
  12       -1.9022
  13       -1.7907
  14       -1.7907
  15       -1.7907
  16       -1.6955
  17       -1.6954
  18       -1.6954
  19       -1.3301
  20       -1.3301
  21       -1.3301
  22        2.6418
  23        2.6418
  24        2.6418
  25        8.0113
  26        8.0113
  27        8.0113
  28        9.0688
 
  0.2500000E+00  0.1666667E+00  0.1666667E+00  0.1388889E-01