       N       E                     dE             d eps       ncg     rms          rms(c)
DAV:   1     0.452425628865E+03    0.45243E+03   -0.26818E+04  4704   0.208E+03
DAV:   2     0.508128296506E+01   -0.44734E+03   -0.42391E+03  4728   0.463E+02
DAV:   3    -0.111490414021E+02   -0.16230E+02   -0.15978E+02  5136   0.102E+02
DAV:   4    -0.112930156318E+02   -0.14397E+00   -0.14386E+00  4964   0.913E+00
DAV:   5    -0.112935692850E+02   -0.55365E-03   -0.55363E-03  5012   0.522E-01    0.447E+00
DAV:   6    -0.106846379212E+02    0.60893E+00   -0.25163E+00  4844   0.162E+01    0.897E-01
DAV:   7    -0.106780382977E+02    0.65996E-02   -0.39526E-02  4840   0.148E+00    0.518E-01
DAV:   8    -0.106746717064E+02    0.33666E-02   -0.51493E-03  4872   0.766E-01    0.386E-02
DAV:   9    -0.106747686104E+02   -0.96904E-04   -0.23111E-04  4976   0.126E-01    0.242E-02
DAV:  10    -0.106747684102E+02    0.20017E-06   -0.22896E-05  4872   0.403E-02    0.395E-03
DAV:  11    -0.106747679627E+02    0.44759E-06   -0.14380E-06  4932   0.980E-03    0.618E-04
DAV:  12    -0.106747674362E+02    0.52644E-06   -0.47677E-08  4524   0.180E-03    0.144E-04
DAV:  13    -0.106747674224E+02    0.13792E-07   -0.82157E-10  2532   0.253E-04    0.878E-05
DAV:  14    -0.106747674366E+02   -0.14214E-07   -0.60528E-10  2516   0.239E-04    0.124E-05
DAV:  15    -0.106747674364E+02    0.22192E-09   -0.51955E-11  2500   0.749E-05
   1 F= -.10674767E+02 E0= -.10674747E+02  d E =-.415444E-04
