 vasp.4.6.28 25Jul05 complex 
 executed on             LinuxIFC date 2017.01.06  05:47:12
 running on    4 nodes
 distr:  one band on    1 nodes,    4 groups


--------------------------------------------------------------------------------------------------------


 INCAR:
 POTCAR:   PAW_PBE Ag 06Sep2000                   
 POTCAR:   PAW_PBE Ag 06Sep2000                   
   VRHFIN =Ag : s1 d10                                                          
   LEXCH  = PE                                                                  
   EATOM  =  1037.4134 eV,   76.2477 Ry                                         
                                                                                
   TITEL  = PAW_PBE Ag 06Sep2000                                                
   LULTRA =        F    use ultrasoft PP ?                                      
   IUNSCR =        1    unscreen: 0-lin 1-nonlin 2-no                           
   RPACOR =    2.000    partial core radius                                     
   POMASS =  107.868; ZVAL   =   11.000    mass and valenz                      
   RCORE  =    2.400    outmost cutoff radius                                   
   RWIGS  =    2.840; RWIGS  =    1.503    wigner-seitz radius (au A)           
   ENMAX  =  249.846; ENMIN  =  187.385 eV                                      
   RCLOC  =    1.962    cutoff for local pot                                    
   LCOR   =        T    correct aug charges                                     
   LPAW   =        T    paw PP                                                  
   EAUG   =  412.496                                                            
   DEXC   =    -.047                                                            
   RMAX   =    2.917    core radius for proj-oper                               
   RAUG   =    1.300    factor for augmentation sphere                          
   RDEP   =    2.416    radius for radial grids                                 
   QCUT   =   -4.285; QGAM   =    8.570    optimization parameters              
                                                                                
   Description                                                                  
     l     E      TYP  RCUT    TYP  RCUT                                        
     2   .000     23  2.400                                                     
     2   .000     23  2.400                                                     
     0   .000     23  2.400                                                     
     0   .000     23  2.400                                                     
     1  -.200     23  2.400                                                     
     1  1.500     23  2.400                                                     
     3   .000      7   .000                                                     
  local pseudopotential read in
  partial core-charges read in
  atomic valenz-charges read in
  non local Contribution for L=           2  read in
    real space projection operators read in
  non local Contribution for L=           2  read in
    real space projection operators read in
  non local Contribution for L=           0  read in
    real space projection operators read in
  non local Contribution for L=           0  read in
    real space projection operators read in
  non local Contribution for L=           1  read in
    real space projection operators read in
  non local Contribution for L=           1  read in
    real space projection operators read in
    PAW grid and wavefunctions read in
 
   number of l-projection  operators is LMAX  =           6
   number of lm-projection operators is LMMAX =          18
 
 PAW_PBE Ag 06Sep2000                   :
 energy of atom  1       EATOM=-1037.4134
 kinetic energy error for atom=    0.0010 (will be added to EATOM!!)
 
 EXHCAR: internal setup
 exchange correlation table for  LEXCH =        8
   RHO(1)=    0.500       N(1)  =     2000
   RHO(2)=  100.500       N(2)  =     4000
 
 POSCAR: Ag                                      
  positions in direct lattice
  velocities in cartesian coordinates
 


--------------------------------------------------------------------------------------------------------


 ion  position               nearest neighbor table
   1  0.000  0.000  0.000-   2 3.15   3 3.15   4 3.15   3 3.15   4 3.15   2 3.15   4 3.15   4 3.15
                             2 3.15   3 3.15   3 3.15   2 3.15
   2  0.500  0.500  0.000-   1 3.15   3 3.15   4 3.15   3 3.15   4 3.15   1 3.15   3 3.15   3 3.15
                             1 3.15   4 3.15   4 3.15   1 3.15
   3  0.500  0.000  0.500-   1 3.15   2 3.15   4 3.15   1 3.15   2 3.15   2 3.15   4 3.15   2 3.15
                             1 3.15   4 3.15   1 3.15   4 3.15
   4  0.000  0.500  0.500-   1 3.15   2 3.15   3 3.15   1 3.15   2 3.15   1 3.15   3 3.15   1 3.15
                             2 3.15   3 3.15   2 3.15   3 3.15
 
  LATTYP: Found a simple cubic cell.
 ALAT       =     4.4546505163
  
  Lattice vectors:
  
 A1 = (   4.4546505163,   0.0000000000,   0.0000000000)
 A2 = (   0.0000000000,   4.4546505163,   0.0000000000)
 A3 = (   0.0000000000,   0.0000000000,   4.4546505163)
 Subroutine PRICEL returns following result:
 
  LATTYP: Found a face centered cubic cell.
 ALAT       =     4.4546505163
  
  Lattice vectors:
  
 A1 = (   2.2273252582,   2.2273252582,   0.0000000000)
 A2 = (   2.2273252582,   0.0000000000,  -2.2273252582)
 A3 = (   0.0000000000,   2.2273252582,  -2.2273252582)
 
   4 primitive cells build up your supercell.
 

Analysis of symmetry for initial positions (statically):

 Routine SETGRP: Setting up the symmetry group for a 
 simple cubic supercell.


 Subroutine GETGRP returns: Found 48 space group operations
 (whereof 48 operations were pure point group operations)
 out of a pool of 48 trial point group operations.


The static configuration has the point symmetry O_h .

Analysis of symmetry for dynamics (positions and initial velocities):

 Subroutine DYNSYM returns: Found 48 space group operations
 (whereof 48 operations were pure point group operations)
 out of a pool of 48 trial space group operations
 (whereof 48 operations were pure point group operations)
 and found also     4 'primitive' translations


The dynamic configuration has the point symmetry O_h .
 
 
 KPOINTS: Automatic mesh                          

Automatic generation of k-mesh.
 
 Subroutine IBZKPT returns following result:
 ===========================================
 
 Found     84 irreducible k-points:
 
 Following reciprocal coordinates:
            Coordinates               Weight
  0.000000  0.000000  0.000000      1.000000
  0.083333  0.000000  0.000000      6.000000
  0.166667  0.000000  0.000000      6.000000
  0.250000  0.000000  0.000000      6.000000
  0.333333  0.000000  0.000000      6.000000
  0.416667  0.000000  0.000000      6.000000
  0.500000  0.000000  0.000000      3.000000
  0.083333  0.083333  0.000000     12.000000
  0.166667  0.083333  0.000000     24.000000
  0.250000  0.083333  0.000000     24.000000
  0.333333  0.083333  0.000000     24.000000
  0.416667  0.083333  0.000000     24.000000
  0.500000  0.083333  0.000000     12.000000
  0.166667  0.166667  0.000000     12.000000
  0.250000  0.166667  0.000000     24.000000
  0.333333  0.166667  0.000000     24.000000
  0.416667  0.166667  0.000000     24.000000
  0.500000  0.166667  0.000000     12.000000
  0.250000  0.250000  0.000000     12.000000
  0.333333  0.250000  0.000000     24.000000
  0.416667  0.250000  0.000000     24.000000
  0.500000  0.250000  0.000000     12.000000
  0.333333  0.333333  0.000000     12.000000
  0.416667  0.333333  0.000000     24.000000
  0.500000  0.333333  0.000000     12.000000
  0.416667  0.416667  0.000000     12.000000
  0.500000  0.416667  0.000000     12.000000
  0.500000  0.500000  0.000000      3.000000
  0.083333  0.083333  0.083333      8.000000
  0.166667  0.083333  0.083333     24.000000
  0.250000  0.083333  0.083333     24.000000
  0.333333  0.083333  0.083333     24.000000
  0.416667  0.083333  0.083333     24.000000
  0.500000  0.083333  0.083333     12.000000
  0.166667  0.166667  0.083333     24.000000
  0.250000  0.166667  0.083333     48.000000
  0.333333  0.166667  0.083333     48.000000
  0.416667  0.166667  0.083333     48.000000
  0.500000  0.166667  0.083333     24.000000
  0.250000  0.250000  0.083333     24.000000
  0.333333  0.250000  0.083333     48.000000
  0.416667  0.250000  0.083333     48.000000
  0.500000  0.250000  0.083333     24.000000
  0.333333  0.333333  0.083333     24.000000
  0.416667  0.333333  0.083333     48.000000
  0.500000  0.333333  0.083333     24.000000
  0.416667  0.416667  0.083333     24.000000
  0.500000  0.416667  0.083333     24.000000
  0.500000  0.500000  0.083333      6.000000
  0.166667  0.166667  0.166667      8.000000
  0.250000  0.166667  0.166667     24.000000
  0.333333  0.166667  0.166667     24.000000
  0.416667  0.166667  0.166667     24.000000
  0.500000  0.166667  0.166667     12.000000
  0.250000  0.250000  0.166667     24.000000
  0.333333  0.250000  0.166667     48.000000
  0.416667  0.250000  0.166667     48.000000
  0.500000  0.250000  0.166667     24.000000
  0.333333  0.333333  0.166667     24.000000
  0.416667  0.333333  0.166667     48.000000
  0.500000  0.333333  0.166667     24.000000
  0.416667  0.416667  0.166667     24.000000
  0.500000  0.416667  0.166667     24.000000
  0.500000  0.500000  0.166667      6.000000
  0.250000  0.250000  0.250000      8.000000
  0.333333  0.250000  0.250000     24.000000
  0.416667  0.250000  0.250000     24.000000
  0.500000  0.250000  0.250000     12.000000
  0.333333  0.333333  0.250000     24.000000
  0.416667  0.333333  0.250000     48.000000
  0.500000  0.333333  0.250000     24.000000
  0.416667  0.416667  0.250000     24.000000
  0.500000  0.416667  0.250000     24.000000
  0.500000  0.500000  0.250000      6.000000
  0.333333  0.333333  0.333333      8.000000
  0.416667  0.333333  0.333333     24.000000
  0.500000  0.333333  0.333333     12.000000
  0.416667  0.416667  0.333333     24.000000
  0.500000  0.416667  0.333333     24.000000
  0.500000  0.500000  0.333333      6.000000
  0.416667  0.416667  0.416667      8.000000
  0.500000  0.416667  0.416667     12.000000
  0.500000  0.500000  0.416667      6.000000
  0.500000  0.500000  0.500000      1.000000
 
 Following cartesian coordinates:
            Coordinates               Weight
  0.000000  0.000000  0.000000      1.000000
  0.020017  0.000000  0.000000      6.000000
  0.040033  0.000000  0.000000      6.000000
  0.060050  0.000000  0.000000      6.000000
  0.080066  0.000000  0.000000      6.000000
  0.100083  0.000000  0.000000      6.000000
  0.120099  0.000000  0.000000      3.000000
  0.020017  0.020017  0.000000     12.000000
  0.040033  0.020017  0.000000     24.000000
  0.060050  0.020017  0.000000     24.000000
  0.080066  0.020017  0.000000     24.000000
  0.100083  0.020017  0.000000     24.000000
  0.120099  0.020017  0.000000     12.000000
  0.040033  0.040033  0.000000     12.000000
  0.060050  0.040033  0.000000     24.000000
  0.080066  0.040033  0.000000     24.000000
  0.100083  0.040033  0.000000     24.000000
  0.120099  0.040033  0.000000     12.000000
  0.060050  0.060050  0.000000     12.000000
  0.080066  0.060050  0.000000     24.000000
  0.100083  0.060050  0.000000     24.000000
  0.120099  0.060050  0.000000     12.000000
  0.080066  0.080066  0.000000     12.000000
  0.100083  0.080066  0.000000     24.000000
  0.120099  0.080066  0.000000     12.000000
  0.100083  0.100083  0.000000     12.000000
  0.120099  0.100083  0.000000     12.000000
  0.120099  0.120099  0.000000      3.000000
  0.020017  0.020017  0.020017      8.000000
  0.040033  0.020017  0.020017     24.000000
  0.060050  0.020017  0.020017     24.000000
  0.080066  0.020017  0.020017     24.000000
  0.100083  0.020017  0.020017     24.000000
  0.120099  0.020017  0.020017     12.000000
  0.040033  0.040033  0.020017     24.000000
  0.060050  0.040033  0.020017     48.000000
  0.080066  0.040033  0.020017     48.000000
  0.100083  0.040033  0.020017     48.000000
  0.120099  0.040033  0.020017     24.000000
  0.060050  0.060050  0.020017     24.000000
  0.080066  0.060050  0.020017     48.000000
  0.100083  0.060050  0.020017     48.000000
  0.120099  0.060050  0.020017     24.000000
  0.080066  0.080066  0.020017     24.000000
  0.100083  0.080066  0.020017     48.000000
  0.120099  0.080066  0.020017     24.000000
  0.100083  0.100083  0.020017     24.000000
  0.120099  0.100083  0.020017     24.000000
  0.120099  0.120099  0.020017      6.000000
  0.040033  0.040033  0.040033      8.000000
  0.060050  0.040033  0.040033     24.000000
  0.080066  0.040033  0.040033     24.000000
  0.100083  0.040033  0.040033     24.000000
  0.120099  0.040033  0.040033     12.000000
  0.060050  0.060050  0.040033     24.000000
  0.080066  0.060050  0.040033     48.000000
  0.100083  0.060050  0.040033     48.000000
  0.120099  0.060050  0.040033     24.000000
  0.080066  0.080066  0.040033     24.000000
  0.100083  0.080066  0.040033     48.000000
  0.120099  0.080066  0.040033     24.000000
  0.100083  0.100083  0.040033     24.000000
  0.120099  0.100083  0.040033     24.000000
  0.120099  0.120099  0.040033      6.000000
  0.060050  0.060050  0.060050      8.000000
  0.080066  0.060050  0.060050     24.000000
  0.100083  0.060050  0.060050     24.000000
  0.120099  0.060050  0.060050     12.000000
  0.080066  0.080066  0.060050     24.000000
  0.100083  0.080066  0.060050     48.000000
  0.120099  0.080066  0.060050     24.000000
  0.100083  0.100083  0.060050     24.000000
  0.120099  0.100083  0.060050     24.000000
  0.120099  0.120099  0.060050      6.000000
  0.080066  0.080066  0.080066      8.000000
  0.100083  0.080066  0.080066     24.000000
  0.120099  0.080066  0.080066     12.000000
  0.100083  0.100083  0.080066     24.000000
  0.120099  0.100083  0.080066     24.000000
  0.120099  0.120099  0.080066      6.000000
  0.100083  0.100083  0.100083      8.000000
  0.120099  0.100083  0.100083     12.000000
  0.120099  0.120099  0.100083      6.000000
  0.120099  0.120099  0.120099      1.000000
 


--------------------------------------------------------------------------------------------------------




 Dimension of arrays:
   k-Points           NKPTS =     84   number of bands    NBANDS=     28
   number of dos      NEDOS =    301   number of ions     NIONS =      4
   non local maximal  LDIM  =      6   non local SUM 2l+1 LMDIM =     18
   total plane-waves  NPLWV =  64000
   max r-space proj   IRMAX =      1   max aug-charges    IRDMAX= 284952
   dimension x,y,z NGX =    40 NGY =   40 NGZ =   40
   dimension x,y,z NGXF=    80 NGYF=   80 NGZF=   80
   support grid    NGXF=   160 NGYF=  160 NGZF=  160
   ions per type =               4
 NGX,Y,Z   is equivalent  to a cutoff of  14.93, 14.93, 14.93 a.u.
 NGXF,Y,Z  is equivalent  to a cutoff of  29.86, 29.86, 29.86 a.u.


 I would recommend the setting:
   dimension x,y,z NGX =    40 NGY =   40 NGZ =   40
 SYSTEM =  unknown system                          
 POSCAR =  Ag                                      

 Startparameter for this run:
   NWRITE =      2    write-flag & timer
   PREC   = accura    medium, high low
   ISTART =      0    job   : 0-new  1-cont  2-samecut
   ICHARG =      2    charge: 1-file 2-atom 10-const
   ISPIN  =      1    spin polarized calculation?
   LNONCOLLINEAR =      F non collinear calculations
   LSORBIT =      F    spin-orbit coupling
   INIWAV =      1    electr: 0-lowe 1-rand  2-diag
   LASPH  =      F    aspherical Exc in radial PAW
   METAGGA=      F    non-selfconsistent MetaGGA calc.

 Electronic Relaxation 1
   ENCUT  =  750.0 eV  55.12 Ry    7.42 a.u.   9.95  9.95  9.95*2*pi/ulx,y,z
   ENINI  =  750.0     initial cutoff
   ENAUG  =  412.5 eV  augmentation charge cutoff
   NELM   =     60;   NELMIN=  2; NELMDL=  0     # of ELM steps 
   EDIFF  = 0.1E-07   stopping-criterion for ELM
   LREAL  =      F    real-space projection
   LCOMPAT=      F    compatible to vasp.4.4
   LREAL_COMPAT= F    compatible to vasp.4.5.1-3
   GGA_COMPAT  = T    GGA compatible to vasp.4.4-vasp.4.6
   LMAXPAW     = -100 max onsite density
   LMAXMIX     =    2 max onsite mixed and CHGCAR
   VOSKOWN=      0    Vosko Wilk Nusair interpolation
   ROPT   =    0.00000
 Ionic relaxation
   EDIFFG = 0.1E-06   stopping-criterion for IOM
   NSW    =      0    number of steps for IOM
   NBLOCK =      1;   KBLOCK =      1    inner block; outer block 
   IBRION =     -1    ionic relax: 0-MD 1-quasi-New 2-CG
   NFREE  =      0    steps in history (QN), initial steepest desc. (CG)
   ISIF   =      2    stress and relaxation
   IWAVPR =     10    prediction:  0-non 1-charg 2-wave 3-comb
   ISYM   =      2    0-nonsym 1-usesym 2-fastsym
   LCORR  =      T    Harris-Foulkes like correction to forces

   POTIM  =   0.50    time-step for ionic-motion
   TEIN   =    0.0    initial temperature
   TEBEG  =    0.0;   TEEND  =   0.0 temperature during run
   SMASS  =  -3.00    Nose mass-parameter (am)
   estimated Nose-frequenzy (Omega)   =  0.10E-29 period in steps =****** mass=  -0.453E-27a.u.
   NPACO  =    256;   APACO  = 16.0  distance and # of slots for P.C.
   PSTRESS=    0.0 pullay stress

  Mass of Ions in am
   POMASS = 107.87
  Ionic Valenz
   ZVAL   =  11.00
  Atomic Wigner-Seitz radii
   RWIGS  =  -1.00
   NELECT =      44.0000    total number of electrons
   NUPDOWN=      -1.0000    fix difference up-down

 DOS related values:
   EMIN   =  10.00;   EMAX   =-10.00  energy-range for DOS
   ISMEAR =     0;   SIGMA  =   0.01  broadening in eV -4-tet -1-fermi 0-gaus

 Electronic relaxation 2 (details)
   IALGO  =     38    algorithm
   LDIAG  =      T    sub-space diagonalisation
   IMIX   =      4    mixing-type and parameters
     AMIX     =   0.40;   BMIX     =  1.00
     AMIX_MAG =   1.60;   BMIX_MAG =  1.00
     AMIN     =   0.10
     WC   =   100.;   INIMIX=   1;  MIXPRE=   1

 Intra band minimization:
   WEIMIN = 0.0000     energy-eigenvalue tresh-hold
   EBREAK =  0.96E-10  absolut break condition
   DEPER  =   0.30     relativ break condition  

   TIME   =   0.10     timestep for ELM

  volume/ion in A,a.u.               =      22.10       149.13
  Fermi-wavevector in a.u.,eV,Ry     =   1.297415 22.902475  1.683284

 Second variation
   LSECVAR=     F    do a second variation
 
 Write flags
   LWAVE  =      F    write WAVECAR
   LCHARG =      F    write CHGCAR
   LVTOT  =      F    write LOCPOT, local potential
   LELF   =      F    write electronic localiz. function (ELF)
   LORBIT =      0    0 simple, 1 ext, 2 COOP (PROOUT)


 Dipole corrections
   IDIPOL =      0    1-x, 2-y, 3-z
   LDIPOL =      F    correct potential



--------------------------------------------------------------------------------------------------------


 Static calculation
 charge density will be updated during run
 non-spin polarized calculation
 Variant of blocked Davidson
 Davidson routine will perform the subspace rotation
 performe sub-space diagonalisation
    after iterative eigenvector-optimisation
 modified Broyden-mixing scheme, WC =      100.0
 initial mixing is a Kerker type mixing with AMIX =  0.4000 and BMIX =      1.0000
 Hartree-type preconditioning will be used
 using additional bands            6
 reciprocal scheme for non local part
 use partial core corrections
 calculate Harris-corrections to forces 
   (improved forces if not selfconsistent)
 use gradient corrections 
 use of overlap-Matrix (Vanderbilt PP)
 Gauss-broadening in eV      SIGMA  =   0.01


--------------------------------------------------------------------------------------------------------


  energy-cutoff  :      750.00
  volume of cell :       88.40
      direct lattice vectors                 reciprocal lattice vectors
     4.454650516  0.000000000  0.000000000     0.224484501  0.000000000  0.000000000
     0.000000000  4.454650516  0.000000000     0.000000000  0.224484501  0.000000000
     0.000000000  0.000000000  4.454650516     0.000000000  0.000000000  0.224484501

  length of vectors
     4.454650516  4.454650516  4.454650516     0.224484501  0.224484501  0.224484501


 
 k-points in units of 2pi/SCALE and weight: Automatic mesh                          
   0.00000000  0.00000000  0.00000000       0.001
   0.02001653  0.00000000  0.00000000       0.003
   0.04003307  0.00000000  0.00000000       0.003
   0.06004960  0.00000000  0.00000000       0.003
   0.08006614  0.00000000  0.00000000       0.003
   0.10008267  0.00000000  0.00000000       0.003
   0.12009921  0.00000000  0.00000000       0.002
   0.02001653  0.02001653  0.00000000       0.007
   0.04003307  0.02001653  0.00000000       0.014
   0.06004960  0.02001653  0.00000000       0.014
   0.08006614  0.02001653  0.00000000       0.014
   0.10008267  0.02001653  0.00000000       0.014
   0.12009921  0.02001653  0.00000000       0.007
   0.04003307  0.04003307  0.00000000       0.007
   0.06004960  0.04003307  0.00000000       0.014
   0.08006614  0.04003307  0.00000000       0.014
   0.10008267  0.04003307  0.00000000       0.014
   0.12009921  0.04003307  0.00000000       0.007
   0.06004960  0.06004960  0.00000000       0.007
   0.08006614  0.06004960  0.00000000       0.014
   0.10008267  0.06004960  0.00000000       0.014
   0.12009921  0.06004960  0.00000000       0.007
   0.08006614  0.08006614  0.00000000       0.007
   0.10008267  0.08006614  0.00000000       0.014
   0.12009921  0.08006614  0.00000000       0.007
   0.10008267  0.10008267  0.00000000       0.007
   0.12009921  0.10008267  0.00000000       0.007
   0.12009921  0.12009921  0.00000000       0.002
   0.02001653  0.02001653  0.02001653       0.005
   0.04003307  0.02001653  0.02001653       0.014
   0.06004960  0.02001653  0.02001653       0.014
   0.08006614  0.02001653  0.02001653       0.014
   0.10008267  0.02001653  0.02001653       0.014
   0.12009921  0.02001653  0.02001653       0.007
   0.04003307  0.04003307  0.02001653       0.014
   0.06004960  0.04003307  0.02001653       0.028
   0.08006614  0.04003307  0.02001653       0.028
   0.10008267  0.04003307  0.02001653       0.028
   0.12009921  0.04003307  0.02001653       0.014
   0.06004960  0.06004960  0.02001653       0.014
   0.08006614  0.06004960  0.02001653       0.028
   0.10008267  0.06004960  0.02001653       0.028
   0.12009921  0.06004960  0.02001653       0.014
   0.08006614  0.08006614  0.02001653       0.014
   0.10008267  0.08006614  0.02001653       0.028
   0.12009921  0.08006614  0.02001653       0.014
   0.10008267  0.10008267  0.02001653       0.014
   0.12009921  0.10008267  0.02001653       0.014
   0.12009921  0.12009921  0.02001653       0.003
   0.04003307  0.04003307  0.04003307       0.005
   0.06004960  0.04003307  0.04003307       0.014
   0.08006614  0.04003307  0.04003307       0.014
   0.10008267  0.04003307  0.04003307       0.014
   0.12009921  0.04003307  0.04003307       0.007
   0.06004960  0.06004960  0.04003307       0.014
   0.08006614  0.06004960  0.04003307       0.028
   0.10008267  0.06004960  0.04003307       0.028
   0.12009921  0.06004960  0.04003307       0.014
   0.08006614  0.08006614  0.04003307       0.014
   0.10008267  0.08006614  0.04003307       0.028
   0.12009921  0.08006614  0.04003307       0.014
   0.10008267  0.10008267  0.04003307       0.014
   0.12009921  0.10008267  0.04003307       0.014
   0.12009921  0.12009921  0.04003307       0.003
   0.06004960  0.06004960  0.06004960       0.005
   0.08006614  0.06004960  0.06004960       0.014
   0.10008267  0.06004960  0.06004960       0.014
   0.12009921  0.06004960  0.06004960       0.007
   0.08006614  0.08006614  0.06004960       0.014
   0.10008267  0.08006614  0.06004960       0.028
   0.12009921  0.08006614  0.06004960       0.014
   0.10008267  0.10008267  0.06004960       0.014
   0.12009921  0.10008267  0.06004960       0.014
   0.12009921  0.12009921  0.06004960       0.003
   0.08006614  0.08006614  0.08006614       0.005
   0.10008267  0.08006614  0.08006614       0.014
   0.12009921  0.08006614  0.08006614       0.007
   0.10008267  0.10008267  0.08006614       0.014
   0.12009921  0.10008267  0.08006614       0.014
   0.12009921  0.12009921  0.08006614       0.003
   0.10008267  0.10008267  0.10008267       0.005
   0.12009921  0.10008267  0.10008267       0.007
   0.12009921  0.12009921  0.10008267       0.003
   0.12009921  0.12009921  0.12009921       0.001
 
 k-points in reciprocal lattice and weights: Automatic mesh                          
   0.00000000  0.00000000  0.00000000       0.001
   0.08333333  0.00000000  0.00000000       0.003
   0.16666667  0.00000000  0.00000000       0.003
   0.25000000  0.00000000  0.00000000       0.003
   0.33333333  0.00000000  0.00000000       0.003
   0.41666667  0.00000000  0.00000000       0.003
   0.50000000  0.00000000  0.00000000       0.002
   0.08333333  0.08333333  0.00000000       0.007
   0.16666667  0.08333333  0.00000000       0.014
   0.25000000  0.08333333  0.00000000       0.014
   0.33333333  0.08333333  0.00000000       0.014
   0.41666667  0.08333333  0.00000000       0.014
   0.50000000  0.08333333  0.00000000       0.007
   0.16666667  0.16666667  0.00000000       0.007
   0.25000000  0.16666667  0.00000000       0.014
   0.33333333  0.16666667  0.00000000       0.014
   0.41666667  0.16666667  0.00000000       0.014
   0.50000000  0.16666667  0.00000000       0.007
   0.25000000  0.25000000  0.00000000       0.007
   0.33333333  0.25000000  0.00000000       0.014
   0.41666667  0.25000000  0.00000000       0.014
   0.50000000  0.25000000  0.00000000       0.007
   0.33333333  0.33333333  0.00000000       0.007
   0.41666667  0.33333333  0.00000000       0.014
   0.50000000  0.33333333  0.00000000       0.007
   0.41666667  0.41666667  0.00000000       0.007
   0.50000000  0.41666667  0.00000000       0.007
   0.50000000  0.50000000  0.00000000       0.002
   0.08333333  0.08333333  0.08333333       0.005
   0.16666667  0.08333333  0.08333333       0.014
   0.25000000  0.08333333  0.08333333       0.014
   0.33333333  0.08333333  0.08333333       0.014
   0.41666667  0.08333333  0.08333333       0.014
   0.50000000  0.08333333  0.08333333       0.007
   0.16666667  0.16666667  0.08333333       0.014
   0.25000000  0.16666667  0.08333333       0.028
   0.33333333  0.16666667  0.08333333       0.028
   0.41666667  0.16666667  0.08333333       0.028
   0.50000000  0.16666667  0.08333333       0.014
   0.25000000  0.25000000  0.08333333       0.014
   0.33333333  0.25000000  0.08333333       0.028
   0.41666667  0.25000000  0.08333333       0.028
   0.50000000  0.25000000  0.08333333       0.014
   0.33333333  0.33333333  0.08333333       0.014
   0.41666667  0.33333333  0.08333333       0.028
   0.50000000  0.33333333  0.08333333       0.014
   0.41666667  0.41666667  0.08333333       0.014
   0.50000000  0.41666667  0.08333333       0.014
   0.50000000  0.50000000  0.08333333       0.003
   0.16666667  0.16666667  0.16666667       0.005
   0.25000000  0.16666667  0.16666667       0.014
   0.33333333  0.16666667  0.16666667       0.014
   0.41666667  0.16666667  0.16666667       0.014
   0.50000000  0.16666667  0.16666667       0.007
   0.25000000  0.25000000  0.16666667       0.014
   0.33333333  0.25000000  0.16666667       0.028
   0.41666667  0.25000000  0.16666667       0.028
   0.50000000  0.25000000  0.16666667       0.014
   0.33333333  0.33333333  0.16666667       0.014
   0.41666667  0.33333333  0.16666667       0.028
   0.50000000  0.33333333  0.16666667       0.014
   0.41666667  0.41666667  0.16666667       0.014
   0.50000000  0.41666667  0.16666667       0.014
   0.50000000  0.50000000  0.16666667       0.003
   0.25000000  0.25000000  0.25000000       0.005
   0.33333333  0.25000000  0.25000000       0.014
   0.41666667  0.25000000  0.25000000       0.014
   0.50000000  0.25000000  0.25000000       0.007
   0.33333333  0.33333333  0.25000000       0.014
   0.41666667  0.33333333  0.25000000       0.028
   0.50000000  0.33333333  0.25000000       0.014
   0.41666667  0.41666667  0.25000000       0.014
   0.50000000  0.41666667  0.25000000       0.014
   0.50000000  0.50000000  0.25000000       0.003
   0.33333333  0.33333333  0.33333333       0.005
   0.41666667  0.33333333  0.33333333       0.014
   0.50000000  0.33333333  0.33333333       0.007
   0.41666667  0.41666667  0.33333333       0.014
   0.50000000  0.41666667  0.33333333       0.014
   0.50000000  0.50000000  0.33333333       0.003
   0.41666667  0.41666667  0.41666667       0.005
   0.50000000  0.41666667  0.41666667       0.007
   0.50000000  0.50000000  0.41666667       0.003
   0.50000000  0.50000000  0.50000000       0.001
 
 position of ions in fractional coordinates (direct lattice) 
   0.00000000  0.00000000  0.00000000
   0.50000000  0.50000000  0.00000000
   0.50000000  0.00000000  0.50000000
   0.00000000  0.50000000  0.50000000
 
 position of ions in cartesian coordinates  (Angst):
   0.00000000  0.00000000  0.00000000
   2.22732526  2.22732526  0.00000000
   2.22732526  0.00000000  2.22732526
   0.00000000  2.22732526  2.22732526
 


--------------------------------------------------------------------------------------------------------


 k-point  1 :  0.00000.00000.0000  plane waves:   4067
 k-point  2 :  0.08330.00000.0000  plane waves:   4088
 k-point  3 :  0.16670.00000.0000  plane waves:   4088
 k-point  4 :  0.25000.00000.0000  plane waves:   4100
 k-point  5 :  0.33330.00000.0000  plane waves:   4128
 k-point  6 :  0.41670.00000.0000  plane waves:   4108
 k-point  7 :  0.50000.00000.0000  plane waves:   4116
 k-point  8 :  0.08330.08330.0000  plane waves:   4084
 k-point  9 :  0.16670.08330.0000  plane waves:   4101
 k-point 10 :  0.25000.08330.0000  plane waves:   4104
 k-point 11 :  0.33330.08330.0000  plane waves:   4109
 k-point 12 :  0.41670.08330.0000  plane waves:   4117
 k-point 13 :  0.50000.08330.0000  plane waves:   4124
 k-point 14 :  0.16670.16670.0000  plane waves:   4098
 k-point 15 :  0.25000.16670.0000  plane waves:   4112
 k-point 16 :  0.33330.16670.0000  plane waves:   4119
 k-point 17 :  0.41670.16670.0000  plane waves:   4125
 k-point 18 :  0.50000.16670.0000  plane waves:   4132
 k-point 19 :  0.25000.25000.0000  plane waves:   4096
 k-point 20 :  0.33330.25000.0000  plane waves:   4123
 k-point 21 :  0.41670.25000.0000  plane waves:   4135
 k-point 22 :  0.50000.25000.0000  plane waves:   4134
 k-point 23 :  0.33330.33330.0000  plane waves:   4132
 k-point 24 :  0.41670.33330.0000  plane waves:   4127
 k-point 25 :  0.50000.33330.0000  plane waves:   4122
 k-point 26 :  0.41670.41670.0000  plane waves:   4124
 k-point 27 :  0.50000.41670.0000  plane waves:   4128
 k-point 28 :  0.50000.50000.0000  plane waves:   4116
 k-point 29 :  0.08330.08330.0833  plane waves:   4088
 k-point 30 :  0.16670.08330.0833  plane waves:   4098
 k-point 31 :  0.25000.08330.0833  plane waves:   4110
 k-point 32 :  0.33330.08330.0833  plane waves:   4107
 k-point 33 :  0.41670.08330.0833  plane waves:   4122
 k-point 34 :  0.50000.08330.0833  plane waves:   4120
 k-point 35 :  0.16670.16670.0833  plane waves:   4108
 k-point 36 :  0.25000.16670.0833  plane waves:   4116
 k-point 37 :  0.33330.16670.0833  plane waves:   4117
 k-point 38 :  0.41670.16670.0833  plane waves:   4122
 k-point 39 :  0.50000.16670.0833  plane waves:   4118
 k-point 40 :  0.25000.25000.0833  plane waves:   4108
 k-point 41 :  0.33330.25000.0833  plane waves:   4133
 k-point 42 :  0.41670.25000.0833  plane waves:   4132
 k-point 43 :  0.50000.25000.0833  plane waves:   4126
 k-point 44 :  0.33330.33330.0833  plane waves:   4139
 k-point 45 :  0.41670.33330.0833  plane waves:   4122
 k-point 46 :  0.50000.33330.0833  plane waves:   4124
 k-point 47 :  0.41670.41670.0833  plane waves:   4127
 k-point 48 :  0.50000.41670.0833  plane waves:   4138
 k-point 49 :  0.50000.50000.0833  plane waves:   4128
 k-point 50 :  0.16670.16670.1667  plane waves:   4121
 k-point 51 :  0.25000.16670.1667  plane waves:   4112
 k-point 52 :  0.33330.16670.1667  plane waves:   4125
 k-point 53 :  0.41670.16670.1667  plane waves:   4132
 k-point 54 :  0.50000.16670.1667  plane waves:   4108
 k-point 55 :  0.25000.25000.1667  plane waves:   4114
 k-point 56 :  0.33330.25000.1667  plane waves:   4129
 k-point 57 :  0.41670.25000.1667  plane waves:   4138
 k-point 58 :  0.50000.25000.1667  plane waves:   4136
 k-point 59 :  0.33330.33330.1667  plane waves:   4154
 k-point 60 :  0.41670.33330.1667  plane waves:   4130
 k-point 61 :  0.50000.33330.1667  plane waves:   4126
 k-point 62 :  0.41670.41670.1667  plane waves:   4124
 k-point 63 :  0.50000.41670.1667  plane waves:   4128
 k-point 64 :  0.50000.50000.1667  plane waves:   4112
 k-point 65 :  0.25000.25000.2500  plane waves:   4121
 k-point 66 :  0.33330.25000.2500  plane waves:   4128
 k-point 67 :  0.41670.25000.2500  plane waves:   4122
 k-point 68 :  0.50000.25000.2500  plane waves:   4146
 k-point 69 :  0.33330.33330.2500  plane waves:   4122
 k-point 70 :  0.41670.33330.2500  plane waves:   4130
 k-point 71 :  0.50000.33330.2500  plane waves:   4136
 k-point 72 :  0.41670.41670.2500  plane waves:   4126
 k-point 73 :  0.50000.41670.2500  plane waves:   4124
 k-point 74 :  0.50000.50000.2500  plane waves:   4120
 k-point 75 :  0.33330.33330.3333  plane waves:   4113
 k-point 76 :  0.41670.33330.3333  plane waves:   4121
 k-point 77 :  0.50000.33330.3333  plane waves:   4122
 k-point 78 :  0.41670.41670.3333  plane waves:   4115
 k-point 79 :  0.50000.41670.3333  plane waves:   4120
 k-point 80 :  0.50000.50000.3333  plane waves:   4136
 k-point 81 :  0.41670.41670.4167  plane waves:   4137
 k-point 82 :  0.50000.41670.4167  plane waves:   4140
 k-point 83 :  0.50000.50000.4167  plane waves:   4136
 k-point 84 :  0.50000.50000.5000  plane waves:   4224

 maximum and minimum number of plane-waves per node :   4224  4067

 maximum number of plane-waves:   4224
 maximal index in each direction: 
   IXMAX=  9   IYMAX=  9   IZMAX=  9
   IXMIN=-10   IYMIN=-10   IZMIN=-10

 NGX is ok and might be reduce to  40
 NGY is ok and might be reduce to  40
 NGZ is ok and might be reduce to  40

 parallel 3dFFT wavefunction:
    minimum data exchange during FFTs selected (reduces bandwidth)
 parallel 3dFFT charge:
    minimum data exchange during FFTs selected (reduces bandwidth)

 For storing wavefunctions  155.09 MBYTES are necessary
 For predicting wavefunctions    5.18 MBYTES are necessary
Broyden mixing: mesh for mixing (old mesh)
   NGX = 19   NGY = 19   NGZ = 19
  (NGX  = 80   NGY  = 80   NGZ  = 80)
 gives a total of   6859 points
 initial charge density was supplied:
 charge density of overlapping atoms calculated
 number of electron   44.0000000 magnetization 
 keeping initial charge density in first step


--------------------------------------------------------------------------------------------------------


 Maximum index for augmentation-charges        68909 (set IRDMAX)


--------------------------------------------------------------------------------------------------------


 First call to EWALD:  gamma=   0.398
 Maximum number of real-space cells 3x 3x 3
 Maximum number of reciprocal cells 3x 3x 3

    FEWALD:  VPU time    0.00: CPU time    0.00


----------------------------------------- Iteration    1(   1)  ---------------------------------------


    POTLOK:  VPU time    0.14: CPU time    0.14
    SETDIJ:  VPU time    0.28: CPU time    0.28
    EDDAV :  VPU time   12.66: CPU time   12.68
    DOS   :  VPU time    0.00: CPU time   -0.00
    ------------------------------------------
      LOOP:  VPU time   13.08: CPU time   13.10

 eigenvalue-minimisations  :  4704
 total energy-change (2. order) : 0.4524256E+03  (-0.2681772E+04)
 number of electron   44.0000000 magnetization 
 augmentation part    44.0000000 magnetization 

 Free energy of the ion-electron system (eV)
  ---------------------------------------------------
  alpha Z        PSCENC =       321.41601756
  Ewald energy   TEWEN  =     -3586.60939184
  -1/2 Hartree   DENC   =      -973.91349379
  -V(xc)+E(xc)   XCENC  =       -45.24491053
  PAW double counting   =      3482.67677651    -3297.07979946
  entropy T*S    EENTRO =        -0.00061170
  eigenvalues    EBANDS =       401.53142939
  atomic energy  EATOM  =      4149.64961272
  ---------------------------------------------------
  free energy    TOTEN  =       452.42562886 eV

  energy without entropy =      452.42624056  energy(sigma->0) =      452.42593471


--------------------------------------------------------------------------------------------------------




----------------------------------------- Iteration    1(   2)  ---------------------------------------


    EDDAV :  VPU time   10.48: CPU time   10.48
    DOS   :  VPU time    0.00: CPU time   -0.00
    ------------------------------------------
      LOOP:  VPU time   10.48: CPU time   10.49

 eigenvalue-minimisations  :  4728
 total energy-change (2. order) :-0.4473443E+03  (-0.4239149E+03)
 number of electron   44.0000000 magnetization 
 augmentation part    44.0000000 magnetization 

 Free energy of the ion-electron system (eV)
  ---------------------------------------------------
  alpha Z        PSCENC =       321.41601756
  Ewald energy   TEWEN  =     -3586.60939184
  -1/2 Hartree   DENC   =      -973.91349379
  -V(xc)+E(xc)   XCENC  =       -45.24491053
  PAW double counting   =      3482.67677651    -3297.07979946
  entropy T*S    EENTRO =        -0.00004110
  eigenvalues    EBANDS =       -45.81348710
  atomic energy  EATOM  =      4149.64961272
  ---------------------------------------------------
  free energy    TOTEN  =         5.08128297 eV

  energy without entropy =        5.08132407  energy(sigma->0) =        5.08130352


--------------------------------------------------------------------------------------------------------




----------------------------------------- Iteration    1(   3)  ---------------------------------------


    EDDAV :  VPU time    9.43: CPU time    9.44
    DOS   :  VPU time    0.00: CPU time   -0.00
    ------------------------------------------
      LOOP:  VPU time    9.44: CPU time    9.44

 eigenvalue-minimisations  :  5136
 total energy-change (2. order) :-0.1623032E+02  (-0.1597844E+02)
 number of electron   44.0000000 magnetization 
 augmentation part    44.0000000 magnetization 

 Free energy of the ion-electron system (eV)
  ---------------------------------------------------
  alpha Z        PSCENC =       321.41601756
  Ewald energy   TEWEN  =     -3586.60939184
  -1/2 Hartree   DENC   =      -973.91349379
  -V(xc)+E(xc)   XCENC  =       -45.24491053
  PAW double counting   =      3482.67677651    -3297.07979946
  entropy T*S    EENTRO =        -0.00004043
  eigenvalues    EBANDS =       -62.04381214
  atomic energy  EATOM  =      4149.64961272
  ---------------------------------------------------
  free energy    TOTEN  =       -11.14904140 eV

  energy without entropy =      -11.14900097  energy(sigma->0) =      -11.14902119


--------------------------------------------------------------------------------------------------------




----------------------------------------- Iteration    1(   4)  ---------------------------------------


    EDDAV :  VPU time   11.70: CPU time   11.71
    DOS   :  VPU time    0.00: CPU time   -0.00
    ------------------------------------------
      LOOP:  VPU time   11.71: CPU time   11.72

 eigenvalue-minimisations  :  4964
 total energy-change (2. order) :-0.1439742E+00  (-0.1438585E+00)
 number of electron   44.0000000 magnetization 
 augmentation part    44.0000000 magnetization 

 Free energy of the ion-electron system (eV)
  ---------------------------------------------------
  alpha Z        PSCENC =       321.41601756
  Ewald energy   TEWEN  =     -3586.60939184
  -1/2 Hartree   DENC   =      -973.91349379
  -V(xc)+E(xc)   XCENC  =       -45.24491053
  PAW double counting   =      3482.67677651    -3297.07979946
  entropy T*S    EENTRO =        -0.00004043
  eigenvalues    EBANDS =       -62.18778637
  atomic energy  EATOM  =      4149.64961272
  ---------------------------------------------------
  free energy    TOTEN  =       -11.29301563 eV

  energy without entropy =      -11.29297520  energy(sigma->0) =      -11.29299542


--------------------------------------------------------------------------------------------------------




----------------------------------------- Iteration    1(   5)  ---------------------------------------


    EDDAV :  VPU time   11.81: CPU time   11.82
    DOS   :  VPU time    0.00: CPU time   -0.00
    CHARGE:  VPU time    0.78: CPU time    0.78
    MIXING:  VPU time    0.00: CPU time    0.00
    ------------------------------------------
      LOOP:  VPU time   12.60: CPU time   12.61

 eigenvalue-minimisations  :  5012
 total energy-change (2. order) :-0.5536533E-03  (-0.5536331E-03)
 number of electron   44.0000002 magnetization 
 augmentation part    20.6312737 magnetization 

 Broyden mixing:
  rms(total) = 0.44659E+00    rms(broyden)= 0.44659E+00
  rms(prec ) = 0.10938E+01
  weight for this iteration     100.00

 Free energy of the ion-electron system (eV)
  ---------------------------------------------------
  alpha Z        PSCENC =       321.41601756
  Ewald energy   TEWEN  =     -3586.60939184
  -1/2 Hartree   DENC   =      -973.91349379
  -V(xc)+E(xc)   XCENC  =       -45.24491053
  PAW double counting   =      3482.67677651    -3297.07979946
  entropy T*S    EENTRO =        -0.00004043
  eigenvalues    EBANDS =       -62.18834002
  atomic energy  EATOM  =      4149.64961272
  ---------------------------------------------------
  free energy    TOTEN  =       -11.29356929 eV

  energy without entropy =      -11.29352885  energy(sigma->0) =      -11.29354907


--------------------------------------------------------------------------------------------------------




----------------------------------------- Iteration    1(   6)  ---------------------------------------


    POTLOK:  VPU time    0.12: CPU time    0.12
    SETDIJ:  VPU time    0.21: CPU time    0.21
    EDDAV :  VPU time    9.10: CPU time    9.11
    DOS   :  VPU time    0.00: CPU time   -0.00
    CHARGE:  VPU time    0.79: CPU time    0.79
    MIXING:  VPU time    0.00: CPU time    0.00
    ------------------------------------------
      LOOP:  VPU time   10.23: CPU time   10.24

 eigenvalue-minimisations  :  4844
 total energy-change (2. order) : 0.6089314E+00  (-0.2516324E+00)
 number of electron   44.0000002 magnetization 
 augmentation part    21.2369048 magnetization 

 Broyden mixing:
  rms(total) = 0.89670E-01    rms(broyden)= 0.89669E-01
  rms(prec ) = 0.16704E+00
  weight for this iteration     100.00

 eigenvalues of (default mixing * dielectric matrix)
  average eigenvalue GAMMA=   0.9851
  0.9851

 Free energy of the ion-electron system (eV)
  ---------------------------------------------------
  alpha Z        PSCENC =       321.41601756
  Ewald energy   TEWEN  =     -3586.60939184
  -1/2 Hartree   DENC   =      -940.61065067
  -V(xc)+E(xc)   XCENC  =       -46.46896459
  PAW double counting   =      3423.51989939    -3239.53972096
  entropy T*S    EENTRO =        -0.00005486
  eigenvalues    EBANDS =       -92.04138466
  atomic energy  EATOM  =      4149.64961272
  ---------------------------------------------------
  free energy    TOTEN  =       -10.68463792 eV

  energy without entropy =      -10.68458306  energy(sigma->0) =      -10.68461049


--------------------------------------------------------------------------------------------------------




----------------------------------------- Iteration    1(   7)  ---------------------------------------


    POTLOK:  VPU time    0.12: CPU time    0.12
    SETDIJ:  VPU time    0.22: CPU time    0.22
    EDDAV :  VPU time    9.62: CPU time    9.64
    DOS   :  VPU time    0.00: CPU time   -0.00
    CHARGE:  VPU time    1.19: CPU time    1.20
    MIXING:  VPU time    0.01: CPU time    0.01
    ------------------------------------------
      LOOP:  VPU time   11.16: CPU time   11.19

 eigenvalue-minimisations  :  4840
 total energy-change (2. order) : 0.6599624E-02  (-0.3952625E-02)
 number of electron   44.0000002 magnetization 
 augmentation part    21.2444761 magnetization 

 Broyden mixing:
  rms(total) = 0.51834E-01    rms(broyden)= 0.51833E-01
  rms(prec ) = 0.97954E-01
  weight for this iteration     100.00

 eigenvalues of (default mixing * dielectric matrix)
  average eigenvalue GAMMA=   1.7364
  1.0037  2.4692

 Free energy of the ion-electron system (eV)
  ---------------------------------------------------
  alpha Z        PSCENC =       321.41601756
  Ewald energy   TEWEN  =     -3586.60939184
  -1/2 Hartree   DENC   =      -937.68850083
  -V(xc)+E(xc)   XCENC  =       -46.59713473
  PAW double counting   =      3426.11031375    -3243.63105293
  entropy T*S    EENTRO =        -0.00004881
  eigenvalues    EBANDS =       -93.32785318
  atomic energy  EATOM  =      4149.64961272
  ---------------------------------------------------
  free energy    TOTEN  =       -10.67803830 eV

  energy without entropy =      -10.67798949  energy(sigma->0) =      -10.67801389


--------------------------------------------------------------------------------------------------------




----------------------------------------- Iteration    1(   8)  ---------------------------------------


    POTLOK:  VPU time    0.15: CPU time    0.15
    SETDIJ:  VPU time    0.32: CPU time    0.32
    EDDAV :  VPU time   13.92: CPU time   13.93
    DOS   :  VPU time    0.00: CPU time   -0.00
    CHARGE:  VPU time    1.24: CPU time    1.25
    MIXING:  VPU time    0.00: CPU time    0.00
    ------------------------------------------
      LOOP:  VPU time   15.64: CPU time   15.66

 eigenvalue-minimisations  :  4872
 total energy-change (2. order) : 0.3366591E-02  (-0.5149252E-03)
 number of electron   44.0000002 magnetization 
 augmentation part    21.2469965 magnetization 

 Broyden mixing:
  rms(total) = 0.38624E-02    rms(broyden)= 0.38618E-02
  rms(prec ) = 0.64677E-02
  weight for this iteration     100.00

 eigenvalues of (default mixing * dielectric matrix)
  average eigenvalue GAMMA=   1.7201
  2.6943  1.0096  1.4564

 Free energy of the ion-electron system (eV)
  ---------------------------------------------------
  alpha Z        PSCENC =       321.41601756
  Ewald energy   TEWEN  =     -3586.60939184
  -1/2 Hartree   DENC   =      -933.73938031
  -V(xc)+E(xc)   XCENC  =       -46.76933637
  PAW double counting   =      3432.70702281    -3252.19667341
  entropy T*S    EENTRO =        -0.00004296
  eigenvalues    EBANDS =       -95.13249990
  atomic energy  EATOM  =      4149.64961272
  ---------------------------------------------------
  free energy    TOTEN  =       -10.67467171 eV

  energy without entropy =      -10.67462874  energy(sigma->0) =      -10.67465023


--------------------------------------------------------------------------------------------------------




----------------------------------------- Iteration    1(   9)  ---------------------------------------


    POTLOK:  VPU time    0.15: CPU time    0.15
    SETDIJ:  VPU time    0.32: CPU time    0.32
    EDDAV :  VPU time   14.01: CPU time   14.03
    DOS   :  VPU time    0.00: CPU time   -0.00
    CHARGE:  VPU time    1.25: CPU time    1.25
    MIXING:  VPU time    0.00: CPU time    0.01
    ------------------------------------------
      LOOP:  VPU time   15.74: CPU time   15.77

 eigenvalue-minimisations  :  4976
 total energy-change (2. order) :-0.9690404E-04  (-0.2311055E-04)
 number of electron   44.0000002 magnetization 
 augmentation part    21.2521356 magnetization 

 Broyden mixing:
  rms(total) = 0.24247E-02    rms(broyden)= 0.24246E-02
  rms(prec ) = 0.47878E-02
  weight for this iteration     100.00

 eigenvalues of (default mixing * dielectric matrix)
  average eigenvalue GAMMA=   1.7719
  0.9785  0.9785  2.7341  2.3965

 Free energy of the ion-electron system (eV)
  ---------------------------------------------------
  alpha Z        PSCENC =       321.41601756
  Ewald energy   TEWEN  =     -3586.60939184
  -1/2 Hartree   DENC   =      -933.48073281
  -V(xc)+E(xc)   XCENC  =       -46.78019416
  PAW double counting   =      3433.71369006    -3253.14297382
  entropy T*S    EENTRO =        -0.00003728
  eigenvalues    EBANDS =       -95.44075903
  atomic energy  EATOM  =      4149.64961272
  ---------------------------------------------------
  free energy    TOTEN  =       -10.67476861 eV

  energy without entropy =      -10.67473133  energy(sigma->0) =      -10.67474997


--------------------------------------------------------------------------------------------------------




----------------------------------------- Iteration    1(  10)  ---------------------------------------


    POTLOK:  VPU time    0.15: CPU time    0.15
    SETDIJ:  VPU time    0.32: CPU time    0.32
    EDDAV :  VPU time   13.79: CPU time   13.81
    DOS   :  VPU time   -0.00: CPU time   -0.00
    CHARGE:  VPU time    1.24: CPU time    1.24
    MIXING:  VPU time    0.01: CPU time    0.01
    ------------------------------------------
      LOOP:  VPU time   15.51: CPU time   15.53

 eigenvalue-minimisations  :  4872
 total energy-change (2. order) : 0.2001707E-06  (-0.2289615E-05)
 number of electron   44.0000002 magnetization 
 augmentation part    21.2509464 magnetization 

 Broyden mixing:
  rms(total) = 0.39506E-03    rms(broyden)= 0.39505E-03
  rms(prec ) = 0.83445E-03
  weight for this iteration     100.00

 eigenvalues of (default mixing * dielectric matrix)
  average eigenvalue GAMMA=   1.8331
  0.9975  0.9975  2.9295  2.4181  1.8231

 Free energy of the ion-electron system (eV)
  ---------------------------------------------------
  alpha Z        PSCENC =       321.41601756
  Ewald energy   TEWEN  =     -3586.60939184
  -1/2 Hartree   DENC   =      -933.66149218
  -V(xc)+E(xc)   XCENC  =       -46.77400765
  PAW double counting   =      3434.67830441    -3254.00555690
  entropy T*S    EENTRO =        -0.00004070
  eigenvalues    EBANDS =       -95.36821382
  atomic energy  EATOM  =      4149.64961272
  ---------------------------------------------------
  free energy    TOTEN  =       -10.67476841 eV

  energy without entropy =      -10.67472771  energy(sigma->0) =      -10.67474806


--------------------------------------------------------------------------------------------------------




----------------------------------------- Iteration    1(  11)  ---------------------------------------


    POTLOK:  VPU time    0.15: CPU time    0.15
    SETDIJ:  VPU time    0.32: CPU time    0.32
    EDDAV :  VPU time   13.97: CPU time   13.98
    DOS   :  VPU time    0.00: CPU time   -0.00
    CHARGE:  VPU time    1.22: CPU time    1.23
    MIXING:  VPU time    0.00: CPU time    0.01
    ------------------------------------------
      LOOP:  VPU time   15.68: CPU time   15.69

 eigenvalue-minimisations  :  4932
 total energy-change (2. order) : 0.4475860E-06  (-0.1437965E-06)
 number of electron   44.0000002 magnetization 
 augmentation part    21.2506002 magnetization 

 Broyden mixing:
  rms(total) = 0.61781E-04    rms(broyden)= 0.61779E-04
  rms(prec ) = 0.11202E-03
  weight for this iteration     100.00

 eigenvalues of (default mixing * dielectric matrix)
  average eigenvalue GAMMA=   1.8790
  3.1949  2.6540  2.4721  0.9930  0.9930  0.9669

 Free energy of the ion-electron system (eV)
  ---------------------------------------------------
  alpha Z        PSCENC =       321.41601756
  Ewald energy   TEWEN  =     -3586.60939184
  -1/2 Hartree   DENC   =      -933.68862965
  -V(xc)+E(xc)   XCENC  =       -46.77314508
  PAW double counting   =      3434.76021632    -3254.07706236
  entropy T*S    EENTRO =        -0.00004151
  eigenvalues    EBANDS =       -95.35234412
  atomic energy  EATOM  =      4149.64961272
  ---------------------------------------------------
  free energy    TOTEN  =       -10.67476796 eV

  energy without entropy =      -10.67472645  energy(sigma->0) =      -10.67474721


--------------------------------------------------------------------------------------------------------




----------------------------------------- Iteration    1(  12)  ---------------------------------------


    POTLOK:  VPU time    0.15: CPU time    0.15
    SETDIJ:  VPU time    0.31: CPU time    0.31
    EDDAV :  VPU time   13.15: CPU time   13.16
    DOS   :  VPU time    0.00: CPU time   -0.00
    CHARGE:  VPU time    1.18: CPU time    1.18
    MIXING:  VPU time    0.00: CPU time    0.00
    ------------------------------------------
      LOOP:  VPU time   14.80: CPU time   14.82

 eigenvalue-minimisations  :  4524
 total energy-change (2. order) : 0.5264392E-06  (-0.4767668E-08)
 number of electron   44.0000002 magnetization 
 augmentation part    21.2506019 magnetization 

 Broyden mixing:
  rms(total) = 0.14406E-04    rms(broyden)= 0.14406E-04
  rms(prec ) = 0.25397E-04
  weight for this iteration     100.00

 eigenvalues of (default mixing * dielectric matrix)
  average eigenvalue GAMMA=   1.7962
  3.0062  2.5994  2.4647  1.0008  1.0008  1.0913  1.4101

 Free energy of the ion-electron system (eV)
  ---------------------------------------------------
  alpha Z        PSCENC =       321.41601756
  Ewald energy   TEWEN  =     -3586.60939184
  -1/2 Hartree   DENC   =      -933.69147770
  -V(xc)+E(xc)   XCENC  =       -46.77304818
  PAW double counting   =      3434.68406513    -3253.99956869
  entropy T*S    EENTRO =        -0.00004157
  eigenvalues    EBANDS =       -95.35093486
  atomic energy  EATOM  =      4149.64961272
  ---------------------------------------------------
  free energy    TOTEN  =       -10.67476744 eV

  energy without entropy =      -10.67472586  energy(sigma->0) =      -10.67474665


--------------------------------------------------------------------------------------------------------




----------------------------------------- Iteration    1(  13)  ---------------------------------------


    POTLOK:  VPU time    0.15: CPU time    0.15
    SETDIJ:  VPU time    0.37: CPU time    0.37
    EDDAV :  VPU time    9.21: CPU time    9.23
    DOS   :  VPU time    0.00: CPU time   -0.00
    CHARGE:  VPU time    1.24: CPU time    1.24
    MIXING:  VPU time    0.00: CPU time    0.01
    ------------------------------------------
      LOOP:  VPU time   10.98: CPU time   11.01

 eigenvalue-minimisations  :  2532
 total energy-change (2. order) : 0.1379158E-07  (-0.8215740E-10)
 number of electron   44.0000002 magnetization 
 augmentation part    21.2506019 magnetization 

 Broyden mixing:
  rms(total) = 0.87773E-05    rms(broyden)= 0.87773E-05
  rms(prec ) = 0.17783E-04
  weight for this iteration     100.00

 eigenvalues of (default mixing * dielectric matrix)
  average eigenvalue GAMMA=   1.8790
  2.9533  2.9533  2.5987  2.5128  1.0094  1.0094  0.9976  0.9976

 Free energy of the ion-electron system (eV)
  ---------------------------------------------------
  alpha Z        PSCENC =       321.41601756
  Ewald energy   TEWEN  =     -3586.60939184
  -1/2 Hartree   DENC   =      -933.69147416
  -V(xc)+E(xc)   XCENC  =       -46.77304380
  PAW double counting   =      3434.68563719    -3254.00120152
  entropy T*S    EENTRO =        -0.00004157
  eigenvalues    EBANDS =       -95.35088201
  atomic energy  EATOM  =      4149.64961272
  ---------------------------------------------------
  free energy    TOTEN  =       -10.67476742 eV

  energy without entropy =      -10.67472586  energy(sigma->0) =      -10.67474664


--------------------------------------------------------------------------------------------------------




----------------------------------------- Iteration    1(  14)  ---------------------------------------


    POTLOK:  VPU time    0.15: CPU time    0.15
    SETDIJ:  VPU time    0.31: CPU time    0.31
    EDDAV :  VPU time    9.07: CPU time    9.09
    DOS   :  VPU time    0.00: CPU time   -0.00
    CHARGE:  VPU time    1.24: CPU time    1.24
    MIXING:  VPU time    0.01: CPU time    0.01
    ------------------------------------------
      LOOP:  VPU time   10.79: CPU time   10.81

 eigenvalue-minimisations  :  2516
 total energy-change (2. order) :-0.1421358E-07  (-0.6052848E-10)
 number of electron   44.0000002 magnetization 
 augmentation part    21.2506105 magnetization 

 Broyden mixing:
  rms(total) = 0.12428E-05    rms(broyden)= 0.12428E-05
  rms(prec ) = 0.25259E-05
  weight for this iteration     100.00

 eigenvalues of (default mixing * dielectric matrix)
  average eigenvalue GAMMA=   1.8073
  3.1629  2.7463  2.5483  2.5257  1.3582  1.0030  1.0030  1.0004  0.9180

 Free energy of the ion-electron system (eV)
  ---------------------------------------------------
  alpha Z        PSCENC =       321.41601756
  Ewald energy   TEWEN  =     -3586.60939184
  -1/2 Hartree   DENC   =      -933.69074638
  -V(xc)+E(xc)   XCENC  =       -46.77306753
  PAW double counting   =      3434.68972274    -3254.00548803
  entropy T*S    EENTRO =        -0.00004154
  eigenvalues    EBANDS =       -95.35138513
  atomic energy  EATOM  =      4149.64961272
  ---------------------------------------------------
  free energy    TOTEN  =       -10.67476744 eV

  energy without entropy =      -10.67472589  energy(sigma->0) =      -10.67474667


--------------------------------------------------------------------------------------------------------




----------------------------------------- Iteration    1(  15)  ---------------------------------------


    POTLOK:  VPU time    0.15: CPU time    0.15
    SETDIJ:  VPU time    0.31: CPU time    0.31
    EDDAV :  VPU time    9.19: CPU time    9.21
    DOS   :  VPU time    0.00: CPU time   -0.00
    ------------------------------------------
      LOOP:  VPU time    9.66: CPU time    9.69

 eigenvalue-minimisations  :  2500
 total energy-change (2. order) : 0.2219167E-09  (-0.5195488E-11)
 number of electron   44.0000002 magnetization 
 augmentation part    21.2506105 magnetization 

 Free energy of the ion-electron system (eV)
  ---------------------------------------------------
  alpha Z        PSCENC =       321.41601756
  Ewald energy   TEWEN  =     -3586.60939184
  -1/2 Hartree   DENC   =      -933.69076163
  -V(xc)+E(xc)   XCENC  =       -46.77306737
  PAW double counting   =      3434.68955642    -3254.00532411
  entropy T*S    EENTRO =        -0.00004154
  eigenvalues    EBANDS =       -95.35136765
  atomic energy  EATOM  =      4149.64961272
  ---------------------------------------------------
  free energy    TOTEN  =       -10.67476744 eV

  energy without entropy =      -10.67472589  energy(sigma->0) =      -10.67474666


--------------------------------------------------------------------------------------------------------




 average (electrostatic) potential at core
  the test charge radii are     1.1249
  (the norm of the test charge is              1.0000)
       1 -42.7220       2 -42.7220       3 -42.7220       4 -42.7220
 
 
 
 E-fermi :   1.6251     XC(G=0): -10.7323     alpha+bet : -6.5888
   add alpha+bet to get absolut eigen values

 k-point   1 :       0.0000    0.0000    0.0000
  band No.  band energies     occupation 
      1      -4.5348      2.00000
      2      -3.5394      2.00000
      3      -3.5394      2.00000
      4      -3.5394      2.00000
      5      -3.4809      2.00000
      6      -3.4809      2.00000
      7      -3.4809      2.00000
      8      -2.5386      2.00000
      9      -2.5386      2.00000
     10      -2.5386      2.00000
     11      -1.8916      2.00000
     12      -1.8916      2.00000
     13      -1.4117      2.00000
     14      -1.4117      2.00000
     15      -1.4117      2.00000
     16      -1.2591      2.00000
     17      -1.2591      2.00000
     18      -1.2591      2.00000
     19      -1.2591      2.00000
     20      -1.2591      2.00000
     21      -1.2591      2.00000
     22       3.3622      0.00000
     23       3.3622      0.00000
     24       3.3622      0.00000
     25       6.5013      0.00000
     26       6.5013      0.00000
     27       6.5013      0.00000
     28      11.0008      0.00000

 k-point   2 :       0.0833    0.0000    0.0000
  band No.  band energies     occupation 
      1      -4.4755      2.00000
      2      -3.5190      2.00000
      3      -3.5132      2.00000
      4      -3.5132      2.00000
      5      -3.4660      2.00000
      6      -3.4576      2.00000
      7      -3.4576      2.00000
      8      -2.5559      2.00000
      9      -2.5213      2.00000
     10      -2.5213      2.00000
     11      -1.9087      2.00000
     12      -1.8837      2.00000
     13      -1.4342      2.00000
     14      -1.4342      2.00000
     15      -1.4202      2.00000
     16      -1.3317      2.00000
     17      -1.3317      2.00000
     18      -1.2870      2.00000
     19      -1.2870      2.00000
     20      -1.2590      2.00000
     21      -1.2590      2.00000
     22       2.8520      0.00000
     23       3.4882      0.00000
     24       3.4882      0.00000
     25       6.5167      0.00000
     26       6.5167      0.00000
     27       7.1140      0.00000
     28      10.7417      0.00000

 k-point   3 :       0.1667    0.0000    0.0000
  band No.  band energies     occupation 
      1      -4.3005      2.00000
      2      -3.4604      2.00000
      3      -3.4382      2.00000
      4      -3.4382      2.00000
      5      -3.4221      2.00000
      6      -3.3877      2.00000
      7      -3.3877      2.00000
      8      -2.6064      2.00000
      9      -2.4697      2.00000
     10      -2.4697      2.00000
     11      -1.9560      2.00000
     12      -1.8605      2.00000
     13      -1.5268      2.00000
     14      -1.5268      2.00000
     15      -1.4993      2.00000
     16      -1.4993      2.00000
     17      -1.4450      2.00000
     18      -1.3673      2.00000
     19      -1.3673      2.00000
     20      -1.2589      2.00000
     21      -1.2589      2.00000
     22       1.8601      0.00000
     23       3.8430      0.00000
     24       3.8430      0.00000
     25       6.5637      0.00000
     26       6.5637      0.00000
     27       8.4145      0.00000
     28      10.0988      0.00000

 k-point   4 :       0.2500    0.0000    0.0000
  band No.  band energies     occupation 
      1      -4.0210      2.00000
      2      -3.3709      2.00000
      3      -3.3515      2.00000
      4      -3.3255      2.00000
      5      -3.3255      2.00000
      6      -3.2719      2.00000
      7      -3.2719      2.00000
      8      -2.6859      2.00000
      9      -2.3856      2.00000
     10      -2.3856      2.00000
     11      -2.0192      2.00000
     12      -1.8235      2.00000
     13      -1.7958      2.00000
     14      -1.7958      2.00000
     15      -1.5989      2.00000
     16      -1.5989      2.00000
     17      -1.4901      2.00000
     18      -1.4901      2.00000
     19      -1.4842      2.00000
     20      -1.2588      2.00000
     21      -1.2588      2.00000
     22       0.8186      2.00000
     23       4.3760      0.00000
     24       4.3760      0.00000
     25       6.6423      0.00000
     26       6.6423      0.00000
     27       9.2752      0.00000
     28       9.2752      0.00000

 k-point   5 :       0.3333    0.0000    0.0000
  band No.  band energies     occupation 
      1      -3.6682      2.00000
      2      -3.2656      2.00000
      3      -3.2584      2.00000
      4      -3.1960      2.00000
      5      -3.1960      2.00000
      6      -3.1112      2.00000
      7      -3.1112      2.00000
      8      -2.7880      2.00000
      9      -2.2719      2.00000
     10      -2.2719      2.00000
     11      -2.0939      2.00000
     12      -2.0939      2.00000
     13      -2.0617      2.00000
     14      -1.7749      2.00000
     15      -1.7154      2.00000
     16      -1.7154      2.00000
     17      -1.6418      2.00000
     18      -1.6418      2.00000
     19      -1.5350      2.00000
     20      -1.2587      2.00000
     21      -1.2587      2.00000
     22      -0.1513      2.00000
     23       5.0391      0.00000
     24       5.0391      0.00000
     25       6.7467      0.00000
     26       6.7467      0.00000
     27       8.3875      0.00000
     28       8.3875      0.00000

 k-point   6 :       0.4167    0.0000    0.0000
  band No.  band energies     occupation 
      1      -3.3305      2.00000
      2      -3.1739      2.00000
      3      -3.1482      2.00000
      4      -3.0849      2.00000
      5      -3.0849      2.00000
      6      -2.9076      2.00000
      7      -2.9076      2.00000
      8      -2.9048      2.00000
      9      -2.3900      2.00000
     10      -2.3900      2.00000
     11      -2.1330      2.00000
     12      -2.1330      2.00000
     13      -1.9887      2.00000
     14      -1.8171      2.00000
     15      -1.8171      2.00000
     16      -1.8081      2.00000
     17      -1.8081      2.00000
     18      -1.7178      2.00000
     19      -1.5937      2.00000
     20      -1.2586      2.00000
     21      -1.2586      2.00000
     22      -0.9940      2.00000
     23       5.7962      0.00000
     24       5.7962      0.00000
     25       6.8525      0.00000
     26       6.8525      0.00000
     27       7.4923      0.00000
     28       7.4923      0.00000

 k-point   7 :       0.5000    0.0000    0.0000
  band No.  band energies     occupation 
      1      -3.1603      2.00000
      2      -3.1603      2.00000
      3      -3.0392      2.00000
      4      -3.0392      2.00000
      5      -3.0277      2.00000
      6      -3.0277      2.00000
      7      -2.6650      2.00000
      8      -2.6650      2.00000
      9      -2.6650      2.00000
     10      -2.6650      2.00000
     11      -1.9755      2.00000
     12      -1.9755      2.00000
     13      -1.9755      2.00000
     14      -1.9755      2.00000
     15      -1.8595      2.00000
     16      -1.8595      2.00000
     17      -1.6560      2.00000
     18      -1.6560      2.00000
     19      -1.6405      2.00000
     20      -1.6405      2.00000
     21      -1.2585      2.00000
     22      -1.2585      2.00000
     23       6.6211      0.00000
     24       6.6211      0.00000
     25       6.6211      0.00000
     26       6.6211      0.00000
     27       6.9020      0.00000
     28       6.9020      0.00000

 k-point   8 :       0.0833    0.0833    0.0000
  band No.  band energies     occupation 
      1      -4.4170      2.00000
      2      -3.4945      2.00000
      3      -3.4927      2.00000
      4      -3.4927      2.00000
      5      -3.4430      2.00000
      6      -3.4430      2.00000
      7      -3.4278      2.00000
      8      -2.5615      2.00000
      9      -2.5152      2.00000
     10      -2.5049      2.00000
     11      -1.9131      2.00000
     12      -1.8870      2.00000
     13      -1.4559      2.00000
     14      -1.4530      2.00000
     15      -1.4530      2.00000
     16      -1.3811      2.00000
     17      -1.3493      2.00000
     18      -1.3493      2.00000
     19      -1.2871      2.00000
     20      -1.2871      2.00000
     21      -1.2788      2.00000
     22       2.9687      0.00000
     23       2.9687      0.00000
     24       3.6110      0.00000
     25       6.5316      0.00000
     26       7.1376      0.00000
     27       7.1376      0.00000
     28       9.9745      0.00000

 k-point   9 :       0.1667    0.0833    0.0000
  band No.  band energies     occupation 
      1      -4.2446      2.00000
      2      -3.4360      2.00000
      3      -3.4336      2.00000
      4      -3.4173      2.00000
      5      -3.4000      2.00000
      6      -3.3741      2.00000
      7      -3.3444      2.00000
      8      -2.6052      2.00000
      9      -2.4692      2.00000
     10      -2.4568      2.00000
     11      -1.9537      2.00000
     12      -1.8652      2.00000
     13      -1.5939      2.00000
     14      -1.5581      2.00000
     15      -1.5186      2.00000
     16      -1.5150      2.00000
     17      -1.4675      2.00000
     18      -1.3929      2.00000
     19      -1.3676      2.00000
     20      -1.2885      2.00000
     21      -1.2873      2.00000
     22       1.9713      0.00000
     23       3.2933      0.00000
     24       3.9578      0.00000
     25       6.5746      0.00000
     26       7.2081      0.00000
     27       8.4388      0.00000
     28       9.1088      0.00000

 k-point  10 :       0.2500    0.0833    0.0000
  band No.  band energies     occupation 
      1      -3.9697      2.00000
      2      -3.3432      2.00000
      3      -3.3381      2.00000
      4      -3.3309      2.00000
      5      -3.3038      2.00000
      6      -3.2598      2.00000
      7      -3.2186      2.00000
      8      -2.6815      2.00000
      9      -2.3864      2.00000
     10      -2.3820      2.00000
     11      -2.0092      2.00000
     12      -1.8466      2.00000
     13      -1.8232      2.00000
     14      -1.8156      2.00000
     15      -1.6241      2.00000
     16      -1.6147      2.00000
     17      -1.5799      2.00000
     18      -1.4907      2.00000
     19      -1.4478      2.00000
     20      -1.2903      2.00000
     21      -1.2876      2.00000
     22       0.9322      2.00000
     23       3.7712      0.00000
     24       4.4818      0.00000
     25       6.6344      0.00000
     26       7.3211      0.00000
     27       8.2721      0.00000
     28       9.3578      0.00000

 k-point  11 :       0.3333    0.0833    0.0000
  band No.  band energies     occupation 
      1      -3.6240      2.00000
      2      -3.2398      2.00000
      3      -3.2363      2.00000
      4      -3.2100      2.00000
      5      -3.1735      2.00000
      6      -3.1015      2.00000
      7      -3.0632      2.00000
      8      -2.7806      2.00000
      9      -2.3013      2.00000
     10      -2.2731      2.00000
     11      -2.1335      2.00000
     12      -2.1046      2.00000
     13      -2.0222      2.00000
     14      -1.7702      2.00000
     15      -1.7662      2.00000
     16      -1.7272      2.00000
     17      -1.7020      2.00000
     18      -1.6428      2.00000
     19      -1.5108      2.00000
     20      -1.2903      2.00000
     21      -1.2880      2.00000
     22      -0.0292      2.00000
     23       4.3503      0.00000
     24       5.1367      0.00000
     25       6.6361      0.00000
     26       7.4508      0.00000
     27       7.5823      0.00000
     28       8.4693      0.00000

 k-point  12 :       0.4167    0.0833    0.0000
  band No.  band energies     occupation 
      1      -3.2933      2.00000
      2      -3.1422      2.00000
      3      -3.1321      2.00000
      4      -3.0833      2.00000
      5      -3.0625      2.00000
      6      -2.9012      2.00000
      7      -2.8944      2.00000
      8      -2.8846      2.00000
      9      -2.4156      2.00000
     10      -2.3935      2.00000
     11      -2.2365      2.00000
     12      -2.1344      2.00000
     13      -1.9392      2.00000
     14      -1.8893      2.00000
     15      -1.8242      2.00000
     16      -1.8100      2.00000
     17      -1.8093      2.00000
     18      -1.6910      2.00000
     19      -1.5820      2.00000
     20      -1.2899      2.00000
     21      -1.2886      2.00000
     22      -0.8544      2.00000
     23       4.9908      0.00000
     24       5.8872      0.00000
     25       6.2919      0.00000
     26       7.3311      0.00000
     27       7.5120      0.00000
     28       7.5755      0.00000

 k-point  13 :       0.5000    0.0833    0.0000
  band No.  band energies     occupation 
      1      -3.1259      2.00000
      2      -3.1259      2.00000
      3      -3.0219      2.00000
      4      -3.0219      2.00000
      5      -3.0143      2.00000
      6      -3.0143      2.00000
      7      -2.6704      2.00000
      8      -2.6704      2.00000
      9      -2.6629      2.00000
     10      -2.6629      2.00000
     11      -2.1127      2.00000
     12      -2.1127      2.00000
     13      -1.9768      2.00000
     14      -1.9768      2.00000
     15      -1.8600      2.00000
     16      -1.8600      2.00000
     17      -1.6725      2.00000
     18      -1.6725      2.00000
     19      -1.4650      2.00000
     20      -1.4650      2.00000
     21      -1.2892      2.00000
     22      -1.2892      2.00000
     23       5.6593      0.00000
     24       5.6593      0.00000
     25       6.7073      0.00000
     26       6.7073      0.00000
     27       7.4256      0.00000
     28       7.4256      0.00000

 k-point  14 :       0.1667    0.1667    0.0000
  band No.  band energies     occupation 
      1      -4.0801      2.00000
      2      -3.4020      2.00000
      3      -3.3567      2.00000
      4      -3.3567      2.00000
      5      -3.3339      2.00000
      6      -3.3339      2.00000
      7      -3.2453      2.00000
      8      -2.6215      2.00000
      9      -2.4469      2.00000
     10      -2.4196      2.00000
     11      -1.9698      2.00000
     12      -1.8514      2.00000
     13      -1.7050      2.00000
     14      -1.7050      2.00000
     15      -1.6758      2.00000
     16      -1.5748      2.00000
     17      -1.4595      2.00000
     18      -1.4595      2.00000
     19      -1.3685      2.00000
     20      -1.3685      2.00000
     21      -1.3372      2.00000
     22       2.2766      0.00000
     23       2.2766      0.00000
     24       4.2852      0.00000
     25       6.5919      0.00000
     26       8.1394      0.00000
     27       8.5010      0.00000
     28       8.5010      0.00000

 k-point  15 :       0.2500    0.1667    0.0000
  band No.  band energies     occupation 
      1      -3.8204      2.00000
      2      -3.3261      2.00000
      3      -3.2694      2.00000
      4      -3.2636      2.00000
      5      -3.2409      2.00000
      6      -3.2245      2.00000
      7      -3.1116      2.00000
      8      -2.6773      2.00000
      9      -2.3788      2.00000
     10      -2.3676      2.00000
     11      -2.0082      2.00000
     12      -1.9596      2.00000
     13      -1.8847      2.00000
     14      -1.8432      2.00000
     15      -1.7929      2.00000
     16      -1.6614      2.00000
     17      -1.5603      2.00000
     18      -1.4925      2.00000
     19      -1.4837      2.00000
     20      -1.3700      2.00000
     21      -1.3629      2.00000
     22       1.2369      2.00000
     23       2.7202      0.00000
     24       4.7863      0.00000
     25       6.4930      0.00000
     26       7.3984      0.00000
     27       8.5452      0.00000
     28       9.6006      0.00000

 k-point  16 :       0.3333    0.1667    0.0000
  band No.  band energies     occupation 
      1      -3.4979      2.00000
      2      -3.2123      2.00000
      3      -3.1845      2.00000
      4      -3.1520      2.00000
      5      -3.1078      2.00000
      6      -3.0732      2.00000
      7      -2.9614      2.00000
      8      -2.7629      2.00000
      9      -2.3391      2.00000
     10      -2.2718      2.00000
     11      -2.2299      2.00000
     12      -2.1406      2.00000
     13      -2.0010      2.00000
     14      -1.9959      2.00000
     15      -1.7630      2.00000
     16      -1.6923      2.00000
     17      -1.6827      2.00000
     18      -1.6453      2.00000
     19      -1.5369      2.00000
     20      -1.3725      2.00000
     21      -1.3717      2.00000
     22       0.2844      2.00000
     23       3.2572      0.00000
     24       5.4199      0.00000
     25       5.9589      0.00000
     26       7.2290      0.00000
     27       8.4132      0.00000
     28       8.7097      0.00000

 k-point  17 :       0.4167    0.1667    0.0000
  band No.  band energies     occupation 
      1      -3.1899      2.00000
      2      -3.0844      2.00000
      3      -3.0764      2.00000
      4      -3.0507      2.00000
      5      -2.9972      2.00000
      6      -2.8827      2.00000
      7      -2.8656      2.00000
      8      -2.8178      2.00000
      9      -2.4803      2.00000
     10      -2.4058      2.00000
     11      -2.3517      2.00000
     12      -2.1670      2.00000
     13      -2.1359      2.00000
     14      -1.8754      2.00000
     15      -1.8474      2.00000
     16      -1.8122      2.00000
     17      -1.7998      2.00000
     18      -1.6169      2.00000
     19      -1.5137      2.00000
     20      -1.3752      2.00000
     21      -1.3735      2.00000
     22      -0.5284      2.00000
     23       3.8616      0.00000
     24       5.2317      0.00000
     25       6.1530      0.00000
     26       7.3996      0.00000
     27       7.8195      0.00000
     28       8.0686      0.00000

 k-point  18 :       0.5000    0.1667    0.0000
  band No.  band energies     occupation 
      1      -3.0285      2.00000
      2      -3.0285      2.00000
      3      -2.9763      2.00000
      4      -2.9763      2.00000
      5      -2.9756      2.00000
      6      -2.9756      2.00000
      7      -2.6769      2.00000
      8      -2.6769      2.00000
      9      -2.6576      2.00000
     10      -2.6576      2.00000
     11      -2.3067      2.00000
     12      -2.3067      2.00000
     13      -1.9796      2.00000
     14      -1.9796      2.00000
     15      -1.8667      2.00000
     16      -1.8667      2.00000
     17      -1.7277      2.00000
     18      -1.7277      2.00000
     19      -1.3750      2.00000
     20      -1.3750      2.00000
     21      -1.1452      2.00000
     22      -1.1452      2.00000
     23       4.5221      0.00000
     24       4.5221      0.00000
     25       6.9600      0.00000
     26       6.9600      0.00000
     27       7.6980      0.00000
     28       7.6980      0.00000

 k-point  19 :       0.2500    0.2500    0.0000
  band No.  band energies     occupation 
      1      -3.5895      2.00000
      2      -3.2746      2.00000
      3      -3.1680      2.00000
      4      -3.1680      2.00000
      5      -3.1433      2.00000
      6      -3.1433      2.00000
      7      -2.9760      2.00000
      8      -2.6958      2.00000
      9      -2.3428      2.00000
     10      -2.3390      2.00000
     11      -2.0992      2.00000
     12      -2.0992      2.00000
     13      -2.0421      2.00000
     14      -2.0195      2.00000
     15      -1.7348      2.00000
     16      -1.6905      2.00000
     17      -1.5697      2.00000
     18      -1.5697      2.00000
     19      -1.4951      2.00000
     20      -1.4951      2.00000
     21      -1.4315      2.00000
     22       1.6708      0.00000
     23       1.6708      0.00000
     24       5.2588      0.00000
     25       5.8407      0.00000
     26       7.1774      0.00000
     27       9.5937      0.00000
     28       9.5937      0.00000

 k-point  20 :       0.3333    0.2500    0.0000
  band No.  band energies     occupation 
      1      -3.3119      2.00000
      2      -3.1838      2.00000
      3      -3.0940      2.00000
      4      -3.0286      2.00000
      5      -3.0237      2.00000
      6      -3.0045      2.00000
      7      -2.8321      2.00000
      8      -2.7483      2.00000
      9      -2.3514      2.00000
     10      -2.3456      2.00000
     11      -2.2536      2.00000
     12      -2.2491      2.00000
     13      -2.2124      2.00000
     14      -2.0446      2.00000
     15      -1.8221      2.00000
     16      -1.6863      2.00000
     17      -1.6486      2.00000
     18      -1.6154      2.00000
[...]
     14      -1.7841      2.00000
     15      -1.7841      2.00000
     16      -1.7841      2.00000
     17      -1.5619      2.00000
     18      -1.5619      2.00000
     19      -1.5619      2.00000
     20      -1.5619      2.00000
     21       1.1503      2.00000
     22       1.1503      2.00000
     23       1.1503      2.00000
     24       1.1503      2.00000
     25       5.7561      0.00000
     26       5.7561      0.00000
     27       5.7561      0.00000
     28       5.7561      0.00000

 k-point  75 :       0.3333    0.3333    0.3333
  band No.  band energies     occupation 
      1      -3.4353      2.00000
      2      -3.2631      2.00000
      3      -3.2631      2.00000
      4      -3.2631      2.00000
      5      -2.6685      2.00000
      6      -2.6685      2.00000
      7      -2.6685      2.00000
      8      -2.4620      2.00000
      9      -2.4620      2.00000
     10      -2.2805      2.00000
     11      -2.2805      2.00000
     12      -2.2805      2.00000
     13      -2.0348      2.00000
     14      -2.0348      2.00000
     15      -2.0348      2.00000
     16      -1.6179      2.00000
     17      -1.6179      2.00000
     18      -1.3720      2.00000
     19      -1.3720      2.00000
     20      -1.3720      2.00000
     21      -1.0475      2.00000
     22       2.0781      0.00000
     23       2.0781      0.00000
     24       2.0781      0.00000
     25       5.1759      0.00000
     26       5.1759      0.00000
     27       5.1759      0.00000
     28       8.0221      0.00000

 k-point  76 :       0.4167    0.3333    0.3333
  band No.  band energies     occupation 
      1      -3.4346      2.00000
      2      -3.3384      2.00000
      3      -3.2940      2.00000
      4      -3.2940      2.00000
      5      -2.6652      2.00000
      6      -2.6652      2.00000
      7      -2.6072      2.00000
      8      -2.4973      2.00000
      9      -2.4633      2.00000
     10      -2.3696      2.00000
     11      -2.3366      2.00000
     12      -2.3366      2.00000
     13      -1.9166      2.00000
     14      -1.9059      2.00000
     15      -1.9059      2.00000
     16      -1.6796      2.00000
     17      -1.5106      2.00000
     18      -1.3960      2.00000
     19      -1.3960      2.00000
     20      -1.3828      2.00000
     21      -0.4600      2.00000
     22       1.1254      2.00000
     23       2.4760      0.00000
     24       2.4760      0.00000
     25       4.4383      0.00000
     26       4.4383      0.00000
     27       5.7342      0.00000
     28       7.1614      0.00000

 k-point  77 :       0.5000    0.3333    0.3333
  band No.  band energies     occupation 
      1      -3.3995      2.00000
      2      -3.3995      2.00000
      3      -3.3040      2.00000
      4      -3.3040      2.00000
      5      -2.6665      2.00000
      6      -2.6665      2.00000
      7      -2.5472      2.00000
      8      -2.5472      2.00000
      9      -2.4319      2.00000
     10      -2.4319      2.00000
     11      -2.3544      2.00000
     12      -2.3544      2.00000
     13      -1.8501      2.00000
     14      -1.8501      2.00000
     15      -1.7935      2.00000
     16      -1.7935      2.00000
     17      -1.4301      2.00000
     18      -1.4301      2.00000
     19      -1.4147      2.00000
     20      -1.4147      2.00000
     21       0.2761      2.00000
     22       0.2761      2.00000
     23       2.7044      0.00000
     24       2.7044      0.00000
     25       4.0963      0.00000
     26       4.0963      0.00000
     27       6.3979      0.00000
     28       6.3979      0.00000

 k-point  78 :       0.4167    0.4167    0.3333
  band No.  band energies     occupation 
      1      -3.4577      2.00000
      2      -3.3810      2.00000
      3      -3.3810      2.00000
      4      -3.3583      2.00000
      5      -2.6323      2.00000
      6      -2.6070      2.00000
      7      -2.6070      2.00000
      8      -2.5099      2.00000
      9      -2.4932      2.00000
     10      -2.4191      2.00000
     11      -2.4191      2.00000
     12      -2.4054      2.00000
     13      -1.7590      2.00000
     14      -1.7590      2.00000
     15      -1.7572      2.00000
     16      -1.5420      2.00000
     17      -1.5284      2.00000
     18      -1.4093      2.00000
     19      -1.3995      2.00000
     20      -1.3995      2.00000
     21       0.0627      2.00000
     22       1.5759      2.00000
     23       1.5759      2.00000
     24       2.4925      0.00000
     25       4.0470      0.00000
     26       4.9308      0.00000
     27       4.9308      0.00000
     28       6.3083      0.00000

 k-point  79 :       0.5000    0.4167    0.3333
  band No.  band energies     occupation 
      1      -3.4382      2.00000
      2      -3.4382      2.00000
      3      -3.3877      2.00000
      4      -3.3877      2.00000
      5      -2.6133      2.00000
      6      -2.6133      2.00000
      7      -2.5523      2.00000
      8      -2.5523      2.00000
      9      -2.4732      2.00000
     10      -2.4732      2.00000
     11      -2.4333      2.00000
     12      -2.4333      2.00000
     13      -1.6894      2.00000
     14      -1.6894      2.00000
     15      -1.6293      2.00000
     16      -1.6293      2.00000
     17      -1.4452      2.00000
     18      -1.4452      2.00000
     19      -1.4254      2.00000
     20      -1.4254      2.00000
     21       0.7578      2.00000
     22       0.7578      2.00000
     23       2.0911      0.00000
     24       2.0911      0.00000
     25       4.3100      0.00000
     26       4.3100      0.00000
     27       5.5623      0.00000
     28       5.5623      0.00000

 k-point  80 :       0.5000    0.5000    0.3333
  band No.  band energies     occupation 
      1      -3.4335      2.00000
      2      -3.4335      2.00000
      3      -3.4335      2.00000
      4      -3.4335      2.00000
      5      -2.5710      2.00000
      6      -2.5710      2.00000
      7      -2.5710      2.00000
      8      -2.5710      2.00000
      9      -2.4771      2.00000
     10      -2.4771      2.00000
     11      -2.4771      2.00000
     12      -2.4771      2.00000
     13      -1.5758      2.00000
     14      -1.5758      2.00000
     15      -1.5758      2.00000
     16      -1.5758      2.00000
     17      -1.4690      2.00000
     18      -1.4690      2.00000
     19      -1.4690      2.00000
     20      -1.4690      2.00000
     21       1.3813      2.00000
     22       1.3813      2.00000
     23       1.3813      2.00000
     24       1.3813      2.00000
     25       4.8544      0.00000
     26       4.8544      0.00000
     27       4.8544      0.00000
     28       4.8544      0.00000

 k-point  81 :       0.4167    0.4167    0.4167
  band No.  band energies     occupation 
      1      -3.5017      2.00000
      2      -3.4478      2.00000
      3      -3.4478      2.00000
      4      -3.4478      2.00000
      5      -2.5866      2.00000
      6      -2.5866      2.00000
      7      -2.5866      2.00000
      8      -2.5217      2.00000
      9      -2.5217      2.00000
     10      -2.4762      2.00000
     11      -2.4762      2.00000
     12      -2.4762      2.00000
     13      -1.6030      2.00000
     14      -1.6030      2.00000
     15      -1.6030      2.00000
     16      -1.4532      2.00000
     17      -1.4532      2.00000
     18      -1.3844      2.00000
     19      -1.3844      2.00000
     20      -1.3844      2.00000
     21       0.5265      2.00000
     22       1.8731      0.00000
     23       1.8731      0.00000
     24       1.8731      0.00000
     25       4.2423      0.00000
     26       4.2423      0.00000
     27       4.2423      0.00000
     28       5.4736      0.00000

 k-point  82 :       0.5000    0.4167    0.4167
  band No.  band energies     occupation 
      1      -3.4974      2.00000
      2      -3.4974      2.00000
      3      -3.4703      2.00000
      4      -3.4703      2.00000
      5      -2.5780      2.00000
      6      -2.5780      2.00000
      7      -2.5479      2.00000
      8      -2.5479      2.00000
      9      -2.5159      2.00000
     10      -2.5159      2.00000
     11      -2.4971      2.00000
     12      -2.4971      2.00000
     13      -1.5321      2.00000
     14      -1.5321      2.00000
     15      -1.4923      2.00000
     16      -1.4923      2.00000
     17      -1.3993      2.00000
     18      -1.3993      2.00000
     19      -1.3960      2.00000
     20      -1.3960      2.00000
     21       1.1559      2.00000
     22       1.1559      2.00000
     23       2.0275      0.00000
     24       2.0275      0.00000
     25       3.9560      0.00000
     26       3.9560      0.00000
     27       4.7717      0.00000
     28       4.7717      0.00000

 k-point  83 :       0.5000    0.5000    0.4167
  band No.  band energies     occupation 
      1      -3.5078      2.00000
      2      -3.5078      2.00000
      3      -3.5078      2.00000
      4      -3.5078      2.00000
      5      -2.5523      2.00000
      6      -2.5523      2.00000
      7      -2.5523      2.00000
      8      -2.5523      2.00000
      9      -2.5282      2.00000
     10      -2.5282      2.00000
     11      -2.5282      2.00000
     12      -2.5282      2.00000
     13      -1.4373      2.00000
     14      -1.4373      2.00000
     15      -1.4373      2.00000
     16      -1.4373      2.00000
     17      -1.4094      2.00000
     18      -1.4094      2.00000
     19      -1.4094      2.00000
     20      -1.4094      2.00000
     21       1.6354      0.14656
     22       1.6354      0.14656
     23       1.6354      0.14656
     24       1.6354      0.14656
     25       4.1841      0.00000
     26       4.1841      0.00000
     27       4.1841      0.00000
     28       4.1841      0.00000

 k-point  84 :       0.5000    0.5000    0.5000
  band No.  band energies     occupation 
      1      -3.5328      2.00000
      2      -3.5328      2.00000
      3      -3.5328      2.00000
      4      -3.5328      2.00000
      5      -2.5456      2.00000
      6      -2.5456      2.00000
      7      -2.5456      2.00000
      8      -2.5456      2.00000
      9      -2.5456      2.00000
     10      -2.5456      2.00000
     11      -2.5456      2.00000
     12      -2.5456      2.00000
     13      -1.3888      2.00000
     14      -1.3888      2.00000
     15      -1.3888      2.00000
     16      -1.3888      2.00000
     17      -1.3888      2.00000
     18      -1.3888      2.00000
     19      -1.3888      2.00000
     20      -1.3888      2.00000
     21       1.7646      0.00000
     22       1.7646      0.00000
     23       1.7646      0.00000
     24       1.7646      0.00000
     25       3.9139      0.00000
     26       3.9139      0.00000
     27       3.9139      0.00000
     28       3.9139      0.00000


--------------------------------------------------------------------------------------------------------


 soft charge-density along one line, spin component           1
         0         1         2         3         4         5         6         7         8         9
 total charge-density along one line
 
 pseudopotential strength for first ion, spin component:           1
-12.785  -0.000   0.000  -0.000   0.000   0.247   0.000  -0.000
 -0.000 -12.785   0.000  -0.000   0.000   0.000   0.247  -0.000
  0.000   0.000 -12.778   0.000   0.000  -0.000  -0.000   0.246
 -0.000  -0.000   0.000 -12.785  -0.000   0.000   0.000  -0.000
  0.000   0.000   0.000  -0.000 -12.778  -0.000  -0.000  -0.000
  0.247   0.000  -0.000   0.000  -0.000   0.435  -0.000   0.000
  0.000   0.247  -0.000   0.000  -0.000  -0.000   0.435   0.000
 -0.000  -0.000   0.246  -0.000  -0.000   0.000   0.000   0.435
  0.000   0.000  -0.000   0.247   0.000  -0.000  -0.000   0.000
 -0.000  -0.000  -0.000   0.000   0.246   0.000   0.000   0.000
  0.000   0.000  -0.000   0.000   0.000  -0.000  -0.000   0.000
 -0.000  -0.000   0.000  -0.000  -0.000   0.000   0.000  -0.000
  0.000  -0.000   0.000  -0.000   0.000  -0.000   0.000  -0.000
 -0.000  -0.000  -0.000   0.000  -0.000   0.000   0.000   0.000
 -0.000  -0.000  -0.000  -0.000   0.000   0.000   0.000   0.000
 -0.000   0.000  -0.000   0.000  -0.000   0.000  -0.000   0.000
  0.000   0.000   0.000  -0.000   0.000  -0.000  -0.000  -0.000
  0.000   0.000   0.000   0.000  -0.000  -0.000  -0.000  -0.000
 total augmentation occupancy for first ion, spin component:           1
  1.927  -0.004  -0.001   0.004  -0.008  -0.034   0.002  -0.008  -0.005   0.007   0.010  -0.012  -0.000  -0.000   0.000  -0.000
 -0.004   1.968  -0.002  -0.005  -0.000   0.002  -0.053   0.003   0.005  -0.004   0.040  -0.003   0.000   0.000   0.000  -0.000
 -0.001  -0.002   1.950   0.003  -0.015  -0.008   0.003  -0.043  -0.002   0.015  -0.046  -0.028  -0.000   0.000   0.000  -0.000
  0.004  -0.005   0.003   1.952  -0.002  -0.005   0.005  -0.002  -0.033   0.005   0.013  -0.005  -0.000  -0.000   0.000  -0.000
 -0.008  -0.000  -0.015  -0.002   1.984   0.007  -0.004   0.015   0.005  -0.071   0.066   0.013   0.000  -0.000  -0.000   0.000
 -0.034   0.002  -0.008  -0.005   0.007   0.054  -0.001   0.012   0.005  -0.006   0.019   0.013  -0.000  -0.000  -0.000  -0.000
  0.002  -0.053   0.003   0.005  -0.004  -0.001   0.038  -0.003  -0.002   0.006  -0.018   0.009   0.000   0.000  -0.000   0.000
 -0.008   0.003  -0.043  -0.002   0.015   0.012  -0.003   0.037   0.001  -0.004   0.078  -0.007  -0.000   0.000   0.000   0.000
 -0.005   0.005  -0.002  -0.033   0.005   0.005  -0.002   0.001   0.029  -0.006   0.002   0.007   0.000   0.000   0.000   0.000
  0.007  -0.004   0.015   0.005  -0.071  -0.006   0.006  -0.004  -0.006   0.030  -0.062   0.011  -0.000   0.000  -0.000   0.000
  0.010   0.040  -0.046   0.013   0.066   0.019  -0.018   0.078   0.002  -0.062   0.916  -0.256   0.000   0.000  -0.000   0.000
 -0.012  -0.003  -0.028  -0.005   0.013   0.013   0.009  -0.007   0.007   0.011  -0.256   0.111  -0.000  -0.000  -0.000  -0.000
 -0.000   0.000  -0.000  -0.000   0.000  -0.000   0.000  -0.000   0.000  -0.000   0.000  -0.000   0.059   0.013  -0.007  -0.003
 -0.000   0.000   0.000  -0.000  -0.000  -0.000   0.000   0.000   0.000   0.000   0.000  -0.000   0.013   0.039  -0.000  -0.001
  0.000   0.000   0.000   0.000  -0.000  -0.000  -0.000   0.000   0.000  -0.000  -0.000  -0.000  -0.007  -0.000   0.110  -0.000
 -0.000  -0.000  -0.000  -0.000   0.000  -0.000   0.000   0.000   0.000   0.000   0.000  -0.000  -0.003  -0.001  -0.000   0.000
  0.000   0.000   0.000  -0.000   0.000  -0.000  -0.000  -0.000  -0.000   0.000  -0.000  -0.000  -0.001  -0.002  -0.000   0.000
  0.000   0.000   0.000   0.000  -0.000   0.000  -0.000  -0.000   0.000   0.000   0.000   0.000  -0.000  -0.000  -0.005   0.000


------------------------ aborting loop because EDIFF is reached ----------------------------------------




--------------------------------------------------------------------------------------------------------


    CHARGE:  VPU time    1.25: CPU time    1.25
    FORLOC:  VPU time    0.00: CPU time    0.01
    FORNL :  VPU time    2.90: CPU time    2.91
    STRESS:  VPU time    8.15: CPU time    8.15
    FORCOR:  VPU time    0.15: CPU time    0.15
    FORHAR:  VPU time    0.04: CPU time    0.04
    MIXING:  VPU time    0.01: CPU time    0.00


--------------------------------------------------------------------------------------------------------



  FREE ENERGIE OF THE ION-ELECTRON SYSTEM (eV)
  ---------------------------------------------------
  free  energy   TOTEN  =       -10.674767 eV

  energy  without entropy=      -10.674726  energy(sigma->0) =      -10.674747
 

  FORCE on cell =-STRESS in cart. coord.  units (eV/reduce length):
  Direction    X        Y        Z        XY       YZ       ZX
  --------------------------------------------------------------------------------------
  Alpha Z    321.42    321.42    321.42
  Ewald    -1195.54  -1195.54  -1195.54      0.00      0.00      0.00
  Hartree    311.23    311.23    311.23     -0.00     -0.00     -0.00
  E(xc)     -231.18   -231.18   -231.18     -0.00      0.00     -0.00
  Local      352.34    352.34    352.34     -0.00     -0.00     -0.00
  n-local   -268.54   -275.15   -276.99      0.08      1.95      0.51
  augment    166.63    166.63    166.63     -0.00     -0.00     -0.00
  Kinetic    550.21    541.83    537.42     -2.38      1.03     -0.75
  -------------------------------------------------------------------------------------
  Total       -5.51     -5.51     -5.51     -0.00      0.00     -0.00
  in kB      -99.82    -99.82    -99.82     -0.00      0.00     -0.00
  external pressure =      -99.82 kB  Pullay stress =        0.00 kB


 VOLUME and BASIS-vectors are now :
 -----------------------------------------------------------------------------
  energy-cutoff  :      750.00
  volume of cell :       88.40
      direct lattice vectors                 reciprocal lattice vectors
     4.454650516  0.000000000  0.000000000     0.224484501  0.000000000  0.000000000
     0.000000000  4.454650516  0.000000000     0.000000000  0.224484501  0.000000000
     0.000000000  0.000000000  4.454650516     0.000000000  0.000000000  0.224484501

  length of vectors
     4.454650516  4.454650516  4.454650516     0.224484501  0.224484501  0.224484501


 FORCES acting on ions
    electron-ion (+dipol)            ewald-force                    non-local-force                 convergence-correction
 -----------------------------------------------------------------------------------------------
   0.278E-14 0.736E-15 0.480E-14   0.762E-15 -.770E-14 -.104E-13   -.242E-25 -.258E-25 -.452E-25   -.902E-13 -.955E-13 -.834E-13
   -.654E-13 -.640E-12 -.289E-11   -.264E-15 -.647E-14 -.103E-13   0.258E-25 0.000E+00 0.323E-25   0.336E-13 0.464E-13 -.863E-13
   -.656E-13 0.150E-14 -.343E-11   0.616E-14 0.595E-14 0.103E-13   0.775E-25 0.000E+00 0.194E-25   0.285E-13 -.795E-13 0.464E-13
   0.290E-14 -.747E-13 -.739E-13   -.969E-14 0.718E-14 0.104E-13   0.355E-25 0.000E+00 -.646E-26   -.920E-13 0.306E-13 0.459E-13
 -----------------------------------------------------------------------------------------------
   -.125E-12 -.713E-12 -.639E-11   -.303E-14 -.104E-14 0.107E-16   0.115E-24 -.258E-25 0.000E+00   -.120E-12 -.980E-13 -.774E-13
 
 
 POSITION                                       TOTAL-FORCE (eV/Angst)
 -----------------------------------------------------------------------------------
      0.00000      0.00000      0.00000         0.000000     -0.000000      0.000000
      2.22733      2.22733      0.00000         0.000000     -0.000000      0.000000
      2.22733      0.00000      2.22733         0.000000     -0.000000      0.000000
      0.00000      2.22733      2.22733         0.000000     -0.000000      0.000000
 -----------------------------------------------------------------------------------
    total drift:                               -0.000000     -0.000000     -0.000000


--------------------------------------------------------------------------------------------------------



 mean value of Nose-termostat <S>:     1.000 mean value of <T> :     0.000
 mean temperature <T/S>/<1/S>  :     0.000

     LOOP+:  VPU time  200.02: CPU time  200.33
  
  
 General timing and accounting informations for this job:
 ========================================================
  
                  Total CPU time used (sec):      203.173
                            User time (sec):      184.836
                          System time (sec):       18.337
                         Elapsed time (sec):      203.533
  
                   Maximum memory used (kb):      519568.
                   Average memory used (kb):           0.
  
                          Minor page faults:       210933
                          Major page faults:            0
                 Voluntary context switches:          965
