<?xml version="1.0" encoding="ISO-8859-1"?>
<modeling>
 <generator>
  <i name="program" type="string">vasp</i>
  <i name="version" type="string">4.6.28 </i>
  <i name="subversion" type="string">25Jul05 complex  parallel</i>
  <i name="platform" type="string">LinuxIFC</i>
  <i name="date" type="string">2017 01 06</i>
  <i name="time" type="string">05:47:12</i>
 </generator>
 <incar>
  <i type="string" name="PREC">accurate</i>
  <i type="int" name="IALGO">    38</i>
  <i type="logical" name="ADDGRID"> T  </i>
  <i name="EDIFF">      0.00000001</i>
  <i type="int" name="IBRION">    -1</i>
  <i name="ENCUT">    750.00000000</i>
  <i type="logical" name="LREAL"> F  </i>
  <i type="int" name="ISMEAR">     0</i>
  <i name="SIGMA">      0.01000000</i>
  <i type="logical" name="LWAVE"> F  </i>
  <i type="logical" name="LCHARG"> F  </i>
 </incar>
 <kpoints>
  <generation param="Gamma">
   <v type="int" name="divisions">      12      12      12</v>
   <v name="usershift">      0.00000000      0.00000000      0.00000000</v>
   <v name="genvec1">      0.08333333      0.00000000      0.00000000</v>
   <v name="genvec2">      0.00000000      0.08333333      0.00000000</v>
   <v name="genvec3">      0.00000000      0.00000000      0.08333333</v>
   <v name="shift">      0.00000000      0.00000000      0.00000000</v>
  </generation>
  <varray name="kpointlist" >
   <v>       0.00000000      0.00000000      0.00000000</v>
   <v>       0.08333333      0.00000000      0.00000000</v>
   <v>       0.16666667      0.00000000      0.00000000</v>
   <v>       0.25000000      0.00000000      0.00000000</v>
   <v>       0.33333333      0.00000000      0.00000000</v>
   <v>       0.41666667      0.00000000      0.00000000</v>
   <v>       0.50000000      0.00000000      0.00000000</v>
   <v>       0.08333333      0.08333333      0.00000000</v>
   <v>       0.16666667      0.08333333      0.00000000</v>
   <v>       0.25000000      0.08333333      0.00000000</v>
   <v>       0.33333333      0.08333333      0.00000000</v>
   <v>       0.41666667      0.08333333      0.00000000</v>
   <v>       0.50000000      0.08333333      0.00000000</v>
   <v>       0.16666667      0.16666667      0.00000000</v>
   <v>       0.25000000      0.16666667      0.00000000</v>
   <v>       0.33333333      0.16666667      0.00000000</v>
   <v>       0.41666667      0.16666667      0.00000000</v>
   <v>       0.50000000      0.16666667      0.00000000</v>
   <v>       0.25000000      0.25000000      0.00000000</v>
   <v>       0.33333333      0.25000000      0.00000000</v>
   <v>       0.41666667      0.25000000      0.00000000</v>
   <v>       0.50000000      0.25000000      0.00000000</v>
   <v>       0.33333333      0.33333333      0.00000000</v>
   <v>       0.41666667      0.33333333      0.00000000</v>
   <v>       0.50000000      0.33333333      0.00000000</v>
   <v>       0.41666667      0.41666667      0.00000000</v>
   <v>       0.50000000      0.41666667      0.00000000</v>
   <v>       0.50000000      0.50000000      0.00000000</v>
   <v>       0.08333333      0.08333333      0.08333333</v>
   <v>       0.16666667      0.08333333      0.08333333</v>
   <v>       0.25000000      0.08333333      0.08333333</v>
   <v>       0.33333333      0.08333333      0.08333333</v>
   <v>       0.41666667      0.08333333      0.08333333</v>
   <v>       0.50000000      0.08333333      0.08333333</v>
   <v>       0.16666667      0.16666667      0.08333333</v>
   <v>       0.25000000      0.16666667      0.08333333</v>
   <v>       0.33333333      0.16666667      0.08333333</v>
   <v>       0.41666667      0.16666667      0.08333333</v>
   <v>       0.50000000      0.16666667      0.08333333</v>
   <v>       0.25000000      0.25000000      0.08333333</v>
   <v>       0.33333333      0.25000000      0.08333333</v>
   <v>       0.41666667      0.25000000      0.08333333</v>
   <v>       0.50000000      0.25000000      0.08333333</v>
   <v>       0.33333333      0.33333333      0.08333333</v>
   <v>       0.41666667      0.33333333      0.08333333</v>
   <v>       0.50000000      0.33333333      0.08333333</v>
   <v>       0.41666667      0.41666667      0.08333333</v>
   <v>       0.50000000      0.41666667      0.08333333</v>
   <v>       0.50000000      0.50000000      0.08333333</v>
   <v>       0.16666667      0.16666667      0.16666667</v>
   <v>       0.25000000      0.16666667      0.16666667</v>
   <v>       0.33333333      0.16666667      0.16666667</v>
   <v>       0.41666667      0.16666667      0.16666667</v>
   <v>       0.50000000      0.16666667      0.16666667</v>
   <v>       0.25000000      0.25000000      0.16666667</v>
   <v>       0.33333333      0.25000000      0.16666667</v>
   <v>       0.41666667      0.25000000      0.16666667</v>
   <v>       0.50000000      0.25000000      0.16666667</v>
   <v>       0.33333333      0.33333333      0.16666667</v>
   <v>       0.41666667      0.33333333      0.16666667</v>
   <v>       0.50000000      0.33333333      0.16666667</v>
   <v>       0.41666667      0.41666667      0.16666667</v>
   <v>       0.50000000      0.41666667      0.16666667</v>
   <v>       0.50000000      0.50000000      0.16666667</v>
   <v>       0.25000000      0.25000000      0.25000000</v>
   <v>       0.33333333      0.25000000      0.25000000</v>
   <v>       0.41666667      0.25000000      0.25000000</v>
   <v>       0.50000000      0.25000000      0.25000000</v>
   <v>       0.33333333      0.33333333      0.25000000</v>
   <v>       0.41666667      0.33333333      0.25000000</v>
   <v>       0.50000000      0.33333333      0.25000000</v>
   <v>       0.41666667      0.41666667      0.25000000</v>
   <v>       0.50000000      0.41666667      0.25000000</v>
   <v>       0.50000000      0.50000000      0.25000000</v>
   <v>       0.33333333      0.33333333      0.33333333</v>
   <v>       0.41666667      0.33333333      0.33333333</v>
   <v>       0.50000000      0.33333333      0.33333333</v>
   <v>       0.41666667      0.41666667      0.33333333</v>
   <v>       0.50000000      0.41666667      0.33333333</v>
   <v>       0.50000000      0.50000000      0.33333333</v>
   <v>       0.41666667      0.41666667      0.41666667</v>
   <v>       0.50000000      0.41666667      0.41666667</v>
   <v>       0.50000000      0.50000000      0.41666667</v>
   <v>       0.50000000      0.50000000      0.50000000</v>
  </varray>
  <varray name="weights" >
   <v>       0.00057870</v>
   <v>       0.00347222</v>
   <v>       0.00347222</v>
   <v>       0.00347222</v>
   <v>       0.00347222</v>
   <v>       0.00347222</v>
   <v>       0.00173611</v>
   <v>       0.00694444</v>
   <v>       0.01388889</v>
   <v>       0.01388889</v>
   <v>       0.01388889</v>
   <v>       0.01388889</v>
   <v>       0.00694444</v>
   <v>       0.00694444</v>
   <v>       0.01388889</v>
   <v>       0.01388889</v>
   <v>       0.01388889</v>
   <v>       0.00694444</v>
   <v>       0.00694444</v>
   <v>       0.01388889</v>
   <v>       0.01388889</v>
   <v>       0.00694444</v>
   <v>       0.00694444</v>
   <v>       0.01388889</v>
   <v>       0.00694444</v>
   <v>       0.00694444</v>
   <v>       0.00694444</v>
   <v>       0.00173611</v>
   <v>       0.00462963</v>
   <v>       0.01388889</v>
   <v>       0.01388889</v>
   <v>       0.01388889</v>
   <v>       0.01388889</v>
   <v>       0.00694444</v>
   <v>       0.01388889</v>
   <v>       0.02777778</v>
   <v>       0.02777778</v>
   <v>       0.02777778</v>
   <v>       0.01388889</v>
   <v>       0.01388889</v>
   <v>       0.02777778</v>
   <v>       0.02777778</v>
   <v>       0.01388889</v>
   <v>       0.01388889</v>
   <v>       0.02777778</v>
   <v>       0.01388889</v>
   <v>       0.01388889</v>
   <v>       0.01388889</v>
   <v>       0.00347222</v>
   <v>       0.00462963</v>
   <v>       0.01388889</v>
   <v>       0.01388889</v>
   <v>       0.01388889</v>
   <v>       0.00694444</v>
   <v>       0.01388889</v>
   <v>       0.02777778</v>
   <v>       0.02777778</v>
   <v>       0.01388889</v>
   <v>       0.01388889</v>
   <v>       0.02777778</v>
   <v>       0.01388889</v>
   <v>       0.01388889</v>
   <v>       0.01388889</v>
   <v>       0.00347222</v>
   <v>       0.00462963</v>
   <v>       0.01388889</v>
   <v>       0.01388889</v>
   <v>       0.00694444</v>
   <v>       0.01388889</v>
   <v>       0.02777778</v>
   <v>       0.01388889</v>
   <v>       0.01388889</v>
   <v>       0.01388889</v>
   <v>       0.00347222</v>
   <v>       0.00462963</v>
   <v>       0.01388889</v>
   <v>       0.00694444</v>
   <v>       0.01388889</v>
   <v>       0.01388889</v>
   <v>       0.00347222</v>
   <v>       0.00462963</v>
   <v>       0.00694444</v>
   <v>       0.00347222</v>
   <v>       0.00057870</v>
  </varray>
 </kpoints>
 <parameters>
  <separator name="general" >
   <i type="string" name="SYSTEM">unknown system</i>
   <i type="logical" name="LCOMPAT"> F  </i>
  </separator>
  <separator name="electronic" >
   <i type="string" name="PREC">accura</i>
   <i name="ENMAX">    750.00000000</i>
   <i name="ENAUG">    412.49600000</i>
   <i name="EDIFF">      0.00000001</i>
   <i type="int" name="IALGO">    38</i>
   <i type="int" name="IWAVPR">    10</i>
   <i type="int" name="NBANDS">    26</i>
   <i name="NELECT">     44.00000000</i>
   <separator name="electronic smearing" >
    <i type="int" name="ISMEAR">     0</i>
    <i name="SIGMA">      0.01000000</i>
   </separator>
   <separator name="electronic projectors" >
    <i type="logical" name="LREAL"> F  </i>
    <v name="ROPT">      0.00000000</v>
    <i type="int" name="LMAXPAW">  -100</i>
    <i type="int" name="LMAXMIX">     2</i>
   </separator>
   <separator name="electronic startup" >
    <i type="int" name="ISTART">     0</i>
    <i type="int" name="ICHARG">     2</i>
    <i type="int" name="INIWAV">     1</i>
   </separator>
   <separator name="electronic spin" >
    <i type="int" name="ISPIN">     1</i>
    <i type="logical" name="LNONCOLLINEAR"> F  </i>
    <v name="MAGMOM">      1.00000000      1.00000000      1.00000000      1.00000000</v>
    <i name="NUPDOWN">     -1.00000000</i>
    <i type="logical" name="LSORBIT"> F  </i>
    <v name="SAXIS">      0.00000000      0.00000000      1.00000000</v>
    <i type="logical" name="LSPIRAL"> F  </i>
    <v name="QSPIRAL">      0.00000000      0.00000000      0.00000000</v>
    <i type="logical" name="LZEROZ"> F  </i>
   </separator>
   <separator name="electronic exchange-correlation" >
    <i type="string" name="GGA">--</i>
    <i type="int" name="VOSKOWN">     0</i>
    <i type="logical" name="LASPH"> F  </i>
    <i type="logical" name="LMETAGGA"> F  </i>
    <i type="string" name="GGA2">--</i>
   </separator>
   <separator name="electronic convergence" >
    <i type="int" name="NELM">    60</i>
    <i type="int" name="NELMDL">     0</i>
    <i type="int" name="NELMIN">     2</i>
    <i name="ENINI">    750.00000000</i>
    <separator name="electronic convergence detail" >
     <i type="logical" name="LDIAG"> T  </i>
     <i name="WEIMIN">      0.00000000</i>
     <i name="EBREAK">      0.00000000</i>
     <i name="DEPER">      0.30000000</i>
     <i type="int" name="NRMM">     4</i>
     <i name="TIME">      0.10000000</i>
    </separator>
   </separator>
   <separator name="electronic mixer" >
    <i name="AMIX">      0.40000000</i>
    <i name="BMIX">      1.00000000</i>
    <i name="AMIN">      0.10000000</i>
    <i name="AMIX_MAG">      1.60000000</i>
    <i name="BMIX_MAG">      1.00000000</i>
    <separator name="electronic mixer details" >
     <i type="int" name="IMIX">     4</i>
     <i type="int" name="MAXMIX">   -45</i>
     <i name="WC">    100.00000000</i>
     <i type="int" name="INIMIX">     1</i>
     <i type="int" name="MIXPRE">     1</i>
     <i type="int" name="MREMOVE">     5</i>
    </separator>
   </separator>
   <separator name="electronic dipolcorrection" >
    <i type="int" name="IDIPOL">     0</i>
    <i type="logical" name="LDIPOL"> F  </i>
    <v name="DIPOL">   -100.00000000</v>
    <i name="EFIELD">      0.00000000</i>
   </separator>
  </separator>
  <separator name="grids" >
   <i type="int" name="NGX">    40</i>
   <i type="int" name="NGY">    40</i>
   <i type="int" name="NGZ">    40</i>
   <i type="int" name="NGXF">    80</i>
   <i type="int" name="NGYF">    80</i>
   <i type="int" name="NGZF">    80</i>
   <i type="logical" name="ADDGRID"> T  </i>
  </separator>
  <separator name="ionic" >
   <i type="int" name="NSW">     0</i>
   <i type="int" name="IBRION">    -1</i>
   <i type="int" name="ISIF">     2</i>
   <i name="PSTRESS">      0.00000000</i>
   <i name="EDIFFG">      0.00000010</i>
   <i type="int" name="NFREE">     0</i>
   <i name="POTIM">      0.50000000</i>
   <i name="SMASS">     -3.00000000</i>
  </separator>
  <separator name="ionic md" >
   <i name="TEBEG">      0.00010000</i>
   <i name="TEEND">      0.00010000</i>
   <i type="int" name="NBLOCK">     1</i>
   <i type="int" name="KBLOCK">     1</i>
   <i type="int" name="NPACO">   256</i>
   <i name="APACO">     16.00000000</i>
  </separator>
  <separator name="symmetry" >
   <i type="int" name="ISYM">     2</i>
   <i name="SYMPREC">      0.00001000</i>
  </separator>
  <separator name="dos" >
   <i type="logical" name="LORBIT"> F  </i>
   <v name="RWIGS">     -1.00000000</v>
   <i type="int" name="NEDOS">   301</i>
   <i name="EMIN">     10.00000000</i>
   <i name="EMAX">    -10.00000000</i>
  </separator>
  <separator name="writing" >
   <i type="int" name="NWRITE">     2</i>
   <i type="logical" name="LWAVE"> F  </i>
   <i type="logical" name="LCHARG"> F  </i>
   <i type="logical" name="LPARD"> F  </i>
   <i type="logical" name="LVTOT"> F  </i>
   <i type="logical" name="LELF"> F  </i>
   <i type="logical" name="LOPTICS"> F  </i>
   <i name="STM">      0.00000000</i>
  </separator>
  <separator name="performance" >
   <i type="int" name="NPAR">     4</i>
   <i type="int" name="NSIM">     4</i>
   <i type="int" name="NBLK">   256</i>
   <i type="logical" name="LPLANE"> T  </i>
   <i type="logical" name="LCRITICAL_MEM"> F  </i>
   <i type="logical" name="LSCALAPACK"> F  </i>
   <i type="logical" name="LSCALU"> F  </i>
   <i type="logical" name="LASYNC"> F  </i>
  </separator>
  <separator name="miscellaneous" >
   <i type="int" name="IDIOT">     3</i>
   <i type="logical" name="LMUSIC"> F  </i>
   <v name="POMASS">    107.86800000</v>
   <i type="logical" name="LCORR"> T  </i>
  </separator>
  <i type="logical" name="LREAL_COMPAT"> F  </i>
  <i type="logical" name="GGA_COMPAT"> T  </i>
  <i type="logical" name="LBERRY"> F  </i>
  <i type="int" name="ICORELEVEL">     0</i>
  <i type="logical" name="LDAU"> F  </i>
  <i type="int" name="I_CONSTRAINED_M">     0</i>
 </parameters>
 <atominfo>
  <atoms>       4</atoms>
  <types>       1</types>
  <array name="atoms" >
   <dimension dim="1">ion</dimension>
   <field type="string">element</field>
   <field type="int">atomtype</field>
   <set>
    <rc><c>Ag</c><c>   1</c></rc>
    <rc><c>Ag</c><c>   1</c></rc>
    <rc><c>Ag</c><c>   1</c></rc>
    <rc><c>Ag</c><c>   1</c></rc>
   </set>
  </array>
  <array name="atomtypes" >
   <dimension dim="1">type</dimension>
   <field type="int">atomspertype</field>
   <field type="string">element</field>
   <field>mass</field>
   <field>valence</field>
   <field type="string">pseudopotential</field>
   <set>
    <rc><c>   4</c><c>Ag</c><c>    107.86800000</c><c>     11.00000000</c><c> PAW_PBE Ag 06Sep2000                   </c></rc>
   </set>
  </array>
 </atominfo>
 <structure name="initialpos" >
  <crystal>
   <varray name="basis" >
    <v>       4.45465052      0.00000000      0.00000000</v>
    <v>       0.00000000      4.45465052      0.00000000</v>
    <v>       0.00000000      0.00000000      4.45465052</v>
   </varray>
   <i name="volume">     88.39768937</i>
   <varray name="rec_basis" >
    <v>       0.22448450      0.00000000      0.00000000</v>
    <v>       0.00000000      0.22448450      0.00000000</v>
    <v>       0.00000000      0.00000000      0.22448450</v>
   </varray>
  </crystal>
  <varray name="positions" >
   <v>       0.00000000      0.00000000      0.00000000</v>
   <v>       0.50000000      0.50000000      0.00000000</v>
   <v>       0.50000000      0.00000000      0.50000000</v>
   <v>       0.00000000      0.50000000      0.50000000</v>
  </varray>
 </structure>
 <calculation>
  <scstep>
   <time name="dav">   12.66   12.68</time>
   <time name="total">   13.08   13.10</time>
   <energy>
    <i name="alphaZ">    321.41601756</i>
    <i name="ewald">  -3586.60939184</i>
    <i name="hartreedc">   -973.91349379</i>
    <i name="XCdc">    -45.24491053</i>
    <i name="pawpsdc">   3482.67677651</i>
    <i name="pawaedc">  -3297.07979946</i>
    <i name="eentropy">     -0.00061170</i>
    <i name="bandstr">    401.53142939</i>
    <i name="atom">   4149.64961272</i>
    <i name="e_fr_energy">    452.42562886</i>
    <i name="e_wo_entrp">    452.42624056</i>
    <i name="e_0_energy">    452.42593471</i>
   </energy>
  </scstep>
  <scstep>
   <time name="dav">   10.48   10.48</time>
   <time name="total">   10.48   10.49</time>
   <energy>
    <i name="e_fr_energy">      5.08128297</i>
    <i name="e_wo_entrp">      5.08132407</i>
    <i name="e_0_energy">      5.08130352</i>
   </energy>
  </scstep>
  <scstep>
   <time name="dav">    9.43    9.44</time>
   <time name="total">    9.44    9.44</time>
   <energy>
    <i name="e_fr_energy">    -11.14904140</i>
    <i name="e_wo_entrp">    -11.14900097</i>
    <i name="e_0_energy">    -11.14902119</i>
   </energy>
  </scstep>
  <scstep>
   <time name="dav">   11.70   11.71</time>
   <time name="total">   11.71   11.72</time>
   <energy>
    <i name="e_fr_energy">    -11.29301563</i>
    <i name="e_wo_entrp">    -11.29297520</i>
    <i name="e_0_energy">    -11.29299542</i>
   </energy>
  </scstep>
  <scstep>
   <time name="dav">   11.81   11.82</time>
   <time name="total">   12.60   12.61</time>
   <energy>
    <i name="e_fr_energy">    -11.29356929</i>
    <i name="e_wo_entrp">    -11.29352885</i>
    <i name="e_0_energy">    -11.29354907</i>
   </energy>
  </scstep>
  <scstep>
   <time name="dav">    9.10    9.11</time>
   <time name="total">   10.23   10.24</time>
   <energy>
    <i name="e_fr_energy">    -10.68463792</i>
    <i name="e_wo_entrp">    -10.68458306</i>
    <i name="e_0_energy">    -10.68461049</i>
   </energy>
  </scstep>
  <scstep>
   <time name="dav">    9.62    9.64</time>
   <time name="total">   11.16   11.19</time>
   <energy>
    <i name="e_fr_energy">    -10.67803830</i>
    <i name="e_wo_entrp">    -10.67798949</i>
    <i name="e_0_energy">    -10.67801389</i>
   </energy>
  </scstep>
  <scstep>
   <time name="dav">   13.92   13.93</time>
   <time name="total">   15.64   15.66</time>
   <energy>
    <i name="e_fr_energy">    -10.67467171</i>
    <i name="e_wo_entrp">    -10.67462874</i>
    <i name="e_0_energy">    -10.67465023</i>
   </energy>
  </scstep>
  <scstep>
   <time name="dav">   14.01   14.03</time>
   <time name="total">   15.74   15.77</time>
   <energy>
    <i name="e_fr_energy">    -10.67476861</i>
    <i name="e_wo_entrp">    -10.67473133</i>
    <i name="e_0_energy">    -10.67474997</i>
   </energy>
  </scstep>
  <scstep>
   <time name="dav">   13.79   13.81</time>
   <time name="total">   15.51   15.53</time>
   <energy>
    <i name="e_fr_energy">    -10.67476841</i>
    <i name="e_wo_entrp">    -10.67472771</i>
    <i name="e_0_energy">    -10.67474806</i>
   </energy>
  </scstep>
  <scstep>
   <time name="dav">   13.97   13.98</time>
   <time name="total">   15.68   15.69</time>
   <energy>
    <i name="e_fr_energy">    -10.67476796</i>
    <i name="e_wo_entrp">    -10.67472645</i>
    <i name="e_0_energy">    -10.67474721</i>
   </energy>
  </scstep>
  <scstep>
   <time name="dav">   13.15   13.16</time>
   <time name="total">   14.80   14.82</time>
   <energy>
    <i name="e_fr_energy">    -10.67476744</i>
    <i name="e_wo_entrp">    -10.67472586</i>
    <i name="e_0_energy">    -10.67474665</i>
   </energy>
  </scstep>
  <scstep>
   <time name="dav">    9.21    9.23</time>
   <time name="total">   10.98   11.01</time>
   <energy>
    <i name="e_fr_energy">    -10.67476742</i>
    <i name="e_wo_entrp">    -10.67472586</i>
    <i name="e_0_energy">    -10.67474664</i>
   </energy>
  </scstep>
  <scstep>
   <time name="dav">    9.07    9.09</time>
   <time name="total">   10.79   10.81</time>
   <energy>
    <i name="e_fr_energy">    -10.67476744</i>
    <i name="e_wo_entrp">    -10.67472589</i>
    <i name="e_0_energy">    -10.67474667</i>
   </energy>
  </scstep>
  <scstep>
   <time name="dav">    9.19    9.21</time>
   <time name="total">    9.66    9.69</time>
   <energy>
    <i name="alphaZ">    321.41601756</i>
    <i name="ewald">  -3586.60939184</i>
    <i name="hartreedc">   -933.69076163</i>
    <i name="XCdc">    -46.77306737</i>
    <i name="pawpsdc">   3434.68955642</i>
    <i name="pawaedc">  -3254.00532411</i>
    <i name="eentropy">     -0.00004154</i>
    <i name="bandstr">    -95.35136765</i>
    <i name="atom">   4149.64961272</i>
    <i name="e_fr_energy">    -10.67476744</i>
    <i name="e_wo_entrp">    -10.67472589</i>
    <i name="e_0_energy">    -10.67474666</i>
   </energy>
  </scstep>
  <structure>
   <crystal>
    <varray name="basis" >
     <v>       4.45465052      0.00000000      0.00000000</v>
     <v>       0.00000000      4.45465052      0.00000000</v>
     <v>       0.00000000      0.00000000      4.45465052</v>
    </varray>
    <i name="volume">     88.39768937</i>
    <varray name="rec_basis" >
     <v>       0.22448450      0.00000000      0.00000000</v>
     <v>       0.00000000      0.22448450      0.00000000</v>
     <v>       0.00000000      0.00000000      0.22448450</v>
    </varray>
   </crystal>
   <varray name="positions" >
    <v>       0.00000000      0.00000000      0.00000000</v>
    <v>       0.50000000      0.50000000      0.00000000</v>
    <v>       0.50000000      0.00000000      0.50000000</v>
    <v>       0.00000000      0.50000000      0.50000000</v>
   </varray>
  </structure>
  <varray name="forces" >
   <v>       0.00000000     -0.00000000      0.00000000</v>
   <v>       0.00000000     -0.00000000      0.00000000</v>
   <v>       0.00000000     -0.00000000      0.00000000</v>
   <v>       0.00000000     -0.00000000      0.00000000</v>
  </varray>
  <varray name="stress" >
   <v>     -99.81965918      0.00000000     -0.00000000</v>
   <v>      -0.00000000    -99.81965918     -0.00000000</v>
   <v>       0.00000000      0.00000000    -99.81965918</v>
  </varray>
  <energy>
   <i name="e_fr_energy">    -10.67476744</i>
   <i name="e_wo_entrp">    -10.67474666</i>
   <i name="e_0_energy">     -0.00004154</i>
  </energy>
  <eigenvalues>
   <array>
    <dimension dim="1">band</dimension>
    <dimension dim="2">kpoint</dimension>
    <dimension dim="3">spin</dimension>
    <field>eigene</field>
    <field>occ</field>
    <set>
     <set comment="spin 1">
      <set comment="kpoint 1">
       <r>  -4.5348  1.0000</r>
       <r>  -3.5394  1.0000</r>
       <r>  -3.5394  1.0000</r>
       <r>  -3.5394  1.0000</r>
       <r>  -3.4809  1.0000</r>
       <r>  -3.4809  1.0000</r>
       <r>  -3.4809  1.0000</r>
       <r>  -2.5386  1.0000</r>
       <r>  -2.5386  1.0000</r>
       <r>  -2.5386  1.0000</r>
       <r>  -1.8916  1.0000</r>
       <r>  -1.8916  1.0000</r>
       <r>  -1.4117  1.0000</r>
       <r>  -1.4117  1.0000</r>
       <r>  -1.4117  1.0000</r>
       <r>  -1.2591  1.0000</r>
       <r>  -1.2591  1.0000</r>
       <r>  -1.2591  1.0000</r>
       <r>  -1.2591  1.0000</r>
       <r>  -1.2591  1.0000</r>
       <r>  -1.2591  1.0000</r>
       <r>   3.3622  0.0000</r>
       <r>   3.3622  0.0000</r>
       <r>   3.3622  0.0000</r>
       <r>   6.5013  0.0000</r>
       <r>   6.5013  0.0000</r>
       <r>   6.5013  0.0000</r>
       <r>  11.0008  0.0000</r>
      </set>
      <set comment="kpoint 2">
       <r>  -4.4755  1.0000</r>
       <r>  -3.5190  1.0000</r>
       <r>  -3.5132  1.0000</r>
       <r>  -3.5132  1.0000</r>
       <r>  -3.4660  1.0000</r>
       <r>  -3.4576  1.0000</r>
       <r>  -3.4576  1.0000</r>
       <r>  -2.5559  1.0000</r>
       <r>  -2.5213  1.0000</r>
       <r>  -2.5213  1.0000</r>
       <r>  -1.9087  1.0000</r>
       <r>  -1.8837  1.0000</r>
       <r>  -1.4342  1.0000</r>
       <r>  -1.4342  1.0000</r>
       <r>  -1.4202  1.0000</r>
       <r>  -1.3317  1.0000</r>
       <r>  -1.3317  1.0000</r>
       <r>  -1.2870  1.0000</r>
       <r>  -1.2870  1.0000</r>
       <r>  -1.2590  1.0000</r>
       <r>  -1.2590  1.0000</r>
       <r>   2.8520  0.0000</r>
       <r>   3.4882  0.0000</r>
       <r>   3.4882  0.0000</r>
       <r>   6.5167  0.0000</r>
       <r>   6.5167  0.0000</r>
       <r>   7.1140  0.0000</r>
       <r>  10.7417  0.0000</r>
      </set>
      <set comment="kpoint 3">
       <r>  -4.3005  1.0000</r>
       <r>  -3.4604  1.0000</r>
       <r>  -3.4382  1.0000</r>
       <r>  -3.4382  1.0000</r>
       <r>  -3.4221  1.0000</r>
       <r>  -3.3877  1.0000</r>
       <r>  -3.3877  1.0000</r>
       <r>  -2.6064  1.0000</r>
       <r>  -2.4697  1.0000</r>
       <r>  -2.4697  1.0000</r>
       <r>  -1.9560  1.0000</r>
       <r>  -1.8605  1.0000</r>
       <r>  -1.5268  1.0000</r>
       <r>  -1.5268  1.0000</r>
       <r>  -1.4993  1.0000</r>
       <r>  -1.4993  1.0000</r>
       <r>  -1.4450  1.0000</r>
       <r>  -1.3673  1.0000</r>
       <r>  -1.3673  1.0000</r>
       <r>  -1.2589  1.0000</r>
       <r>  -1.2589  1.0000</r>
       <r>   1.8601  0.0000</r>
       <r>   3.8430  0.0000</r>
       <r>   3.8430  0.0000</r>
       <r>   6.5637  0.0000</r>
       <r>   6.5637  0.0000</r>
       <r>   8.4145  0.0000</r>
       <r>  10.0988  0.0000</r>
      </set>
      <set comment="kpoint 4">
       <r>  -4.0210  1.0000</r>
       <r>  -3.3709  1.0000</r>
       <r>  -3.3515  1.0000</r>
       <r>  -3.3255  1.0000</r>
       <r>  -3.3255  1.0000</r>
       <r>  -3.2719  1.0000</r>
       <r>  -3.2719  1.0000</r>
       <r>  -2.6859  1.0000</r>
       <r>  -2.3856  1.0000</r>
       <r>  -2.3856  1.0000</r>
       <r>  -2.0192  1.0000</r>
       <r>  -1.8235  1.0000</r>
       <r>  -1.7958  1.0000</r>
       <r>  -1.7958  1.0000</r>
       <r>  -1.5989  1.0000</r>
       <r>  -1.5989  1.0000</r>
       <r>  -1.4901  1.0000</r>
       <r>  -1.4901  1.0000</r>
       <r>  -1.4842  1.0000</r>
       <r>  -1.2588  1.0000</r>
       <r>  -1.2588  1.0000</r>
       <r>   0.8186  1.0000</r>
       <r>   4.3760  0.0000</r>
       <r>   4.3760  0.0000</r>
       <r>   6.6423  0.0000</r>
       <r>   6.6423  0.0000</r>
       <r>   9.2752  0.0000</r>
       <r>   9.2752  0.0000</r>
      </set>
      <set comment="kpoint 5">
       <r>  -3.6682  1.0000</r>
       <r>  -3.2656  1.0000</r>
       <r>  -3.2584  1.0000</r>
       <r>  -3.1960  1.0000</r>
       <r>  -3.1960  1.0000</r>
       <r>  -3.1112  1.0000</r>
       <r>  -3.1112  1.0000</r>
       <r>  -2.7880  1.0000</r>
       <r>  -2.2719  1.0000</r>
       <r>  -2.2719  1.0000</r>
       <r>  -2.0939  1.0000</r>
       <r>  -2.0939  1.0000</r>
       <r>  -2.0617  1.0000</r>
       <r>  -1.7749  1.0000</r>
       <r>  -1.7154  1.0000</r>
       <r>  -1.7154  1.0000</r>
       <r>  -1.6418  1.0000</r>
       <r>  -1.6418  1.0000</r>
       <r>  -1.5350  1.0000</r>
       <r>  -1.2587  1.0000</r>
       <r>  -1.2587  1.0000</r>
       <r>  -0.1513  1.0000</r>
       <r>   5.0391  0.0000</r>
       <r>   5.0391  0.0000</r>
       <r>   6.7467  0.0000</r>
       <r>   6.7467  0.0000</r>
       <r>   8.3875  0.0000</r>
       <r>   8.3875  0.0000</r>
      </set>
      <set comment="kpoint 6">
       <r>  -3.3305  1.0000</r>
       <r>  -3.1739  1.0000</r>
       <r>  -3.1482  1.0000</r>
       <r>  -3.0849  1.0000</r>
       <r>  -3.0849  1.0000</r>
       <r>  -2.9076  1.0000</r>
       <r>  -2.9076  1.0000</r>
       <r>  -2.9048  1.0000</r>
       <r>  -2.3900  1.0000</r>
       <r>  -2.3900  1.0000</r>
       <r>  -2.1330  1.0000</r>
       <r>  -2.1330  1.0000</r>
       <r>  -1.9887  1.0000</r>
       <r>  -1.8171  1.0000</r>
       <r>  -1.8171  1.0000</r>
       <r>  -1.8081  1.0000</r>
       <r>  -1.8081  1.0000</r>
       <r>  -1.7178  1.0000</r>
       <r>  -1.5937  1.0000</r>
       <r>  -1.2586  1.0000</r>
       <r>  -1.2586  1.0000</r>
       <r>  -0.9940  1.0000</r>
       <r>   5.7962  0.0000</r>
       <r>   5.7962  0.0000</r>
       <r>   6.8525  0.0000</r>
       <r>   6.8525  0.0000</r>
       <r>   7.4923  0.0000</r>
       <r>   7.4923  0.0000</r>
      </set>
      <set comment="kpoint 7">
       <r>  -3.1603  1.0000</r>
       <r>  -3.1603  1.0000</r>
       <r>  -3.0392  1.0000</r>
       <r>  -3.0392  1.0000</r>
       <r>  -3.0277  1.0000</r>
       <r>  -3.0277  1.0000</r>
       <r>  -2.6650  1.0000</r>
       <r>  -2.6650  1.0000</r>
       <r>  -2.6650  1.0000</r>
       <r>  -2.6650  1.0000</r>
       <r>  -1.9755  1.0000</r>
       <r>  -1.9755  1.0000</r>
       <r>  -1.9755  1.0000</r>
       <r>  -1.9755  1.0000</r>
       <r>  -1.8595  1.0000</r>
       <r>  -1.8595  1.0000</r>
       <r>  -1.6560  1.0000</r>
       <r>  -1.6560  1.0000</r>
       <r>  -1.6405  1.0000</r>
       <r>  -1.6405  1.0000</r>
       <r>  -1.2585  1.0000</r>
       <r>  -1.2585  1.0000</r>
       <r>   6.6211  0.0000</r>
       <r>   6.6211  0.0000</r>
       <r>   6.6211  0.0000</r>
       <r>   6.6211  0.0000</r>
       <r>   6.9020  0.0000</r>
       <r>   6.9020  0.0000</r>
      </set>
      <set comment="kpoint 8">
       <r>  -4.4170  1.0000</r>
       <r>  -3.4945  1.0000</r>
       <r>  -3.4927  1.0000</r>
       <r>  -3.4927  1.0000</r>
       <r>  -3.4430  1.0000</r>
       <r>  -3.4430  1.0000</r>
       <r>  -3.4278  1.0000</r>
       <r>  -2.5615  1.0000</r>
       <r>  -2.5152  1.0000</r>
       <r>  -2.5049  1.0000</r>
       <r>  -1.9131  1.0000</r>
       <r>  -1.8870  1.0000</r>
       <r>  -1.4559  1.0000</r>
       <r>  -1.4530  1.0000</r>
       <r>  -1.4530  1.0000</r>
       <r>  -1.3811  1.0000</r>
       <r>  -1.3493  1.0000</r>
       <r>  -1.3493  1.0000</r>
       <r>  -1.2871  1.0000</r>
       <r>  -1.2871  1.0000</r>
       <r>  -1.2788  1.0000</r>
       <r>   2.9687  0.0000</r>
       <r>   2.9687  0.0000</r>
       <r>   3.6110  0.0000</r>
       <r>   6.5316  0.0000</r>
       <r>   7.1376  0.0000</r>
       <r>   7.1376  0.0000</r>
       <r>   9.9745  0.0000</r>
      </set>
      <set comment="kpoint 9">
       <r>  -4.2446  1.0000</r>
       <r>  -3.4360  1.0000</r>
       <r>  -3.4336  1.0000</r>
       <r>  -3.4173  1.0000</r>
       <r>  -3.4000  1.0000</r>
       <r>  -3.3741  1.0000</r>
       <r>  -3.3444  1.0000</r>
       <r>  -2.6052  1.0000</r>
       <r>  -2.4692  1.0000</r>
       <r>  -2.4568  1.0000</r>
       <r>  -1.9537  1.0000</r>
       <r>  -1.8652  1.0000</r>
       <r>  -1.5939  1.0000</r>
       <r>  -1.5581  1.0000</r>
       <r>  -1.5186  1.0000</r>
       <r>  -1.5150  1.0000</r>
       <r>  -1.4675  1.0000</r>
       <r>  -1.3929  1.0000</r>
       <r>  -1.3676  1.0000</r>
       <r>  -1.2885  1.0000</r>
       <r>  -1.2873  1.0000</r>
       <r>   1.9713  0.0000</r>
       <r>   3.2933  0.0000</r>
       <r>   3.9578  0.0000</r>
       <r>   6.5746  0.0000</r>
       <r>   7.2081  0.0000</r>
       <r>   8.4388  0.0000</r>
       <r>   9.1088  0.0000</r>
      </set>
      <set comment="kpoint 10">
       <r>  -3.9697  1.0000</r>
       <r>  -3.3432  1.0000</r>
       <r>  -3.3381  1.0000</r>
       <r>  -3.3309  1.0000</r>
       <r>  -3.3038  1.0000</r>
       <r>  -3.2598  1.0000</r>
       <r>  -3.2186  1.0000</r>
       <r>  -2.6815  1.0000</r>
       <r>  -2.3864  1.0000</r>
       <r>  -2.3820  1.0000</r>
       <r>  -2.0092  1.0000</r>
       <r>  -1.8466  1.0000</r>
       <r>  -1.8232  1.0000</r>
       <r>  -1.8156  1.0000</r>
       <r>  -1.6241  1.0000</r>
       <r>  -1.6147  1.0000</r>
       <r>  -1.5799  1.0000</r>
       <r>  -1.4907  1.0000</r>
       <r>  -1.4478  1.0000</r>
       <r>  -1.2903  1.0000</r>
       <r>  -1.2876  1.0000</r>
       <r>   0.9322  1.0000</r>
       <r>   3.7712  0.0000</r>
       <r>   4.4818  0.0000</r>
       <r>   6.6344  0.0000</r>
       <r>   7.3211  0.0000</r>
       <r>   8.2721  0.0000</r>
       <r>   9.3578  0.0000</r>
      </set>
      <set comment="kpoint 11">
       <r>  -3.6240  1.0000</r>
       <r>  -3.2398  1.0000</r>
       <r>  -3.2363  1.0000</r>
       <r>  -3.2100  1.0000</r>
       <r>  -3.1735  1.0000</r>
       <r>  -3.1015  1.0000</r>
       <r>  -3.0632  1.0000</r>
       <r>  -2.7806  1.0000</r>
       <r>  -2.3013  1.0000</r>
       <r>  -2.2731  1.0000</r>
       <r>  -2.1335  1.0000</r>
       <r>  -2.1046  1.0000</r>
       <r>  -2.0222  1.0000</r>
       <r>  -1.7702  1.0000</r>
       <r>  -1.7662  1.0000</r>
       <r>  -1.7272  1.0000</r>
       <r>  -1.7020  1.0000</r>
       <r>  -1.6428  1.0000</r>
       <r>  -1.5108  1.0000</r>
       <r>  -1.2903  1.0000</r>
       <r>  -1.2880  1.0000</r>
       <r>  -0.0292  1.0000</r>
       <r>   4.3503  0.0000</r>
       <r>   5.1367  0.0000</r>
       <r>   6.6361  0.0000</r>
       <r>   7.4508  0.0000</r>
       <r>   7.5823  0.0000</r>
       <r>   8.4693  0.0000</r>
      </set>
      <set comment="kpoint 12">
       <r>  -3.2933  1.0000</r>
       <r>  -3.1422  1.0000</r>
       <r>  -3.1321  1.0000</r>
       <r>  -3.0833  1.0000</r>
       <r>  -3.0625  1.0000</r>
       <r>  -2.9012  1.0000</r>
       <r>  -2.8944  1.0000</r>
       <r>  -2.8846  1.0000</r>
       <r>  -2.4156  1.0000</r>
       <r>  -2.3935  1.0000</r>
       <r>  -2.2365  1.0000</r>
       <r>  -2.1344  1.0000</r>
       <r>  -1.9392  1.0000</r>
       <r>  -1.8893  1.0000</r>
       <r>  -1.8242  1.0000</r>
       <r>  -1.8100  1.0000</r>
       <r>  -1.8093  1.0000</r>
       <r>  -1.6910  1.0000</r>
       <r>  -1.5820  1.0000</r>
       <r>  -1.2899  1.0000</r>
       <r>  -1.2886  1.0000</r>
       <r>  -0.8544  1.0000</r>
       <r>   4.9908  0.0000</r>
       <r>   5.8872  0.0000</r>
       <r>   6.2919  0.0000</r>
       <r>   7.3311  0.0000</r>
       <r>   7.5120  0.0000</r>
       <r>   7.5755  0.0000</r>
      </set>
      <set comment="kpoint 13">
       <r>  -3.1259  1.0000</r>
       <r>  -3.1259  1.0000</r>
       <r>  -3.0219  1.0000</r>
       <r>  -3.0219  1.0000</r>
       <r>  -3.0143  1.0000</r>
       <r>  -3.0143  1.0000</r>
       <r>  -2.6704  1.0000</r>
       <r>  -2.6704  1.0000</r>
       <r>  -2.6629  1.0000</r>
       <r>  -2.6629  1.0000</r>
       <r>  -2.1127  1.0000</r>
       <r>  -2.1127  1.0000</r>
       <r>  -1.9768  1.0000</r>
       <r>  -1.9768  1.0000</r>
       <r>  -1.8600  1.0000</r>
       <r>  -1.8600  1.0000</r>
       <r>  -1.6725  1.0000</r>
       <r>  -1.6725  1.0000</r>
       <r>  -1.4650  1.0000</r>
       <r>  -1.4650  1.0000</r>
       <r>  -1.2892  1.0000</r>
       <r>  -1.2892  1.0000</r>
       <r>   5.6593  0.0000</r>
       <r>   5.6593  0.0000</r>
       <r>   6.7073  0.0000</r>
       <r>   6.7073  0.0000</r>
       <r>   7.4256  0.0000</r>
       <r>   7.4256  0.0000</r>
      </set>
      <set comment="kpoint 14">
       <r>  -4.0801  1.0000</r>
       <r>  -3.4020  1.0000</r>
       <r>  -3.3567  1.0000</r>
       <r>  -3.3567  1.0000</r>
       <r>  -3.3339  1.0000</r>
       <r>  -3.3339  1.0000</r>
       <r>  -3.2453  1.0000</r>
       <r>  -2.6215  1.0000</r>
       <r>  -2.4469  1.0000</r>
       <r>  -2.4196  1.0000</r>
       <r>  -1.9698  1.0000</r>
       <r>  -1.8514  1.0000</r>
       <r>  -1.7050  1.0000</r>
       <r>  -1.7050  1.0000</r>
       <r>  -1.6758  1.0000</r>
       <r>  -1.5748  1.0000</r>
       <r>  -1.4595  1.0000</r>
       <r>  -1.4595  1.0000</r>
       <r>  -1.3685  1.0000</r>
       <r>  -1.3685  1.0000</r>
       <r>  -1.3372  1.0000</r>
       <r>   2.2766  0.0000</r>
       <r>   2.2766  0.0000</r>
       <r>   4.2852  0.0000</r>
       <r>   6.5919  0.0000</r>
       <r>   8.1394  0.0000</r>
       <r>   8.5010  0.0000</r>
       <r>   8.5010  0.0000</r>
      </set>
      <set comment="kpoint 15">
       <r>  -3.8204  1.0000</r>
       <r>  -3.3261  1.0000</r>
       <r>  -3.2694  1.0000</r>
       <r>  -3.2636  1.0000</r>
       <r>  -3.2409  1.0000</r>
       <r>  -3.2245  1.0000</r>
       <r>  -3.1116  1.0000</r>
       <r>  -2.6773  1.0000</r>
       <r>  -2.3788  1.0000</r>
       <r>  -2.3676  1.0000</r>
       <r>  -2.0082  1.0000</r>
       <r>  -1.9596  1.0000</r>
       <r>  -1.8847  1.0000</r>
       <r>  -1.8432  1.0000</r>
       <r>  -1.7929  1.0000</r>
       <r>  -1.6614  1.0000</r>
       <r>  -1.5603  1.0000</r>
       <r>  -1.4925  1.0000</r>
       <r>  -1.4837  1.0000</r>
       <r>  -1.3700  1.0000</r>
       <r>  -1.3629  1.0000</r>
       <r>   1.2369  1.0000</r>
       <r>   2.7202  0.0000</r>
       <r>   4.7863  0.0000</r>
       <r>   6.4930  0.0000</r>
       <r>   7.3984  0.0000</r>
       <r>   8.5452  0.0000</r>
       <r>   9.6006  0.0000</r>
      </set>
      <set comment="kpoint 16">
       <r>  -3.4979  1.0000</r>
       <r>  -3.2123  1.0000</r>
       <r>  -3.1845  1.0000</r>
       <r>  -3.1520  1.0000</r>
       <r>  -3.1078  1.0000</r>
       <r>  -3.0732  1.0000</r>
       <r>  -2.9614  1.0000</r>
       <r>  -2.7629  1.0000</r>
       <r>  -2.3391  1.0000</r>
       <r>  -2.2718  1.0000</r>
       <r>  -2.2299  1.0000</r>
       <r>  -2.1406  1.0000</r>
       <r>  -2.0010  1.0000</r>
       <r>  -1.9959  1.0000</r>
       <r>  -1.7630  1.0000</r>
       <r>  -1.6923  1.0000</r>
       <r>  -1.6827  1.0000</r>
       <r>  -1.6453  1.0000</r>
       <r>  -1.5369  1.0000</r>
       <r>  -1.3725  1.0000</r>
       <r>  -1.3717  1.0000</r>
       <r>   0.2844  1.0000</r>
       <r>   3.2572  0.0000</r>
       <r>   5.4199  0.0000</r>
       <r>   5.9589  0.0000</r>
       <r>   7.2290  0.0000</r>
       <r>   8.4132  0.0000</r>
       <r>   8.7097  0.0000</r>
      </set>
      <set comment="kpoint 17">
       <r>  -3.1899  1.0000</r>
       <r>  -3.0844  1.0000</r>
       <r>  -3.0764  1.0000</r>
       <r>  -3.0507  1.0000</r>
       <r>  -2.9972  1.0000</r>
       <r>  -2.8827  1.0000</r>
       <r>  -2.8656  1.0000</r>
       <r>  -2.8178  1.0000</r>
       <r>  -2.4803  1.0000</r>
       <r>  -2.4058  1.0000</r>
       <r>  -2.3517  1.0000</r>
       <r>  -2.1670  1.0000</r>
       <r>  -2.1359  1.0000</r>
       <r>  -1.8754  1.0000</r>
       <r>  -1.8474  1.0000</r>
       <r>  -1.8122  1.0000</r>
       <r>  -1.7998  1.0000</r>
       <r>  -1.6169  1.0000</r>
       <r>  -1.5137  1.0000</r>
       <r>  -1.3752  1.0000</r>
       <r>  -1.3735  1.0000</r>
       <r>  -0.5284  1.0000</r>
       <r>   3.8616  0.0000</r>
       <r>   5.2317  0.0000</r>
       <r>   6.1530  0.0000</r>
       <r>   7.3996  0.0000</r>
       <r>   7.8195  0.0000</r>
       <r>   8.0686  0.0000</r>
      </set>
      <set comment="kpoint 18">
       <r>  -3.0285  1.0000</r>
       <r>  -3.0285  1.0000</r>
       <r>  -2.9763  1.0000</r>
       <r>  -2.9763  1.0000</r>
       <r>  -2.9756  1.0000</r>
       <r>  -2.9756  1.0000</r>
       <r>  -2.6769  1.0000</r>
       <r>  -2.6769  1.0000</r>
       <r>  -2.6576  1.0000</r>
       <r>  -2.6576  1.0000</r>
       <r>  -2.3067  1.0000</r>
       <r>  -2.3067  1.0000</r>
       <r>  -1.9796  1.0000</r>
       <r>  -1.9796  1.0000</r>
       <r>  -1.8667  1.0000</r>
       <r>  -1.8667  1.0000</r>
       <r>  -1.7277  1.0000</r>
       <r>  -1.7277  1.0000</r>
       <r>  -1.3750  1.0000</r>
       <r>  -1.3750  1.0000</r>
       <r>  -1.1452  1.0000</r>
       <r>  -1.1452  1.0000</r>
       <r>   4.5221  0.0000</r>
       <r>   4.5221  0.0000</r>
       <r>   6.9600  0.0000</r>
       <r>   6.9600  0.0000</r>
       <r>   7.6980  0.0000</r>
       <r>   7.6980  0.0000</r>
      </set>
      <set comment="kpoint 19">
       <r>  -3.5895  1.0000</r>
       <r>  -3.2746  1.0000</r>
       <r>  -3.1680  1.0000</r>
       <r>  -3.1680  1.0000</r>
       <r>  -3.1433  1.0000</r>
       <r>  -3.1433  1.0000</r>
       <r>  -2.9760  1.0000</r>
       <r>  -2.6958  1.0000</r>
       <r>  -2.3428  1.0000</r>
       <r>  -2.3390  1.0000</r>
       <r>  -2.0992  1.0000</r>
       <r>  -2.0992  1.0000</r>
       <r>  -2.0421  1.0000</r>
       <r>  -2.0195  1.0000</r>
       <r>  -1.7348  1.0000</r>
       <r>  -1.6905  1.0000</r>
       <r>  -1.5697  1.0000</r>
       <r>  -1.5697  1.0000</r>
       <r>  -1.4951  1.0000</r>
       <r>  -1.4951  1.0000</r>
       <r>  -1.4315  1.0000</r>
       <r>   1.6708  0.0000</r>
       <r>   1.6708  0.0000</r>
       <r>   5.2588  0.0000</r>
       <r>   5.8407  0.0000</r>
       <r>   7.1774  0.0000</r>
       <r>   9.5937  0.0000</r>
       <r>   9.5937  0.0000</r>
      </set>
      <set comment="kpoint 20">
       <r>  -3.3119  1.0000</r>
       <r>  -3.1838  1.0000</r>
       <r>  -3.0940  1.0000</r>
       <r>  -3.0286  1.0000</r>
       <r>  -3.0237  1.0000</r>
       <r>  -3.0045  1.0000</r>
       <r>  -2.8321  1.0000</r>
       <r>  -2.7483  1.0000</r>
       <r>  -2.3514  1.0000</r>
       <r>  -2.3456  1.0000</r>
       <r>  -2.2536  1.0000</r>
       <r>  -2.2491  1.0000</r>
       <r>  -2.2124  1.0000</r>
       <r>  -2.0446  1.0000</r>
       <r>  -1.8221  1.0000</r>
       <r>  -1.6863  1.0000</r>
       <r>  -1.6486  1.0000</r>
       <r>  -1.6154  1.0000</r>
       <r>  -1.5104  1.0000</r>
       <r>  -1.4979  1.0000</r>
       <r>  -1.4727  1.0000</r>
       <r>   0.7148  1.0000</r>
       <r>   2.1931  0.0000</r>
       <r>   4.9919  0.0000</r>
       <r>   5.8648  0.0000</r>
       <r>   7.3150  0.0000</r>
       <r>   9.0106  0.0000</r>
       <r>   9.0949  0.0000</r>
      </set>
      <set comment="kpoint 21">
       <r>  -3.0590  1.0000</r>
       <r>  -3.0487  1.0000</r>
       <r>  -3.0078  1.0000</r>
       <r>  -2.9110  1.0000</r>
       <r>  -2.8959  1.0000</r>
       <r>  -2.8547  1.0000</r>
       <r>  -2.8258  1.0000</r>
       <r>  -2.7147  1.0000</r>
       <r>  -2.5603  1.0000</r>
       <r>  -2.4327  1.0000</r>
       <r>  -2.4134  1.0000</r>
       <r>  -2.3909  1.0000</r>
       <r>  -2.1297  1.0000</r>
       <r>  -1.9510  1.0000</r>
       <r>  -1.8915  1.0000</r>
       <r>  -1.8148  1.0000</r>
       <r>  -1.8082  1.0000</r>
       <r>  -1.6984  1.0000</r>
       <r>  -1.4998  1.0000</r>
       <r>  -1.4918  1.0000</r>
       <r>  -1.2204  1.0000</r>
       <r>  -0.1075  1.0000</r>
       <r>   2.7868  0.0000</r>
       <r>   4.1845  0.0000</r>
       <r>   6.5743  0.0000</r>
       <r>   7.5851  0.0000</r>
       <r>   8.2100  0.0000</r>
       <r>   8.4420  0.0000</r>
      </set>
      <set comment="kpoint 22">
       <r>  -2.9254  1.0000</r>
       <r>  -2.9254  1.0000</r>
       <r>  -2.9157  1.0000</r>
       <r>  -2.9157  1.0000</r>
       <r>  -2.8894  1.0000</r>
       <r>  -2.8894  1.0000</r>
       <r>  -2.6558  1.0000</r>
       <r>  -2.6558  1.0000</r>
       <r>  -2.6526  1.0000</r>
       <r>  -2.6526  1.0000</r>
       <r>  -2.4640  1.0000</r>
       <r>  -2.4640  1.0000</r>
       <r>  -1.9794  1.0000</r>
       <r>  -1.9794  1.0000</r>
       <r>  -1.8917  1.0000</r>
       <r>  -1.8917  1.0000</r>
       <r>  -1.8163  1.0000</r>
       <r>  -1.8163  1.0000</r>
       <r>  -1.4989  1.0000</r>
       <r>  -1.4989  1.0000</r>
       <r>  -0.7607  1.0000</r>
       <r>  -0.7607  1.0000</r>
       <r>   3.4495  0.0000</r>
       <r>   3.4495  0.0000</r>
       <r>   7.3629  0.0000</r>
       <r>   7.3629  0.0000</r>
       <r>   7.9618  0.0000</r>
       <r>   7.9618  0.0000</r>
      </set>
      <set comment="kpoint 23">
       <r>  -3.1213  1.0000</r>
       <r>  -3.1053  1.0000</r>
       <r>  -2.9713  1.0000</r>
       <r>  -2.9713  1.0000</r>
       <r>  -2.8735  1.0000</r>
       <r>  -2.8735  1.0000</r>
       <r>  -2.7541  1.0000</r>
       <r>  -2.6954  1.0000</r>
       <r>  -2.4784  1.0000</r>
       <r>  -2.4784  1.0000</r>
       <r>  -2.3331  1.0000</r>
       <r>  -2.3287  1.0000</r>
       <r>  -2.1998  1.0000</r>
       <r>  -2.1043  1.0000</r>
       <r>  -1.8968  1.0000</r>
       <r>  -1.7275  1.0000</r>
       <r>  -1.7275  1.0000</r>
       <r>  -1.6508  1.0000</r>
       <r>  -1.6508  1.0000</r>
       <r>  -1.5572  1.0000</r>
       <r>  -1.2343  1.0000</r>
       <r>   1.2267  1.0000</r>
       <r>   1.2267  1.0000</r>
       <r>   4.0647  0.0000</r>
       <r>   6.4427  0.0000</r>
       <r>   7.5382  0.0000</r>
       <r>   9.5082  0.0000</r>
       <r>   9.5082  0.0000</r>
      </set>
      <set comment="kpoint 24">
       <r>  -3.0240  1.0000</r>
       <r>  -2.9211  1.0000</r>
       <r>  -2.9068  1.0000</r>
       <r>  -2.8216  1.0000</r>
       <r>  -2.7878  1.0000</r>
       <r>  -2.7780  1.0000</r>
       <r>  -2.7428  1.0000</r>
       <r>  -2.6264  1.0000</r>
       <r>  -2.5903  1.0000</r>
       <r>  -2.5867  1.0000</r>
       <r>  -2.4827  1.0000</r>
       <r>  -2.3977  1.0000</r>
       <r>  -2.1025  1.0000</r>
       <r>  -2.0574  1.0000</r>
       <r>  -1.9578  1.0000</r>
       <r>  -1.8513  1.0000</r>
       <r>  -1.8132  1.0000</r>
       <r>  -1.8109  1.0000</r>
       <r>  -1.6489  1.0000</r>
       <r>  -1.6109  1.0000</r>
       <r>  -0.8443  1.0000</r>
       <r>   0.3861  1.0000</r>
       <r>   1.8121  0.0000</r>
       <r>   3.2241  0.0000</r>
       <r>   7.1269  0.0000</r>
       <r>   7.8661  0.0000</r>
       <r>   8.7277  0.0000</r>
       <r>   8.8484  0.0000</r>
      </set>
      <set comment="kpoint 25">
       <r>  -2.8945  1.0000</r>
       <r>  -2.8945  1.0000</r>
       <r>  -2.8424  1.0000</r>
       <r>  -2.8424  1.0000</r>
       <r>  -2.7772  1.0000</r>
       <r>  -2.7772  1.0000</r>
       <r>  -2.6539  1.0000</r>
       <r>  -2.6539  1.0000</r>
       <r>  -2.5783  1.0000</r>
       <r>  -2.5783  1.0000</r>
       <r>  -2.5290  1.0000</r>
       <r>  -2.5290  1.0000</r>
       <r>  -1.9690  1.0000</r>
       <r>  -1.9690  1.0000</r>
       <r>  -1.9464  1.0000</r>
       <r>  -1.9464  1.0000</r>
       <r>  -1.9310  1.0000</r>
       <r>  -1.9310  1.0000</r>
       <r>  -1.6382  1.0000</r>
       <r>  -1.6382  1.0000</r>
       <r>  -0.3080  1.0000</r>
       <r>  -0.3080  1.0000</r>
       <r>   2.4751  0.0000</r>
       <r>   2.4751  0.0000</r>
       <r>   7.8949  0.0000</r>
       <r>   7.8949  0.0000</r>
       <r>   8.3010  0.0000</r>
       <r>   8.3010  0.0000</r>
      </set>
      <set comment="kpoint 26">
       <r>  -2.9643  1.0000</r>
       <r>  -2.8437  1.0000</r>
       <r>  -2.7898  1.0000</r>
       <r>  -2.7898  1.0000</r>
       <r>  -2.7662  1.0000</r>
       <r>  -2.7492  1.0000</r>
       <r>  -2.7492  1.0000</r>
       <r>  -2.5741  1.0000</r>
       <r>  -2.5741  1.0000</r>
       <r>  -2.5627  1.0000</r>
       <r>  -2.4785  1.0000</r>
       <r>  -2.3493  1.0000</r>
       <r>  -2.1322  1.0000</r>
       <r>  -2.0401  1.0000</r>
       <r>  -2.0283  1.0000</r>
       <r>  -1.9362  1.0000</r>
       <r>  -1.9362  1.0000</r>
       <r>  -1.8011  1.0000</r>
       <r>  -1.8011  1.0000</r>
       <r>  -1.7071  1.0000</r>
       <r>  -0.3684  1.0000</r>
       <r>   0.9557  1.0000</r>
       <r>   0.9557  1.0000</r>
       <r>   2.3661  0.0000</r>
       <r>   7.7873  0.0000</r>
       <r>   8.2473  0.0000</r>
       <r>   9.3395  0.0000</r>
       <r>   9.3421  0.0000</r>
      </set>
      <set comment="kpoint 27">
       <r>  -2.8740  1.0000</r>
       <r>  -2.8740  1.0000</r>
       <r>  -2.7940  1.0000</r>
       <r>  -2.7940  1.0000</r>
       <r>  -2.7682  1.0000</r>
       <r>  -2.7682  1.0000</r>
       <r>  -2.6696  1.0000</r>
       <r>  -2.6696  1.0000</r>
       <r>  -2.4608  1.0000</r>
       <r>  -2.4608  1.0000</r>
       <r>  -2.4352  1.0000</r>
       <r>  -2.4352  1.0000</r>
       <r>  -2.0534  1.0000</r>
       <r>  -2.0534  1.0000</r>
       <r>  -2.0324  1.0000</r>
       <r>  -2.0324  1.0000</r>
       <r>  -1.9369  1.0000</r>
       <r>  -1.9369  1.0000</r>
       <r>  -1.7691  1.0000</r>
       <r>  -1.7691  1.0000</r>
       <r>   0.2281  1.0000</r>
       <r>   0.2281  1.0000</r>
       <r>   1.6120  0.9681</r>
       <r>   1.6120  0.9681</r>
       <r>   8.5350  0.0000</r>
       <r>   8.5350  0.0000</r>
       <r>   8.7363  0.0000</r>
       <r>   8.7363  0.0000</r>
      </set>
      <set comment="kpoint 28">
       <r>  -2.8421  1.0000</r>
       <r>  -2.8421  1.0000</r>
       <r>  -2.8421  1.0000</r>
       <r>  -2.8421  1.0000</r>
       <r>  -2.7075  1.0000</r>
       <r>  -2.7075  1.0000</r>
       <r>  -2.7075  1.0000</r>
       <r>  -2.7075  1.0000</r>
       <r>  -2.3713  1.0000</r>
       <r>  -2.3713  1.0000</r>
       <r>  -2.3713  1.0000</r>
       <r>  -2.3713  1.0000</r>
       <r>  -2.1090  1.0000</r>
       <r>  -2.1090  1.0000</r>
       <r>  -2.1090  1.0000</r>
       <r>  -2.1090  1.0000</r>
       <r>  -1.8718  1.0000</r>
       <r>  -1.8718  1.0000</r>
       <r>  -1.8718  1.0000</r>
       <r>  -1.8718  1.0000</r>
       <r>   0.8642  1.0000</r>
       <r>   0.8642  1.0000</r>
       <r>   0.8642  1.0000</r>
       <r>   0.8642  1.0000</r>
       <r>   9.2641  0.0000</r>
       <r>   9.2641  0.0000</r>
       <r>   9.2641  0.0000</r>
       <r>   9.2770  0.0000</r>
      </set>
      <set comment="kpoint 29">
       <r>  -4.3595  1.0000</r>
       <r>  -3.4751  1.0000</r>
       <r>  -3.4751  1.0000</r>
       <r>  -3.4751  1.0000</r>
       <r>  -3.4124  1.0000</r>
       <r>  -3.4124  1.0000</r>
       <r>  -3.4124  1.0000</r>
       <r>  -2.5640  1.0000</r>
       <r>  -2.5006  1.0000</r>
       <r>  -2.5006  1.0000</r>
       <r>  -1.9031  1.0000</r>
       <r>  -1.9031  1.0000</r>
       <r>  -1.4755  1.0000</r>
       <r>  -1.4755  1.0000</r>
       <r>  -1.4755  1.0000</r>
       <r>  -1.4108  1.0000</r>
       <r>  -1.4108  1.0000</r>
       <r>  -1.4108  1.0000</r>
       <r>  -1.2937  1.0000</r>
       <r>  -1.2937  1.0000</r>
       <r>  -1.2937  1.0000</r>
       <r>   3.0816  0.0000</r>
       <r>   3.0816  0.0000</r>
       <r>   3.0816  0.0000</r>
       <r>   7.1593  0.0000</r>
       <r>   7.1593  0.0000</r>
       <r>   7.1593  0.0000</r>
       <r>  10.0632  0.0000</r>
      </set>
      <set comment="kpoint 30">
       <r>  -4.1902  1.0000</r>
       <r>  -3.4203  1.0000</r>
       <r>  -3.4182  1.0000</r>
       <r>  -3.4182  1.0000</r>
       <r>  -3.3656  1.0000</r>
       <r>  -3.3280  1.0000</r>
       <r>  -3.3280  1.0000</r>
       <r>  -2.6000  1.0000</r>
       <r>  -2.4592  1.0000</r>
       <r>  -2.4570  1.0000</r>
       <r>  -1.9462  1.0000</r>
       <r>  -1.8738  1.0000</r>
       <r>  -1.6109  1.0000</r>
       <r>  -1.6109  1.0000</r>
       <r>  -1.5345  1.0000</r>
       <r>  -1.5144  1.0000</r>
       <r>  -1.5144  1.0000</r>
       <r>  -1.4966  1.0000</r>
       <r>  -1.3343  1.0000</r>
       <r>  -1.3025  1.0000</r>
       <r>  -1.3025  1.0000</r>
       <r>   2.0778  0.0000</r>
       <r>   3.3972  0.0000</r>
       <r>   3.3972  0.0000</r>
       <r>   7.2189  0.0000</r>
       <r>   7.2189  0.0000</r>
       <r>   8.4538  0.0000</r>
       <r>   9.2058  0.0000</r>
      </set>
      <set comment="kpoint 31">
       <r>  -3.9215  1.0000</r>
       <r>  -3.3409  1.0000</r>
       <r>  -3.3214  1.0000</r>
       <r>  -3.3214  1.0000</r>
       <r>  -3.2865  1.0000</r>
       <r>  -3.2025  1.0000</r>
       <r>  -3.2025  1.0000</r>
       <r>  -2.6711  1.0000</r>
       <r>  -2.3856  1.0000</r>
       <r>  -2.3835  1.0000</r>
       <r>  -1.9943  1.0000</r>
       <r>  -1.8612  1.0000</r>
       <r>  -1.8612  1.0000</r>
       <r>  -1.8271  1.0000</r>
       <r>  -1.6304  1.0000</r>
       <r>  -1.6294  1.0000</r>
       <r>  -1.6093  1.0000</r>
       <r>  -1.6093  1.0000</r>
       <r>  -1.3923  1.0000</r>
       <r>  -1.3087  1.0000</r>
       <r>  -1.3087  1.0000</r>
       <r>   1.0384  1.0000</r>
       <r>   3.8650  0.0000</r>
       <r>   3.8650  0.0000</r>
       <r>   7.2731  0.0000</r>
       <r>   7.2731  0.0000</r>
       <r>   8.4226  0.0000</r>
       <r>   8.4226  0.0000</r>
      </set>
      <set comment="kpoint 32">
       <r>  -3.5863  1.0000</r>
       <r>  -3.2493  1.0000</r>
       <r>  -3.1930  1.0000</r>
       <r>  -3.1930  1.0000</r>
       <r>  -3.1810  1.0000</r>
       <r>  -3.0499  1.0000</r>
       <r>  -3.0499  1.0000</r>
       <r>  -2.7645  1.0000</r>
       <r>  -2.3148  1.0000</r>
       <r>  -2.2889  1.0000</r>
       <r>  -2.1403  1.0000</r>
       <r>  -2.1403  1.0000</r>
       <r>  -1.9777  1.0000</r>
       <r>  -1.7972  1.0000</r>
       <r>  -1.7660  1.0000</r>
       <r>  -1.7545  1.0000</r>
       <r>  -1.7217  1.0000</r>
       <r>  -1.7217  1.0000</r>
       <r>  -1.4616  1.0000</r>
       <r>  -1.3122  1.0000</r>
       <r>  -1.3122  1.0000</r>
       <r>   0.0795  1.0000</r>
       <r>   4.4353  0.0000</r>
       <r>   4.4353  0.0000</r>
       <r>   7.0677  0.0000</r>
       <r>   7.0677  0.0000</r>
       <r>   8.0090  0.0000</r>
       <r>   8.0090  0.0000</r>
      </set>
      <set comment="kpoint 33">
       <r>  -3.2702  1.0000</r>
       <r>  -3.1582  1.0000</r>
       <r>  -3.0706  1.0000</r>
       <r>  -3.0635  1.0000</r>
       <r>  -3.0635  1.0000</r>
       <r>  -2.8808  1.0000</r>
       <r>  -2.8808  1.0000</r>
       <r>  -2.8696  1.0000</r>
       <r>  -2.4124  1.0000</r>
       <r>  -2.4124  1.0000</r>
       <r>  -2.2773  1.0000</r>
       <r>  -2.1705  1.0000</r>
       <r>  -1.9867  1.0000</r>
       <r>  -1.8940  1.0000</r>
       <r>  -1.8226  1.0000</r>
       <r>  -1.8226  1.0000</r>
       <r>  -1.7878  1.0000</r>
       <r>  -1.6945  1.0000</r>
       <r>  -1.5377  1.0000</r>
       <r>  -1.3138  1.0000</r>
       <r>  -1.3138  1.0000</r>
       <r>  -0.7452  1.0000</r>
       <r>   5.0687  0.0000</r>
       <r>   5.0687  0.0000</r>
       <r>   6.4599  0.0000</r>
       <r>   6.4599  0.0000</r>
       <r>   8.0934  0.0000</r>
       <r>   8.0934  0.0000</r>
      </set>
      <set comment="kpoint 34">
       <r>  -3.1217  1.0000</r>
       <r>  -3.1217  1.0000</r>
       <r>  -3.0045  1.0000</r>
       <r>  -3.0045  1.0000</r>
       <r>  -2.9728  1.0000</r>
       <r>  -2.9728  1.0000</r>
       <r>  -2.7245  1.0000</r>
       <r>  -2.7245  1.0000</r>
       <r>  -2.6107  1.0000</r>
       <r>  -2.6107  1.0000</r>
       <r>  -2.1700  1.0000</r>
       <r>  -2.1700  1.0000</r>
       <r>  -2.0362  1.0000</r>
       <r>  -2.0362  1.0000</r>
       <r>  -1.8656  1.0000</r>
       <r>  -1.8656  1.0000</r>
       <r>  -1.6168  1.0000</r>
       <r>  -1.6168  1.0000</r>
       <r>  -1.3816  1.0000</r>
       <r>  -1.3816  1.0000</r>
       <r>  -1.3143  1.0000</r>
       <r>  -1.3143  1.0000</r>
       <r>   5.6423  0.0000</r>
       <r>   5.6423  0.0000</r>
       <r>   5.8714  0.0000</r>
       <r>   5.8714  0.0000</r>
       <r>   8.2102  0.0000</r>
       <r>   8.2102  0.0000</r>
      </set>
      <set comment="kpoint 35">
       <r>  -4.0313  1.0000</r>
       <r>  -3.3870  1.0000</r>
       <r>  -3.3689  1.0000</r>
       <r>  -3.3689  1.0000</r>
       <r>  -3.2779  1.0000</r>
       <r>  -3.2779  1.0000</r>
       <r>  -3.2276  1.0000</r>
       <r>  -2.6051  1.0000</r>
       <r>  -2.4418  1.0000</r>
       <r>  -2.4244  1.0000</r>
       <r>  -1.9522  1.0000</r>
       <r>  -1.8660  1.0000</r>
       <r>  -1.7160  1.0000</r>
       <r>  -1.7160  1.0000</r>
       <r>  -1.7055  1.0000</r>
       <r>  -1.6094  1.0000</r>
       <r>  -1.5551  1.0000</r>
       <r>  -1.5551  1.0000</r>
       <r>  -1.3376  1.0000</r>
       <r>  -1.3376  1.0000</r>
       <r>  -1.3317  1.0000</r>
       <r>   2.3723  0.0000</r>
       <r>   2.3723  0.0000</r>
       <r>   3.6909  0.0000</r>
       <r>   7.1996  0.0000</r>
       <r>   8.3036  0.0000</r>
       <r>   8.4507  0.0000</r>
       <r>   8.4507  0.0000</r>
      </set>
      <set comment="kpoint 36">
       <r>  -3.7829  1.0000</r>
       <r>  -3.3134  1.0000</r>
       <r>  -3.2982  1.0000</r>
       <r>  -3.2760  1.0000</r>
       <r>  -3.1930  1.0000</r>
       <r>  -3.1521  1.0000</r>
       <r>  -3.0943  1.0000</r>
       <r>  -2.6487  1.0000</r>
       <r>  -2.3839  1.0000</r>
       <r>  -2.3730  1.0000</r>
       <r>  -1.9813  1.0000</r>
       <r>  -1.9675  1.0000</r>
       <r>  -1.9163  1.0000</r>
       <r>  -1.8524  1.0000</r>
       <r>  -1.8063  1.0000</r>
       <r>  -1.6875  1.0000</r>
       <r>  -1.6503  1.0000</r>
       <r>  -1.6251  1.0000</r>
       <r>  -1.3863  1.0000</r>
       <r>  -1.3573  1.0000</r>
       <r>  -1.3558  1.0000</r>
       <r>   1.3280  1.0000</r>
       <r>   2.8049  0.0000</r>
       <r>   4.1330  0.0000</r>
       <r>   6.8292  0.0000</r>
       <r>   7.8876  0.0000</r>
       <r>   8.1348  0.0000</r>
       <r>   9.1300  0.0000</r>
      </set>
      <set comment="kpoint 37">
       <r>  -3.4818  1.0000</r>
       <r>  -3.2170  1.0000</r>
       <r>  -3.2012  1.0000</r>
       <r>  -3.1480  1.0000</r>
       <r>  -3.0802  1.0000</r>
       <r>  -3.0069  1.0000</r>
       <r>  -2.9483  1.0000</r>
       <r>  -2.7191  1.0000</r>
       <r>  -2.3454  1.0000</r>
       <r>  -2.2986  1.0000</r>
       <r>  -2.2283  1.0000</r>
       <r>  -2.1649  1.0000</r>
       <r>  -2.0114  1.0000</r>
       <r>  -1.9373  1.0000</r>
       <r>  -1.7812  1.0000</r>
       <r>  -1.7788  1.0000</r>
       <r>  -1.7249  1.0000</r>
       <r>  -1.7083  1.0000</r>
       <r>  -1.4503  1.0000</r>
       <r>  -1.3738  1.0000</r>
       <r>  -1.3709  1.0000</r>
       <r>   0.3694  1.0000</r>
       <r>   3.3332  0.0000</r>
       <r>   4.6803  0.0000</r>
       <r>   6.0840  0.0000</r>
       <r>   7.4380  0.0000</r>
       <r>   8.0082  0.0000</r>
       <r>   9.1757  0.0000</r>
      </set>
      <set comment="kpoint 38">
       <r>  -3.2117  1.0000</r>
       <r>  -3.1381  1.0000</r>
       <r>  -3.0641  1.0000</r>
       <r>  -3.0090  1.0000</r>
       <r>  -2.9595  1.0000</r>
       <r>  -2.8694  1.0000</r>
       <r>  -2.8231  1.0000</r>
       <r>  -2.7944  1.0000</r>
       <r>  -2.4571  1.0000</r>
       <r>  -2.4047  1.0000</r>
       <r>  -2.3644  1.0000</r>
       <r>  -2.1924  1.0000</r>
       <r>  -2.1807  1.0000</r>
       <r>  -1.9256  1.0000</r>
       <r>  -1.8617  1.0000</r>
       <r>  -1.8284  1.0000</r>
       <r>  -1.7760  1.0000</r>
       <r>  -1.5316  1.0000</r>
       <r>  -1.5241  1.0000</r>
       <r>  -1.3817  1.0000</r>
       <r>  -1.3798  1.0000</r>
       <r>  -0.4577  1.0000</r>
       <r>   3.9326  0.0000</r>
       <r>   5.2608  0.0000</r>
       <r>   5.3554  0.0000</r>
       <r>   6.6927  0.0000</r>
       <r>   8.3216  0.0000</r>
       <r>   9.1205  0.0000</r>
      </set>
      <set comment="kpoint 39">
       <r>  -3.1009  1.0000</r>
       <r>  -3.1009  1.0000</r>
       <r>  -2.9592  1.0000</r>
       <r>  -2.9592  1.0000</r>
       <r>  -2.8632  1.0000</r>
       <r>  -2.8632  1.0000</r>
       <r>  -2.7768  1.0000</r>
       <r>  -2.7768  1.0000</r>
       <r>  -2.5567  1.0000</r>
       <r>  -2.5567  1.0000</r>
       <r>  -2.3228  1.0000</r>
       <r>  -2.3228  1.0000</r>
       <r>  -2.0663  1.0000</r>
       <r>  -2.0663  1.0000</r>
       <r>  -1.8865  1.0000</r>
       <r>  -1.8865  1.0000</r>
       <r>  -1.6334  1.0000</r>
       <r>  -1.6334  1.0000</r>
       <r>  -1.3833  1.0000</r>
       <r>  -1.3833  1.0000</r>
       <r>  -1.1087  1.0000</r>
       <r>  -1.1087  1.0000</r>
       <r>   4.5926  0.0000</r>
       <r>   4.5926  0.0000</r>
       <r>   5.9778  0.0000</r>
       <r>   5.9778  0.0000</r>
       <r>   8.7348  0.0000</r>
       <r>   8.7348  0.0000</r>
      </set>
      <set comment="kpoint 40">
       <r>  -3.5742  1.0000</r>
       <r>  -3.2657  1.0000</r>
       <r>  -3.2136  1.0000</r>
       <r>  -3.2136  1.0000</r>
       <r>  -3.0649  1.0000</r>
       <r>  -3.0649  1.0000</r>
       <r>  -2.9606  1.0000</r>
       <r>  -2.6404  1.0000</r>
       <r>  -2.3569  1.0000</r>
       <r>  -2.3468  1.0000</r>
       <r>  -2.1018  1.0000</r>
       <r>  -2.1018  1.0000</r>
       <r>  -2.0388  1.0000</r>
       <r>  -2.0044  1.0000</r>
       <r>  -1.7788  1.0000</r>
       <r>  -1.7075  1.0000</r>
       <r>  -1.6932  1.0000</r>
       <r>  -1.6932  1.0000</r>
       <r>  -1.4159  1.0000</r>
       <r>  -1.4159  1.0000</r>
       <r>  -1.4092  1.0000</r>
       <r>   1.7480  0.0000</r>
       <r>   1.7480  0.0000</r>
       <r>   4.5434  0.0000</r>
       <r>   5.9532  0.0000</r>
       <r>   7.9477  0.0000</r>
       <r>   8.6577  0.0000</r>
       <r>   8.6577  0.0000</r>
      </set>
      <set comment="kpoint 41">
       <r>  -3.3375  1.0000</r>
       <r>  -3.1790  1.0000</r>
       <r>  -3.1458  1.0000</r>
       <r>  -3.0923  1.0000</r>
       <r>  -2.9457  1.0000</r>
       <r>  -2.9260  1.0000</r>
       <r>  -2.8254  1.0000</r>
       <r>  -2.6602  1.0000</r>
       <r>  -2.3456  1.0000</r>
       <r>  -2.3380  1.0000</r>
       <r>  -2.2950  1.0000</r>
       <r>  -2.2465  1.0000</r>
       <r>  -2.2177  1.0000</r>
       <r>  -1.9791  1.0000</r>
       <r>  -1.8617  1.0000</r>
       <r>  -1.8083  1.0000</r>
       <r>  -1.7671  1.0000</r>
       <r>  -1.5275  1.0000</r>
       <r>  -1.4871  1.0000</r>
       <r>  -1.4506  1.0000</r>
       <r>  -1.4498  1.0000</r>
       <r>   0.7817  1.0000</r>
       <r>   2.2604  0.0000</r>
       <r>   5.0599  0.0000</r>
       <r>   5.0660  0.0000</r>
       <r>   7.8239  0.0000</r>
       <r>   8.2067  0.0000</r>
       <r>   9.1825  0.0000</r>
      </set>
      <set comment="kpoint 42">
       <r>  -3.1427  1.0000</r>
       <r>  -3.0853  1.0000</r>
       <r>  -3.0579  1.0000</r>
       <r>  -2.9443  1.0000</r>
       <r>  -2.8415  1.0000</r>
       <r>  -2.8121  1.0000</r>
       <r>  -2.7417  1.0000</r>
       <r>  -2.6832  1.0000</r>
       <r>  -2.4998  1.0000</r>
       <r>  -2.4168  1.0000</r>
       <r>  -2.3946  1.0000</r>
       <r>  -2.3842  1.0000</r>
       <r>  -2.2023  1.0000</r>
       <r>  -1.9458  1.0000</r>
       <r>  -1.9267  1.0000</r>
       <r>  -1.8612  1.0000</r>
       <r>  -1.8496  1.0000</r>
       <r>  -1.5793  1.0000</r>
       <r>  -1.4737  1.0000</r>
       <r>  -1.4733  1.0000</r>
       <r>  -1.2254  1.0000</r>
       <r>  -0.0576  1.0000</r>
       <r>   2.8483  0.0000</r>
       <r>   4.2467  0.0000</r>
       <r>   5.6592  0.0000</r>
       <r>   7.0426  0.0000</r>
       <r>   8.5919  0.0000</r>
       <r>   9.6775  0.0000</r>
      </set>
      <set comment="kpoint 43">
       <r>  -3.0631  1.0000</r>
       <r>  -3.0631  1.0000</r>
       <r>  -2.9199  1.0000</r>
       <r>  -2.9199  1.0000</r>
       <r>  -2.7943  1.0000</r>
       <r>  -2.7943  1.0000</r>
       <r>  -2.7085  1.0000</r>
       <r>  -2.7085  1.0000</r>
       <r>  -2.4992  1.0000</r>
       <r>  -2.4992  1.0000</r>
       <r>  -2.4654  1.0000</r>
       <r>  -2.4654  1.0000</r>
       <r>  -2.0827  1.0000</r>
       <r>  -2.0827  1.0000</r>
       <r>  -1.9314  1.0000</r>
       <r>  -1.9314  1.0000</r>
       <r>  -1.7005  1.0000</r>
       <r>  -1.7005  1.0000</r>
       <r>  -1.4809  1.0000</r>
       <r>  -1.4809  1.0000</r>
       <r>  -0.7374  1.0000</r>
       <r>  -0.7374  1.0000</r>
       <r>   3.5091  0.0000</r>
       <r>   3.5091  0.0000</r>
       <r>   6.3212  0.0000</r>
       <r>   6.3212  0.0000</r>
       <r>   9.0899  0.0000</r>
       <r>   9.0899  0.0000</r>
      </set>
      <set comment="kpoint 44">
       <r>  -3.1928  1.0000</r>
       <r>  -3.1242  1.0000</r>
       <r>  -3.0428  1.0000</r>
       <r>  -3.0428  1.0000</r>
       <r>  -2.8063  1.0000</r>
       <r>  -2.8063  1.0000</r>
       <r>  -2.7097  1.0000</r>
       <r>  -2.6224  1.0000</r>
       <r>  -2.4471  1.0000</r>
       <r>  -2.4471  1.0000</r>
       <r>  -2.3109  1.0000</r>
       <r>  -2.3012  1.0000</r>
       <r>  -2.2758  1.0000</r>
       <r>  -2.0129  1.0000</r>
       <r>  -1.9469  1.0000</r>
       <r>  -1.8570  1.0000</r>
       <r>  -1.8570  1.0000</r>
       <r>  -1.5410  1.0000</r>
       <r>  -1.5410  1.0000</r>
       <r>  -1.5203  1.0000</r>
       <r>  -1.2470  1.0000</r>
       <r>   1.2826  1.0000</r>
       <r>   1.2826  1.0000</r>
       <r>   4.1224  0.0000</r>
       <r>   5.5513  0.0000</r>
       <r>   8.3066  0.0000</r>
       <r>   8.3066  0.0000</r>
       <r>   8.5254  0.0000</r>
      </set>
      <set comment="kpoint 45">
       <r>  -3.0813  1.0000</r>
       <r>  -3.0376  1.0000</r>
       <r>  -3.0125  1.0000</r>
       <r>  -2.9263  1.0000</r>
       <r>  -2.7677  1.0000</r>
       <r>  -2.6696  1.0000</r>
       <r>  -2.6607  1.0000</r>
       <r>  -2.6114  1.0000</r>
       <r>  -2.5372  1.0000</r>
       <r>  -2.5085  1.0000</r>
       <r>  -2.3748  1.0000</r>
       <r>  -2.3704  1.0000</r>
       <r>  -2.2073  1.0000</r>
       <r>  -2.0087  1.0000</r>
       <r>  -1.9769  1.0000</r>
       <r>  -1.9316  1.0000</r>
       <r>  -1.9278  1.0000</r>
       <r>  -1.6485  1.0000</r>
       <r>  -1.5813  1.0000</r>
       <r>  -1.5707  1.0000</r>
       <r>  -0.8442  1.0000</r>
       <r>   0.4265  1.0000</r>
       <r>   1.8624  0.0000</r>
       <r>   3.2755  0.0000</r>
       <r>   6.1283  0.0000</r>
       <r>   7.5059  0.0000</r>
       <r>   8.8877  0.0000</r>
       <r>   8.9592  0.0000</r>
      </set>
      <set comment="kpoint 46">
       <r>  -3.0202  1.0000</r>
       <r>  -3.0202  1.0000</r>
       <r>  -2.9303  1.0000</r>
       <r>  -2.9303  1.0000</r>
       <r>  -2.7467  1.0000</r>
       <r>  -2.7467  1.0000</r>
       <r>  -2.5928  1.0000</r>
       <r>  -2.5928  1.0000</r>
       <r>  -2.5065  1.0000</r>
       <r>  -2.5065  1.0000</r>
       <r>  -2.4294  1.0000</r>
       <r>  -2.4294  1.0000</r>
       <r>  -2.1007  1.0000</r>
       <r>  -2.1007  1.0000</r>
       <r>  -2.0033  1.0000</r>
       <r>  -2.0033  1.0000</r>
       <r>  -1.7817  1.0000</r>
       <r>  -1.7817  1.0000</r>
       <r>  -1.5920  1.0000</r>
       <r>  -1.5920  1.0000</r>
       <r>  -0.2877  1.0000</r>
       <r>  -0.2877  1.0000</r>
       <r>   2.5242  0.0000</r>
       <r>   2.5242  0.0000</r>
       <r>   6.7807  0.0000</r>
       <r>   6.7807  0.0000</r>
       <r>   9.5056  0.0000</r>
       <r>   9.5056  0.0000</r>
      </set>
      <set comment="kpoint 47">
       <r>  -3.0309  1.0000</r>
       <r>  -2.9993  1.0000</r>
       <r>  -2.9494  1.0000</r>
       <r>  -2.9494  1.0000</r>
       <r>  -2.6872  1.0000</r>
       <r>  -2.6872  1.0000</r>
       <r>  -2.6566  1.0000</r>
       <r>  -2.6111  1.0000</r>
       <r>  -2.4563  1.0000</r>
       <r>  -2.4563  1.0000</r>
       <r>  -2.3311  1.0000</r>
       <r>  -2.2697  1.0000</r>
       <r>  -2.2281  1.0000</r>
       <r>  -2.0848  1.0000</r>
       <r>  -2.0300  1.0000</r>
       <r>  -2.0300  1.0000</r>
       <r>  -1.9344  1.0000</r>
       <r>  -1.7018  1.0000</r>
       <r>  -1.7018  1.0000</r>
       <r>  -1.6552  1.0000</r>
       <r>  -0.3587  1.0000</r>
       <r>   0.9931  1.0000</r>
       <r>   0.9931  1.0000</r>
       <r>   2.4100  0.0000</r>
       <r>   6.6918  0.0000</r>
       <r>   8.0717  0.0000</r>
       <r>   8.0717  0.0000</r>
       <r>   9.4348  0.0000</r>
      </set>
      <set comment="kpoint 48">
       <r>  -2.9874  1.0000</r>
       <r>  -2.9874  1.0000</r>
       <r>  -2.9527  1.0000</r>
       <r>  -2.9527  1.0000</r>
       <r>  -2.6932  1.0000</r>
       <r>  -2.6932  1.0000</r>
       <r>  -2.6373  1.0000</r>
       <r>  -2.6373  1.0000</r>
       <r>  -2.3521  1.0000</r>
       <r>  -2.3521  1.0000</r>
       <r>  -2.3396  1.0000</r>
       <r>  -2.3396  1.0000</r>
       <r>  -2.1364  1.0000</r>
       <r>  -2.1364  1.0000</r>
       <r>  -2.0936  1.0000</r>
       <r>  -2.0936  1.0000</r>
       <r>  -1.8322  1.0000</r>
       <r>  -1.8322  1.0000</r>
       <r>  -1.7054  1.0000</r>
       <r>  -1.7054  1.0000</r>
       <r>   0.2513  1.0000</r>
       <r>   0.2513  1.0000</r>
       <r>   1.6511  0.0001</r>
       <r>   1.6511  0.0001</r>
       <r>   7.3403  0.0000</r>
       <r>   7.3403  0.0000</r>
       <r>   8.7318  0.0000</r>
       <r>   8.7318  0.0000</r>
      </set>
      <set comment="kpoint 49">
       <r>  -2.9689  1.0000</r>
       <r>  -2.9689  1.0000</r>
       <r>  -2.9689  1.0000</r>
       <r>  -2.9689  1.0000</r>
       <r>  -2.6628  1.0000</r>
       <r>  -2.6628  1.0000</r>
       <r>  -2.6628  1.0000</r>
       <r>  -2.6628  1.0000</r>
       <r>  -2.2592  1.0000</r>
       <r>  -2.2592  1.0000</r>
       <r>  -2.2592  1.0000</r>
       <r>  -2.2592  1.0000</r>
       <r>  -2.1770  1.0000</r>
       <r>  -2.1770  1.0000</r>
       <r>  -2.1770  1.0000</r>
       <r>  -2.1770  1.0000</r>
       <r>  -1.8006  1.0000</r>
       <r>  -1.8006  1.0000</r>
       <r>  -1.8006  1.0000</r>
       <r>  -1.8006  1.0000</r>
       <r>   0.8943  1.0000</r>
       <r>   0.8943  1.0000</r>
       <r>   0.8943  1.0000</r>
       <r>   0.8943  1.0000</r>
       <r>   7.9916  0.0000</r>
       <r>   7.9916  0.0000</r>
       <r>   7.9916  0.0000</r>
       <r>   7.9916  0.0000</r>
      </set>
      <set comment="kpoint 50">
       <r>  -3.8907  1.0000</r>
       <r>  -3.3455  1.0000</r>
       <r>  -3.3455  1.0000</r>
       <r>  -3.3455  1.0000</r>
       <r>  -3.1736  1.0000</r>
       <r>  -3.1736  1.0000</r>
       <r>  -3.1736  1.0000</r>
       <r>  -2.5701  1.0000</r>
       <r>  -2.4244  1.0000</r>
       <r>  -2.4244  1.0000</r>
       <r>  -1.9022  1.0000</r>
       <r>  -1.9022  1.0000</r>
       <r>  -1.7907  1.0000</r>
       <r>  -1.7907  1.0000</r>
       <r>  -1.7907  1.0000</r>
       <r>  -1.6955  1.0000</r>
       <r>  -1.6954  1.0000</r>
       <r>  -1.6954  1.0000</r>
       <r>  -1.3301  1.0000</r>
       <r>  -1.3301  1.0000</r>
       <r>  -1.3301  1.0000</r>
       <r>   2.6418  0.0000</r>
       <r>   2.6418  0.0000</r>
       <r>   2.6418  0.0000</r>
       <r>   8.0113  0.0000</r>
       <r>   8.0113  0.0000</r>
       <r>   8.0113  0.0000</r>
       <r>   9.0688  0.0000</r>
      </set>
      <set comment="kpoint 51">
       <r>  -3.6786  1.0000</r>
       <r>  -3.2869  1.0000</r>
       <r>  -3.2794  1.0000</r>
       <r>  -3.2794  1.0000</r>
       <r>  -3.0833  1.0000</r>
       <r>  -3.0414  1.0000</r>
       <r>  -3.0414  1.0000</r>
       <r>  -2.5668  1.0000</r>
       <r>  -2.3905  1.0000</r>
       <r>  -2.3821  1.0000</r>
       <r>  -2.0004  1.0000</r>
       <r>  -2.0004  1.0000</r>
       <r>  -1.9229  1.0000</r>
       <r>  -1.9203  1.0000</r>
       <r>  -1.8274  1.0000</r>
       <r>  -1.8082  1.0000</r>
       <r>  -1.7593  1.0000</r>
       <r>  -1.7593  1.0000</r>
       <r>  -1.3510  1.0000</r>
       <r>  -1.3510  1.0000</r>
       <r>  -1.3493  1.0000</r>
       <r>   1.5843  1.0000</r>
       <r>   3.0470  0.0000</r>
       <r>   3.0470  0.0000</r>
       <r>   7.1724  0.0000</r>
       <r>   7.1724  0.0000</r>
       <r>   8.5257  0.0000</r>
       <r>   9.1415  0.0000</r>
      </set>
      <set comment="kpoint 52">
       <r>  -3.4386  1.0000</r>
       <r>  -3.2228  1.0000</r>
       <r>  -3.1740  1.0000</r>
       <r>  -3.1740  1.0000</r>
       <r>  -2.9621  1.0000</r>
       <r>  -2.9068  1.0000</r>
       <r>  -2.9068  1.0000</r>
       <r>  -2.5955  1.0000</r>
       <r>  -2.3588  1.0000</r>
       <r>  -2.3365  1.0000</r>
       <r>  -2.2257  1.0000</r>
       <r>  -2.2257  1.0000</r>
       <r>  -2.0786  1.0000</r>
       <r>  -1.9314  1.0000</r>
       <r>  -1.8294  1.0000</r>
       <r>  -1.8294  1.0000</r>
       <r>  -1.8161  1.0000</r>
       <r>  -1.7370  1.0000</r>
       <r>  -1.3936  1.0000</r>
       <r>  -1.3795  1.0000</r>
       <r>  -1.3795  1.0000</r>
       <r>   0.6107  1.0000</r>
       <r>   3.5524  0.0000</r>
       <r>   3.5524  0.0000</r>
       <r>   6.3164  0.0000</r>
       <r>   6.3164  0.0000</r>
       <r>   9.0573  0.0000</r>
       <r>   9.3904  0.0000</r>
      </set>
      <set comment="kpoint 53">
       <r>  -3.2428  1.0000</r>
       <r>  -3.1691  1.0000</r>
       <r>  -3.0382  1.0000</r>
       <r>  -3.0382  1.0000</r>
       <r>  -2.8302  1.0000</r>
       <r>  -2.8302  1.0000</r>
       <r>  -2.8236  1.0000</r>
       <r>  -2.6252  1.0000</r>
       <r>  -2.4010  1.0000</r>
       <r>  -2.3961  1.0000</r>
       <r>  -2.3961  1.0000</r>
       <r>  -2.2611  1.0000</r>
       <r>  -2.2441  1.0000</r>
       <r>  -2.0534  1.0000</r>
       <r>  -1.9057  1.0000</r>
       <r>  -1.9057  1.0000</r>
       <r>  -1.6401  1.0000</r>
       <r>  -1.4863  1.0000</r>
       <r>  -1.4608  1.0000</r>
       <r>  -1.4004  1.0000</r>
       <r>  -1.4004  1.0000</r>
       <r>  -0.2436  1.0000</r>
       <r>   4.1353  0.0000</r>
       <r>   4.1353  0.0000</r>
       <r>   5.5227  0.0000</r>
       <r>   5.5227  0.0000</r>
       <r>   9.6712  0.0000</r>
       <r>   9.7160  0.0000</r>
      </set>
      <set comment="kpoint 54">
       <r>  -3.1576  1.0000</r>
       <r>  -3.1576  1.0000</r>
       <r>  -2.9115  1.0000</r>
       <r>  -2.9115  1.0000</r>
       <r>  -2.8795  1.0000</r>
       <r>  -2.8795  1.0000</r>
       <r>  -2.6948  1.0000</r>
       <r>  -2.6948  1.0000</r>
       <r>  -2.4478  1.0000</r>
       <r>  -2.4478  1.0000</r>
       <r>  -2.3764  1.0000</r>
       <r>  -2.3764  1.0000</r>
       <r>  -2.1654  1.0000</r>
       <r>  -2.1654  1.0000</r>
       <r>  -1.9433  1.0000</r>
       <r>  -1.9433  1.0000</r>
       <r>  -1.5453  1.0000</r>
       <r>  -1.5453  1.0000</r>
       <r>  -1.4077  1.0000</r>
       <r>  -1.4077  1.0000</r>
       <r>  -0.9520  1.0000</r>
       <r>  -0.9520  1.0000</r>
       <r>   4.7200  0.0000</r>
       <r>   4.7200  0.0000</r>
       <r>   4.8683  0.0000</r>
       <r>   4.8683  0.0000</r>
       <r>   9.9305  0.0000</r>
       <r>   9.9305  0.0000</r>
      </set>
      <set comment="kpoint 55">
       <r>  -3.5321  1.0000</r>
       <r>  -3.2439  1.0000</r>
       <r>  -3.2348  1.0000</r>
       <r>  -3.2348  1.0000</r>
       <r>  -2.9517  1.0000</r>
       <r>  -2.9517  1.0000</r>
       <r>  -2.9135  1.0000</r>
       <r>  -2.4828  1.0000</r>
       <r>  -2.3884  1.0000</r>
       <r>  -2.3494  1.0000</r>
       <r>  -2.1147  1.0000</r>
       <r>  -2.1147  1.0000</r>
       <r>  -2.0911  1.0000</r>
       <r>  -1.9148  1.0000</r>
       <r>  -1.8787  1.0000</r>
       <r>  -1.8632  1.0000</r>
       <r>  -1.8632  1.0000</r>
       <r>  -1.7544  1.0000</r>
       <r>  -1.3723  1.0000</r>
       <r>  -1.3609  1.0000</r>
       <r>  -1.3609  1.0000</r>
       <r>   1.9701  0.0000</r>
       <r>   1.9701  0.0000</r>
       <r>   3.4186  0.0000</r>
       <r>   6.1859  0.0000</r>
       <r>   7.5646  0.0000</r>
       <r>   7.5646  0.0000</r>
       <r>   9.3367  0.0000</r>
      </set>
      <set comment="kpoint 56">
       <r>  -3.3792  1.0000</r>
       <r>  -3.1928  1.0000</r>
       <r>  -3.1719  1.0000</r>
       <r>  -3.1465  1.0000</r>
       <r>  -2.8333  1.0000</r>
       <r>  -2.8289  1.0000</r>
       <r>  -2.8020  1.0000</r>
       <r>  -2.4748  1.0000</r>
       <r>  -2.3606  1.0000</r>
       <r>  -2.3027  1.0000</r>
       <r>  -2.2975  1.0000</r>
       <r>  -2.2383  1.0000</r>
       <r>  -2.2275  1.0000</r>
       <r>  -1.9831  1.0000</r>
       <r>  -1.9529  1.0000</r>
       <r>  -1.9129  1.0000</r>
       <r>  -1.8427  1.0000</r>
       <r>  -1.5770  1.0000</r>
       <r>  -1.4079  1.0000</r>
       <r>  -1.3971  1.0000</r>
       <r>  -1.3966  1.0000</r>
       <r>   0.9788  1.0000</r>
       <r>   2.4554  0.0000</r>
       <r>   3.8869  0.0000</r>
       <r>   5.2808  0.0000</r>
       <r>   6.6733  0.0000</r>
       <r>   8.0599  0.0000</r>
       <r>   9.6423  0.0000</r>
      </set>
      <set comment="kpoint 57">
       <r>  -3.2556  1.0000</r>
       <r>  -3.1693  1.0000</r>
       <r>  -3.0701  1.0000</r>
       <r>  -3.0344  1.0000</r>
       <r>  -2.8078  1.0000</r>
       <r>  -2.7755  1.0000</r>
       <r>  -2.6835  1.0000</r>
       <r>  -2.4727  1.0000</r>
       <r>  -2.3919  1.0000</r>
       <r>  -2.3712  1.0000</r>
       <r>  -2.3511  1.0000</r>
       <r>  -2.3125  1.0000</r>
       <r>  -2.2918  1.0000</r>
       <r>  -2.1030  1.0000</r>
       <r>  -2.0108  1.0000</r>
       <r>  -1.9766  1.0000</r>
       <r>  -1.6822  1.0000</r>
       <r>  -1.4613  1.0000</r>
       <r>  -1.4388  1.0000</r>
       <r>  -1.4328  1.0000</r>
       <r>  -1.2199  1.0000</r>
       <r>   0.1006  1.0000</r>
       <r>   3.0236  0.0000</r>
       <r>   4.2682  0.0000</r>
       <r>   4.6390  0.0000</r>
       <r>   5.8664  0.0000</r>
       <r>   8.6555  0.0000</r>
       <r>  10.0463  0.0000</r>
      </set>
      <set comment="kpoint 58">
       <r>  -3.1847  1.0000</r>
       <r>  -3.1847  1.0000</r>
       <r>  -2.9738  1.0000</r>
       <r>  -2.9738  1.0000</r>
       <r>  -2.8389  1.0000</r>
       <r>  -2.8389  1.0000</r>
       <r>  -2.5316  1.0000</r>
       <r>  -2.5316  1.0000</r>
       <r>  -2.4319  1.0000</r>
       <r>  -2.4319  1.0000</r>
       <r>  -2.3409  1.0000</r>
       <r>  -2.3409  1.0000</r>
       <r>  -2.2095  1.0000</r>
       <r>  -2.2095  1.0000</r>
       <r>  -2.0264  1.0000</r>
       <r>  -2.0264  1.0000</r>
       <r>  -1.5550  1.0000</r>
       <r>  -1.5550  1.0000</r>
       <r>  -1.4489  1.0000</r>
       <r>  -1.4489  1.0000</r>
       <r>  -0.6430  1.0000</r>
       <r>  -0.6430  1.0000</r>
       <r>   3.6661  0.0000</r>
       <r>   3.6661  0.0000</r>
       <r>   5.1500  0.0000</r>
       <r>   5.1500  0.0000</r>
       <r>   9.3425  0.0000</r>
       <r>   9.3425  0.0000</r>
      </set>
      <set comment="kpoint 59">
       <r>  -3.3130  1.0000</r>
       <r>  -3.1426  1.0000</r>
       <r>  -3.1352  1.0000</r>
       <r>  -3.1352  1.0000</r>
       <r>  -2.7324  1.0000</r>
       <r>  -2.7324  1.0000</r>
       <r>  -2.7277  1.0000</r>
       <r>  -2.4696  1.0000</r>
       <r>  -2.3642  1.0000</r>
       <r>  -2.3538  1.0000</r>
       <r>  -2.3538  1.0000</r>
       <r>  -2.2327  1.0000</r>
       <r>  -2.1489  1.0000</r>
       <r>  -2.0537  1.0000</r>
       <r>  -2.0154  1.0000</r>
       <r>  -2.0154  1.0000</r>
       <r>  -1.8793  1.0000</r>
       <r>  -1.4523  1.0000</r>
       <r>  -1.4375  1.0000</r>
       <r>  -1.4375  1.0000</r>
       <r>  -1.2801  1.0000</r>
       <r>   1.4488  1.0000</r>
       <r>   1.4488  1.0000</r>
       <r>   4.1066  0.0000</r>
       <r>   4.5642  0.0000</r>
       <r>   7.1481  0.0000</r>
       <r>   7.1481  0.0000</r>
       <r>   9.9843  0.0000</r>
      </set>
      <set comment="kpoint 60">
       <r>  -3.2471  1.0000</r>
       <r>  -3.1495  1.0000</r>
       <r>  -3.0931  1.0000</r>
       <r>  -3.0713  1.0000</r>
       <r>  -2.7415  1.0000</r>
       <r>  -2.7245  1.0000</r>
       <r>  -2.6253  1.0000</r>
       <r>  -2.4984  1.0000</r>
       <r>  -2.3702  1.0000</r>
       <r>  -2.3440  1.0000</r>
       <r>  -2.3289  1.0000</r>
       <r>  -2.2195  1.0000</r>
       <r>  -2.1545  1.0000</r>
       <r>  -2.1163  1.0000</r>
       <r>  -2.1156  1.0000</r>
       <r>  -2.0573  1.0000</r>
       <r>  -1.7642  1.0000</r>
       <r>  -1.5096  1.0000</r>
       <r>  -1.4953  1.0000</r>
       <r>  -1.4863  1.0000</r>
       <r>  -0.8305  1.0000</r>
       <r>   0.5539  1.0000</r>
       <r>   2.0095  0.0000</r>
       <r>   3.3981  0.0000</r>
       <r>   4.9730  0.0000</r>
       <r>   6.3284  0.0000</r>
       <r>   7.7291  0.0000</r>
       <r>   9.1732  0.0000</r>
      </set>
      <set comment="kpoint 61">
       <r>  -3.1894  1.0000</r>
       <r>  -3.1894  1.0000</r>
       <r>  -3.0515  1.0000</r>
       <r>  -3.0515  1.0000</r>
       <r>  -2.7581  1.0000</r>
       <r>  -2.7581  1.0000</r>
       <r>  -2.5455  1.0000</r>
       <r>  -2.5455  1.0000</r>
       <r>  -2.3425  1.0000</r>
       <r>  -2.3425  1.0000</r>
       <r>  -2.2452  1.0000</r>
       <r>  -2.2452  1.0000</r>
       <r>  -2.1821  1.0000</r>
[...]
       <r>   0.9875  1.0000</r>
       <r>   0.9875  1.0000</r>
       <r>   0.9875  1.0000</r>
       <r>   6.8133  0.0000</r>
       <r>   6.8133  0.0000</r>
       <r>   6.8133  0.0000</r>
       <r>   6.8133  0.0000</r>
      </set>
      <set comment="kpoint 65">
       <r>  -3.4716  1.0000</r>
       <r>  -3.2217  1.0000</r>
       <r>  -3.2217  1.0000</r>
       <r>  -3.2217  1.0000</r>
       <r>  -2.8340  1.0000</r>
       <r>  -2.8340  1.0000</r>
       <r>  -2.8340  1.0000</r>
       <r>  -2.4071  1.0000</r>
       <r>  -2.4071  1.0000</r>
       <r>  -2.1837  1.0000</r>
       <r>  -2.1607  1.0000</r>
       <r>  -2.1607  1.0000</r>
       <r>  -2.1607  1.0000</r>
       <r>  -1.9974  1.0000</r>
       <r>  -1.9974  1.0000</r>
       <r>  -1.9974  1.0000</r>
       <r>  -1.8031  1.0000</r>
       <r>  -1.8031  1.0000</r>
       <r>  -1.3536  1.0000</r>
       <r>  -1.3536  1.0000</r>
       <r>  -1.3536  1.0000</r>
       <r>   2.3151  0.0000</r>
       <r>   2.3151  0.0000</r>
       <r>   2.3151  0.0000</r>
       <r>   6.5467  0.0000</r>
       <r>   6.5467  0.0000</r>
       <r>   6.5467  0.0000</r>
       <r>  10.8709  0.0000</r>
      </set>
      <set comment="kpoint 66">
       <r>  -3.4014  1.0000</r>
       <r>  -3.2127  1.0000</r>
       <r>  -3.1789  1.0000</r>
       <r>  -3.1789  1.0000</r>
       <r>  -2.7557  1.0000</r>
       <r>  -2.7557  1.0000</r>
       <r>  -2.7279  1.0000</r>
       <r>  -2.4315  1.0000</r>
       <r>  -2.4018  1.0000</r>
       <r>  -2.2303  1.0000</r>
       <r>  -2.2303  1.0000</r>
       <r>  -2.2249  1.0000</r>
       <r>  -2.1155  1.0000</r>
       <r>  -2.0580  1.0000</r>
       <r>  -2.0580  1.0000</r>
       <r>  -2.0533  1.0000</r>
       <r>  -1.6861  1.0000</r>
       <r>  -1.6185  1.0000</r>
       <r>  -1.3798  1.0000</r>
       <r>  -1.3798  1.0000</r>
       <r>  -1.3647  1.0000</r>
       <r>   1.2957  1.0000</r>
       <r>   2.7582  0.0000</r>
       <r>   2.7582  0.0000</r>
       <r>   5.6290  0.0000</r>
       <r>   5.6290  0.0000</r>
       <r>   7.0270  0.0000</r>
       <r>   9.9277  0.0000</r>
      </set>
      <set comment="kpoint 67">
       <r>  -3.3302  1.0000</r>
       <r>  -3.2273  1.0000</r>
       <r>  -3.1208  1.0000</r>
       <r>  -3.1208  1.0000</r>
       <r>  -2.7611  1.0000</r>
       <r>  -2.7611  1.0000</r>
       <r>  -2.6139  1.0000</r>
       <r>  -2.4677  1.0000</r>
       <r>  -2.3686  1.0000</r>
       <r>  -2.2553  1.0000</r>
       <r>  -2.2272  1.0000</r>
       <r>  -2.2272  1.0000</r>
       <r>  -2.2216  1.0000</r>
       <r>  -2.1355  1.0000</r>
       <r>  -2.1003  1.0000</r>
       <r>  -2.1003  1.0000</r>
       <r>  -1.5752  1.0000</r>
       <r>  -1.4155  1.0000</r>
       <r>  -1.4155  1.0000</r>
       <r>  -1.4077  1.0000</r>
       <r>  -1.0969  1.0000</r>
       <r>   0.3802  1.0000</r>
       <r>   3.2673  0.0000</r>
       <r>   3.2673  0.0000</r>
       <r>   4.8380  0.0000</r>
       <r>   4.8380  0.0000</r>
       <r>   7.6141  0.0000</r>
       <r>   9.0697  0.0000</r>
      </set>
      <set comment="kpoint 68">
       <r>  -3.2685  1.0000</r>
       <r>  -3.2685  1.0000</r>
       <r>  -3.0877  1.0000</r>
       <r>  -3.0877  1.0000</r>
       <r>  -2.7879  1.0000</r>
       <r>  -2.7879  1.0000</r>
       <r>  -2.5226  1.0000</r>
       <r>  -2.5226  1.0000</r>
       <r>  -2.3077  1.0000</r>
       <r>  -2.3077  1.0000</r>
       <r>  -2.2240  1.0000</r>
       <r>  -2.2240  1.0000</r>
       <r>  -2.1834  1.0000</r>
       <r>  -2.1834  1.0000</r>
       <r>  -2.1411  1.0000</r>
       <r>  -2.1411  1.0000</r>
       <r>  -1.4798  1.0000</r>
       <r>  -1.4798  1.0000</r>
       <r>  -1.4321  1.0000</r>
       <r>  -1.4321  1.0000</r>
       <r>  -0.4209  1.0000</r>
       <r>  -0.4209  1.0000</r>
       <r>   3.6339  0.0000</r>
       <r>   3.6339  0.0000</r>
       <r>   4.3777  0.0000</r>
       <r>   4.3777  0.0000</r>
       <r>   8.2973  0.0000</r>
       <r>   8.2973  0.0000</r>
      </set>
      <set comment="kpoint 69">
       <r>  -3.3958  1.0000</r>
       <r>  -3.2102  1.0000</r>
       <r>  -3.2102  1.0000</r>
       <r>  -3.1911  1.0000</r>
       <r>  -2.7147  1.0000</r>
       <r>  -2.6883  1.0000</r>
       <r>  -2.6883  1.0000</r>
       <r>  -2.4454  1.0000</r>
       <r>  -2.4282  1.0000</r>
       <r>  -2.2357  1.0000</r>
       <r>  -2.2357  1.0000</r>
       <r>  -2.1716  1.0000</r>
       <r>  -2.1414  1.0000</r>
       <r>  -2.1320  1.0000</r>
       <r>  -2.1320  1.0000</r>
       <r>  -1.8056  1.0000</r>
       <r>  -1.7439  1.0000</r>
       <r>  -1.3972  1.0000</r>
       <r>  -1.3809  1.0000</r>
       <r>  -1.3809  1.0000</r>
       <r>  -1.2951  1.0000</r>
       <r>   1.7191  0.0000</r>
       <r>   1.7191  0.0000</r>
       <r>   3.1208  0.0000</r>
       <r>   4.7370  0.0000</r>
       <r>   6.0972  0.0000</r>
       <r>   6.0972  0.0000</r>
       <r>   8.9781  0.0000</r>
      </set>
      <set comment="kpoint 70">
       <r>  -3.3652  1.0000</r>
       <r>  -3.2605  1.0000</r>
       <r>  -3.1970  1.0000</r>
       <r>  -3.1898  1.0000</r>
       <r>  -2.7129  1.0000</r>
       <r>  -2.7046  1.0000</r>
       <r>  -2.6130  1.0000</r>
       <r>  -2.4867  1.0000</r>
       <r>  -2.4141  1.0000</r>
       <r>  -2.2990  1.0000</r>
       <r>  -2.2524  1.0000</r>
       <r>  -2.2319  1.0000</r>
       <r>  -2.0992  1.0000</r>
       <r>  -2.0681  1.0000</r>
       <r>  -2.0609  1.0000</r>
       <r>  -1.8923  1.0000</r>
       <r>  -1.6025  1.0000</r>
       <r>  -1.4308  1.0000</r>
       <r>  -1.4206  1.0000</r>
       <r>  -1.4171  1.0000</r>
       <r>  -0.7436  1.0000</r>
       <r>   0.7831  1.0000</r>
       <r>   2.2357  0.0000</r>
       <r>   3.2804  0.0000</r>
       <r>   4.2566  0.0000</r>
       <r>   5.2811  0.0000</r>
       <r>   6.6733  0.0000</r>
       <r>   8.1179  0.0000</r>
      </set>
      <set comment="kpoint 71">
       <r>  -3.3165  1.0000</r>
       <r>  -3.3165  1.0000</r>
       <r>  -3.1883  1.0000</r>
       <r>  -3.1883  1.0000</r>
       <r>  -2.7194  1.0000</r>
       <r>  -2.7194  1.0000</r>
       <r>  -2.5437  1.0000</r>
       <r>  -2.5437  1.0000</r>
       <r>  -2.3682  1.0000</r>
       <r>  -2.3682  1.0000</r>
       <r>  -2.2527  1.0000</r>
       <r>  -2.2527  1.0000</r>
       <r>  -2.0289  1.0000</r>
       <r>  -2.0289  1.0000</r>
       <r>  -2.0066  1.0000</r>
       <r>  -2.0066  1.0000</r>
       <r>  -1.4903  1.0000</r>
       <r>  -1.4903  1.0000</r>
       <r>  -1.4458  1.0000</r>
       <r>  -1.4458  1.0000</r>
       <r>  -0.0413  1.0000</r>
       <r>  -0.0413  1.0000</r>
       <r>   2.8179  0.0000</r>
       <r>   2.8179  0.0000</r>
       <r>   4.6057  0.0000</r>
       <r>   4.6057  0.0000</r>
       <r>   7.3487  0.0000</r>
       <r>   7.3487  0.0000</r>
      </set>
      <set comment="kpoint 72">
       <r>  -3.3638  1.0000</r>
       <r>  -3.2722  1.0000</r>
       <r>  -3.2722  1.0000</r>
       <r>  -3.2378  1.0000</r>
       <r>  -2.6748  1.0000</r>
       <r>  -2.6332  1.0000</r>
       <r>  -2.6332  1.0000</r>
       <r>  -2.5126  1.0000</r>
       <r>  -2.4317  1.0000</r>
       <r>  -2.3364  1.0000</r>
       <r>  -2.3364  1.0000</r>
       <r>  -2.3087  1.0000</r>
       <r>  -1.9543  1.0000</r>
       <r>  -1.9543  1.0000</r>
       <r>  -1.9382  1.0000</r>
       <r>  -1.7398  1.0000</r>
       <r>  -1.6582  1.0000</r>
       <r>  -1.4704  1.0000</r>
       <r>  -1.4634  1.0000</r>
       <r>  -1.4634  1.0000</r>
       <r>  -0.2025  1.0000</r>
       <r>   1.3042  1.0000</r>
       <r>   1.3042  1.0000</r>
       <r>   2.6515  0.0000</r>
       <r>   4.5344  0.0000</r>
       <r>   5.8393  0.0000</r>
       <r>   5.8393  0.0000</r>
       <r>   7.2611  0.0000</r>
      </set>
      <set comment="kpoint 73">
       <r>  -3.3308  1.0000</r>
       <r>  -3.3308  1.0000</r>
       <r>  -3.2647  1.0000</r>
       <r>  -3.2647  1.0000</r>
       <r>  -2.6516  1.0000</r>
       <r>  -2.6516  1.0000</r>
       <r>  -2.5650  1.0000</r>
       <r>  -2.5650  1.0000</r>
       <r>  -2.4017  1.0000</r>
       <r>  -2.4017  1.0000</r>
       <r>  -2.3425  1.0000</r>
       <r>  -2.3425  1.0000</r>
       <r>  -1.8861  1.0000</r>
       <r>  -1.8861  1.0000</r>
       <r>  -1.8316  1.0000</r>
       <r>  -1.8316  1.0000</r>
       <r>  -1.5490  1.0000</r>
       <r>  -1.5490  1.0000</r>
       <r>  -1.4952  1.0000</r>
       <r>  -1.4952  1.0000</r>
       <r>   0.4870  1.0000</r>
       <r>   0.4870  1.0000</r>
       <r>   1.9353  0.0000</r>
       <r>   1.9353  0.0000</r>
       <r>   5.1186  0.0000</r>
       <r>   5.1186  0.0000</r>
       <r>   6.5008  0.0000</r>
       <r>   6.5008  0.0000</r>
      </set>
      <set comment="kpoint 74">
       <r>  -3.3130  1.0000</r>
       <r>  -3.3130  1.0000</r>
       <r>  -3.3130  1.0000</r>
       <r>  -3.3130  1.0000</r>
       <r>  -2.5974  1.0000</r>
       <r>  -2.5974  1.0000</r>
       <r>  -2.5974  1.0000</r>
       <r>  -2.5974  1.0000</r>
       <r>  -2.3958  1.0000</r>
       <r>  -2.3958  1.0000</r>
       <r>  -2.3958  1.0000</r>
       <r>  -2.3958  1.0000</r>
       <r>  -1.7841  1.0000</r>
       <r>  -1.7841  1.0000</r>
       <r>  -1.7841  1.0000</r>
       <r>  -1.7841  1.0000</r>
       <r>  -1.5619  1.0000</r>
       <r>  -1.5619  1.0000</r>
       <r>  -1.5619  1.0000</r>
       <r>  -1.5619  1.0000</r>
       <r>   1.1503  1.0000</r>
       <r>   1.1503  1.0000</r>
       <r>   1.1503  1.0000</r>
       <r>   1.1503  1.0000</r>
       <r>   5.7561  0.0000</r>
       <r>   5.7561  0.0000</r>
       <r>   5.7561  0.0000</r>
       <r>   5.7561  0.0000</r>
      </set>
      <set comment="kpoint 75">
       <r>  -3.4353  1.0000</r>
       <r>  -3.2631  1.0000</r>
       <r>  -3.2631  1.0000</r>
       <r>  -3.2631  1.0000</r>
       <r>  -2.6685  1.0000</r>
       <r>  -2.6685  1.0000</r>
       <r>  -2.6685  1.0000</r>
       <r>  -2.4620  1.0000</r>
       <r>  -2.4620  1.0000</r>
       <r>  -2.2805  1.0000</r>
       <r>  -2.2805  1.0000</r>
       <r>  -2.2805  1.0000</r>
       <r>  -2.0348  1.0000</r>
       <r>  -2.0348  1.0000</r>
       <r>  -2.0348  1.0000</r>
       <r>  -1.6179  1.0000</r>
       <r>  -1.6179  1.0000</r>
       <r>  -1.3720  1.0000</r>
       <r>  -1.3720  1.0000</r>
       <r>  -1.3720  1.0000</r>
       <r>  -1.0475  1.0000</r>
       <r>   2.0781  0.0000</r>
       <r>   2.0781  0.0000</r>
       <r>   2.0781  0.0000</r>
       <r>   5.1759  0.0000</r>
       <r>   5.1759  0.0000</r>
       <r>   5.1759  0.0000</r>
       <r>   8.0221  0.0000</r>
      </set>
      <set comment="kpoint 76">
       <r>  -3.4346  1.0000</r>
       <r>  -3.3384  1.0000</r>
       <r>  -3.2940  1.0000</r>
       <r>  -3.2940  1.0000</r>
       <r>  -2.6652  1.0000</r>
       <r>  -2.6652  1.0000</r>
       <r>  -2.6072  1.0000</r>
       <r>  -2.4973  1.0000</r>
       <r>  -2.4633  1.0000</r>
       <r>  -2.3696  1.0000</r>
       <r>  -2.3366  1.0000</r>
       <r>  -2.3366  1.0000</r>
       <r>  -1.9166  1.0000</r>
       <r>  -1.9059  1.0000</r>
       <r>  -1.9059  1.0000</r>
       <r>  -1.6796  1.0000</r>
       <r>  -1.5106  1.0000</r>
       <r>  -1.3960  1.0000</r>
       <r>  -1.3960  1.0000</r>
       <r>  -1.3828  1.0000</r>
       <r>  -0.4600  1.0000</r>
       <r>   1.1254  1.0000</r>
       <r>   2.4760  0.0000</r>
       <r>   2.4760  0.0000</r>
       <r>   4.4383  0.0000</r>
       <r>   4.4383  0.0000</r>
       <r>   5.7342  0.0000</r>
       <r>   7.1614  0.0000</r>
      </set>
      <set comment="kpoint 77">
       <r>  -3.3995  1.0000</r>
       <r>  -3.3995  1.0000</r>
       <r>  -3.3040  1.0000</r>
       <r>  -3.3040  1.0000</r>
       <r>  -2.6665  1.0000</r>
       <r>  -2.6665  1.0000</r>
       <r>  -2.5472  1.0000</r>
       <r>  -2.5472  1.0000</r>
       <r>  -2.4319  1.0000</r>
       <r>  -2.4319  1.0000</r>
       <r>  -2.3544  1.0000</r>
       <r>  -2.3544  1.0000</r>
       <r>  -1.8501  1.0000</r>
       <r>  -1.8501  1.0000</r>
       <r>  -1.7935  1.0000</r>
       <r>  -1.7935  1.0000</r>
       <r>  -1.4301  1.0000</r>
       <r>  -1.4301  1.0000</r>
       <r>  -1.4147  1.0000</r>
       <r>  -1.4147  1.0000</r>
       <r>   0.2761  1.0000</r>
       <r>   0.2761  1.0000</r>
       <r>   2.7044  0.0000</r>
       <r>   2.7044  0.0000</r>
       <r>   4.0963  0.0000</r>
       <r>   4.0963  0.0000</r>
       <r>   6.3979  0.0000</r>
       <r>   6.3979  0.0000</r>
      </set>
      <set comment="kpoint 78">
       <r>  -3.4577  1.0000</r>
       <r>  -3.3810  1.0000</r>
       <r>  -3.3810  1.0000</r>
       <r>  -3.3583  1.0000</r>
       <r>  -2.6323  1.0000</r>
       <r>  -2.6070  1.0000</r>
       <r>  -2.6070  1.0000</r>
       <r>  -2.5099  1.0000</r>
       <r>  -2.4932  1.0000</r>
       <r>  -2.4191  1.0000</r>
       <r>  -2.4191  1.0000</r>
       <r>  -2.4054  1.0000</r>
       <r>  -1.7590  1.0000</r>
       <r>  -1.7590  1.0000</r>
       <r>  -1.7572  1.0000</r>
       <r>  -1.5420  1.0000</r>
       <r>  -1.5284  1.0000</r>
       <r>  -1.4093  1.0000</r>
       <r>  -1.3995  1.0000</r>
       <r>  -1.3995  1.0000</r>
       <r>   0.0627  1.0000</r>
       <r>   1.5759  1.0000</r>
       <r>   1.5759  1.0000</r>
       <r>   2.4925  0.0000</r>
       <r>   4.0470  0.0000</r>
       <r>   4.9308  0.0000</r>
       <r>   4.9308  0.0000</r>
       <r>   6.3083  0.0000</r>
      </set>
      <set comment="kpoint 79">
       <r>  -3.4382  1.0000</r>
       <r>  -3.4382  1.0000</r>
       <r>  -3.3877  1.0000</r>
       <r>  -3.3877  1.0000</r>
       <r>  -2.6133  1.0000</r>
       <r>  -2.6133  1.0000</r>
       <r>  -2.5523  1.0000</r>
       <r>  -2.5523  1.0000</r>
       <r>  -2.4732  1.0000</r>
       <r>  -2.4732  1.0000</r>
       <r>  -2.4333  1.0000</r>
       <r>  -2.4333  1.0000</r>
       <r>  -1.6894  1.0000</r>
       <r>  -1.6894  1.0000</r>
       <r>  -1.6293  1.0000</r>
       <r>  -1.6293  1.0000</r>
       <r>  -1.4452  1.0000</r>
       <r>  -1.4452  1.0000</r>
       <r>  -1.4254  1.0000</r>
       <r>  -1.4254  1.0000</r>
       <r>   0.7578  1.0000</r>
       <r>   0.7578  1.0000</r>
       <r>   2.0911  0.0000</r>
       <r>   2.0911  0.0000</r>
       <r>   4.3100  0.0000</r>
       <r>   4.3100  0.0000</r>
       <r>   5.5623  0.0000</r>
       <r>   5.5623  0.0000</r>
      </set>
      <set comment="kpoint 80">
       <r>  -3.4335  1.0000</r>
       <r>  -3.4335  1.0000</r>
       <r>  -3.4335  1.0000</r>
       <r>  -3.4335  1.0000</r>
       <r>  -2.5710  1.0000</r>
       <r>  -2.5710  1.0000</r>
       <r>  -2.5710  1.0000</r>
       <r>  -2.5710  1.0000</r>
       <r>  -2.4771  1.0000</r>
       <r>  -2.4771  1.0000</r>
       <r>  -2.4771  1.0000</r>
       <r>  -2.4771  1.0000</r>
       <r>  -1.5758  1.0000</r>
       <r>  -1.5758  1.0000</r>
       <r>  -1.5758  1.0000</r>
       <r>  -1.5758  1.0000</r>
       <r>  -1.4690  1.0000</r>
       <r>  -1.4690  1.0000</r>
       <r>  -1.4690  1.0000</r>
       <r>  -1.4690  1.0000</r>
       <r>   1.3813  1.0000</r>
       <r>   1.3813  1.0000</r>
       <r>   1.3813  1.0000</r>
       <r>   1.3813  1.0000</r>
       <r>   4.8544  0.0000</r>
       <r>   4.8544  0.0000</r>
       <r>   4.8544  0.0000</r>
       <r>   4.8544  0.0000</r>
      </set>
      <set comment="kpoint 81">
       <r>  -3.5017  1.0000</r>
       <r>  -3.4478  1.0000</r>
       <r>  -3.4478  1.0000</r>
       <r>  -3.4478  1.0000</r>
       <r>  -2.5866  1.0000</r>
       <r>  -2.5866  1.0000</r>
       <r>  -2.5866  1.0000</r>
       <r>  -2.5217  1.0000</r>
       <r>  -2.5217  1.0000</r>
       <r>  -2.4762  1.0000</r>
       <r>  -2.4762  1.0000</r>
       <r>  -2.4762  1.0000</r>
       <r>  -1.6030  1.0000</r>
       <r>  -1.6030  1.0000</r>
       <r>  -1.6030  1.0000</r>
       <r>  -1.4532  1.0000</r>
       <r>  -1.4532  1.0000</r>
       <r>  -1.3844  1.0000</r>
       <r>  -1.3844  1.0000</r>
       <r>  -1.3844  1.0000</r>
       <r>   0.5265  1.0000</r>
       <r>   1.8731  0.0000</r>
       <r>   1.8731  0.0000</r>
       <r>   1.8731  0.0000</r>
       <r>   4.2423  0.0000</r>
       <r>   4.2423  0.0000</r>
       <r>   4.2423  0.0000</r>
       <r>   5.4736  0.0000</r>
      </set>
      <set comment="kpoint 82">
       <r>  -3.4974  1.0000</r>
       <r>  -3.4974  1.0000</r>
       <r>  -3.4703  1.0000</r>
       <r>  -3.4703  1.0000</r>
       <r>  -2.5780  1.0000</r>
       <r>  -2.5780  1.0000</r>
       <r>  -2.5479  1.0000</r>
       <r>  -2.5479  1.0000</r>
       <r>  -2.5159  1.0000</r>
       <r>  -2.5159  1.0000</r>
       <r>  -2.4971  1.0000</r>
       <r>  -2.4971  1.0000</r>
       <r>  -1.5321  1.0000</r>
       <r>  -1.5321  1.0000</r>
       <r>  -1.4923  1.0000</r>
       <r>  -1.4923  1.0000</r>
       <r>  -1.3993  1.0000</r>
       <r>  -1.3993  1.0000</r>
       <r>  -1.3960  1.0000</r>
       <r>  -1.3960  1.0000</r>
       <r>   1.1559  1.0000</r>
       <r>   1.1559  1.0000</r>
       <r>   2.0275  0.0000</r>
       <r>   2.0275  0.0000</r>
       <r>   3.9560  0.0000</r>
       <r>   3.9560  0.0000</r>
       <r>   4.7717  0.0000</r>
       <r>   4.7717  0.0000</r>
      </set>
      <set comment="kpoint 83">
       <r>  -3.5078  1.0000</r>
       <r>  -3.5078  1.0000</r>
       <r>  -3.5078  1.0000</r>
       <r>  -3.5078  1.0000</r>
       <r>  -2.5523  1.0000</r>
       <r>  -2.5523  1.0000</r>
       <r>  -2.5523  1.0000</r>
       <r>  -2.5523  1.0000</r>
       <r>  -2.5282  1.0000</r>
       <r>  -2.5282  1.0000</r>
       <r>  -2.5282  1.0000</r>
       <r>  -2.5282  1.0000</r>
       <r>  -1.4373  1.0000</r>
       <r>  -1.4373  1.0000</r>
       <r>  -1.4373  1.0000</r>
       <r>  -1.4373  1.0000</r>
       <r>  -1.4094  1.0000</r>
       <r>  -1.4094  1.0000</r>
       <r>  -1.4094  1.0000</r>
       <r>  -1.4094  1.0000</r>
       <r>   1.6354  0.0733</r>
       <r>   1.6354  0.0733</r>
       <r>   1.6354  0.0733</r>
       <r>   1.6354  0.0733</r>
       <r>   4.1841  0.0000</r>
       <r>   4.1841  0.0000</r>
       <r>   4.1841  0.0000</r>
       <r>   4.1841  0.0000</r>
      </set>
      <set comment="kpoint 84">
       <r>  -3.5328  1.0000</r>
       <r>  -3.5328  1.0000</r>
       <r>  -3.5328  1.0000</r>
       <r>  -3.5328  1.0000</r>
       <r>  -2.5456  1.0000</r>
       <r>  -2.5456  1.0000</r>
       <r>  -2.5456  1.0000</r>
       <r>  -2.5456  1.0000</r>
       <r>  -2.5456  1.0000</r>
       <r>  -2.5456  1.0000</r>
       <r>  -2.5456  1.0000</r>
       <r>  -2.5456  1.0000</r>
       <r>  -1.3888  1.0000</r>
       <r>  -1.3888  1.0000</r>
       <r>  -1.3888  1.0000</r>
       <r>  -1.3888  1.0000</r>
       <r>  -1.3888  1.0000</r>
       <r>  -1.3888  1.0000</r>
       <r>  -1.3888  1.0000</r>
       <r>  -1.3888  1.0000</r>
       <r>   1.7646  0.0000</r>
       <r>   1.7646  0.0000</r>
       <r>   1.7646  0.0000</r>
       <r>   1.7646  0.0000</r>
       <r>   3.9139  0.0000</r>
       <r>   3.9139  0.0000</r>
       <r>   3.9139  0.0000</r>
       <r>   3.9139  0.0000</r>
      </set>
     </set>
    </set>
   </array>
  </eigenvalues>
 </calculation>
 <structure name="finalpos" >
  <crystal>
   <varray name="basis" >
    <v>       4.45465052      0.00000000      0.00000000</v>
    <v>       0.00000000      4.45465052      0.00000000</v>
    <v>       0.00000000      0.00000000      4.45465052</v>
   </varray>
   <i name="volume">     88.39768937</i>
   <varray name="rec_basis" >
    <v>       0.22448450      0.00000000      0.00000000</v>
    <v>       0.00000000      0.22448450      0.00000000</v>
    <v>       0.00000000      0.00000000      0.22448450</v>
   </varray>
  </crystal>
  <varray name="positions" >
   <v>       0.00000000      0.00000000      0.00000000</v>
   <v>       0.50000000      0.50000000      0.00000000</v>
   <v>       0.50000000      0.00000000      0.50000000</v>
   <v>       0.00000000      0.50000000      0.50000000</v>
  </varray>
 </structure>
</modeling>
