    4    4  200    1
  0.1725935E+02  0.4102307E-09  0.4102307E-09  0.4102307E-09  0.5000000E-15
  1.000000000000000E-004
  CAR 
 unknown system                          
   44   84   28
 
  0.0000000E+00  0.0000000E+00  0.0000000E+00  0.5787037E-03
   1       -4.3311
   2       -3.0801
   3       -3.0801
   4       -3.0801
   5       -2.9620
   6       -2.9620
   7       -2.9620
   8       -1.6045
   9       -1.6045
  10       -1.6045
  11       -0.6682
  12       -0.6682
  13        0.0225
  14        0.0225
  15        0.0225
  16        0.2393
  17        0.2393
  18        0.2393
  19        0.2393
  20        0.2393
  21        0.2393
  22        4.6976
  23        4.6976
  24        4.6976
  25        9.3512
  26        9.3512
  27        9.3512
  28       13.5734
 
  0.8333333E-01  0.0000000E+00  0.0000000E+00  0.3472222E-02
   1       -4.2616
   2       -3.0524
   3       -3.0442
   4       -3.0442
   5       -2.9411
   6       -2.9301
   7       -2.9301
   8       -1.6303
   9       -1.5803
  10       -1.5803
  11       -0.6939
  12       -0.6569
  13       -0.0118
  14       -0.0118
  15        0.0101
  16        0.1195
  17        0.1195
  18        0.1973
  19        0.1973
  20        0.2393
  21        0.2393
  22        4.2165
  23        4.8758
  24        4.8758
  25        9.3633
  26        9.3633
  27        9.9435
  28       13.3171
 
  0.1666667E+00  0.0000000E+00  0.0000000E+00  0.3472222E-02
   1       -4.0564
   2       -2.9731
   3       -2.9412
   4       -2.9412
   5       -2.8794
   6       -2.8343
   7       -2.8343
   8       -1.7051
   9       -1.5080
  10       -1.5080
  11       -0.7658
  12       -0.6239
  13       -0.1902
  14       -0.1902
  15       -0.1105
  16       -0.1105
  17       -0.0259
  18        0.0775
  19        0.0775
  20        0.2395
  21        0.2395
  22        3.1870
  23        5.3599
  24        5.3599
  25        9.4010
  26        9.4010
  27       11.3066
  28       12.6570
 
  0.2500000E+00  0.0000000E+00  0.0000000E+00  0.3472222E-02
   1       -3.7289
   2       -2.8537
   3       -2.7859
   4       -2.7859
   5       -2.7801
   6       -2.6753
   7       -2.6753
   8       -1.8223
   9       -1.3899
  10       -1.3899
  11       -0.8660
  12       -0.5975
  13       -0.5975
  14       -0.5710
  15       -0.2608
  16       -0.2608
  17       -0.1042
  18       -0.1042
  19       -0.0829
  20        0.2397
  21        0.2397
  22        2.0465
  23        6.0551
  24        6.0551
  25        9.4679
  26        9.4679
  27       11.7786
  28       11.7786
 
  0.3333333E+00  0.0000000E+00  0.0000000E+00  0.3472222E-02
   1       -3.3135
   2       -2.7183
   3       -2.6484
   4       -2.6070
   5       -2.6070
   6       -2.4544
   7       -2.4544
   8       -1.9718
   9       -1.2297
  10       -1.2297
  11       -1.0320
  12       -1.0320
  13       -0.9525
  14       -0.5016
  15       -0.4356
  16       -0.4356
  17       -0.3266
  18       -0.3266
  19       -0.1565
  20        0.2400
  21        0.2400
  22        0.9668
  23        6.8864
  24        6.8864
  25        9.5647
  26        9.5647
  27       10.8015
  28       10.8015
 
  0.4166667E+00  0.0000000E+00  0.0000000E+00  0.3472222E-02
   1       -2.8968
   2       -2.6149
   3       -2.4915
   4       -2.4533
   5       -2.4533
   6       -2.1738
   7       -2.1738
   8       -2.1416
   9       -1.4529
  10       -1.4529
  11       -1.0330
  12       -1.0330
  13       -0.9292
  14       -0.5869
  15       -0.5869
  16       -0.5678
  17       -0.5678
  18       -0.4198
  19       -0.2412
  20        0.0406
  21        0.2401
  22        0.2401
  23        7.8062
  24        7.8062
  25        9.6736
  26        9.6736
  27        9.7904
  28        9.7904
 
  0.5000000E+00  0.0000000E+00  0.0000000E+00  0.1736111E-02
   1       -2.6398
   2       -2.6398
   3       -2.3901
   4       -2.3901
   5       -2.3189
   6       -2.3189
   7       -1.8377
   8       -1.8377
   9       -1.8377
  10       -1.8377
  11       -0.8085
  12       -0.8085
  13       -0.8085
  14       -0.8085
  15       -0.6495
  16       -0.6495
  17       -0.6251
  18       -0.6251
  19       -0.3311
  20       -0.3311
  21        0.2402
  22        0.2402
  23        8.7828
  24        8.7828
  25        8.7828
  26        8.7828
  27        9.7299
  28        9.7299
 
  0.8333333E-01  0.8333333E-01  0.0000000E+00  0.6944444E-02
   1       -4.1929
   2       -3.0163
   3       -3.0163
   4       -3.0150
   5       -2.9096
   6       -2.9096
   7       -2.8927
   8       -1.6397
   9       -1.5715
  10       -1.5576
  11       -0.7007
  12       -0.6623
  13       -0.0446
  14       -0.0420
  15       -0.0420
  16        0.0365
  17        0.0950
  18        0.0950
  19        0.1972
  20        0.1972
  21        0.2103
  22        4.3865
  23        4.3865
  24        5.0465
  25        9.3751
  26        9.9640
  27        9.9640
  28       12.4938
 
  0.1666667E+00  0.8333333E-01  0.0000000E+00  0.1388889E-01
   1       -3.9906
   2       -2.9363
   3       -2.9288
   4       -2.9127
   5       -2.8491
   6       -2.8151
   7       -2.7841
   8       -1.7049
   9       -1.5070
  10       -1.4910
  11       -0.7627
  12       -0.6315
  13       -0.2795
  14       -0.2417
  15       -0.1413
  16       -0.1394
  17       -0.0747
  18        0.0358
  19        0.0771
  20        0.1958
  21        0.1970
  22        3.3522
  23        4.8419
  24        5.5144
  25        9.4101
  26       10.0264
  27       11.3325
  28       11.5567
 
  0.2500000E+00  0.8333333E-01  0.0000000E+00  0.1388889E-01
   1       -3.6683
   2       -2.8155
   3       -2.7905
   4       -2.7562
   5       -2.7519
   6       -2.6584
   7       -2.6148
   8       -1.8174
   9       -1.3907
  10       -1.3870
  11       -0.8521
  12       -0.6684
  13       -0.6286
  14       -0.5719
  15       -0.3115
  16       -0.2842
  17       -0.2377
  18       -0.1051
  19       -0.0403
  20        0.1929
  21        0.1966
  22        2.2193
  23        5.4817
  24        6.1932
  25        9.4564
  26       10.1307
  27       10.6422
  28       11.8825
 
  0.3333333E+00  0.8333333E-01  0.0000000E+00  0.1388889E-01
   1       -3.2600
   2       -2.6779
   3       -2.6229
   4       -2.6144
   5       -2.5758
   6       -2.4407
   7       -2.4004
   8       -1.9625
   9       -1.2729
  10       -1.2311
  11       -1.0881
  12       -1.0483
  13       -0.8993
  14       -0.5355
  15       -0.4913
  16       -0.4527
  17       -0.4183
  18       -0.3279
  19       -0.1313
  20        0.1927
  21        0.1960
  22        1.1618
  23        6.2271
  24        7.0112
  25        9.3469
  26        9.9668
  27       10.2547
  28       10.9039
 
  0.4166667E+00  0.8333333E-01  0.0000000E+00  0.1388889E-01
   1       -2.8497
   2       -2.5716
   3       -2.4696
   4       -2.4440
   5       -2.4214
   6       -2.1647
   7       -2.1495
   8       -2.1279
   9       -1.4902
  10       -1.4581
  11       -1.1935
  12       -1.0347
  13       -0.7942
  14       -0.7746
  15       -0.5967
  16       -0.5772
  17       -0.5694
  18       -0.3913
  19       -0.2425
  20        0.1934
  21        0.1952
  22        0.2831
  23        7.0276
  24        7.9211
  25        8.6715
  26        9.8942
  27        9.9482
  28       10.2917
 
  0.5000000E+00  0.8333333E-01  0.0000000E+00  0.6944444E-02
   1       -2.5946
   2       -2.5946
   3       -2.3633
   4       -2.3633
   5       -2.3010
   6       -2.3010
   7       -1.8486
   8       -1.8486
   9       -1.8346
  10       -1.8346
  11       -1.0464
  12       -1.0464
  13       -0.8102
  14       -0.8102
  15       -0.6500
  16       -0.6500
  17       -0.4598
  18       -0.4598
  19       -0.2392
  20       -0.2392
  21        0.1943
  22        0.1943
  23        7.8514
  24        7.8514
  25        8.8909
  26        8.8909
  27       10.1383
  28       10.1383
 
  0.1666667E+00  0.1666667E+00  0.0000000E+00  0.6944444E-02
   1       -3.7975
   2       -2.8739
   3       -2.8304
   4       -2.8304
   5       -2.7585
   6       -2.7585
   7       -2.6561
   8       -1.7321
   9       -1.4750
  10       -1.4420
  11       -0.7867
  12       -0.6152
  13       -0.4454
  14       -0.4454
  15       -0.4250
  16       -0.2236
  17       -0.0647
  18       -0.0647
  19        0.0758
  20        0.0758
  21        0.1248
  22        3.7837
  23        3.7837
  24        5.9454
  25        9.4161
  26       10.4783
  27       11.4017
  28       11.4017
 
  0.2500000E+00  0.1666667E+00  0.0000000E+00  0.1388889E-01
   1       -3.4913
   2       -2.7648
   3       -2.7055
   4       -2.6701
   5       -2.6676
   6       -2.6085
   7       -2.4768
   8       -1.8155
   9       -1.3791
  10       -1.3734
  11       -0.8489
  12       -0.8319
  13       -0.7343
  14       -0.6540
  15       -0.5366
  16       -0.3531
  17       -0.2145
  18       -0.1076
  19       -0.1024
  20        0.0739
  21        0.0865
  22        2.6513
  23        4.3740
  24        6.5846
  25        9.1170
  26        9.8197
  27       11.4503
  28       12.1858
 
  0.3333333E+00  0.1666667E+00  0.0000000E+00  0.1388889E-01
   1       -3.1059
   2       -2.6059
   3       -2.5610
   4       -2.5474
   5       -2.4847
   6       -2.4007
   7       -2.2722
   8       -1.9410
   9       -1.3323
  10       -1.2284
  11       -1.2267
  12       -1.1023
  13       -0.8915
  14       -0.8574
  15       -0.5044
  16       -0.4076
  17       -0.3947
  18       -0.3313
  19       -0.1858
  20        0.0714
  21        0.0717
  22        1.6090
  23        5.0529
  24        7.3692
  25        8.2641
  26        9.8577
  27       11.2026
  28       11.2423
 
  0.4166667E+00  0.1666667E+00  0.0000000E+00  0.1388889E-01
   1       -2.7167
   2       -2.4463
   3       -2.4201
   4       -2.4048
   5       -2.3282
   6       -2.1385
   7       -2.0902
   8       -2.0730
   9       -1.5856
  10       -1.4763
  11       -1.3521
  12       -1.1344
  13       -1.0361
  14       -0.7200
  15       -0.6296
  16       -0.5732
  17       -0.5648
  18       -0.3154
  19       -0.2123
  20        0.0672
  21        0.0689
  22        0.7441
  23        5.7865
  24        7.3890
  25        8.2535
  26       10.0725
  27       10.1969
  28       10.8039
 
  0.5000000E+00  0.1666667E+00  0.0000000E+00  0.6944444E-02
   1       -2.4660
   2       -2.4660
   3       -2.2908
   4       -2.2908
   5       -2.2489
   6       -2.2489
   7       -1.8693
   8       -1.8693
   9       -1.8272
  10       -1.8272
  11       -1.3145
  12       -1.3145
  13       -0.8134
  14       -0.8134
  15       -0.6597
  16       -0.6597
  17       -0.5010
  18       -0.5010
  19        0.0671
  20        0.0671
  21        0.1336
  22        0.1336
  23        6.5642
  24        6.5642
  25        9.2048
  26        9.2048
  27       10.3916
  28       10.3916
 
  0.2500000E+00  0.2500000E+00  0.0000000E+00  0.6944444E-02
   1       -3.2145
   2       -2.6880
   3       -2.5380
   4       -2.5380
   5       -2.5286
   6       -2.5286
   7       -2.2961
   8       -1.8468
   9       -1.3492
  10       -1.3219
  11       -1.0365
  12       -1.0365
  13       -0.9325
  14       -0.8959
  15       -0.4614
  16       -0.4097
  17       -0.2340
  18       -0.2340
  19       -0.1111
  20       -0.1111
  21       -0.0133
  22        3.2218
  23        3.2218
  24        7.1783
  25        8.1107
  26        9.8173
  27       12.5038
  28       12.5038
 
  0.3333333E+00  0.2500000E+00  0.0000000E+00  0.1388889E-01
   1       -2.8717
   2       -2.5588
   3       -2.4237
   4       -2.3817
   5       -2.3424
   6       -2.3374
   7       -2.1026
   8       -1.9255
   9       -1.4025
  10       -1.3572
  11       -1.2547
  12       -1.2071
  13       -1.2011
  14       -0.9138
  15       -0.5902
  16       -0.4062
  17       -0.3355
  18       -0.3092
  19       -0.1948
  20       -0.1148
  21       -0.0741
  22        2.1676
  23        3.8705
  24        7.1021
  25        7.9216
  26        9.9939
  27       11.6752
  28       11.7982
 
  0.4166667E+00  0.2500000E+00  0.0000000E+00  0.1388889E-01
   1       -2.5252
   2       -2.3841
   3       -2.3006
   4       -2.2537
   5       -2.1815
   6       -2.0986
   7       -2.0387
   8       -1.9446
   9       -1.7074
  10       -1.5152
  11       -1.4488
  12       -1.4454
  13       -1.0258
  14       -0.8079
  15       -0.6930
  16       -0.5814
  17       -0.5761
  18       -0.4420
  19       -0.1169
  20       -0.1034
  21        0.1214
  22        1.2772
  23        4.5775
  24        6.1807
  25        8.7723
  26       10.2727
  27       10.6750
  28       11.1697
 
  0.5000000E+00  0.2500000E+00  0.0000000E+00  0.6944444E-02
   1       -2.2797
   2       -2.2797
   3       -2.2021
   4       -2.2021
   5       -2.1685
   6       -2.1685
   7       -1.8613
   8       -1.8613
   9       -1.8200
  10       -1.8200
  11       -1.5233
  12       -1.5233
  13       -0.8121
  14       -0.8121
  15       -0.6973
  16       -0.6973
  17       -0.6227
  18       -0.6227
  19       -0.1147
  20       -0.1147
  21        0.5942
  22        0.5942
  23        5.3437
  24        5.3437
  25        9.6988
  26        9.6988
  27       10.6611
  28       10.6611
 
  0.3333333E+00  0.3333333E+00  0.0000000E+00  0.6944444E-02
   1       -2.5955
   2       -2.4674
   3       -2.2558
   4       -2.2558
   5       -2.1671
   6       -2.1671
   7       -1.9392
   8       -1.9213
   9       -1.5840
  10       -1.5840
  11       -1.3719
  12       -1.3658
  13       -1.1237
  14       -0.9901
  15       -0.6990
  16       -0.4749
  17       -0.4749
  18       -0.3379
  19       -0.3379
  20       -0.1966
  21        0.1223
  22        2.7935
  23        2.7935
  24        6.0392
  25        8.6247
  26       10.2289
  27       12.2924
  28       12.3050
 
  0.4166667E+00  0.3333333E+00  0.0000000E+00  0.1388889E-01
   1       -2.3293
   2       -2.3257
   3       -2.1636
   4       -2.0511
   5       -2.0233
   6       -1.9978
   7       -1.9908
   8       -1.8260
   9       -1.7836
  10       -1.7144
  11       -1.5858
  12       -1.4574
  13       -0.9852
  14       -0.9454
  15       -0.7886
  16       -0.6510
  17       -0.6059
  18       -0.5725
  19       -0.3340
  20       -0.2755
  21        0.5483
  22        1.8682
  23        3.4810
  24        5.0877
  25        9.4410
  26       10.5666
  27       11.2984
  28       11.6032
 
  0.5000000E+00  0.3333333E+00  0.0000000E+00  0.6944444E-02
   1       -2.1464
   2       -2.1464
   3       -2.1046
   4       -2.1046
   5       -2.0708
   6       -2.0708
   7       -1.8213
   8       -1.8213
   9       -1.7721
  10       -1.7721
  11       -1.6272
  12       -1.6272
  13       -0.7953
  14       -0.7953
  15       -0.7822
  16       -0.7822
  17       -0.7792
  18       -0.7792
  19       -0.3168
  20       -0.3168
  21        1.1199
  22        1.1199
  23        4.2402
  24        4.2402
  25       10.3404
  26       10.3404
  27       11.0206
  28       11.0206
 
  0.4166667E+00  0.4166667E+00  0.0000000E+00  0.6944444E-02
   1       -2.2445
   2       -2.1697
   3       -2.0050
   4       -2.0050
   5       -1.9657
   6       -1.9589
   7       -1.9589
   8       -1.7652
   9       -1.7652
  10       -1.6962
  11       -1.6400
  12       -1.4436
  13       -1.0343
  14       -0.8950
  15       -0.8891
  16       -0.7802
  17       -0.7802
  18       -0.5532
  19       -0.5532
  20       -0.4144
  21        1.0742
  22        2.5264
  23        2.5264
  24        4.1190
  25       10.2256
  26       10.9677
  27       12.0369
  28       12.0369
 
  0.5000000E+00  0.4166667E+00  0.0000000E+00  0.6944444E-02
   1       -2.1209
   2       -2.1209
   3       -2.0574
   4       -2.0574
   5       -1.9723
   6       -1.9723
   7       -1.8420
   8       -1.8420
   9       -1.6193
  10       -1.6193
  11       -1.5640
  12       -1.5640
  13       -0.9432
  14       -0.9432
  15       -0.9028
  16       -0.9028
  17       -0.7475
  18       -0.7475
  19       -0.5052
  20       -0.5052
  21        1.7260
  22        1.7260
  23        3.2701
  24        3.2701
  25       11.0985
  26       11.0985
  27       11.4886
  28       11.4886
 
  0.5000000E+00  0.5000000E+00  0.0000000E+00  0.1736111E-02
   1       -2.0904
   2       -2.0904
   3       -2.0904
   4       -2.0904
   5       -1.8920
   6       -1.8920
   7       -1.8920
   8       -1.8920
   9       -1.5071
  10       -1.5071
  11       -1.5071
  12       -1.5071
  13       -1.0037
  14       -1.0037
  15       -1.0037
  16       -1.0037
  17       -0.6527
  18       -0.6527
  19       -0.6527
  20       -0.6527
  21        2.4357
  22        2.4357
  23        2.4357
  24        2.4357
  25       11.9468
  26       11.9468
  27       11.9468
  28       11.9468
 
  0.8333333E-01  0.8333333E-01  0.8333333E-01  0.4629630E-02
   1       -4.1254
   2       -2.9879
   3       -2.9879
   4       -2.9879
   5       -2.8718
   6       -2.8718
   7       -2.8718
   8       -1.6457
   9       -1.5510
  10       -1.5510
  11       -0.6864
  12       -0.6864
  13       -0.0741
  14       -0.0741
  15       -0.0741
  16       -0.0091
  17       -0.0091
  18       -0.0091
  19        0.1888
  20        0.1888
  21        0.1888
  22        4.5479
  23        4.5479
  24        4.5479
  25        9.9830
  26        9.9830
  27        9.9830
  28       12.6034
 
  0.1666667E+00  0.8333333E-01  0.8333333E-01  0.1388889E-01
   1       -3.9268
   2       -2.9105
   3       -2.9032
   4       -2.9032
   5       -2.8094
   6       -2.7626
   7       -2.7626
   8       -1.7007
   9       -1.4941
  10       -1.4899
  11       -0.7521
  12       -0.6446
  13       -0.3117
  14       -0.3117
  15       -0.1626
  16       -0.1433
  17       -0.1433
  18       -0.1403
  19        0.1303
  20        0.1756
  21        0.1756
  22        3.5058
  23        4.9848
  24        4.9848
  25       10.0351
  26       10.0351
  27       11.3496
  28       11.6722
 
  0.2500000E+00  0.8333333E-01  0.8333333E-01  0.1388889E-01
   1       -3.6111
   2       -2.7965
   3       -2.7660
   4       -2.7660
   5       -2.7066
   6       -2.5937
   7       -2.5937
   8       -1.8061
   9       -1.3902
  10       -1.3898
  11       -0.8316
  12       -0.6924
  13       -0.6924
  14       -0.5778
  15       -0.3429
  16       -0.3052
  17       -0.2807
  18       -0.2807
  19        0.0468
  20        0.1658
  21        0.1658
  22        2.3730
  23        5.6058
  24        5.6058
  25       10.0523
  26       10.0523
  27       10.8347
  28       10.8347
 
  0.3333333E+00  0.8333333E-01  0.8333333E-01  0.1388889E-01
   1       -3.2129
   2       -2.6683
   3       -2.5893
   4       -2.5893
   5       -2.5693
   6       -2.3831
   7       -2.3831
   8       -1.9443
   9       -1.2930
  10       -1.2534
  11       -1.0989
  12       -1.0989
  13       -0.8414
  14       -0.5986
  15       -0.4904
  16       -0.4875
  17       -0.4468
  18       -0.4468
  19       -0.0527
  20        0.1604
  21        0.1604
  22        1.3183
  23        6.3357
  24        6.3357
  25        9.5816
  26        9.5816
  27       10.5943
  28       10.5943
 
  0.4166667E+00  0.8333333E-01  0.8333333E-01  0.1388889E-01
   1       -2.8152
   2       -2.5614
   3       -2.4174
   4       -2.4152
   5       -2.4152
   6       -2.1444
   7       -2.1444
   8       -2.1010
   9       -1.4860
  10       -1.4860
  11       -1.2512
  12       -1.0857
  13       -0.8834
  14       -0.6899
  15       -0.6492
  16       -0.5952
  17       -0.5952
  18       -0.3877
  19       -0.1623
  20        0.1578
  21        0.1578
  22        0.4288
  23        7.1246
  24        7.1246
  25        8.7728
  26        8.7728
  27       10.7921
  28       10.7921
 
  0.5000000E+00  0.8333333E-01  0.8333333E-01  0.6944444E-02
   1       -2.5722
   2       -2.5722
   3       -2.3369
   4       -2.3369
   5       -2.2621
   6       -2.2621
   7       -1.9230
   8       -1.9230
   9       -1.7658
  10       -1.7658
  11       -1.1348
  12       -1.1348
  13       -0.8943
  14       -0.8943
  15       -0.6579
  16       -0.6579
  17       -0.2761
  18       -0.2761
  19       -0.2310
  20       -0.2310
  21        0.1570
  22        0.1570
  23        7.9217
  24        7.9217
  25        7.9638
  26        7.9638
  27       10.9539
  28       10.9539
 
  0.1666667E+00  0.1666667E+00  0.8333333E-01  0.1388889E-01
   1       -3.7397
   2       -2.8520
   3       -2.8314
   4       -2.8314
   5       -2.6971
   6       -2.6971
   7       -2.6326
   8       -1.7155
   9       -1.4679
  10       -1.4472
  11       -0.7613
  12       -0.6362
  13       -0.4702
  14       -0.4674
  15       -0.4674
  16       -0.2748
  17       -0.2077
  18       -0.2077
  19        0.1247
  20        0.1247
  21        0.1336
  22        3.9137
  23        3.9137
  24        5.3794
  25        9.9657
  26       10.6996
  27       11.3265
  28       11.3265
 
  0.2500000E+00  0.1666667E+00  0.8333333E-01  0.2777778E-01
   1       -3.4452
   2       -2.7463
   3       -2.7288
   4       -2.6992
   5       -2.5864
   6       -2.5280
   7       -2.4535
   8       -1.7848
   9       -1.3868
  10       -1.3805
  11       -0.8458
  12       -0.8115
  13       -0.7799
  14       -0.6736
  15       -0.5545
  16       -0.3933
  17       -0.3482
  18       -0.3100
  19        0.0531
  20        0.0954
  21        0.0967
  22        2.7713
  23        4.4821
  24        5.9542
  25        9.2802
  26       10.4837
  27       10.7671
  28       11.8376
 
  0.3333333E+00  0.1666667E+00  0.8333333E-01  0.2777778E-01
   1       -3.0798
   2       -2.6152
   3       -2.5895
   4       -2.5223
   5       -2.4383
   6       -2.3270
   7       -2.2543
   8       -1.8943
   9       -1.3420
  10       -1.2667
  11       -1.2251
  12       -1.1367
  13       -0.9136
  14       -0.7808
  15       -0.5370
  16       -0.5291
  17       -0.4563
  18       -0.4268
  19       -0.0425
  20        0.0702
  21        0.0735
  22        1.7137
  23        5.1440
  24        6.6410
  25        8.3566
  26        9.8999
  27       10.6814
  28       11.9946
 
  0.4166667E+00  0.1666667E+00  0.8333333E-01  0.2777778E-01
   1       -2.7227
   2       -2.5178
   3       -2.4014
   4       -2.3350
   5       -2.2802
   6       -2.1295
   7       -2.0798
   8       -2.0200
   9       -1.5531
  10       -1.4765
  11       -1.3700
  12       -1.1602
  13       -1.1177
  14       -0.7424
  15       -0.6509
  16       -0.6059
  17       -0.5788
  18       -0.2364
  19       -0.1672
  20        0.0578
  21        0.0602
  22        0.8159
  23        5.8650
  24        7.3126
  25        7.5600
  26        9.0410
  27       11.0209
  28       11.9411
 
  0.5000000E+00  0.1666667E+00  0.8333333E-01  0.1388889E-01
   1       -2.5147
   2       -2.5147
   3       -2.2652
   4       -2.2652
   5       -2.1443
   6       -2.1443
   7       -2.0008
   8       -2.0008
   9       -1.6955
  10       -1.6955
  11       -1.3394
  12       -1.3394
  13       -0.9408
  14       -0.9408
  15       -0.6882
  16       -0.6882
  17       -0.3353
  18       -0.3353
  19        0.0551
  20        0.0551
  21        0.1446
  22        0.1446
  23        6.6316
  24        6.6316
  25        8.2164
  26        8.2164
  27       11.4732
  28       11.4732
 
  0.2500000E+00  0.2500000E+00  0.8333333E-01  0.1388889E-01
   1       -3.1902
   2       -2.6751
   3       -2.6080
   4       -2.6080
   5       -2.4131
   6       -2.4131
   7       -2.2748
   8       -1.7873
   9       -1.3568
  10       -1.3477
  11       -1.0424
  12       -1.0424
  13       -0.9612
  14       -0.8416
  15       -0.5253
  16       -0.4324
  17       -0.4132
  18       -0.4132
  19        0.0069
  20        0.0069
  21        0.0199
  22        3.3148
  23        3.3148
  24        6.4692
  25        8.2040
  26       10.6212
  27       11.2791
  28       11.2791
 
  0.3333333E+00  0.2500000E+00  0.8333333E-01  0.2777778E-01
   1       -2.8858
   2       -2.5520
   3       -2.5130
   4       -2.4394
   5       -2.2544
   6       -2.2191
   7       -2.0920
   8       -1.8316
   9       -1.3839
  10       -1.3616
  11       -1.2617
  12       -1.2531
  13       -1.2152
  14       -0.8216
  15       -0.6479
  16       -0.5807
  17       -0.5223
  18       -0.2197
  19       -0.1027
  20       -0.0448
  21       -0.0403
  22        2.2404
  23        3.9449
  24        6.9622
  25        7.3360
  26       10.3390
  27       10.8975
  28       11.8783
 
  0.4166667E+00  0.2500000E+00  0.8333333E-01  0.2777778E-01
   1       -2.6024
   2       -2.4381
   3       -2.3825
   4       -2.2376
   5       -2.0911
   6       -2.0818
   7       -1.9762
   8       -1.8937
   9       -1.6215
  10       -1.4666
  11       -1.4513
  12       -1.4428
  13       -1.1347
  14       -0.7770
  15       -0.7439
  16       -0.6593
  17       -0.6574
  18       -0.2475
  19       -0.0776
  20       -0.0763
  21        0.1011
  22        1.3197
  23        4.6391
  24        6.2203
  25        7.8756
  26        9.4610
  27       11.2997
  28       12.4798
 
  0.5000000E+00  0.2500000E+00  0.8333333E-01  0.1388889E-01
   1       -2.4411
   2       -2.4411
   3       -2.1922
   4       -2.1922
   5       -2.0366
   6       -2.0366
   7       -1.9566
   8       -1.9566
   9       -1.6242
  10       -1.6242
  11       -1.5264
  12       -1.5264
  13       -0.9692
  14       -0.9692
  15       -0.7541
  16       -0.7541
  17       -0.4387
  18       -0.4387
  19       -0.0881
  20       -0.0881
  21        0.5993
  22        0.5993
  23        5.3957
  24        5.3957
  25        8.6404
  26        8.6404
  27       11.8315
  28       11.8315
 
  0.3333333E+00  0.3333333E+00  0.8333333E-01  0.1388889E-01
   1       -2.6725
   2       -2.4722
   3       -2.3701
   4       -2.3701
   5       -2.0544
   6       -2.0544
   7       -1.9357
   8       -1.7900
   9       -1.5420
  10       -1.5420
  11       -1.3545
  12       -1.3362
  13       -1.2337
  14       -0.8574
  15       -0.7706
  16       -0.6552
  17       -0.6552
  18       -0.1818
  19       -0.1818
  20       -0.1427
  21        0.0978
  22        2.8478
  23        2.8478
  24        6.0669
  25        7.7616
  26       10.9045
  27       10.9045
  28       11.2298
 
  0.4166667E+00  0.3333333E+00  0.8333333E-01  0.2777778E-01
   1       -2.4874
   2       -2.3508
   3       -2.3364
   4       -2.2117
   5       -1.9760
   6       -1.8725
   7       -1.8550
   8       -1.7791
   9       -1.6677
  10       -1.6496
  11       -1.4507
  12       -1.4390
  13       -1.1508
  14       -0.8610
  15       -0.8284
  16       -0.7637
  17       -0.7513
  18       -0.3475
  19       -0.2376
  20       -0.2171
  21        0.5315
  22        1.8975
  23        3.5246
  24        5.1223
  25        8.4382
  26       10.0104
  27       11.5789
  28       11.6886
 
  0.5000000E+00  0.3333333E+00  0.8333333E-01  0.1388889E-01
   1       -2.3692
   2       -2.3692
   3       -2.2058
   4       -2.2058
   5       -1.9606
   6       -1.9606
   7       -1.7639
   8       -1.7639
   9       -1.6193
  10       -1.6193
  11       -1.5405
  12       -1.5405
  13       -1.0045
  14       -1.0045
  15       -0.8601
  16       -0.8601
  17       -0.5484
  18       -0.5484
  19       -0.2501
  20       -0.2501
  21        1.1225
  22        1.1225
  23        4.2781
  24        4.2781
  25        9.1904
  26        9.1904
  27       12.2785
  28       12.2785
 
  0.4166667E+00  0.4166667E+00  0.8333333E-01  0.1388889E-01
   1       -2.3923
   2       -2.3001
   3       -2.2501
   4       -2.2501
   5       -1.8447
   6       -1.8447
   7       -1.8371
   8       -1.7487
   9       -1.5958
  10       -1.5958
  11       -1.4119
  12       -1.3662
  13       -1.1694
  14       -0.9693
  15       -0.9101
  16       -0.9101
  17       -0.7447
  18       -0.4163
  19       -0.4163
  20       -0.3397
  21        1.0650
  22        2.5505
  23        2.5505
  24        4.1475
  25        9.0998
  26       10.6687
  27       10.6687
  28       12.2022
 
  0.5000000E+00  0.4166667E+00  0.8333333E-01  0.1388889E-01
   1       -2.3142
   2       -2.3142
   3       -2.2451
   4       -2.2451
   5       -1.8676
   6       -1.8676
   7       -1.7739
   8       -1.7739
   9       -1.4577
  10       -1.4577
  11       -1.4330
  12       -1.4330
  13       -1.0655
  14       -1.0655
  15       -0.9916
  16       -0.9916
  17       -0.6041
  18       -0.6041
  19       -0.4145
  20       -0.4145
  21        1.7311
  22        1.7311
  23        3.2945
  24        3.2945
  25        9.8440
  26        9.8440
  27       11.4226
  28       11.4226
 
  0.5000000E+00  0.5000000E+00  0.8333333E-01  0.3472222E-02
   1       -2.2778
   2       -2.2778
   3       -2.2778
   4       -2.2778
   5       -1.8123
   6       -1.8123
   7       -1.8123
   8       -1.8123
   9       -1.3487
  10       -1.3487
  11       -1.3487
  12       -1.3487
  13       -1.0997
  14       -1.0997
  15       -1.0997
  16       -1.0997
  17       -0.5510
  18       -0.5510
  19       -0.5510
  20       -0.5510
  21        2.4485
  22        2.4485
  23        2.4485
  24        2.4485
  25       10.5891
  26       10.5891
  27       10.5891
  28       10.5891
 
  0.1666667E+00  0.1666667E+00  0.1666667E+00  0.4629630E-02
   1       -3.5721
   2       -2.7921
   3       -2.7921
   4       -2.7921
   5       -2.5605
   6       -2.5605
   7       -2.5605
   8       -1.6867
   9       -1.4437
  10       -1.4437
  11       -0.6896
  12       -0.6896
  13       -0.5993
  14       -0.5993
  15       -0.5993
  16       -0.4013
  17       -0.4013
  18       -0.4013
  19        0.1372
  20        0.1372
  21        0.1372
  22        4.2701
  23        4.2701
  24        4.2701
  25       10.6069
  26       10.6069
  27       10.6069
  28       11.7738
 
  0.2500000E+00  0.1666667E+00  0.1666667E+00  0.1388889E-01