 vasp.4.6.28 25Jul05 complex 
 executed on             LinuxIFC date 2016.12.21  13:11:37
 running on    4 nodes
 distr:  one band on    1 nodes,    4 groups


--------------------------------------------------------------------------------------------------------


 INCAR:
 POTCAR:   PAW_PBE Ag 06Sep2000                   
 POTCAR:   PAW_PBE Ag 06Sep2000                   
   VRHFIN =Ag : s1 d10                                                          
   LEXCH  = PE                                                                  
   EATOM  =  1037.4134 eV,   76.2477 Ry                                         
                                                                                
   TITEL  = PAW_PBE Ag 06Sep2000                                                
   LULTRA =        F    use ultrasoft PP ?                                      
   IUNSCR =        1    unscreen: 0-lin 1-nonlin 2-no                           
   RPACOR =    2.000    partial core radius                                     
   POMASS =  107.868; ZVAL   =   11.000    mass and valenz                      
   RCORE  =    2.400    outmost cutoff radius                                   
   RWIGS  =    2.840; RWIGS  =    1.503    wigner-seitz radius (au A)           
   ENMAX  =  249.846; ENMIN  =  187.385 eV                                      
   RCLOC  =    1.962    cutoff for local pot                                    
   LCOR   =        T    correct aug charges                                     
   LPAW   =        T    paw PP                                                  
   EAUG   =  412.496                                                            
   DEXC   =    -.047                                                            
   RMAX   =    2.917    core radius for proj-oper                               
   RAUG   =    1.300    factor for augmentation sphere                          
   RDEP   =    2.416    radius for radial grids                                 
   QCUT   =   -4.285; QGAM   =    8.570    optimization parameters              
                                                                                
   Description                                                                  
     l     E      TYP  RCUT    TYP  RCUT                                        
     2   .000     23  2.400                                                     
     2   .000     23  2.400                                                     
     0   .000     23  2.400                                                     
     0   .000     23  2.400                                                     
     1  -.200     23  2.400                                                     
     1  1.500     23  2.400                                                     
     3   .000      7   .000                                                     
  local pseudopotential read in
  partial core-charges read in
  atomic valenz-charges read in
  non local Contribution for L=           2  read in
    real space projection operators read in
  non local Contribution for L=           2  read in
    real space projection operators read in
  non local Contribution for L=           0  read in
    real space projection operators read in
  non local Contribution for L=           0  read in
    real space projection operators read in
  non local Contribution for L=           1  read in
    real space projection operators read in
  non local Contribution for L=           1  read in
    real space projection operators read in
    PAW grid and wavefunctions read in
 
   number of l-projection  operators is LMAX  =           6
   number of lm-projection operators is LMMAX =          18
 
 PAW_PBE Ag 06Sep2000                   :
 energy of atom  1       EATOM=-1037.4134
 kinetic energy error for atom=    0.0052 (will be added to EATOM!!)
 
 EXHCAR: internal setup
 exchange correlation table for  LEXCH =        8
   RHO(1)=    0.500       N(1)  =     2000
   RHO(2)=  100.500       N(2)  =     4000
 
 POSCAR: Ag                                      
  positions in direct lattice
  No initial velocities read in
 


--------------------------------------------------------------------------------------------------------


 ion  position               nearest neighbor table
   1  0.000  0.000  0.000-   2 2.90   3 2.90   4 2.90   3 2.90   4 2.90   2 2.90   4 2.90   4 2.90
                             2 2.90   3 2.90   3 2.90   2 2.90
   2  0.500  0.500  0.000-   1 2.90   3 2.90   4 2.90   3 2.90   4 2.90   1 2.90   3 2.90   3 2.90
                             1 2.90   4 2.90   4 2.90   1 2.90
   3  0.500  0.000  0.500-   1 2.90   2 2.90   4 2.90   1 2.90   2 2.90   2 2.90   4 2.90   2 2.90
                             1 2.90   4 2.90   1 2.90   4 2.90
   4  0.000  0.500  0.500-   1 2.90   2 2.90   3 2.90   1 2.90   2 2.90   1 2.90   3 2.90   1 2.90
                             2 2.90   3 2.90   2 2.90   3 2.90
 
  LATTYP: Found a simple cubic cell.
 ALAT       =     4.1023071000
  
  Lattice vectors:
  
 A1 = (   4.1023071000,   0.0000000000,   0.0000000000)
 A2 = (   0.0000000000,   4.1023071000,   0.0000000000)
 A3 = (   0.0000000000,   0.0000000000,   4.1023071000)
 Subroutine PRICEL returns following result:
 
  LATTYP: Found a face centered cubic cell.
 ALAT       =     4.1023071000
  
  Lattice vectors:
  
 A1 = (   2.0511535500,   2.0511535500,   0.0000000000)
 A2 = (   2.0511535500,   0.0000000000,  -2.0511535500)
 A3 = (   0.0000000000,   2.0511535500,  -2.0511535500)
 
   4 primitive cells build up your supercell.
 

Analysis of symmetry for initial positions (statically):

 Routine SETGRP: Setting up the symmetry group for a 
 simple cubic supercell.


 Subroutine GETGRP returns: Found 48 space group operations
 (whereof 48 operations were pure point group operations)
 out of a pool of 48 trial point group operations.


The static configuration has the point symmetry O_h .

Analysis of symmetry for dynamics (positions and initial velocities):

 Subroutine DYNSYM returns: Found 48 space group operations
 (whereof 48 operations were pure point group operations)
 out of a pool of 48 trial space group operations
 (whereof 48 operations were pure point group operations)
 and found also     4 'primitive' translations


The dynamic configuration has the point symmetry O_h .
 
 
 KPOINTS: Automatic mesh                          

Automatic generation of k-mesh.
 generate k-points for:  12  12  12
 
 Subroutine IBZKPT returns following result:
 ===========================================
 
 Found     84 irreducible k-points:
 
 Following reciprocal coordinates:
            Coordinates               Weight
  0.000000  0.000000  0.000000      1.000000
  0.083333  0.000000  0.000000      6.000000
  0.166667  0.000000  0.000000      6.000000
  0.250000  0.000000  0.000000      6.000000
  0.333333  0.000000  0.000000      6.000000
  0.416667  0.000000  0.000000      6.000000
  0.500000  0.000000  0.000000      3.000000
  0.083333  0.083333  0.000000     12.000000
  0.166667  0.083333  0.000000     24.000000
  0.250000  0.083333  0.000000     24.000000
  0.333333  0.083333  0.000000     24.000000
  0.416667  0.083333  0.000000     24.000000
  0.500000  0.083333  0.000000     12.000000
  0.166667  0.166667  0.000000     12.000000
  0.250000  0.166667  0.000000     24.000000
  0.333333  0.166667  0.000000     24.000000
  0.416667  0.166667  0.000000     24.000000
  0.500000  0.166667  0.000000     12.000000
  0.250000  0.250000  0.000000     12.000000
  0.333333  0.250000  0.000000     24.000000
  0.416667  0.250000  0.000000     24.000000
  0.500000  0.250000  0.000000     12.000000
  0.333333  0.333333  0.000000     12.000000
  0.416667  0.333333  0.000000     24.000000
  0.500000  0.333333  0.000000     12.000000
  0.416667  0.416667  0.000000     12.000000
  0.500000  0.416667  0.000000     12.000000
  0.500000  0.500000  0.000000      3.000000
  0.083333  0.083333  0.083333      8.000000
  0.166667  0.083333  0.083333     24.000000
  0.250000  0.083333  0.083333     24.000000
  0.333333  0.083333  0.083333     24.000000
  0.416667  0.083333  0.083333     24.000000
  0.500000  0.083333  0.083333     12.000000
  0.166667  0.166667  0.083333     24.000000
  0.250000  0.166667  0.083333     48.000000
  0.333333  0.166667  0.083333     48.000000
  0.416667  0.166667  0.083333     48.000000
  0.500000  0.166667  0.083333     24.000000
  0.250000  0.250000  0.083333     24.000000
  0.333333  0.250000  0.083333     48.000000
  0.416667  0.250000  0.083333     48.000000
  0.500000  0.250000  0.083333     24.000000
  0.333333  0.333333  0.083333     24.000000
  0.416667  0.333333  0.083333     48.000000
  0.500000  0.333333  0.083333     24.000000
  0.416667  0.416667  0.083333     24.000000
  0.500000  0.416667  0.083333     24.000000
  0.500000  0.500000  0.083333      6.000000
  0.166667  0.166667  0.166667      8.000000
  0.250000  0.166667  0.166667     24.000000
  0.333333  0.166667  0.166667     24.000000
  0.416667  0.166667  0.166667     24.000000
  0.500000  0.166667  0.166667     12.000000
  0.250000  0.250000  0.166667     24.000000
  0.333333  0.250000  0.166667     48.000000
  0.416667  0.250000  0.166667     48.000000
  0.500000  0.250000  0.166667     24.000000
  0.333333  0.333333  0.166667     24.000000
  0.416667  0.333333  0.166667     48.000000
  0.500000  0.333333  0.166667     24.000000
  0.416667  0.416667  0.166667     24.000000
  0.500000  0.416667  0.166667     24.000000
  0.500000  0.500000  0.166667      6.000000
  0.250000  0.250000  0.250000      8.000000
  0.333333  0.250000  0.250000     24.000000
  0.416667  0.250000  0.250000     24.000000
  0.500000  0.250000  0.250000     12.000000
  0.333333  0.333333  0.250000     24.000000
  0.416667  0.333333  0.250000     48.000000
  0.500000  0.333333  0.250000     24.000000
  0.416667  0.416667  0.250000     24.000000
  0.500000  0.416667  0.250000     24.000000
  0.500000  0.500000  0.250000      6.000000
  0.333333  0.333333  0.333333      8.000000
  0.416667  0.333333  0.333333     24.000000
  0.500000  0.333333  0.333333     12.000000
  0.416667  0.416667  0.333333     24.000000
  0.500000  0.416667  0.333333     24.000000
  0.500000  0.500000  0.333333      6.000000
  0.416667  0.416667  0.416667      8.000000
  0.500000  0.416667  0.416667     12.000000
  0.500000  0.500000  0.416667      6.000000
  0.500000  0.500000  0.500000      1.000000
 
 Following cartesian coordinates:
            Coordinates               Weight
  0.000000  0.000000  0.000000      1.000000
  0.020314  0.000000  0.000000      6.000000
  0.040628  0.000000  0.000000      6.000000
  0.060941  0.000000  0.000000      6.000000
  0.081255  0.000000  0.000000      6.000000
  0.101569  0.000000  0.000000      6.000000
  0.121883  0.000000  0.000000      3.000000
  0.020314  0.020314  0.000000     12.000000
  0.040628  0.020314  0.000000     24.000000
  0.060941  0.020314  0.000000     24.000000
  0.081255  0.020314  0.000000     24.000000
  0.101569  0.020314  0.000000     24.000000
  0.121883  0.020314  0.000000     12.000000
  0.040628  0.040628  0.000000     12.000000
  0.060941  0.040628  0.000000     24.000000
  0.081255  0.040628  0.000000     24.000000
  0.101569  0.040628  0.000000     24.000000
  0.121883  0.040628  0.000000     12.000000
  0.060941  0.060941  0.000000     12.000000
  0.081255  0.060941  0.000000     24.000000
  0.101569  0.060941  0.000000     24.000000
  0.121883  0.060941  0.000000     12.000000
  0.081255  0.081255  0.000000     12.000000
  0.101569  0.081255  0.000000     24.000000
  0.121883  0.081255  0.000000     12.000000
  0.101569  0.101569  0.000000     12.000000
  0.121883  0.101569  0.000000     12.000000
  0.121883  0.121883  0.000000      3.000000
  0.020314  0.020314  0.020314      8.000000
  0.040628  0.020314  0.020314     24.000000
  0.060941  0.020314  0.020314     24.000000
  0.081255  0.020314  0.020314     24.000000
  0.101569  0.020314  0.020314     24.000000
  0.121883  0.020314  0.020314     12.000000
  0.040628  0.040628  0.020314     24.000000
  0.060941  0.040628  0.020314     48.000000
  0.081255  0.040628  0.020314     48.000000
  0.101569  0.040628  0.020314     48.000000
  0.121883  0.040628  0.020314     24.000000
  0.060941  0.060941  0.020314     24.000000
  0.081255  0.060941  0.020314     48.000000
  0.101569  0.060941  0.020314     48.000000
  0.121883  0.060941  0.020314     24.000000
  0.081255  0.081255  0.020314     24.000000
  0.101569  0.081255  0.020314     48.000000
  0.121883  0.081255  0.020314     24.000000
  0.101569  0.101569  0.020314     24.000000
  0.121883  0.101569  0.020314     24.000000
  0.121883  0.121883  0.020314      6.000000
  0.040628  0.040628  0.040628      8.000000
  0.060941  0.040628  0.040628     24.000000
  0.081255  0.040628  0.040628     24.000000
  0.101569  0.040628  0.040628     24.000000
  0.121883  0.040628  0.040628     12.000000
  0.060941  0.060941  0.040628     24.000000
  0.081255  0.060941  0.040628     48.000000
  0.101569  0.060941  0.040628     48.000000
  0.121883  0.060941  0.040628     24.000000
  0.081255  0.081255  0.040628     24.000000
  0.101569  0.081255  0.040628     48.000000
  0.121883  0.081255  0.040628     24.000000
  0.101569  0.101569  0.040628     24.000000
  0.121883  0.101569  0.040628     24.000000
  0.121883  0.121883  0.040628      6.000000
  0.060941  0.060941  0.060941      8.000000
  0.081255  0.060941  0.060941     24.000000
  0.101569  0.060941  0.060941     24.000000
  0.121883  0.060941  0.060941     12.000000
  0.081255  0.081255  0.060941     24.000000
  0.101569  0.081255  0.060941     48.000000
  0.121883  0.081255  0.060941     24.000000
  0.101569  0.101569  0.060941     24.000000
  0.121883  0.101569  0.060941     24.000000
  0.121883  0.121883  0.060941      6.000000
  0.081255  0.081255  0.081255      8.000000
  0.101569  0.081255  0.081255     24.000000
  0.121883  0.081255  0.081255     12.000000
  0.101569  0.101569  0.081255     24.000000
  0.121883  0.101569  0.081255     24.000000
  0.121883  0.121883  0.081255      6.000000
  0.101569  0.101569  0.101569      8.000000
  0.121883  0.101569  0.101569     12.000000
  0.121883  0.121883  0.101569      6.000000
  0.121883  0.121883  0.121883      1.000000
 


--------------------------------------------------------------------------------------------------------




 Dimension of arrays:
   k-Points           NKPTS =     84   number of bands    NBANDS=     28
   number of dos      NEDOS =    301   number of ions     NIONS =      4
   non local maximal  LDIM  =      6   non local SUM 2l+1 LMDIM =     18
   total plane-waves  NPLWV =  27000
   max r-space proj   IRMAX =      1   max aug-charges    IRDMAX= 154018
   dimension x,y,z NGX =    30 NGY =   30 NGZ =   30
   dimension x,y,z NGXF=    60 NGYF=   60 NGZF=   60
   support grid    NGXF=   120 NGYF=  120 NGZF=  120
   ions per type =               4
 NGX,Y,Z   is equivalent  to a cutoff of  12.16, 12.16, 12.16 a.u.
 NGXF,Y,Z  is equivalent  to a cutoff of  24.31, 24.31, 24.31 a.u.


 I would recommend the setting:
   dimension x,y,z NGX =    30 NGY =   30 NGZ =   30
 SYSTEM =  unknown system                          
 POSCAR =  Ag                                      

 Startparameter for this run:
   NWRITE =      2    write-flag & timer
   PREC   = accura    medium, high low
   ISTART =      0    job   : 0-new  1-cont  2-samecut
   ICHARG =      2    charge: 1-file 2-atom 10-const
   ISPIN  =      1    spin polarized calculation?
   LNONCOLLINEAR =      F non collinear calculations
   LSORBIT =      F    spin-orbit coupling
   INIWAV =      1    electr: 0-lowe 1-rand  2-diag
   LASPH  =      F    aspherical Exc in radial PAW
   METAGGA=      F    non-selfconsistent MetaGGA calc.

 Electronic Relaxation 1
   ENCUT  =  500.0 eV  36.75 Ry    6.06 a.u.   7.48  7.48  7.48*2*pi/ulx,y,z
   ENINI  =  500.0     initial cutoff
   ENAUG  =  412.5 eV  augmentation charge cutoff
   NELM   =     60;   NELMIN=  2; NELMDL=  0     # of ELM steps 
   EDIFF  = 0.1E-07   stopping-criterion for ELM
   LREAL  =      F    real-space projection
   LCOMPAT=      F    compatible to vasp.4.4
   LREAL_COMPAT= F    compatible to vasp.4.5.1-3
   GGA_COMPAT  = T    GGA compatible to vasp.4.4-vasp.4.6
   LMAXPAW     = -100 max onsite density
   LMAXMIX     =    2 max onsite mixed and CHGCAR
   VOSKOWN=      0    Vosko Wilk Nusair interpolation
   ROPT   =    0.00000
 Ionic relaxation
   EDIFFG = 0.1E-06   stopping-criterion for IOM
   NSW    =    200    number of steps for IOM
   NBLOCK =      1;   KBLOCK =    200    inner block; outer block 
   IBRION =      2    ionic relax: 0-MD 1-quasi-New 2-CG
   NFREE  =      1    steps in history (QN), initial steepest desc. (CG)
   ISIF   =      3    stress and relaxation
   IWAVPR =     11    prediction:  0-non 1-charg 2-wave 3-comb
   ISYM   =      2    0-nonsym 1-usesym 2-fastsym
   LCORR  =      T    Harris-Foulkes like correction to forces

   POTIM  =   0.50    time-step for ionic-motion
   TEIN   =    0.0    initial temperature
   TEBEG  =    0.0;   TEEND  =   0.0 temperature during run
   SMASS  =  -3.00    Nose mass-parameter (am)
   estimated Nose-frequenzy (Omega)   =  0.10E-29 period in steps =****** mass=  -0.385E-27a.u.
   NPACO  =    256;   APACO  = 16.0  distance and # of slots for P.C.
   PSTRESS=    0.0 pullay stress

  Mass of Ions in am
   POMASS = 107.87
  Ionic Valenz
   ZVAL   =  11.00
  Atomic Wigner-Seitz radii
   RWIGS  =  -1.00
   NELECT =      44.0000    total number of electrons
   NUPDOWN=      -1.0000    fix difference up-down

 DOS related values:
   EMIN   =  10.00;   EMAX   =-10.00  energy-range for DOS
   ISMEAR =     0;   SIGMA  =   0.01  broadening in eV -4-tet -1-fermi 0-gaus

 Electronic relaxation 2 (details)
   IALGO  =     38    algorithm
   LDIAG  =      T    sub-space diagonalisation
   IMIX   =      4    mixing-type and parameters
     AMIX     =   0.40;   BMIX     =  1.00
     AMIX_MAG =   1.60;   BMIX_MAG =  1.00
     AMIN     =   0.10
     WC   =   100.;   INIMIX=   1;  MIXPRE=   1

 Intra band minimization:
   WEIMIN = 0.0010     energy-eigenvalue tresh-hold
   EBREAK =  0.96E-10  absolut break condition
   DEPER  =   0.30     relativ break condition  

   TIME   =   0.10     timestep for ELM

  volume/ion in A,a.u.               =      17.26       116.47
  Fermi-wavevector in a.u.,eV,Ry     =   1.408848 27.005570  1.984853

 Second variation
   LSECVAR=     F    do a second variation
 
 Write flags
   LWAVE  =      F    write WAVECAR
   LCHARG =      F    write CHGCAR
   LVTOT  =      F    write LOCPOT, local potential
   LELF   =      F    write electronic localiz. function (ELF)
   LORBIT =      0    0 simple, 1 ext, 2 COOP (PROOUT)


 Dipole corrections
   IDIPOL =      0    1-x, 2-y, 3-z
   LDIPOL =      F    correct potential



--------------------------------------------------------------------------------------------------------


 conjugate gradient relaxation of ions
 charge density will be updated during run
 non-spin polarized calculation
 Variant of blocked Davidson
 Davidson routine will perform the subspace rotation
 performe sub-space diagonalisation
    after iterative eigenvector-optimisation
 modified Broyden-mixing scheme, WC =      100.0
 initial mixing is a Kerker type mixing with AMIX =  0.4000 and BMIX =      1.0000
 Hartree-type preconditioning will be used
 using additional bands            6
 reciprocal scheme for non local part
 use partial core corrections
 calculate Harris-corrections to forces 
   (improved forces if not selfconsistent)
 use gradient corrections 
 use of overlap-Matrix (Vanderbilt PP)
 Gauss-broadening in eV      SIGMA  =   0.01


--------------------------------------------------------------------------------------------------------


  energy-cutoff  :      500.00
  volume of cell :       69.04
      direct lattice vectors                 reciprocal lattice vectors
     4.102307100  0.000000000  0.000000000     0.243765271  0.000000000  0.000000000
     0.000000000  4.102307100  0.000000000     0.000000000  0.243765271  0.000000000
     0.000000000  0.000000000  4.102307100     0.000000000  0.000000000  0.243765271

  length of vectors
     4.102307100  4.102307100  4.102307100     0.243765271  0.243765271  0.243765271


 
 k-points in units of 2pi/SCALE and weight: Automatic mesh                          
   0.00000000  0.00000000  0.00000000       0.001
   0.02031377  0.00000000  0.00000000       0.003
   0.04062755  0.00000000  0.00000000       0.003
   0.06094132  0.00000000  0.00000000       0.003
   0.08125509  0.00000000  0.00000000       0.003
   0.10156886  0.00000000  0.00000000       0.003
   0.12188264  0.00000000  0.00000000       0.002
   0.02031377  0.02031377  0.00000000       0.007
   0.04062755  0.02031377  0.00000000       0.014
   0.06094132  0.02031377  0.00000000       0.014
   0.08125509  0.02031377  0.00000000       0.014
   0.10156886  0.02031377  0.00000000       0.014
   0.12188264  0.02031377  0.00000000       0.007
   0.04062755  0.04062755  0.00000000       0.007
   0.06094132  0.04062755  0.00000000       0.014
   0.08125509  0.04062755  0.00000000       0.014
   0.10156886  0.04062755  0.00000000       0.014
   0.12188264  0.04062755  0.00000000       0.007
   0.06094132  0.06094132  0.00000000       0.007
   0.08125509  0.06094132  0.00000000       0.014
   0.10156886  0.06094132  0.00000000       0.014
   0.12188264  0.06094132  0.00000000       0.007
   0.08125509  0.08125509  0.00000000       0.007
   0.10156886  0.08125509  0.00000000       0.014
   0.12188264  0.08125509  0.00000000       0.007
   0.10156886  0.10156886  0.00000000       0.007
   0.12188264  0.10156886  0.00000000       0.007
   0.12188264  0.12188264  0.00000000       0.002
   0.02031377  0.02031377  0.02031377       0.005
   0.04062755  0.02031377  0.02031377       0.014
   0.06094132  0.02031377  0.02031377       0.014
   0.08125509  0.02031377  0.02031377       0.014
   0.10156886  0.02031377  0.02031377       0.014
   0.12188264  0.02031377  0.02031377       0.007
   0.04062755  0.04062755  0.02031377       0.014
   0.06094132  0.04062755  0.02031377       0.028
   0.08125509  0.04062755  0.02031377       0.028
   0.10156886  0.04062755  0.02031377       0.028
   0.12188264  0.04062755  0.02031377       0.014
   0.06094132  0.06094132  0.02031377       0.014
   0.08125509  0.06094132  0.02031377       0.028
   0.10156886  0.06094132  0.02031377       0.028
   0.12188264  0.06094132  0.02031377       0.014
   0.08125509  0.08125509  0.02031377       0.014
   0.10156886  0.08125509  0.02031377       0.028
   0.12188264  0.08125509  0.02031377       0.014
   0.10156886  0.10156886  0.02031377       0.014
   0.12188264  0.10156886  0.02031377       0.014
   0.12188264  0.12188264  0.02031377       0.003
   0.04062755  0.04062755  0.04062755       0.005
   0.06094132  0.04062755  0.04062755       0.014
   0.08125509  0.04062755  0.04062755       0.014
   0.10156886  0.04062755  0.04062755       0.014
   0.12188264  0.04062755  0.04062755       0.007
   0.06094132  0.06094132  0.04062755       0.014
   0.08125509  0.06094132  0.04062755       0.028
   0.10156886  0.06094132  0.04062755       0.028
   0.12188264  0.06094132  0.04062755       0.014
   0.08125509  0.08125509  0.04062755       0.014
   0.10156886  0.08125509  0.04062755       0.028
   0.12188264  0.08125509  0.04062755       0.014
   0.10156886  0.10156886  0.04062755       0.014
   0.12188264  0.10156886  0.04062755       0.014
   0.12188264  0.12188264  0.04062755       0.003
   0.06094132  0.06094132  0.06094132       0.005
   0.08125509  0.06094132  0.06094132       0.014
   0.10156886  0.06094132  0.06094132       0.014
   0.12188264  0.06094132  0.06094132       0.007
   0.08125509  0.08125509  0.06094132       0.014
   0.10156886  0.08125509  0.06094132       0.028
   0.12188264  0.08125509  0.06094132       0.014
   0.10156886  0.10156886  0.06094132       0.014
   0.12188264  0.10156886  0.06094132       0.014
   0.12188264  0.12188264  0.06094132       0.003
   0.08125509  0.08125509  0.08125509       0.005
   0.10156886  0.08125509  0.08125509       0.014
   0.12188264  0.08125509  0.08125509       0.007
   0.10156886  0.10156886  0.08125509       0.014
   0.12188264  0.10156886  0.08125509       0.014
   0.12188264  0.12188264  0.08125509       0.003
   0.10156886  0.10156886  0.10156886       0.005
   0.12188264  0.10156886  0.10156886       0.007
   0.12188264  0.12188264  0.10156886       0.003
   0.12188264  0.12188264  0.12188264       0.001
 
 k-points in reciprocal lattice and weights: Automatic mesh                          
   0.00000000  0.00000000  0.00000000       0.001
   0.08333333  0.00000000  0.00000000       0.003
   0.16666667  0.00000000  0.00000000       0.003
   0.25000000  0.00000000  0.00000000       0.003
   0.33333333  0.00000000  0.00000000       0.003
   0.41666667  0.00000000  0.00000000       0.003
   0.50000000  0.00000000  0.00000000       0.002
   0.08333333  0.08333333  0.00000000       0.007
   0.16666667  0.08333333  0.00000000       0.014
   0.25000000  0.08333333  0.00000000       0.014
   0.33333333  0.08333333  0.00000000       0.014
   0.41666667  0.08333333  0.00000000       0.014
   0.50000000  0.08333333  0.00000000       0.007
   0.16666667  0.16666667  0.00000000       0.007
   0.25000000  0.16666667  0.00000000       0.014
   0.33333333  0.16666667  0.00000000       0.014
   0.41666667  0.16666667  0.00000000       0.014
   0.50000000  0.16666667  0.00000000       0.007
   0.25000000  0.25000000  0.00000000       0.007
   0.33333333  0.25000000  0.00000000       0.014
   0.41666667  0.25000000  0.00000000       0.014
   0.50000000  0.25000000  0.00000000       0.007
   0.33333333  0.33333333  0.00000000       0.007
   0.41666667  0.33333333  0.00000000       0.014
   0.50000000  0.33333333  0.00000000       0.007
   0.41666667  0.41666667  0.00000000       0.007
   0.50000000  0.41666667  0.00000000       0.007
   0.50000000  0.50000000  0.00000000       0.002
   0.08333333  0.08333333  0.08333333       0.005
   0.16666667  0.08333333  0.08333333       0.014
   0.25000000  0.08333333  0.08333333       0.014
   0.33333333  0.08333333  0.08333333       0.014
   0.41666667  0.08333333  0.08333333       0.014
   0.50000000  0.08333333  0.08333333       0.007
   0.16666667  0.16666667  0.08333333       0.014
   0.25000000  0.16666667  0.08333333       0.028
   0.33333333  0.16666667  0.08333333       0.028
   0.41666667  0.16666667  0.08333333       0.028
   0.50000000  0.16666667  0.08333333       0.014
   0.25000000  0.25000000  0.08333333       0.014
   0.33333333  0.25000000  0.08333333       0.028
   0.41666667  0.25000000  0.08333333       0.028
   0.50000000  0.25000000  0.08333333       0.014
   0.33333333  0.33333333  0.08333333       0.014
   0.41666667  0.33333333  0.08333333       0.028
   0.50000000  0.33333333  0.08333333       0.014
   0.41666667  0.41666667  0.08333333       0.014
   0.50000000  0.41666667  0.08333333       0.014
   0.50000000  0.50000000  0.08333333       0.003
   0.16666667  0.16666667  0.16666667       0.005
   0.25000000  0.16666667  0.16666667       0.014
   0.33333333  0.16666667  0.16666667       0.014
   0.41666667  0.16666667  0.16666667       0.014
   0.50000000  0.16666667  0.16666667       0.007
   0.25000000  0.25000000  0.16666667       0.014
   0.33333333  0.25000000  0.16666667       0.028
   0.41666667  0.25000000  0.16666667       0.028
   0.50000000  0.25000000  0.16666667       0.014
   0.33333333  0.33333333  0.16666667       0.014
   0.41666667  0.33333333  0.16666667       0.028
   0.50000000  0.33333333  0.16666667       0.014
   0.41666667  0.41666667  0.16666667       0.014
   0.50000000  0.41666667  0.16666667       0.014
   0.50000000  0.50000000  0.16666667       0.003
   0.25000000  0.25000000  0.25000000       0.005
   0.33333333  0.25000000  0.25000000       0.014
   0.41666667  0.25000000  0.25000000       0.014
   0.50000000  0.25000000  0.25000000       0.007
   0.33333333  0.33333333  0.25000000       0.014
   0.41666667  0.33333333  0.25000000       0.028
   0.50000000  0.33333333  0.25000000       0.014
   0.41666667  0.41666667  0.25000000       0.014
   0.50000000  0.41666667  0.25000000       0.014
   0.50000000  0.50000000  0.25000000       0.003
   0.33333333  0.33333333  0.33333333       0.005
   0.41666667  0.33333333  0.33333333       0.014
   0.50000000  0.33333333  0.33333333       0.007
   0.41666667  0.41666667  0.33333333       0.014
   0.50000000  0.41666667  0.33333333       0.014
   0.50000000  0.50000000  0.33333333       0.003
   0.41666667  0.41666667  0.41666667       0.005
   0.50000000  0.41666667  0.41666667       0.007
   0.50000000  0.50000000  0.41666667       0.003
   0.50000000  0.50000000  0.50000000       0.001
 
 position of ions in fractional coordinates (direct lattice) 
   0.00000000  0.00000000  0.00000000
   0.50000000  0.50000000  0.00000000
   0.50000000  0.00000000  0.50000000
   0.00000000  0.50000000  0.50000000
 
 position of ions in cartesian coordinates  (Angst):
   0.00000000  0.00000000  0.00000000
   2.05115355  2.05115355  0.00000000
   2.05115355  0.00000000  2.05115355
   0.00000000  2.05115355  2.05115355
 


--------------------------------------------------------------------------------------------------------


 k-point  1 :  0.00000.00000.0000  plane waves:   1743
 k-point  2 :  0.08330.00000.0000  plane waves:   1771
 k-point  3 :  0.16670.00000.0000  plane waves:   1775
 k-point  4 :  0.25000.00000.0000  plane waves:   1763
 k-point  5 :  0.33330.00000.0000  plane waves:   1767
 k-point  6 :  0.41670.00000.0000  plane waves:   1755
 k-point  7 :  0.50000.00000.0000  plane waves:   1750
 k-point  8 :  0.08330.08330.0000  plane waves:   1777
 k-point  9 :  0.16670.08330.0000  plane waves:   1765
 k-point 10 :  0.25000.08330.0000  plane waves:   1764
 k-point 11 :  0.33330.08330.0000  plane waves:   1753
 k-point 12 :  0.41670.08330.0000  plane waves:   1756
 k-point 13 :  0.50000.08330.0000  plane waves:   1756
 k-point 14 :  0.16670.16670.0000  plane waves:   1765
 k-point 15 :  0.25000.16670.0000  plane waves:   1766
 k-point 16 :  0.33330.16670.0000  plane waves:   1759
 k-point 17 :  0.41670.16670.0000  plane waves:   1759
 k-point 18 :  0.50000.16670.0000  plane waves:   1736
 k-point 19 :  0.25000.25000.0000  plane waves:   1759
 k-point 20 :  0.33330.25000.0000  plane waves:   1758
 k-point 21 :  0.41670.25000.0000  plane waves:   1753
 k-point 22 :  0.50000.25000.0000  plane waves:   1752
 k-point 23 :  0.33330.33330.0000  plane waves:   1746
 k-point 24 :  0.41670.33330.0000  plane waves:   1740
 k-point 25 :  0.50000.33330.0000  plane waves:   1736
 k-point 26 :  0.41670.41670.0000  plane waves:   1728
 k-point 27 :  0.50000.41670.0000  plane waves:   1738
 k-point 28 :  0.50000.50000.0000  plane waves:   1740
 k-point 29 :  0.08330.08330.0833  plane waves:   1767
 k-point 30 :  0.16670.08330.0833  plane waves:   1768
 k-point 31 :  0.25000.08330.0833  plane waves:   1761
 k-point 32 :  0.33330.08330.0833  plane waves:   1756
 k-point 33 :  0.41670.08330.0833  plane waves:   1749
 k-point 34 :  0.50000.08330.0833  plane waves:   1752
 k-point 35 :  0.16670.16670.0833  plane waves:   1770
 k-point 36 :  0.25000.16670.0833  plane waves:   1763
 k-point 37 :  0.33330.16670.0833  plane waves:   1754
 k-point 38 :  0.41670.16670.0833  plane waves:   1755
 k-point 39 :  0.50000.16670.0833  plane waves:   1752
 k-point 40 :  0.25000.25000.0833  plane waves:   1750
 k-point 41 :  0.33330.25000.0833  plane waves:   1759
 k-point 42 :  0.41670.25000.0833  plane waves:   1759
 k-point 43 :  0.50000.25000.0833  plane waves:   1744
 k-point 44 :  0.33330.33330.0833  plane waves:   1762
 k-point 45 :  0.41670.33330.0833  plane waves:   1743
 k-point 46 :  0.50000.33330.0833  plane waves:   1736
 k-point 47 :  0.41670.41670.0833  plane waves:   1736
 k-point 48 :  0.50000.41670.0833  plane waves:   1736
 k-point 49 :  0.50000.50000.0833  plane waves:   1736
 k-point 50 :  0.16670.16670.1667  plane waves:   1743
 k-point 51 :  0.25000.16670.1667  plane waves:   1754
 k-point 52 :  0.33330.16670.1667  plane waves:   1762
 k-point 53 :  0.41670.16670.1667  plane waves:   1759
 k-point 54 :  0.50000.16670.1667  plane waves:   1752
 k-point 55 :  0.25000.25000.1667  plane waves:   1754
 k-point 56 :  0.33330.25000.1667  plane waves:   1751
 k-point 57 :  0.41670.25000.1667  plane waves:   1750
 k-point 58 :  0.50000.25000.1667  plane waves:   1744
 k-point 59 :  0.33330.33330.1667  plane waves:   1759
 k-point 60 :  0.41670.33330.1667  plane waves:   1745
 k-point 61 :  0.50000.33330.1667  plane waves:   1744
 k-point 62 :  0.41670.41670.1667  plane waves:   1748
 k-point 63 :  0.50000.41670.1667  plane waves:   1736
 k-point 64 :  0.50000.50000.1667  plane waves:   1752
 k-point 65 :  0.25000.25000.2500  plane waves:   1749
 k-point 66 :  0.33330.25000.2500  plane waves:   1758
 k-point 67 :  0.41670.25000.2500  plane waves:   1750
 k-point 68 :  0.50000.25000.2500  plane waves:   1756
 k-point 69 :  0.33330.33330.2500  plane waves:   1749
 k-point 70 :  0.41670.33330.2500  plane waves:   1747
 k-point 71 :  0.50000.33330.2500  plane waves:   1744
 k-point 72 :  0.41670.41670.2500  plane waves:   1755
 k-point 73 :  0.50000.41670.2500  plane waves:   1752
 k-point 74 :  0.50000.50000.2500  plane waves:   1748
 k-point 75 :  0.33330.33330.3333  plane waves:   1745
 k-point 76 :  0.41670.33330.3333  plane waves:   1752
 k-point 77 :  0.50000.33330.3333  plane waves:   1748
 k-point 78 :  0.41670.41670.3333  plane waves:   1751
 k-point 79 :  0.50000.41670.3333  plane waves:   1750
 k-point 80 :  0.50000.50000.3333  plane waves:   1740
 k-point 81 :  0.41670.41670.4167  plane waves:   1754
 k-point 82 :  0.50000.41670.4167  plane waves:   1760
 k-point 83 :  0.50000.50000.4167  plane waves:   1756
 k-point 84 :  0.50000.50000.5000  plane waves:   1736

 maximum and minimum number of plane-waves per node :   1777  1728

 maximum number of plane-waves:   1777
 maximal index in each direction: 
   IXMAX=  7   IYMAX=  7   IZMAX=  7
   IXMIN= -7   IYMIN= -7   IZMIN= -7

 NGX is ok and might be reduce to  30
 NGY is ok and might be reduce to  30
 NGZ is ok and might be reduce to  30

 parallel 3dFFT wavefunction:
    minimum data exchange during FFTs selected (reduces bandwidth)
 parallel 3dFFT charge:
    minimum data exchange during FFTs selected (reduces bandwidth)

 For storing wavefunctions   65.94 MBYTES are necessary
 For predicting wavefunctions    2.22 MBYTES are necessary
Broyden mixing: mesh for mixing (old mesh)
   NGX = 15   NGY = 15   NGZ = 15
  (NGX  = 60   NGY  = 60   NGZ  = 60)
 gives a total of   3375 points
 initial charge density was supplied:
 charge density of overlapping atoms calculated
 number of electron   44.0000000 magnetization 
 keeping initial charge density in first step


--------------------------------------------------------------------------------------------------------


 Maximum index for augmentation-charges        37357 (set IRDMAX)


--------------------------------------------------------------------------------------------------------


 First call to EWALD:  gamma=   0.432
 Maximum number of real-space cells 3x 3x 3
 Maximum number of reciprocal cells 3x 3x 3

    FEWALD:  VPU time    0.00: CPU time    0.00


----------------------------------------- Iteration    1(   1)  ---------------------------------------


    POTLOK:  VPU time    0.04: CPU time    0.04
    SETDIJ:  VPU time    0.06: CPU time    0.06
    EDDAV :  VPU time    2.51: CPU time    2.51
    DOS   :  VPU time    0.00: CPU time   -0.00
    ------------------------------------------
      LOOP:  VPU time    2.61: CPU time    2.61

 eigenvalue-minimisations  :  4728
 total energy-change (2. order) : 0.3990504E+03  (-0.2212606E+04)
 number of electron   44.0000000 magnetization 
 augmentation part    44.0000000 magnetization 

 Free energy of the ion-electron system (eV)
  ---------------------------------------------------
  alpha Z        PSCENC =       411.55124789
  Ewald energy   TEWEN  =     -3894.66000223
  -1/2 Hartree   DENC   =      -817.66819130
  -V(xc)+E(xc)   XCENC  =       -42.92199863
  PAW double counting   =      3482.67677651    -3297.07979946
  entropy T*S    EENTRO =        -0.00012622
  eigenvalues    EBANDS =       407.51965120
  atomic energy  EATOM  =      4149.63283719
  ---------------------------------------------------
  free energy    TOTEN  =       399.05039495 eV

  energy without entropy =      399.05052118  energy(sigma->0) =      399.05045806


--------------------------------------------------------------------------------------------------------




----------------------------------------- Iteration    1(   2)  ---------------------------------------


    EDDAV :  VPU time    2.51: CPU time    2.51
    DOS   :  VPU time    0.00: CPU time   -0.00
    ------------------------------------------
      LOOP:  VPU time    2.52: CPU time    2.52

 eigenvalue-minimisations  :  4744
 total energy-change (2. order) :-0.3989110E+03  (-0.3814885E+03)
 number of electron   44.0000000 magnetization 
 augmentation part    44.0000000 magnetization 

 Free energy of the ion-electron system (eV)
  ---------------------------------------------------
  alpha Z        PSCENC =       411.55124789
  Ewald energy   TEWEN  =     -3894.66000223
  -1/2 Hartree   DENC   =      -817.66819130
  -V(xc)+E(xc)   XCENC  =       -42.92199863
  PAW double counting   =      3482.67677651    -3297.07979946
  entropy T*S    EENTRO =        -0.00006286
  eigenvalues    EBANDS =         8.60863668
  atomic energy  EATOM  =      4149.63283719
  ---------------------------------------------------
  free energy    TOTEN  =         0.13944380 eV

  energy without entropy =        0.13950666  energy(sigma->0) =        0.13947523


--------------------------------------------------------------------------------------------------------




----------------------------------------- Iteration    1(   3)  ---------------------------------------


    EDDAV :  VPU time    2.66: CPU time    2.66
    DOS   :  VPU time    0.00: CPU time   -0.00
    ------------------------------------------
      LOOP:  VPU time    2.67: CPU time    2.67

 eigenvalue-minimisations  :  5156
 total energy-change (2. order) :-0.1228453E+02  (-0.1217572E+02)
 number of electron   44.0000000 magnetization 
 augmentation part    44.0000000 magnetization 

 Free energy of the ion-electron system (eV)
  ---------------------------------------------------
  alpha Z        PSCENC =       411.55124789
  Ewald energy   TEWEN  =     -3894.66000223
  -1/2 Hartree   DENC   =      -817.66819130
  -V(xc)+E(xc)   XCENC  =       -42.92199863
  PAW double counting   =      3482.67677651    -3297.07979946
  entropy T*S    EENTRO =        -0.00011333
  eigenvalues    EBANDS =        -3.67584546
  atomic energy  EATOM  =      4149.63283719
  ---------------------------------------------------
  free energy    TOTEN  =       -12.14508882 eV

  energy without entropy =      -12.14497549  energy(sigma->0) =      -12.14503215


--------------------------------------------------------------------------------------------------------




----------------------------------------- Iteration    1(   4)  ---------------------------------------


    EDDAV :  VPU time    2.59: CPU time    2.60
    DOS   :  VPU time   -0.00: CPU time   -0.00
    ------------------------------------------
      LOOP:  VPU time    2.60: CPU time    2.60

 eigenvalue-minimisations  :  4976
 total energy-change (2. order) :-0.7222808E-01  (-0.7216542E-01)
 number of electron   44.0000000 magnetization 
 augmentation part    44.0000000 magnetization 

 Free energy of the ion-electron system (eV)
  ---------------------------------------------------
  alpha Z        PSCENC =       411.55124789
  Ewald energy   TEWEN  =     -3894.66000223
  -1/2 Hartree   DENC   =      -817.66819130
  -V(xc)+E(xc)   XCENC  =       -42.92199863
  PAW double counting   =      3482.67677651    -3297.07979946
  entropy T*S    EENTRO =        -0.00013980
  eigenvalues    EBANDS =        -3.74804707
  atomic energy  EATOM  =      4149.63283719
  ---------------------------------------------------
  free energy    TOTEN  =       -12.21731690 eV

  energy without entropy =      -12.21717709  energy(sigma->0) =      -12.21724700


--------------------------------------------------------------------------------------------------------




----------------------------------------- Iteration    1(   5)  ---------------------------------------


    EDDAV :  VPU time    2.62: CPU time    2.62
    DOS   :  VPU time    0.00: CPU time   -0.00
    CHARGE:  VPU time    0.23: CPU time    0.23
    MIXING:  VPU time    0.00: CPU time    0.00
    ------------------------------------------
      LOOP:  VPU time    2.86: CPU time    2.86

 eigenvalue-minimisations  :  5056
 total energy-change (2. order) :-0.2881642E-03  (-0.2881582E-03)
 number of electron   44.0000000 magnetization 
 augmentation part    20.3634117 magnetization 

 Broyden mixing:
  rms(total) = 0.57746E+00    rms(broyden)= 0.57745E+00
  rms(prec ) = 0.14352E+01
  weight for this iteration     100.00

 Free energy of the ion-electron system (eV)
  ---------------------------------------------------
  alpha Z        PSCENC =       411.55124789
  Ewald energy   TEWEN  =     -3894.66000223
  -1/2 Hartree   DENC   =      -817.66819130
  -V(xc)+E(xc)   XCENC  =       -42.92199863
  PAW double counting   =      3482.67677651    -3297.07979946
  entropy T*S    EENTRO =        -0.00013980
  eigenvalues    EBANDS =        -3.74833523
  atomic energy  EATOM  =      4149.63283719
  ---------------------------------------------------
  free energy    TOTEN  =       -12.21760506 eV

  energy without entropy =      -12.21746526  energy(sigma->0) =      -12.21753516


--------------------------------------------------------------------------------------------------------




----------------------------------------- Iteration    1(   6)  ---------------------------------------


    POTLOK:  VPU time    0.04: CPU time    0.04
    SETDIJ:  VPU time    0.06: CPU time    0.06
    EDDAV :  VPU time    2.59: CPU time    2.59
    DOS   :  VPU time    0.00: CPU time   -0.00
    CHARGE:  VPU time    0.23: CPU time    0.23
    MIXING:  VPU time    0.00: CPU time    0.00
    ------------------------------------------
      LOOP:  VPU time    2.92: CPU time    2.92

 eigenvalue-minimisations  :  4948
 total energy-change (2. order) : 0.9011389E+00  (-0.3051938E+00)
 number of electron   44.0000000 magnetization 
 augmentation part    21.0366391 magnetization 

 Broyden mixing:
  rms(total) = 0.10625E+00    rms(broyden)= 0.10623E+00
  rms(prec ) = 0.23810E+00
  weight for this iteration     100.00

 eigenvalues of (default mixing * dielectric matrix)
  average eigenvalue GAMMA=   1.0806
  1.0806

 Free energy of the ion-electron system (eV)
  ---------------------------------------------------
  alpha Z        PSCENC =       411.55124789
  Ewald energy   TEWEN  =     -3894.66000223
  -1/2 Hartree   DENC   =      -780.15861211
  -V(xc)+E(xc)   XCENC  =       -44.27225788
  PAW double counting   =      3439.03380734    -3256.86219584
  entropy T*S    EENTRO =        -0.00004955
  eigenvalues    EBANDS =       -35.58124094
  atomic energy  EATOM  =      4149.63283719
  ---------------------------------------------------
  free energy    TOTEN  =       -11.31646614 eV

  energy without entropy =      -11.31641658  energy(sigma->0) =      -11.31644136


--------------------------------------------------------------------------------------------------------




----------------------------------------- Iteration    1(   7)  ---------------------------------------


    POTLOK:  VPU time    0.03: CPU time    0.04
    SETDIJ:  VPU time    0.06: CPU time    0.06
    EDDAV :  VPU time    2.55: CPU time    2.55
    DOS   :  VPU time    0.00: CPU time   -0.00
    CHARGE:  VPU time    0.23: CPU time    0.23
    MIXING:  VPU time    0.00: CPU time    0.00
    ------------------------------------------
      LOOP:  VPU time    2.88: CPU time    2.88

 eigenvalue-minimisations  :  4888
 total energy-change (2. order) : 0.2843440E-01  (-0.5577332E-02)
 number of electron   44.0000000 magnetization 
 augmentation part    21.0799748 magnetization 

 Broyden mixing:
  rms(total) = 0.53483E-01    rms(broyden)= 0.53481E-01
  rms(prec ) = 0.10632E+00
  weight for this iteration     100.00

 eigenvalues of (default mixing * dielectric matrix)
  average eigenvalue GAMMA=   1.7248
  1.0482  2.4014

 Free energy of the ion-electron system (eV)
  ---------------------------------------------------
  alpha Z        PSCENC =       411.55124789
  Ewald energy   TEWEN  =     -3894.66000223
  -1/2 Hartree   DENC   =      -774.30714826
  -V(xc)+E(xc)   XCENC  =       -44.49375822
  PAW double counting   =      3452.66144200    -3273.29232730
  entropy T*S    EENTRO =        -0.00004853
  eigenvalues    EBANDS =       -38.38027428
  atomic energy  EATOM  =      4149.63283719
  ---------------------------------------------------
  free energy    TOTEN  =       -11.28803174 eV

  energy without entropy =      -11.28798321  energy(sigma->0) =      -11.28800747


--------------------------------------------------------------------------------------------------------




----------------------------------------- Iteration    1(   8)  ---------------------------------------


    POTLOK:  VPU time    0.04: CPU time    0.04
    SETDIJ:  VPU time    0.06: CPU time    0.06
    EDDAV :  VPU time    2.55: CPU time    2.55
    DOS   :  VPU time    0.00: CPU time   -0.00
    CHARGE:  VPU time    0.23: CPU time    0.23
    MIXING:  VPU time    0.00: CPU time    0.00
    ------------------------------------------
      LOOP:  VPU time    2.88: CPU time    2.88

 eigenvalue-minimisations  :  4892
 total energy-change (2. order) : 0.1219800E-01  (-0.4331379E-03)
 number of electron   44.0000000 magnetization 
 augmentation part    21.0819356 magnetization 

 Broyden mixing:
  rms(total) = 0.37333E-02    rms(broyden)= 0.37313E-02
  rms(prec ) = 0.78334E-02
  weight for this iteration     100.00

 eigenvalues of (default mixing * dielectric matrix)
  average eigenvalue GAMMA=   1.7126
  2.6931  1.0540  1.3908

 Free energy of the ion-electron system (eV)
  ---------------------------------------------------
  alpha Z        PSCENC =       411.55124789
  Ewald energy   TEWEN  =     -3894.66000223
  -1/2 Hartree   DENC   =      -769.62078292
  -V(xc)+E(xc)   XCENC  =       -44.67532500
  PAW double counting   =      3476.84886017    -3300.71206596
  entropy T*S    EENTRO =        -0.00004921
  eigenvalues    EBANDS =       -39.64055369
  atomic energy  EATOM  =      4149.63283719
  ---------------------------------------------------
  free energy    TOTEN  =       -11.27583374 eV

  energy without entropy =      -11.27578454  energy(sigma->0) =      -11.27580914


--------------------------------------------------------------------------------------------------------




----------------------------------------- Iteration    1(   9)  ---------------------------------------


    POTLOK:  VPU time    0.03: CPU time    0.04
    SETDIJ:  VPU time    0.06: CPU time    0.06
    EDDAV :  VPU time    2.59: CPU time    2.59
    DOS   :  VPU time    0.00: CPU time   -0.00
    CHARGE:  VPU time    0.23: CPU time    0.23
    MIXING:  VPU time    0.00: CPU time    0.00
    ------------------------------------------
      LOOP:  VPU time    2.92: CPU time    2.92

 eigenvalue-minimisations  :  4976
 total energy-change (2. order) :-0.1228457E-03  (-0.1819178E-04)
 number of electron   44.0000000 magnetization 
 augmentation part    21.0864853 magnetization 

 Broyden mixing:
  rms(total) = 0.26557E-02    rms(broyden)= 0.26555E-02
  rms(prec ) = 0.55866E-02
  weight for this iteration     100.00

 eigenvalues of (default mixing * dielectric matrix)
  average eigenvalue GAMMA=   1.7743
  2.6839  2.4052  1.0041  1.0041

 Free energy of the ion-electron system (eV)
  ---------------------------------------------------
  alpha Z        PSCENC =       411.55124789
  Ewald energy   TEWEN  =     -3894.66000223
  -1/2 Hartree   DENC   =      -769.20083821
  -V(xc)+E(xc)   XCENC  =       -44.69180409
  PAW double counting   =      3479.27243584    -3303.23332906
  entropy T*S    EENTRO =        -0.00004973
  eigenvalues    EBANDS =       -39.94645420
  atomic energy  EATOM  =      4149.63283719
  ---------------------------------------------------
  free energy    TOTEN  =       -11.27595659 eV

  energy without entropy =      -11.27590686  energy(sigma->0) =      -11.27593173


--------------------------------------------------------------------------------------------------------




----------------------------------------- Iteration    1(  10)  ---------------------------------------


    POTLOK:  VPU time    0.03: CPU time    0.04
    SETDIJ:  VPU time    0.06: CPU time    0.06
    EDDAV :  VPU time    2.56: CPU time    2.56
    DOS   :  VPU time    0.00: CPU time   -0.00
    CHARGE:  VPU time    0.23: CPU time    0.23
    MIXING:  VPU time    0.00: CPU time    0.00
    ------------------------------------------
      LOOP:  VPU time    2.89: CPU time    2.89

 eigenvalue-minimisations  :  4900
 total energy-change (2. order) : 0.2293321E-04  (-0.1344311E-05)
 number of electron   44.0000000 magnetization 
 augmentation part    21.0855640 magnetization 

 Broyden mixing:
  rms(total) = 0.33682E-03    rms(broyden)= 0.33675E-03
  rms(prec ) = 0.75933E-03
  weight for this iteration     100.00

 eigenvalues of (default mixing * dielectric matrix)
  average eigenvalue GAMMA=   1.7367
  2.7987  2.4506  1.0227  1.0227  1.3888

 Free energy of the ion-electron system (eV)
  ---------------------------------------------------
  alpha Z        PSCENC =       411.55124789
  Ewald energy   TEWEN  =     -3894.66000223
  -1/2 Hartree   DENC   =      -769.44359529
  -V(xc)+E(xc)   XCENC  =       -44.68355344
  PAW double counting   =      3479.76658231    -3303.55445157
  entropy T*S    EENTRO =        -0.00004949
  eigenvalues    EBANDS =       -39.88494903
  atomic energy  EATOM  =      4149.63283719
  ---------------------------------------------------
  free energy    TOTEN  =       -11.27593366 eV

  energy without entropy =      -11.27588416  energy(sigma->0) =      -11.27590891


--------------------------------------------------------------------------------------------------------




----------------------------------------- Iteration    1(  11)  ---------------------------------------


    POTLOK:  VPU time    0.03: CPU time    0.04
    SETDIJ:  VPU time    0.06: CPU time    0.06
    EDDAV :  VPU time    2.60: CPU time    2.60
    DOS   :  VPU time    0.00: CPU time   -0.00
    CHARGE:  VPU time    0.23: CPU time    0.23
    MIXING:  VPU time    0.00: CPU time    0.00
    ------------------------------------------
      LOOP:  VPU time    2.93: CPU time    2.93

 eigenvalue-minimisations  :  5004
 total energy-change (2. order) : 0.1929752E-05  (-0.5623882E-07)
 number of electron   44.0000000 magnetization 
 augmentation part    21.0853517 magnetization 

 Broyden mixing:
  rms(total) = 0.58250E-04    rms(broyden)= 0.58233E-04
  rms(prec ) = 0.12023E-03
  weight for this iteration     100.00

 eigenvalues of (default mixing * dielectric matrix)
  average eigenvalue GAMMA=   1.8545
  3.0028  2.5572  2.5572  0.9868  1.0116  1.0116

 Free energy of the ion-electron system (eV)
  ---------------------------------------------------
  alpha Z        PSCENC =       411.55124789
  Ewald energy   TEWEN  =     -3894.66000223
  -1/2 Hartree   DENC   =      -769.47140932
  -V(xc)+E(xc)   XCENC  =       -44.68263757
  PAW double counting   =      3479.79452202    -3303.56670679
  entropy T*S    EENTRO =        -0.00004946
  eigenvalues    EBANDS =       -39.87373347
  atomic energy  EATOM  =      4149.63283719
  ---------------------------------------------------
  free energy    TOTEN  =       -11.27593173 eV

  energy without entropy =      -11.27588227  energy(sigma->0) =      -11.27590700


--------------------------------------------------------------------------------------------------------




----------------------------------------- Iteration    1(  12)  ---------------------------------------


    POTLOK:  VPU time    0.04: CPU time    0.04
    SETDIJ:  VPU time    0.06: CPU time    0.06
    EDDAV :  VPU time    2.26: CPU time    2.26
    DOS   :  VPU time    0.00: CPU time   -0.00
    CHARGE:  VPU time    0.23: CPU time    0.23
    MIXING:  VPU time    0.00: CPU time    0.00
    ------------------------------------------
      LOOP:  VPU time    2.59: CPU time    2.60

 eigenvalue-minimisations  :  4020
 total energy-change (2. order) : 0.4739677E-06  (-0.2166285E-08)
 number of electron   44.0000000 magnetization 
 augmentation part    21.0853280 magnetization 

 Broyden mixing:
  rms(total) = 0.72103E-05    rms(broyden)= 0.72090E-05
  rms(prec ) = 0.12412E-04
  weight for this iteration     100.00

 eigenvalues of (default mixing * dielectric matrix)
  average eigenvalue GAMMA=   1.7612
  2.8062  2.6170  2.4869  1.0262  1.0262  1.0223  1.3438

 Free energy of the ion-electron system (eV)
  ---------------------------------------------------
  alpha Z        PSCENC =       411.55124789
  Ewald energy   TEWEN  =     -3894.66000223
  -1/2 Hartree   DENC   =      -769.47452743
  -V(xc)+E(xc)   XCENC  =       -44.68254149
  PAW double counting   =      3479.70958641    -3303.48109457
  entropy T*S    EENTRO =        -0.00004945
  eigenvalues    EBANDS =       -39.87138758
  atomic energy  EATOM  =      4149.63283719
  ---------------------------------------------------
  free energy    TOTEN  =       -11.27593125 eV

  energy without entropy =      -11.27588180  energy(sigma->0) =      -11.27590653


--------------------------------------------------------------------------------------------------------




----------------------------------------- Iteration    1(  13)  ---------------------------------------


    POTLOK:  VPU time    0.03: CPU time    0.04
    SETDIJ:  VPU time    0.06: CPU time    0.06
    EDDAV :  VPU time    1.72: CPU time    1.72
    DOS   :  VPU time    0.00: CPU time   -0.00
    CHARGE:  VPU time    0.23: CPU time    0.23
    MIXING:  VPU time    0.00: CPU time    0.00
    ------------------------------------------
      LOOP:  VPU time    2.05: CPU time    2.05

 eigenvalue-minimisations  :  2556
 total energy-change (2. order) : 0.1072549E-06  (-0.9766426E-10)
 number of electron   44.0000000 magnetization 
 augmentation part    21.0853270 magnetization 

 Broyden mixing:
  rms(total) = 0.28823E-05    rms(broyden)= 0.28823E-05
  rms(prec ) = 0.52883E-05
  weight for this iteration     100.00

 eigenvalues of (default mixing * dielectric matrix)
  average eigenvalue GAMMA=   1.7844
  2.8168  2.4937  2.4937  2.4507  1.0197  1.0197  0.9605  1.0200

 Free energy of the ion-electron system (eV)
  ---------------------------------------------------
  alpha Z        PSCENC =       411.55124789
  Ewald energy   TEWEN  =     -3894.66000223
  -1/2 Hartree   DENC   =      -769.47504850
  -V(xc)+E(xc)   XCENC  =       -44.68252044
  PAW double counting   =      3479.70557558    -3303.47676721
  entropy T*S    EENTRO =        -0.00004945
  eigenvalues    EBANDS =       -39.87120398
  atomic energy  EATOM  =      4149.63283719
  ---------------------------------------------------
  free energy    TOTEN  =       -11.27593115 eV

  energy without entropy =      -11.27588170  energy(sigma->0) =      -11.27590642


--------------------------------------------------------------------------------------------------------




----------------------------------------- Iteration    1(  14)  ---------------------------------------


    POTLOK:  VPU time    0.03: CPU time    0.04
    SETDIJ:  VPU time    0.06: CPU time    0.06
    EDDAV :  VPU time    1.70: CPU time    1.70
    DOS   :  VPU time    0.00: CPU time   -0.00
    CHARGE:  VPU time    0.23: CPU time    0.23
    MIXING:  VPU time    0.00: CPU time    0.00
    ------------------------------------------
      LOOP:  VPU time    2.03: CPU time    2.04

 eigenvalue-minimisations  :  2496
 total energy-change (2. order) : 0.1546232E-07  (-0.8730797E-11)
 number of electron   44.0000000 magnetization 
 augmentation part    21.0853289 magnetization 

 Broyden mixing:
  rms(total) = 0.60272E-06    rms(broyden)= 0.60270E-06
  rms(prec ) = 0.13810E-05
  weight for this iteration     100.00

 eigenvalues of (default mixing * dielectric matrix)
  average eigenvalue GAMMA=   1.7814
  3.1117  2.6923  2.5139  2.5139  1.0171  1.0171  1.0043  1.2623  0.8996

 Free energy of the ion-electron system (eV)
  ---------------------------------------------------
  alpha Z        PSCENC =       411.55124789
  Ewald energy   TEWEN  =     -3894.66000223
  -1/2 Hartree   DENC   =      -769.47482086
  -V(xc)+E(xc)   XCENC  =       -44.68252745
  PAW double counting   =      3479.70918955    -3303.48041392
  entropy T*S    EENTRO =        -0.00004945
  eigenvalues    EBANDS =       -39.87139185
  atomic energy  EATOM  =      4149.63283719
  ---------------------------------------------------
  free energy    TOTEN  =       -11.27593113 eV

  energy without entropy =      -11.27588168  energy(sigma->0) =      -11.27590641


--------------------------------------------------------------------------------------------------------




----------------------------------------- Iteration    1(  15)  ---------------------------------------


    POTLOK:  VPU time    0.04: CPU time    0.04
    SETDIJ:  VPU time    0.06: CPU time    0.06
    EDDAV :  VPU time    1.71: CPU time    1.71
    DOS   :  VPU time    0.00: CPU time   -0.00
    ------------------------------------------
      LOOP:  VPU time    1.80: CPU time    1.81

 eigenvalue-minimisations  :  2516
 total energy-change (2. order) : 0.5565198E-08  (-0.5235348E-12)
 number of electron   44.0000000 magnetization 
 augmentation part    21.0853289 magnetization 

 Free energy of the ion-electron system (eV)
  ---------------------------------------------------
  alpha Z        PSCENC =       411.55124789
  Ewald energy   TEWEN  =     -3894.66000223
  -1/2 Hartree   DENC   =      -769.47483227
  -V(xc)+E(xc)   XCENC  =       -44.68252712
  PAW double counting   =      3479.70889647    -3303.48010496
  entropy T*S    EENTRO =        -0.00004945
  eigenvalues    EBANDS =       -39.87139664
  atomic energy  EATOM  =      4149.63283719
  ---------------------------------------------------
  free energy    TOTEN  =       -11.27593113 eV

  energy without entropy =      -11.27588167  energy(sigma->0) =      -11.27590640


--------------------------------------------------------------------------------------------------------




 average (electrostatic) potential at core
  the test charge radii are     1.1249
  (the norm of the test charge is              1.0000)
       1 -41.3526       2 -41.3526       3 -41.3526       4 -41.3526
 
 
 
 E-fermi :   3.4277     XC(G=0): -12.1369     alpha+bet : -8.4365
   add alpha+bet to get absolut eigen values

 k-point   1 :       0.0000    0.0000    0.0000
  band No.  band energies     occupation 
      1      -4.2657      2.00000
      2      -2.9749      2.00000
      3      -2.9749      2.00000
      4      -2.9749      2.00000
      5      -2.8413      2.00000
      6      -2.8413      2.00000
      7      -2.8413      2.00000
      8      -1.3738      2.00000
      9      -1.3738      2.00000
     10      -1.3738      2.00000
     11      -0.3598      2.00000
     12      -0.3598      2.00000
     13       0.3876      2.00000
     14       0.3876      2.00000
     15       0.3876      2.00000
     16       0.6217      2.00000
     17       0.6217      2.00000
     18       0.6217      2.00000
     19       0.6217      2.00000
     20       0.6217      2.00000
     21       0.6217      2.00000
     22       5.0425      0.00000
     23       5.0425      0.00000
     24       5.0425      0.00000
     25      10.0704      0.00000
     26      10.0704      0.00000
     27      10.0704      0.00000
     28      14.2059      0.00000

 k-point   2 :       0.0833    0.0000    0.0000
  band No.  band energies     occupation 
      1      -4.1936      2.00000
      2      -2.9453      2.00000
      3      -2.9366      2.00000
      4      -2.9366      2.00000
      5      -2.8189      2.00000
      6      -2.8070      2.00000
      7      -2.8070      2.00000
      8      -1.4019      2.00000
      9      -1.3477      2.00000
     10      -1.3477      2.00000
     11      -0.3879      2.00000
     12      -0.3477      2.00000
     13       0.3501      2.00000
     14       0.3501      2.00000
     15       0.3742      2.00000
     16       0.4881      2.00000
     17       0.4881      2.00000
     18       0.5759      2.00000
     19       0.5759      2.00000
     20       0.6217      2.00000
     21       0.6217      2.00000
     22       4.5652      0.00000
     23       5.2355      0.00000
     24       5.2355      0.00000
     25      10.0813      0.00000
     26      10.0813      0.00000
     27      10.6599      0.00000
     28      13.9531      0.00000

 k-point   3 :       0.1667    0.0000    0.0000
  band No.  band energies     occupation 
      1      -3.9809      2.00000
      2      -2.8603      2.00000
      3      -2.8264      2.00000
      4      -2.8264      2.00000
      5      -2.7526      2.00000
      6      -2.7044      2.00000
      7      -2.7044      2.00000
      8      -1.4833      2.00000
      9      -1.2700      2.00000
     10      -1.2700      2.00000
     11      -0.4666      2.00000
     12      -0.3120      2.00000
     13       0.1460      2.00000
     14       0.1460      2.00000
     15       0.2419      2.00000
     16       0.2419      2.00000
     17       0.3351      2.00000
     18       0.4451      2.00000
     19       0.4451      2.00000
     20       0.6219      2.00000
     21       0.6219      2.00000
     22       3.5268      0.00000
     23       5.7547      0.00000
     24       5.7547      0.00000
     25      10.1157      0.00000
     26      10.1157      0.00000
     27      12.0344      0.00000
     28      13.2920      0.00000

 k-point   4 :       0.2500    0.0000    0.0000
  band No.  band energies     occupation 
      1      -3.6418      2.00000
      2      -2.7326      2.00000
      3      -2.6603      2.00000
      4      -2.6603      2.00000
      5      -2.6458      2.00000
      6      -2.5340      2.00000
      7      -2.5340      2.00000
      8      -1.6107      2.00000
      9      -1.1430      2.00000
     10      -1.1430      2.00000
     11      -0.5768      2.00000
     12      -0.2986      2.00000
     13      -0.2986      2.00000
     14      -0.2549      2.00000
     15       0.0775      2.00000
     16       0.0775      2.00000
     17       0.2472      2.00000
     18       0.2472      2.00000
     19       0.2733      2.00000
     20       0.6222      2.00000
     21       0.6222      2.00000
     22       2.3636      2.00000
     23       6.4916      0.00000
     24       6.4916      0.00000
     25      10.1779      0.00000
     26      10.1779      0.00000
     27      12.4050      0.00000
     28      12.4050      0.00000

 k-point   5 :       0.3333    0.0000    0.0000
  band No.  band energies     occupation 
      1      -3.2120      2.00000
      2      -2.5883      2.00000
      3      -2.5040      2.00000
      4      -2.4688      2.00000
      5      -2.4688      2.00000
      6      -2.2972      2.00000
      7      -2.2972      2.00000
      8      -1.7730      2.00000
      9      -0.9704      2.00000
     10      -0.9704      2.00000
     11      -0.7690      2.00000
     12      -0.7690      2.00000
     13      -0.6746      2.00000
     14      -0.1798      2.00000
     15      -0.1133      2.00000
     16      -0.1133      2.00000
     17       0.0057      2.00000
     18       0.0057      2.00000
     19       0.1936      2.00000
     20       0.6224      2.00000
     21       0.6224      2.00000
     22       1.2579      2.00000
     23       7.3646      0.00000
     24       7.3646      0.00000
     25      10.2702      0.00000
     26      10.2702      0.00000
     27      11.4105      0.00000
     28      11.4105      0.00000

 k-point   6 :       0.4167    0.0000    0.0000
  band No.  band energies     occupation 
      1      -2.7799      2.00000
      2      -2.4797      2.00000
      3      -2.3350      2.00000
      4      -2.3042      2.00000
      5      -2.3042      2.00000
      6      -1.9964      2.00000
      7      -1.9964      2.00000
      8      -1.9569      2.00000
      9      -1.2224      2.00000
     10      -1.2224      2.00000
     11      -0.7584      2.00000
     12      -0.7584      2.00000
     13      -0.6612      2.00000
     14      -0.2781      2.00000
     15      -0.2781      2.00000
     16      -0.2557      2.00000
     17      -0.2557      2.00000
     18      -0.0915      2.00000
     19       0.1018      2.00000
     20       0.3111      2.00000
     21       0.6226      2.00000
     22       0.6226      2.00000
     23       8.3237      0.00000
     24       8.3237      0.00000
     25      10.3743      0.00000
     26      10.3743      0.00000
     27      10.3771      0.00000
     28      10.3771      0.00000

 k-point   7 :       0.5000    0.0000    0.0000
  band No.  band energies     occupation 
      1      -2.5092      2.00000
      2      -2.5092      2.00000
      3      -2.2364      2.00000
      4      -2.2364      2.00000
      5      -2.1487      2.00000
      6      -2.1487      2.00000
      7      -1.6358      2.00000
      8      -1.6358      2.00000
      9      -1.6358      2.00000
     10      -1.6358      2.00000
     11      -0.5159      2.00000
     12      -0.5159      2.00000
     13      -0.5159      2.00000
     14      -0.5159      2.00000
     15      -0.3622      2.00000
     16      -0.3622      2.00000
     17      -0.3461      2.00000
     18      -0.3461      2.00000
     19       0.0045      2.00000
     20       0.0045      2.00000
     21       0.6227      2.00000
     22       0.6227      2.00000
     23       9.3359      0.00000
     24       9.3359      0.00000
     25       9.3359      0.00000
     26       9.3359      0.00000
     27      10.4338      0.00000
     28      10.4338      0.00000

 k-point   8 :       0.0833    0.0833    0.0000
  band No.  band energies     occupation 
      1      -4.1224      2.00000
      2      -2.9067      2.00000
      3      -2.9067      2.00000
      4      -2.9050      2.00000
      5      -2.7850      2.00000
      6      -2.7850      2.00000
      7      -2.7675      2.00000
      8      -1.4124      2.00000
      9      -1.3383      2.00000
     10      -1.3234      2.00000
     11      -0.3954      2.00000
     12      -0.3536      2.00000
     13       0.3142      2.00000
     14       0.3164      2.00000
     15       0.3164      2.00000
     16       0.3952      2.00000
     17       0.4618      2.00000
     18       0.4618      2.00000
     19       0.5758      2.00000
     20       0.5758      2.00000
     21       0.5902      2.00000
     22       4.7504      0.00000
     23       4.7504      0.00000
     24       5.4195      0.00000
     25      10.0920      0.00000
     26      10.6792      0.00000
     27      10.6792      0.00000
     28      13.1175      0.00000

 k-point   9 :       0.1667    0.0833    0.0000
  band No.  band energies     occupation 
      1      -3.9128      2.00000
      2      -2.8210      2.00000
      3      -2.8118      2.00000
      4      -2.7958      2.00000
      5      -2.7201      2.00000
      6      -2.6838      2.00000
      7      -2.6521      2.00000
      8      -1.4834      2.00000
      9      -1.2689      2.00000
     10      -1.2519      2.00000
     11      -0.4633      2.00000
     12      -0.3205      2.00000
     13       0.0508      2.00000
     14       0.0889      2.00000
     15       0.2064      2.00000
     16       0.2104      2.00000
     17       0.2787      2.00000
     18       0.3988      2.00000
     19       0.4446      2.00000
     20       0.5743      2.00000
     21       0.5755      2.00000
     22       3.7077      0.00000
     23       5.2411      0.00000
     24       5.9198      0.00000
     25      10.1239      0.00000
     26      10.7387      0.00000
     27      12.0603      0.00000
     28      12.1671      0.00000

 k-point  10 :       0.2500    0.0833    0.0000
  band No.  band energies     occupation 
      1      -3.5791      2.00000
      2      -2.6918      2.00000
      3      -2.6631      2.00000
      4      -2.6284      2.00000
      5      -2.6155      2.00000
      6      -2.5158      2.00000
      7      -2.4713      2.00000
      8      -1.6057      2.00000
      9      -1.1438      2.00000
     10      -1.1402      2.00000
     11      -0.5620      2.00000
     12      -0.3749      2.00000
     13      -0.3328      2.00000
     14      -0.2561      2.00000
     15       0.0190      2.00000
     16       0.0522      2.00000
     17       0.1018      2.00000
     18       0.2463      2.00000
     19       0.3170      2.00000
     20       0.5712      2.00000
     21       0.5751      2.00000
     22       2.5541      2.00000
     23       5.9224      0.00000
     24       6.6381      0.00000
     25      10.1646      0.00000
     26      10.8392      0.00000
     27      11.2387      0.00000
     28      12.5146      0.00000

 k-point  11 :       0.3333    0.0833    0.0000
  band No.  band energies     occupation 
      1      -3.1564      2.00000
      2      -2.5452      2.00000
      3      -2.4767      2.00000
      4      -2.4746      2.00000
      5      -2.4352      2.00000
      6      -2.2825      2.00000
      7      -2.2415      2.00000
      8      -1.7632      2.00000
      9      -1.0173      2.00000
     10      -0.9718      2.00000
     11      -0.8295      2.00000
     12      -0.7867      2.00000
     13      -0.6176      2.00000
     14      -0.2267      2.00000
     15      -0.1692      2.00000
     16      -0.1317      2.00000
     17      -0.0948      2.00000
     18       0.0043      2.00000
     19       0.2182      2.00000
     20       0.5709      2.00000
     21       0.5745      2.00000
     22       1.4752      2.00000
     23       6.7084      0.00000
     24       7.4964      0.00000
     25      10.0034      0.00000
     26      10.5931      0.00000
     27      10.9599      0.00000
     28      11.5182      0.00000

 k-point  12 :       0.4167    0.0833    0.0000
  band No.  band energies     occupation 
      1      -2.7306      2.00000
      2      -2.4337      2.00000
      3      -2.3115      2.00000
      4      -2.2930      2.00000
      5      -2.2698      2.00000
      6      -1.9866      2.00000
      7      -1.9717      2.00000
      8      -1.9424      2.00000
      9      -1.2627      2.00000
     10      -1.2281      2.00000
     11      -0.9342      2.00000
     12      -0.7601      2.00000
     13      -0.5100      2.00000
     14      -0.4923      2.00000
     15      -0.2886      2.00000
     16      -0.2677      2.00000
     17      -0.2574      2.00000
     18      -0.0618      2.00000
     19       0.0942      2.00000
     20       0.5717      2.00000
     21       0.5736      2.00000
     22       0.5866      2.00000
     23       7.5463      0.00000
     24       8.4448      0.00000
     25       9.2570      0.00000
     26      10.4836      0.00000
     27      10.6217      0.00000
     28      10.9889      0.00000

 k-point  13 :       0.5000    0.0833    0.0000
  band No.  band energies     occupation 
      1      -2.4615      2.00000
      2      -2.4615      2.00000
      3      -2.2073      2.00000
      4      -2.2073      2.00000
      5      -2.1295      2.00000
      6      -2.1295      2.00000
      7      -1.6481      2.00000
      8      -1.6481      2.00000
      9      -1.6326      2.00000
     10      -1.6326      2.00000
     11      -0.7819      2.00000
     12      -0.7819      2.00000
     13      -0.5177      2.00000
     14      -0.5177      2.00000
     15      -0.3466      2.00000
     16      -0.3466      2.00000
     17      -0.1639      2.00000
     18      -0.1639      2.00000
     19       0.0909      2.00000
     20       0.0909      2.00000
     21       0.5726      2.00000
     22       0.5726      2.00000
     23       8.4035      0.00000
     24       8.4035      0.00000
     25       9.4496      0.00000
     26       9.4496      0.00000
     27      10.8218      0.00000
     28      10.8218      0.00000

 k-point  14 :       0.1667    0.1667    0.0000
  band No.  band energies     occupation 
      1      -3.7128      2.00000
      2      -2.7514      2.00000
      3      -2.7077      2.00000
      4      -2.7077      2.00000
      5      -2.6230      2.00000
      6      -2.6230      2.00000
      7      -2.5166      2.00000
      8      -1.5136      2.00000
      9      -1.2343      2.00000
     10      -1.1997      2.00000
     11      -0.4894      2.00000
     12      -0.3034      2.00000
     13      -0.1300      2.00000
     14      -0.1300      2.00000
     15      -0.1123      2.00000
     16       0.1186      2.00000
     17       0.2890      2.00000
     18       0.2890      2.00000
     19       0.4433      2.00000
     20       0.4433      2.00000
     21       0.4972      2.00000
     22       4.1738      0.00000
     23       4.1738      0.00000
     24       6.3777      0.00000
     25      10.1248      0.00000
     26      11.0672      0.00000
     27      12.1299      0.00000
     28      12.1299      0.00000

 k-point  15 :       0.2500    0.1667    0.0000
  band No.  band energies     occupation 
      1      -3.3957      2.00000
      2      -2.6336      2.00000
      3      -2.5741      2.00000
      4      -2.5362      2.00000
      5      -2.5252      2.00000
      6      -2.4621      2.00000
      7      -2.3255      2.00000
      8      -1.6045      2.00000
      9      -1.1311      2.00000
     10      -1.1266      2.00000
     11      -0.5582      2.00000
     12      -0.5517      2.00000
     13      -0.4482      2.00000
     14      -0.3576      2.00000
     15      -0.2194      2.00000
     16      -0.0228      2.00000
     17       0.1258      2.00000
     18       0.2436      2.00000
     19       0.2473      2.00000
     20       0.4412      2.00000
     21       0.4554      2.00000
     22       3.0211      2.00000
     23       4.8021      0.00000
     24       7.0519      0.00000
     25       9.7420      0.00000
     26      10.4658      0.00000
     27      12.1772      0.00000
     28      12.8337      0.00000

 k-point  16 :       0.3333    0.1667    0.0000
  band No.  band energies     occupation 
      1      -2.9962      2.00000
      2      -2.4629      2.00000
      3      -2.4203      2.00000
      4      -2.3958      2.00000
      5      -2.3375      2.00000
      6      -2.2394      2.00000
      7      -2.1067      2.00000
      8      -1.7406      2.00000
      9      -1.0825      2.00000
     10      -0.9789      2.00000
     11      -0.9688      2.00000
     12      -0.8454      2.00000
     13      -0.6162      2.00000
     14      -0.5716      2.00000
     15      -0.1877      2.00000
     16      -0.0820      2.00000
     17      -0.0702      2.00000
     18       0.0006      2.00000
     19       0.1553      2.00000
     20       0.4386      2.00000
     21       0.4392      2.00000
     22       1.9587      2.00000
     23       5.5162      0.00000
     24       7.8735      0.00000
     25       8.8332      0.00000
     26      10.5340      0.00000
     27      11.8321      0.00000
     28      11.9428      0.00000

 k-point  17 :       0.4167    0.1667    0.0000
  band No.  band energies     occupation 
      1      -2.5912      2.00000
      2      -2.3003      2.00000
      3      -2.2644      2.00000
      4      -2.2421      2.00000
      5      -2.1694      2.00000
      6      -1.9583      2.00000
      7      -1.9022      2.00000
      8      -1.8927      2.00000
      9      -1.3660      2.00000
     10      -1.2478      2.00000
     11      -1.1046      2.00000
     12      -0.8787      2.00000
     13      -0.7615      2.00000
     14      -0.4298      2.00000
     15      -0.3240      2.00000
     16      -0.2614      2.00000
     17      -0.2547      2.00000
     18       0.0115      2.00000
     19       0.1216      2.00000
     20       0.4342      2.00000
     21       0.4359      2.00000
     22       1.0819      2.00000
     23       6.2806      0.00000
     24       7.9326      0.00000
     25       8.7941      0.00000
     26      10.7493      0.00000
     27      10.8013      0.00000
     28      11.4843      0.00000

 k-point  18 :       0.5000    0.1667    0.0000
  band No.  band energies     occupation 
      1      -2.3257      2.00000
      2      -2.3257      2.00000
      3      -2.1279      2.00000
      4      -2.1279      2.00000
      5      -2.0738      2.00000
      6      -2.0738      2.00000
      7      -1.6723      2.00000
      8      -1.6723      2.00000
      9      -1.6245      2.00000
     10      -1.6245      2.00000
     11      -1.0686      2.00000
     12      -1.0686      2.00000
     13      -0.5211      2.00000
     14      -0.5211      2.00000
     15      -0.3571      2.00000
     16      -0.3571      2.00000
     17      -0.1943      2.00000
     18      -0.1943      2.00000
     19       0.4340      2.00000
     20       0.4340      2.00000
     21       0.4699      2.00000
     22       0.4699      2.00000
     23       7.0845      0.00000
     24       7.0845      0.00000
     25       9.7793      0.00000
     26       9.7793      0.00000
     27      11.0676      0.00000
     28      11.0676      0.00000

 k-point  19 :       0.2500    0.2500    0.0000
  band No.  band energies     occupation 
      1      -3.1086      2.00000
      2      -2.5500      2.00000
      3      -2.3948      2.00000
      4      -2.3948      2.00000
      5      -2.3762      2.00000
      6      -2.3762      2.00000
      7      -2.1332      2.00000
      8      -1.6393      2.00000
      9      -1.1023      2.00000
     10      -1.0693      2.00000
     11      -0.7733      2.00000
     12      -0.7733      2.00000
     13      -0.6630      2.00000
     14      -0.6089      2.00000
     15      -0.1406      2.00000
     16      -0.0853      2.00000
     17       0.1033      2.00000
     18       0.1033      2.00000
     19       0.2398      2.00000
     20       0.2398      2.00000
     21       0.3472      2.00000
     22       3.6268      0.00000
     23       3.6268      0.00000
     24       7.6759      0.00000
     25       8.6715      0.00000
     26      10.4964      0.00000
     27      13.2143      0.00000
     28      13.2144      0.00000

 k-point  20 :       0.3333    0.2500    0.0000
  band No.  band energies     occupation 
      1      -2.7521      2.00000
      2      -2.4107      2.00000
      3      -2.2632      2.00000
      4      -2.2284      2.00000
      5      -2.1850      2.00000
      6      -2.1713      2.00000
      7      -1.9268      2.00000
      8      -1.7250      2.00000
      9      -1.1687      2.00000
     10      -1.1119      2.00000
     11      -1.0091      2.00000
     12      -0.9588      2.00000
     13      -0.9391      2.00000
     14      -0.6307      2.00000
     15      -0.2807      2.00000
     16      -0.0840      2.00000
[...]
     21       2.5531      2.00000
     22       2.5531      2.00000
     23       2.5531      2.00000
     24       2.5531      2.00000
     25       8.1456      0.00000
     26       8.1456      0.00000
     27       8.1456      0.00000
     28       8.1456      0.00000

 k-point  75 :       0.3333    0.3333    0.3333
  band No.  band energies     occupation 
      1      -2.9304      2.00000
      2      -2.6780      2.00000
      3      -2.6780      2.00000
      4      -2.6780      2.00000
      5      -1.8250      2.00000
      6      -1.8250      2.00000
      7      -1.8250      2.00000
      8      -1.5009      2.00000
      9      -1.5009      2.00000
     10      -1.2466      2.00000
     11      -1.2466      2.00000
     12      -1.2466      2.00000
     13      -0.9746      2.00000
     14      -0.9746      2.00000
     15      -0.9746      2.00000
     16      -0.2836      2.00000
     17      -0.2836      2.00000
     18      -0.1171      2.00000
     19       0.0766      2.00000
     20       0.0766      2.00000
     21       0.0766      2.00000
     22       3.5992      0.00000
     23       3.5992      0.00000
     24       3.5992      0.00000
     25       7.4895      0.00000
     26       7.4895      0.00000
     27       7.4895      0.00000
     28      10.6628      0.00000

 k-point  76 :       0.4167    0.3333    0.3333
  band No.  band energies     occupation 
      1      -2.9224      2.00000
      2      -2.7842      2.00000
      3      -2.7211      2.00000
      4      -2.7211      2.00000
      5      -1.8122      2.00000
      6      -1.8122      2.00000
      7      -1.7241      2.00000
      8      -1.5531      2.00000
      9      -1.5037      2.00000
     10      -1.3724      2.00000
     11      -1.3272      2.00000
     12      -1.3272      2.00000
     13      -0.8054      2.00000
     14      -0.7864      2.00000
     15      -0.7864      2.00000
     16      -0.4326      2.00000
     17      -0.1265      2.00000
     18       0.0405      2.00000
     19       0.0405      2.00000
     20       0.0612      2.00000
     21       0.6156      2.00000
     22       2.4958      2.00000
     23       3.9283      0.00000
     24       3.9283      0.00000
     25       6.7710      0.00000
     26       6.7710      0.00000
     27       8.1142      0.00000
     28       9.7080      0.00000

 k-point  77 :       0.5000    0.3333    0.3333
  band No.  band energies     occupation 
      1      -2.8705      2.00000
      2      -2.8705      2.00000
      3      -2.7353      2.00000
      4      -2.7353      2.00000
      5      -1.8108      2.00000
      6      -1.8108      2.00000
      7      -1.6292      2.00000
      8      -1.6292      2.00000
      9      -1.4600      2.00000
     10      -1.4600      2.00000
     11      -1.3530      2.00000
     12      -1.3530      2.00000
     13      -0.7050      2.00000
     14      -0.7050      2.00000
     15      -0.6206      2.00000
     16      -0.6206      2.00000
     17      -0.0083      2.00000
     18      -0.0083      2.00000
     19       0.0129      2.00000
     20       0.0129      2.00000
     21       1.4974      2.00000
     22       1.4974      2.00000
     23       4.0860      0.00000
     24       4.0860      0.00000
     25       6.4830      0.00000
     26       6.4830      0.00000
     27       8.8573      0.00000
     28       8.8573      0.00000

 k-point  78 :       0.4167    0.4167    0.3333
  band No.  band energies     occupation 
      1      -2.9493      2.00000
      2      -2.8412      2.00000
      3      -2.8412      2.00000
      4      -2.8091      2.00000
      5      -1.7593      2.00000
      6      -1.7196      2.00000
      7      -1.7196      2.00000
      8      -1.5716      2.00000
      9      -1.5468      2.00000
     10      -1.4435      2.00000
     11      -1.4435      2.00000
     12      -1.4243      2.00000
     13      -0.5649      2.00000
     14      -0.5649      2.00000
     15      -0.5641      2.00000
     16      -0.1966      2.00000
     17      -0.1734      2.00000
     18       0.0213      2.00000
     19       0.0347      2.00000
     20       0.0347      2.00000
     21       1.1718      2.00000
     22       2.9193      2.00000
     23       2.9193      2.00000
     24       3.8077      0.00000
     25       6.4422      0.00000
     26       7.2752      0.00000
     27       7.2752      0.00000
     28       8.7704      0.00000

 k-point  79 :       0.5000    0.4167    0.3333
  band No.  band energies     occupation 
      1      -2.9203      2.00000
      2      -2.9203      2.00000
      3      -2.8494      2.00000
      4      -2.8494      2.00000
      5      -1.7284      2.00000
      6      -1.7284      2.00000
      7      -1.6352      2.00000
      8      -1.6352      2.00000
      9      -1.5192      2.00000
     10      -1.5192      2.00000
     11      -1.4639      2.00000
     12      -1.4639      2.00000
     13      -0.4612      2.00000
     14      -0.4612      2.00000
     15      -0.3574      2.00000
     16      -0.3574      2.00000
     17      -0.0364      2.00000
     18      -0.0364      2.00000
     19      -0.0030      2.00000
     20      -0.0030      2.00000
     21       1.9769      2.00000
     22       1.9769      2.00000
     23       3.4055      0.00000
     24       3.4055      0.00000
     25       6.6713      0.00000
     26       6.6713      0.00000
     27       7.9555      0.00000
     28       7.9555      0.00000

 k-point  80 :       0.5000    0.5000    0.3333
  band No.  band energies     occupation 
      1      -2.9125      2.00000
      2      -2.9125      2.00000
      3      -2.9125      2.00000
      4      -2.9125      2.00000
      5      -1.6635      2.00000
      6      -1.6635      2.00000
      7      -1.6635      2.00000
      8      -1.6635      2.00000
      9      -1.5253      2.00000
     10      -1.5253      2.00000
     11      -1.5253      2.00000
     12      -1.5253      2.00000
     13      -0.2860      2.00000
     14      -0.2860      2.00000
     15      -0.2860      2.00000
     16      -0.2860      2.00000
     17      -0.0666      2.00000
     18      -0.0666      2.00000
     19      -0.0666      2.00000
     20      -0.0666      2.00000
     21       2.6425      2.00000
     22       2.6425      2.00000
     23       2.6425      2.00000
     24       2.6425      2.00000
     25       7.2112      0.00000
     26       7.2112      0.00000
     27       7.2112      0.00000
     28       7.2112      0.00000

 k-point  81 :       0.4167    0.4167    0.4167
  band No.  band energies     occupation 
      1      -3.0059      2.00000
      2      -2.9309      2.00000
      3      -2.9309      2.00000
      4      -2.9309      2.00000
      5      -1.6866      2.00000
      6      -1.6866      2.00000
      7      -1.6866      2.00000
      8      -1.5876      2.00000
      9      -1.5876      2.00000
     10      -1.5242      2.00000
     11      -1.5242      2.00000
     12      -1.5242      2.00000
     13      -0.3157      2.00000
     14      -0.3157      2.00000
     15      -0.3157      2.00000
     16      -0.0429      2.00000
     17      -0.0429      2.00000
     18       0.0584      2.00000
     19       0.0584      2.00000
     20       0.0584      2.00000
     21       1.5955      2.00000
     22       3.0903      1.40470
     23       3.0903      1.40470
     24       3.0903      1.40470
     25       6.6156      0.00000
     26       6.6156      0.00000
     27       6.6156      0.00000
     28       7.8724      0.00000

 k-point  82 :       0.5000    0.4167    0.4167
  band No.  band energies     occupation 
      1      -2.9986      2.00000
      2      -2.9986      2.00000
      3      -2.9611      2.00000
      4      -2.9611      2.00000
      5      -1.6727      2.00000
      6      -1.6727      2.00000
      7      -1.6267      2.00000
      8      -1.6267      2.00000
      9      -1.5799      2.00000
     10      -1.5799      2.00000
     11      -1.5539      2.00000
     12      -1.5539      2.00000
     13      -0.2023      2.00000
     14      -0.2023      2.00000
     15      -0.1220      2.00000
     16      -0.1220      2.00000
     17       0.0366      2.00000
     18       0.0366      2.00000
     19       0.0412      2.00000
     20       0.0412      2.00000
     21       2.2886      2.00000
     22       2.2886      2.00000
     23       3.1690      0.00000
     24       3.1690      0.00000
     25       6.3698      0.00000
     26       6.3698      0.00000
     27       7.1381      0.00000
     28       7.1381      0.00000

 k-point  83 :       0.5000    0.5000    0.4167
  band No.  band energies     occupation 
      1      -3.0118      2.00000
      2      -3.0118      2.00000
      3      -3.0118      2.00000
      4      -3.0118      2.00000
      5      -1.6331      2.00000
      6      -1.6331      2.00000
      7      -1.6331      2.00000
      8      -1.6331      2.00000
      9      -1.5975      2.00000
     10      -1.5975      2.00000
     11      -1.5975      2.00000
     12      -1.5975      2.00000
     13      -0.0388      2.00000
     14      -0.0388      2.00000
     15      -0.0388      2.00000
     16      -0.0388      2.00000
     17       0.0215      2.00000
     18       0.0215      2.00000
     19       0.0215      2.00000
     20       0.0215      2.00000
     21       2.7343      2.00000
     22       2.7343      2.00000
     23       2.7343      2.00000
     24       2.7343      2.00000
     25       6.5713      0.00000
     26       6.5713      0.00000
     27       6.5713      0.00000
     28       6.5713      0.00000

 k-point  84 :       0.5000    0.5000    0.5000
  band No.  band energies     occupation 
      1      -3.0453      2.00000
      2      -3.0453      2.00000
      3      -3.0453      2.00000
      4      -3.0453      2.00000
      5      -1.6221      2.00000
      6      -1.6221      2.00000
      7      -1.6221      2.00000
      8      -1.6221      2.00000
      9      -1.6221      2.00000
     10      -1.6221      2.00000
     11      -1.6221      2.00000
     12      -1.6221      2.00000
     13       0.0519      2.00000
     14       0.0519      2.00000
     15       0.0519      2.00000
     16       0.0519      2.00000
     17       0.0519      2.00000
     18       0.0519      2.00000
     19       0.0519      2.00000
     20       0.0519      2.00000
     21       2.7768      2.00000
     22       2.7768      2.00000
     23       2.7768      2.00000
     24       2.7768      2.00000
     25       6.3376      0.00000
     26       6.3376      0.00000
     27       6.3376      0.00000
     28       6.3376      0.00000


--------------------------------------------------------------------------------------------------------


 soft charge-density along one line, spin component           1
         0         1         2         3         4         5         6         7         8         9
 total charge-density along one line
 
 pseudopotential strength for first ion, spin component:           1
-12.179  -0.000   0.000  -0.000  -0.000   0.132   0.000  -0.000
 -0.000 -12.179   0.000  -0.000   0.000   0.000   0.132  -0.000
  0.000   0.000 -12.169   0.000   0.000  -0.000  -0.000   0.131
 -0.000  -0.000   0.000 -12.179  -0.000   0.000   0.000  -0.000
 -0.000   0.000   0.000  -0.000 -12.169   0.000  -0.000  -0.000
  0.132   0.000  -0.000   0.000   0.000   0.457  -0.000   0.000
  0.000   0.132  -0.000   0.000  -0.000  -0.000   0.457   0.000
 -0.000  -0.000   0.131  -0.000  -0.000   0.000   0.000   0.457
  0.000   0.000  -0.000   0.132   0.000  -0.000  -0.000   0.000
  0.000  -0.000  -0.000   0.000   0.131  -0.000   0.000   0.000
  0.000   0.000  -0.000   0.000   0.000  -0.000  -0.000   0.000
 -0.000  -0.000   0.000  -0.000  -0.000   0.000   0.000  -0.000
  0.000  -0.000  -0.000   0.000  -0.000  -0.000   0.000   0.000
  0.000   0.000  -0.000   0.000  -0.000  -0.000  -0.000   0.000
  0.000   0.000  -0.000  -0.000   0.000  -0.000  -0.000   0.000
 -0.000   0.000   0.000  -0.000   0.000   0.000  -0.000  -0.000
 -0.000  -0.000   0.000  -0.000   0.000   0.000   0.000  -0.000
 -0.000  -0.000   0.000   0.000  -0.000   0.000   0.000  -0.000
 total augmentation occupancy for first ion, spin component:           1
  1.909  -0.006  -0.002   0.000  -0.009  -0.015   0.005  -0.011  -0.002   0.010   0.018  -0.014   0.000  -0.000  -0.000   0.000
 -0.006   1.966  -0.001  -0.008  -0.000   0.005  -0.050   0.004   0.008  -0.007   0.044  -0.002   0.000  -0.000   0.000   0.000
 -0.002  -0.001   1.939   0.004  -0.019  -0.011   0.004  -0.032  -0.002   0.021  -0.049  -0.042  -0.000  -0.000  -0.000   0.000
  0.000  -0.008   0.004   1.944  -0.002  -0.002   0.008  -0.002  -0.018   0.007   0.018  -0.005   0.000  -0.000   0.000   0.000
 -0.009  -0.000  -0.019  -0.002   1.984   0.010  -0.007   0.021   0.007  -0.074   0.073   0.022   0.000   0.000  -0.000   0.000
 -0.015   0.005  -0.011  -0.002   0.010   0.097  -0.002   0.022   0.004  -0.009   0.021   0.022  -0.000  -0.000  -0.000   0.000
  0.005  -0.050   0.004   0.008  -0.007  -0.002   0.078  -0.005  -0.005   0.011  -0.020   0.014  -0.000   0.000   0.000   0.000
 -0.011   0.004  -0.032  -0.002   0.021   0.022  -0.005   0.074   0.000  -0.005   0.105  -0.010  -0.000  -0.000  -0.000   0.000
 -0.002   0.008  -0.002  -0.018   0.007   0.004  -0.005   0.000   0.057  -0.011   0.000   0.011   0.000  -0.000   0.000   0.000
  0.010  -0.007   0.021   0.007  -0.074  -0.009   0.011  -0.005  -0.011   0.055  -0.081   0.017  -0.000   0.000  -0.000  -0.000
  0.018   0.044  -0.049   0.018   0.073   0.021  -0.020   0.105   0.000  -0.081   1.030  -0.347  -0.000   0.000  -0.000  -0.000
 -0.014  -0.002  -0.042  -0.005   0.022   0.022   0.014  -0.010   0.011   0.017  -0.347   0.177   0.000   0.000  -0.000   0.000
  0.000   0.000  -0.000   0.000   0.000  -0.000  -0.000  -0.000   0.000  -0.000  -0.000   0.000   0.095   0.018  -0.010  -0.005
 -0.000  -0.000  -0.000  -0.000   0.000  -0.000   0.000  -0.000  -0.000   0.000   0.000   0.000   0.018   0.068  -0.000  -0.001
 -0.000   0.000  -0.000   0.000  -0.000  -0.000   0.000  -0.000   0.000  -0.000  -0.000  -0.000  -0.010  -0.000   0.161  -0.000
  0.000   0.000   0.000   0.000   0.000   0.000   0.000   0.000   0.000  -0.000  -0.000   0.000  -0.005  -0.001  -0.000   0.000
 -0.000   0.000  -0.000  -0.000   0.000  -0.000   0.000  -0.000  -0.000   0.000   0.000  -0.000  -0.001  -0.004  -0.000   0.000
 -0.000   0.000  -0.000   0.000  -0.000  -0.000   0.000  -0.000   0.000  -0.000  -0.000   0.000  -0.000  -0.000  -0.008   0.000


------------------------ aborting loop because EDIFF is reached ----------------------------------------




--------------------------------------------------------------------------------------------------------


    CHARGE:  VPU time    0.23: CPU time    0.23
    FORLOC:  VPU time    0.00: CPU time    0.00
    FORNL :  VPU time    0.75: CPU time    0.75
    STRESS:  VPU time    1.82: CPU time    1.82
    FORCOR:  VPU time    0.04: CPU time    0.04
    FORHAR:  VPU time    0.01: CPU time    0.01
    MIXING:  VPU time    0.00: CPU time    0.00
 d Force = 0.0000000E+00[ 0.000E+00, 0.000E+00]  d Energy = 0.1187892E-01-0.119E-01
 d Force = 0.0000000E+00[ 0.000E+00, 0.000E+00]  d Ewald  = 0.3191281E+02-0.319E+02


--------------------------------------------------------------------------------------------------------



  FREE ENERGIE OF THE ION-ELECTRON SYSTEM (eV)
  ---------------------------------------------------
  free  energy   TOTEN  =       -11.317815 eV

  energy  without entropy=      -11.317697  energy(sigma->0) =      -11.317756
 

  FORCE on cell =-STRESS in cart. coord.  units (eV/reduce length):
  Direction    X        Y        Z        XY       YZ       ZX
  --------------------------------------------------------------------------------------
  Alpha Z    393.62    393.62    393.62
  Ewald    -1279.09  -1279.09  -1279.09     -0.00      0.00      0.00
  Hartree    266.12    266.12    266.12     -0.00     -0.00     -0.00
  E(xc)     -232.44   -232.44   -232.44      0.00      0.00      0.00
  Local      403.75    403.75    403.75      0.00      0.00      0.00
  n-local   -257.75   -265.42   -267.76      0.23      2.29      0.69
  augment    167.69    167.69    167.69     -0.00     -0.00     -0.00
  Kinetic    551.37    542.83    537.78     -2.98      0.51     -1.10
  -------------------------------------------------------------------------------------
  Total        0.00      0.00      0.00     -0.00     -0.00     -0.00
  in kB        0.01      0.01      0.01     -0.00     -0.00     -0.00
  external pressure =        0.01 kB  Pullay stress =        0.00 kB


 VOLUME and BASIS-vectors are now :
 -----------------------------------------------------------------------------
  energy-cutoff  :      500.00
  volume of cell :       72.18
      direct lattice vectors                 reciprocal lattice vectors
     4.163661211 -0.000000000  0.000000000     0.240173239  0.000000000 -0.000000000
    -0.000000000  4.163661211  0.000000000     0.000000000  0.240173239 -0.000000000
     0.000000000  0.000000000  4.163661211    -0.000000000 -0.000000000  0.240173239

  length of vectors
     4.163661211  4.163661211  4.163661211     0.240173239  0.240173239  0.240173239


 FORCES acting on ions
    electron-ion (+dipol)            ewald-force                    non-local-force                 convergence-correction
 -----------------------------------------------------------------------------------------------
   -.146E-13 -.148E-13 -.167E-13   0.106E-14 -.252E-14 0.134E-14   0.105E-25 -.647E-26 0.646E-26   -.104E-13 0.766E-14 -.750E-13
   0.132E-12 0.217E-11 -.157E-11   0.223E-13 0.708E-14 0.149E-14   0.728E-26 0.291E-25 0.129E-25   -.474E-14 0.287E-14 -.656E-13
   0.133E-12 -.121E-13 -.442E-12   -.155E-13 -.730E-14 -.264E-14   0.323E-25 -.162E-25 0.226E-25   -.815E-14 0.309E-14 0.443E-13
   -.154E-13 0.140E-12 0.132E-12   -.112E-13 0.230E-14 -.249E-14   0.322E-26 -.646E-26 -.646E-26   -.157E-13 0.325E-14 0.489E-13
 -----------------------------------------------------------------------------------------------
   0.234E-12 0.228E-11 -.189E-11   -.334E-14 -.439E-15 -.229E-14   0.533E-25 -.158E-29 0.355E-25   -.390E-13 0.169E-13 -.473E-13
 
 
 POSITION                                       TOTAL-FORCE (eV/Angst)
 -----------------------------------------------------------------------------------
      0.00000      0.00000      0.00000         0.000000      0.000000      0.000000
      2.08183      2.08183      0.00000        -0.000000      0.000000      0.000000
      2.08183      0.00000      2.08183         0.000000     -0.000000      0.000000
     -0.00000      2.08183      2.08183         0.000000     -0.000000      0.000000
 -----------------------------------------------------------------------------------
    total drift:                                0.000000      0.000000     -0.000000


--------------------------------------------------------------------------------------------------------




--------------------------------------------------------------------------------------------------------


  
 reached required accuracy - stopping structural energy minimisation
     LOOP+:  VPU time   28.98: CPU time   29.01
  
  
 General timing and accounting informations for this job:
 ========================================================
  
                  Total CPU time used (sec):      103.468
                            User time (sec):       86.149
                          System time (sec):       17.319
                         Elapsed time (sec):      103.584
  
                   Maximum memory used (kb):      509884.
                   Average memory used (kb):           0.
  
                          Minor page faults:        66043
                          Major page faults:            0
                 Voluntary context switches:         1092
