 vasp.4.6.28 25Jul05 complex 
 executed on             LinuxIFC date 2017.01.26  15:11:06
 running on    4 nodes
 distr:  one band on    1 nodes,    4 groups


--------------------------------------------------------------------------------------------------------


 INCAR:
 POTCAR:   PAW_PBE Cu 05Jan2001                   
 POTCAR:   PAW_PBE Cu 05Jan2001                   
   VRHFIN =Cu: d10 p1                                                           
   LEXCH  = PE                                                                  
   EATOM  =  1390.9800 eV,  102.2341 Ry                                         
                                                                                
   TITEL  = PAW_PBE Cu 05Jan2001                                                
   LULTRA =        F    use ultrasoft PP ?                                      
   IUNSCR =        1    unscreen: 0-lin 1-nonlin 2-no                           
   RPACOR =    2.000    partial core radius                                     
   POMASS =   63.546; ZVAL   =   11.000    mass and valenz                      
   RCORE  =    2.300    outmost cutoff radius                                   
   RWIGS  =    2.480; RWIGS  =    1.312    wigner-seitz radius (au A)           
   ENMAX  =  273.214; ENMIN  =  204.910 eV                                      
   RCLOC  =    1.712    cutoff for local pot                                    
   LCOR   =        T    correct aug charges                                     
   LPAW   =        T    paw PP                                                  
   EAUG   =  516.456                                                            
   DEXC   =    -.008                                                            
   RMAX   =    2.789    core radius for proj-oper                               
   RAUG   =    1.300    factor for augmentation sphere                          
   RDEP   =    2.302    radius for radial grids                                 
   QCUT   =   -4.481; QGAM   =    8.962    optimization parameters              
                                                                                
   Description                                                                  
     l     E      TYP  RCUT    TYP  RCUT                                        
     2   .000     23  2.300                                                     
     2   .000     23  2.300                                                     
     0   .000     23  2.300                                                     
     0   .000     23  2.300                                                     
     1  -.200     23  2.300                                                     
     1   .000     23  2.300                                                     
     3   .000      7   .000                                                     
  local pseudopotential read in
  partial core-charges read in
  atomic valenz-charges read in
  non local Contribution for L=           2  read in
    real space projection operators read in
  non local Contribution for L=           2  read in
    real space projection operators read in
  non local Contribution for L=           0  read in
    real space projection operators read in
  non local Contribution for L=           0  read in
    real space projection operators read in
  non local Contribution for L=           1  read in
    real space projection operators read in
  non local Contribution for L=           1  read in
    real space projection operators read in
    PAW grid and wavefunctions read in
 
   number of l-projection  operators is LMAX  =           6
   number of lm-projection operators is LMMAX =          18
 

 ----------------------------------------------------------------------------- 
|                                                                             |
|  ADVICE TO THIS USER RUNNING 'VASP/VAMP'   (HEAR YOUR MASTER'S VOICE ...):  |
|                                                                             |
|      You have a (more or less) 'large supercell' and for larger cells       |
|      it might be more efficient to use real space projection operators      |
|      So try LREAL= Auto  in the INCAR   file.                               |
|      Mind: If you want to do an extremely accurate calculations keep the    |
|      reciprocal projection scheme          (i.e. LREAL=.FALSE.)             |
|                                                                             |
 ----------------------------------------------------------------------------- 

 PAW_PBE Cu 05Jan2001                   :
 energy of atom  1       EATOM=-1390.9800
 kinetic energy error for atom=    0.0032 (will be added to EATOM!!)
 
 EXHCAR: internal setup
 exchange correlation table for  LEXCH =        8
   RHO(1)=    0.500       N(1)  =     2000
   RHO(2)=  100.500       N(2)  =     4000
 
 POSCAR: No title                                
  positions in direct lattice
  No initial velocities read in
 


--------------------------------------------------------------------------------------------------------


 ion  position               nearest neighbor table
   1  0.667  0.667  0.333-   5 2.57   8 2.57   9 2.57  43 2.57  60 2.57  59 2.57   3 2.57  38 2.57
                             2 2.57  19 2.57  34 2.57 101 2.57
   2  0.667  0.833  0.500-   3 2.57  14 2.57   9 2.57  10 2.57  34 2.57  39 2.57   1 2.57   6 2.57
                            61 2.57  97 2.57  60 2.57  35 2.57
   3  0.833  0.667  0.500-   2 2.57   9 2.57  14 2.57  12 2.57   1 2.57  19 2.57  39 2.57  11 2.57
                            49 2.57  87 2.57  44 2.57  43 2.57
   4  0.667  0.667  0.000-  21 2.57  15 2.57  66 2.57  83 2.57  20 2.57   8 2.57   5 2.57  38 2.57
                            59 2.57 107 2.57  82 2.57  63 2.57
   5  0.667  0.833  0.167-   1 2.57   8 2.57   9 2.57  21 2.57  60 2.57  59 2.57  22 2.57   4 2.57
                             6 2.57  16 2.57  84 2.57  83 2.57
   6  0.667  0.000  0.333-  22 2.57  17 2.57   9 2.57  10 2.57  23 2.57  84 2.57   5 2.57  61 2.57
                             2 2.57  85 2.57  60 2.57   7 2.57
   7  0.667  0.167  0.500-  24 2.57  18 2.57  10 2.57  86 2.57  23 2.57  64 2.57  62 2.57  35 2.57
                           105 2.57  61 2.57  85 2.57   6 2.57
   8  0.833  0.667  0.167-   1 2.57   5 2.57   9 2.57  21 2.57  43 2.57   4 2.57  26 2.57  38 2.57
                            11 2.57  25 2.57  70 2.57  66 2.57
   9  0.833  0.833  0.333-   1 2.57   5 2.57   8 2.57   6 2.57   3 2.57  11 2.57  22 2.57   2 2.57
                            26 2.57  27 2.57  12 2.57  10 2.57
  10  0.833  0.000  0.500-   7 2.57  35 2.57   2 2.57   6 2.57  23 2.57  27 2.57  12 2.57  39 2.57
                            28 2.57  67 2.57  64 2.57   9 2.57
  11  0.000  0.667  0.333-  26 2.57   9 2.57  29 2.57   8 2.57  30 2.57  12 2.57  70 2.57  49 2.57
                             3 2.57  75 2.57  43 2.57  13 2.57
  12  0.000  0.833  0.500-  13 2.57  44 2.57   3 2.57  11 2.57  27 2.57  30 2.57  39 2.57  10 2.57
                            31 2.57   9 2.57  71 2.57  67 2.57
  13  0.167  0.667  0.500-  33 2.57  30 2.57  12 2.57  81 2.57  32 2.57  76 2.57  71 2.57  44 2.57
                           102 2.57  49 2.57  11 2.57  75 2.57
  14  0.667  0.667  0.667-  39 2.57  20 2.57  15 2.57   2 2.57  63 2.57  87 2.57  97 2.57   3 2.57
                            82 2.57 108 2.57  34 2.57  19 2.57
  15  0.667  0.833  0.833-  20 2.57  39 2.57  14 2.57  35 2.57   4 2.57  21 2.57  40 2.57  82 2.57
                            97 2.57  83 2.57  98 2.57  16 2.57
  16  0.667  0.000  0.000-  21 2.57  40 2.57  22 2.57  41 2.57   5 2.57  36 2.57  84 2.57  99 2.57
                            83 2.57  98 2.57  17 2.57  15 2.57
  17  0.667  0.167  0.167-  42 2.57  23 2.57  18 2.57   6 2.57  37 2.57  22 2.57 100 2.57  85 2.57
                            41 2.57  84 2.57  99 2.57  16 2.57
  18  0.667  0.333  0.333-  23 2.57  42 2.57  17 2.57  38 2.57   7 2.57  24 2.57  43 2.57  85 2.57
                           100 2.57  86 2.57 101 2.57  19 2.57
  19  0.667  0.500  0.500-  24 2.57  43 2.57   3 2.57  87 2.57   1 2.57  62 2.57  34 2.57 108 2.57
                            86 2.57 101 2.57  14 2.57  18 2.57
  20  0.833  0.667  0.833-  15 2.57  39 2.57  14 2.57   4 2.57  44 2.57  45 2.57  63 2.57  21 2.57
                            87 2.57  66 2.57  89 2.57  25 2.57
  21  0.833  0.833  0.000-   4 2.57   8 2.57  16 2.57  25 2.57   5 2.57  15 2.57  20 2.57  40 2.57
                            45 2.57  26 2.57  22 2.57  46 2.59
  22  0.833  0.000  0.167-   6 2.57   9 2.57  17 2.57  16 2.57   5 2.57  27 2.57  23 2.57  26 2.57
                            41 2.57  47 2.57  21 2.57  46 2.59
  23  0.833  0.167  0.333-  18 2.57  42 2.57  17 2.57   7 2.57  47 2.57   6 2.57  48 2.57  24 2.57
                            22 2.57  27 2.57  10 2.57  28 2.57
  24  0.833  0.333  0.500-   7 2.57  19 2.57  28 2.57  64 2.57  62 2.57  18 2.57  23 2.57  43 2.57
                            48 2.57  49 2.57  88 2.57  87 2.57
  25  0.000  0.667  0.000-  21 2.57  45 2.57  51 2.57  26 2.57  50 2.57   8 2.57  70 2.57  92 2.57
                            66 2.57  20 2.57  29 2.57  89 2.57
  26  0.000  0.833  0.167-  11 2.57  29 2.57   9 2.57   8 2.57  30 2.57  25 2.57  27 2.57  22 2.57
                            51 2.57  52 2.57  21 2.57  46 2.57
  27  0.000  0.000  0.333-  47 2.57  52 2.57  22 2.57  26 2.57  12 2.57  30 2.57  10 2.57  23 2.57
                             9 2.57  53 2.57  31 2.57  28 2.57
  28  0.000  0.167  0.500-  24 2.57  48 2.57  54 2.57  88 2.57  31 2.57  64 2.57  67 2.57  53 2.57
                            10 2.57  23 2.57  90 2.57  27 2.57
  29  0.167  0.667  0.167-  56 2.57  32 2.57  30 2.57  51 2.57  26 2.57  75 2.57  96 2.57  55 2.57
                            11 2.57  70 2.57  25 2.57  92 2.57
  30  0.167  0.833  0.333-  32 2.57  56 2.57  29 2.57  52 2.57  13 2.57  33 2.57  11 2.57  26 2.57
                            57 2.57  12 2.57  27 2.57  31 2.57
  31  0.167  0.000  0.500-  33 2.57  57 2.57  58 2.57  93 2.57  53 2.57  67 2.57  71 2.57  28 2.57
                            12 2.57  27 2.57  90 2.57  30 2.57
  32  0.333  0.667  0.333-  30 2.57  56 2.57  29 2.57  13 2.57  59 2.57  60 2.57  75 2.57  33 2.57
                            96 2.57  81 2.57 101 2.57  34 2.57
  33  0.333  0.833  0.500-  13 2.57  31 2.57  34 2.57  76 2.57  71 2.57  30 2.57  32 2.57  57 2.57
                            60 2.57  61 2.57  97 2.57  93 2.57
  34  0.500  0.667  0.500-  33 2.57  60 2.57   2 2.57  97 2.57  19 2.57  76 2.57   1 2.57 108 2.57
                            81 2.57  14 2.57  32 2.57 101 2.57
  35  0.667  0.000  0.667-  40 2.57  39 2.57  15 2.57  10 2.57  98 2.57  64 2.57  36 2.57   7 2.57
                           105 2.57  97 2.57  61 2.57   2 2.57
  36  0.667  0.167  0.833-  62 2.57  64 2.57  65 2.57  40 2.57 106 2.57 105 2.57  41 2.57  37 2.57
                            35 2.57  16 2.57  99 2.57  98 2.57
  37  0.667  0.333  0.000-  41 2.57  17 2.57  65 2.57  42 2.57  66 2.57  99 2.57  36 2.57  63 2.57
                           100 2.57 107 2.57 106 2.57  38 2.57
  38  0.667  0.500  0.167-  43 2.57  42 2.57  18 2.57  66 2.57 101 2.57   8 2.57   1 2.57   4 2.57
                            59 2.57 100 2.57 107 2.57  37 2.57
  39  0.833  0.833  0.667-  15 2.57  20 2.57  14 2.57  35 2.57  44 2.57   2 2.57  45 2.57   3 2.57
                            40 2.57  12 2.57  10 2.57  67 2.57
  40  0.833  0.000  0.833-  35 2.57  36 2.57  64 2.57  16 2.57  67 2.57  15 2.57  39 2.57  21 2.57
                            45 2.57  68 2.57  41 2.57  46 2.59
  41  0.833  0.167  0.000-  37 2.57  65 2.57  17 2.57  16 2.57  36 2.57  69 2.57  42 2.57  68 2.57
                            22 2.57  47 2.57  40 2.57  46 2.59
  42  0.833  0.333  0.167-  18 2.57  23 2.57  17 2.57  38 2.57  47 2.57  37 2.57  48 2.57  41 2.57
                            43 2.57  66 2.57  69 2.57  70 2.57
  43  0.833  0.500  0.333-  38 2.57   8 2.57   1 2.57  19 2.57  70 2.57  18 2.57  42 2.57  48 2.57
                            24 2.57  11 2.57  49 2.57   3 2.57
  44  0.000  0.667  0.667-  45 2.57  39 2.57  12 2.57  89 2.57  20 2.57  71 2.57  50 2.57  13 2.57
                           102 2.57  87 2.57   3 2.57  49 2.57
  45  0.000  0.833  0.833-  44 2.57  25 2.57  50 2.57  67 2.57  71 2.57  20 2.57  39 2.57  21 2.57
                            40 2.57  72 2.57  51 2.57  46 2.57
  46  0.002  0.000  0.000-  51 2.56  72 2.56  52 2.56  73 2.56  26 2.57  68 2.57  47 2.57  45 2.57
                            41 2.59  22 2.59  21 2.59  40 2.59
  47  0.000  0.167  0.167-  48 2.57  42 2.57  27 2.57  69 2.57  23 2.57  53 2.57  74 2.57  73 2.57
                            52 2.57  22 2.57  41 2.57  46 2.57
  48  0.000  0.333  0.333-  47 2.57  28 2.57  53 2.57  70 2.57  74 2.57  23 2.57  42 2.57  24 2.57
                            43 2.57  75 2.57  54 2.57  49 2.57
  49  0.000  0.500  0.500-   3 2.57  11 2.57  54 2.57  75 2.57  87 2.57  88 2.57  13 2.57  24 2.57
                            43 2.57 102 2.57  48 2.57  44 2.57
  50  0.167  0.667  0.833-  71 2.57  76 2.57  77 2.57  45 2.57 104 2.57  44 2.57  55 2.57 102 2.57
                            51 2.57  25 2.57  92 2.57  89 2.57
  51  0.167  0.833  0.000-  46 2.56  55 2.57  29 2.57  77 2.57  56 2.57  25 2.57  78 2.57  50 2.57
                            26 2.57  72 2.57  45 2.57  52 2.57
  52  0.167  0.000  0.167-  46 2.56  57 2.57  56 2.57  30 2.57  27 2.57  78 2.57  79 2.57  53 2.57
                            47 2.57  73 2.57  26 2.57  51 2.57
  53  0.167  0.167  0.333-  74 2.57  79 2.57  80 2.57  57 2.57  48 2.57  58 2.57  47 2.57  54 2.57
                            52 2.57  31 2.57  28 2.57  27 2.57
  54  0.167  0.333  0.500-  58 2.57  90 2.57  80 2.57  81 2.57  28 2.57 103 2.57  53 2.57  88 2.57
                            49 2.57  75 2.57  48 2.57 102 2.57
  55  0.333  0.667  0.000-  51 2.57  77 2.57  29 2.57  50 2.57  83 2.57  92 2.57  56 2.57  82 2.57
                            96 2.57 107 2.57  59 2.57 104 2.57
  56  0.333  0.833  0.167-  30 2.57  32 2.57  29 2.57  52 2.57  59 2.57  51 2.57  60 2.57  55 2.57
                            57 2.57  78 2.57  83 2.57  84 2.57
  57  0.333  0.000  0.333-  52 2.57  53 2.57  79 2.57  31 2.57  84 2.57  30 2.57  56 2.57  33 2.57
                            60 2.57  85 2.57  61 2.57  58 2.57
  58  0.333  0.167  0.500-  54 2.57  80 2.57  90 2.57  53 2.57  86 2.57  31 2.57 103 2.57  85 2.57
                            93 2.57  61 2.57 105 2.57  57 2.57
  59  0.500  0.667  0.167-  60 2.57  56 2.57  83 2.57 101 2.57  32 2.57   5 2.57   1 2.57   4 2.57
                            38 2.57  96 2.57  55 2.57 107 2.57
  60  0.500  0.833  0.333-  59 2.57  34 2.57   1 2.57  84 2.57   5 2.57  32 2.57  56 2.57  33 2.57
                            57 2.57   6 2.57   2 2.57  61 2.57
  61  0.500  0.000  0.500-   2 2.57   6 2.57  58 2.57  85 2.57  93 2.57  97 2.57   7 2.57  33 2.57
                            35 2.57  57 2.57  60 2.57 105 2.57
  62  0.667  0.333  0.667-  36 2.57  64 2.57  65 2.57  24 2.57 106 2.57 105 2.57  87 2.57  63 2.57
                             7 2.57  19 2.57 108 2.57  86 2.57
  63  0.667  0.500  0.833-  87 2.57  65 2.57  14 2.57  66 2.57  20 2.57 108 2.57  62 2.57  37 2.57
                           107 2.57  82 2.57 106 2.57   4 2.57
  64  0.833  0.167  0.667-  36 2.57  62 2.57  65 2.57  24 2.57  40 2.57   7 2.57  35 2.57  68 2.57
                            88 2.57  28 2.57  67 2.57  10 2.57
  65  0.833  0.333  0.833-  36 2.57  62 2.57  64 2.57  63 2.57  41 2.57  68 2.57  87 2.57  37 2.57
                            88 2.57  89 2.57  69 2.57  66 2.57
  66  0.833  0.500  0.000-   4 2.57  38 2.57  37 2.57  63 2.57  42 2.57  20 2.57  69 2.57  89 2.57
                            25 2.57  70 2.57  65 2.57   8 2.57
  67  0.000  0.000  0.667-  45 2.57  40 2.57  72 2.57  68 2.57  64 2.57  28 2.57  71 2.57  31 2.57
                            39 2.57  90 2.57  10 2.57  12 2.57
  68  0.000  0.167  0.833-  88 2.57  65 2.57  90 2.57  64 2.57  91 2.57  69 2.57  67 2.57  72 2.57
                            41 2.57  40 2.57  73 2.57  46 2.57
  69  0.000  0.333  0.000-  47 2.57  73 2.57  41 2.57  68 2.57  42 2.57  66 2.57  89 2.57  91 2.57
                            92 2.57  74 2.57  65 2.57  70 2.57
  70  0.000  0.500  0.167-  48 2.57  43 2.57  75 2.57  11 2.57  25 2.57  74 2.57   8 2.57  92 2.57
                            42 2.57  29 2.57  66 2.57  69 2.57
  71  0.167  0.833  0.667-  50 2.57  76 2.57  77 2.57  45 2.57  33 2.57  44 2.57  93 2.57  72 2.57
                            13 2.57  31 2.57  67 2.57  12 2.57
  72  0.167  0.000  0.833-  46 2.56  93 2.57  90 2.57  77 2.57  67 2.57  78 2.57  94 2.57  71 2.57
                            51 2.57  68 2.57  45 2.57  73 2.57
  73  0.167  0.167  0.000-  46 2.56  95 2.57  78 2.57  91 2.57  69 2.57  94 2.57  79 2.57  74 2.57
                            52 2.57  47 2.57  68 2.57  72 2.57
  74  0.167  0.333  0.167-  53 2.57  79 2.57  80 2.57  48 2.57  95 2.57  47 2.57  96 2.57  73 2.57
                            75 2.57  70 2.57  92 2.57  69 2.57
  75  0.167  0.500  0.333-  96 2.57  80 2.57  29 2.57  32 2.57  81 2.57  70 2.57  74 2.57  54 2.57
                            11 2.57  49 2.57  48 2.57  13 2.57
  76  0.333  0.667  0.667-  50 2.57  71 2.57  77 2.57  33 2.57 104 2.57  82 2.57  97 2.57 102 2.57
                            13 2.57  34 2.57 108 2.57  81 2.57
  77  0.333  0.833  0.833-  50 2.57  71 2.57  76 2.57  72 2.57  55 2.57  82 2.57  93 2.57  51 2.57
                            97 2.57  98 2.57  83 2.57  78 2.57
  78  0.333  0.000  0.000-  73 2.57  52 2.57  72 2.57  51 2.57  56 2.57  83 2.57  94 2.57  98 2.57
                            99 2.57  84 2.57  79 2.57  77 2.57
  79  0.333  0.167  0.167-  53 2.57  74 2.57  80 2.57  57 2.57  95 2.57  73 2.57  85 2.57  52 2.57
                           100 2.57  99 2.57  84 2.57  78 2.57
  80  0.333  0.333  0.333-  53 2.57  74 2.57  79 2.57  75 2.57  58 2.57  85 2.57  96 2.57  54 2.57
                           100 2.57 101 2.57  86 2.57  81 2.57
  81  0.333  0.500  0.500-  13 2.57 102 2.57  75 2.57  54 2.57  86 2.57 101 2.57  32 2.57 103 2.57
                            34 2.57 108 2.57  80 2.57  76 2.57
  82  0.500  0.667  0.833-  97 2.57  77 2.57  14 2.57  15 2.57  76 2.57  83 2.57 108 2.57  63 2.57
                           107 2.57  55 2.57 104 2.57   4 2.57
  83  0.500  0.833  0.000-   4 2.57  59 2.57  55 2.57  82 2.57  15 2.57  78 2.57  56 2.57  98 2.57
                            16 2.57  77 2.57   5 2.57  84 2.57
  84  0.500  0.000  0.167-  60 2.57  57 2.57   6 2.57  85 2.57  16 2.57  79 2.57   5 2.57  99 2.57
                            56 2.57  17 2.57  78 2.57  83 2.57
  85  0.500  0.167  0.333- 100 2.57  80 2.57  17 2.57  18 2.57  79 2.57  86 2.57  84 2.57  61 2.57
                             6 2.57  58 2.57  57 2.57   7 2.57
  86  0.500  0.333  0.500-   7 2.57 105 2.57  58 2.57  85 2.57  18 2.57 101 2.57 103 2.57  81 2.57
                            19 2.57  80 2.57  62 2.57 108 2.57
  87  0.833  0.500  0.667-  63 2.57  14 2.57  65 2.57  19 2.57  62 2.57  89 2.57  20 2.57   3 2.57
                            88 2.57  49 2.57  44 2.57  24 2.57
  88  0.000  0.333  0.667-  68 2.57  90 2.57  65 2.57  64 2.57  91 2.57  28 2.57  89 2.57  54 2.57
                            49 2.57  87 2.57 102 2.57  24 2.57
  89  0.000  0.500  0.833-  44 2.57 102 2.57  87 2.57  88 2.57  20 2.57  66 2.57  91 2.57  69 2.57
                            50 2.57  65 2.57  92 2.57  25 2.57
  90  0.167  0.167  0.667- 103 2.57  94 2.57  91 2.57  54 2.57  93 2.57  72 2.57  88 2.57  58 2.57
                            68 2.57  67 2.57  28 2.57  31 2.57
  91  0.167  0.333  0.833-  94 2.57 103 2.57  90 2.57 102 2.57  73 2.57  95 2.57  68 2.57  88 2.57
                           104 2.57  69 2.57  89 2.57  92 2.57
  92  0.167  0.500  0.000-  95 2.57 104 2.57  96 2.57  55 2.57  74 2.57  50 2.57  25 2.57  70 2.57
                            69 2.57  89 2.57  91 2.57  29 2.57
  93  0.333  0.000  0.667-  72 2.57  77 2.57  90 2.57  71 2.57  31 2.57  98 2.57  94 2.57  58 2.57
                            97 2.57  61 2.57 105 2.57  33 2.57
  94  0.333  0.167  0.833-  91 2.57 103 2.57  90 2.57  73 2.57 105 2.57  72 2.57 106 2.57  95 2.57
                            93 2.57  98 2.57  78 2.57  99 2.57
  95  0.333  0.333  0.000-  73 2.57  79 2.57  92 2.57  99 2.57  74 2.57  91 2.57  94 2.57 104 2.57
                           106 2.57 107 2.57 100 2.57  96 2.57
  96  0.333  0.500  0.167-  75 2.57  29 2.57  80 2.57  74 2.57  92 2.57 101 2.57  32 2.57 100 2.57
                            55 2.57 107 2.57  59 2.57  95 2.57
  97  0.500  0.833  0.667-  82 2.57  14 2.57  77 2.57  15 2.57  76 2.57  34 2.57  98 2.57   2 2.57
                            93 2.57  61 2.57  35 2.57  33 2.57
  98  0.500  0.000  0.833- 105 2.57  35 2.57  93 2.57  97 2.57  15 2.57  94 2.57  78 2.57  83 2.57
                            36 2.57  77 2.57  16 2.57  99 2.57
  99  0.500  0.167  0.000-  95 2.57 106 2.57  37 2.57 100 2.57  84 2.57  36 2.57  16 2.57  79 2.57
                            78 2.57  94 2.57  17 2.57  98 2.57
 100  0.500  0.333  0.167-  85 2.57  17 2.57  80 2.57  18 2.57  79 2.57  99 2.57 101 2.57  37 2.57
                            96 2.57 107 2.57  38 2.57  95 2.57
 101  0.500  0.500  0.333-  59 2.57  38 2.57  96 2.57 100 2.57  81 2.57  86 2.57  18 2.57  32 2.57
                             1 2.57  80 2.57  19 2.57  34 2.57
 102  0.167  0.500  0.667- 104 2.57 103 2.57  91 2.57  89 2.57  81 2.57  76 2.57  50 2.57  44 2.57
                            13 2.57  88 2.57  49 2.57  54 2.57
 103  0.333  0.333  0.667-  91 2.57  94 2.57  90 2.57 102 2.57 105 2.57  54 2.57 106 2.57  58 2.57
                           104 2.57  86 2.57  81 2.57 108 2.57
 104  0.333  0.500  0.833- 102 2.57  76 2.57  50 2.57  92 2.57 108 2.57  91 2.57 103 2.57 106 2.57
                            95 2.57  82 2.57 107 2.57  55 2.57
 105  0.500  0.167  0.667- 106 2.57  98 2.57 103 2.57  86 2.57  94 2.57  62 2.57  36 2.57  35 2.57
                             7 2.57  93 2.57  58 2.57  61 2.57
 106  0.500  0.333  0.833- 105 2.57  99 2.57  36 2.57 108 2.57  62 2.57  94 2.57 103 2.57  95 2.57
                           104 2.57  63 2.57  37 2.57 107 2.57
 107  0.500  0.500  0.000-  37 2.57  55 2.57  63 2.57  82 2.57  96 2.57 100 2.57   4 2.57  95 2.57
                            38 2.57 104 2.57  59 2.57 106 2.57
 108  0.500  0.500  0.667- 106 2.57 104 2.57  63 2.57  82 2.57  76 2.57  34 2.57  62 2.57  19 2.57
                            14 2.57 103 2.57  81 2.57  86 2.57
 
  LATTYP: Found a simple cubic cell.
 ALAT       =    10.9153016000
  
  Lattice vectors:
  
 A1 = (  10.9153016000,   0.0000000000,   0.0000000000)
 A2 = (   0.0000002000,  10.9153016000,   0.0000000000)
 A3 = (   0.0000002000,   0.0000002000,  10.9153016000)
 Subroutine PRICEL returns:
 Original cell was already a primitive cell.
 

Analysis of symmetry for initial positions (statically):

 Routine SETGRP: Setting up the symmetry group for a 
 simple cubic supercell.


 Subroutine GETGRP returns: Found  8 space group operations
 (whereof  8 operations were pure point group operations)
 out of a pool of 48 trial point group operations.


The static configuration has the point symmetry C_4v.

Analysis of symmetry for dynamics (positions and initial velocities):

 Subroutine DYNSYM returns: Found  8 space group operations
 (whereof  8 operations were pure point group operations)
 out of a pool of  8 trial space group operations
 (whereof  8 operations were pure point group operations)
 and found also     1 'primitive' translations


The dynamic configuration has the point symmetry C_4v.
 
 
 KPOINTS: Automatic mesh                          

Automatic generation of k-mesh.
 
 Subroutine IBZKPT returns following result:
 ===========================================
 
 Found     18 irreducible k-points:
 
 Following reciprocal coordinates:
            Coordinates               Weight
  0.083333  0.083333  0.083333      8.000000
  0.250000  0.083333  0.083333      8.000000
  0.416667  0.083333  0.083333      8.000000
  0.083333  0.250000  0.083333     16.000000
  0.250000  0.250000  0.083333     16.000000
  0.416667  0.250000  0.083333     16.000000
  0.083333  0.416667  0.083333     16.000000
  0.250000  0.416667  0.083333     16.000000
  0.416667  0.416667  0.083333     16.000000
  0.083333  0.250000  0.250000      8.000000
  0.250000  0.250000  0.250000      8.000000
  0.416667  0.250000  0.250000      8.000000
  0.083333  0.416667  0.250000     16.000000
  0.250000  0.416667  0.250000     16.000000
  0.416667  0.416667  0.250000     16.000000
  0.083333  0.416667  0.416667      8.000000
  0.250000  0.416667  0.416667      8.000000
  0.416667  0.416667  0.416667      8.000000
 
 Following cartesian coordinates:
            Coordinates               Weight
  0.007635  0.007635  0.007635      8.000000
  0.022904  0.007635  0.007635      8.000000
  0.038173  0.007635  0.007635      8.000000
  0.007635  0.022904  0.007635     16.000000
  0.022904  0.022904  0.007635     16.000000
  0.038173  0.022904  0.007635     16.000000
  0.007635  0.038173  0.007635     16.000000
  0.022904  0.038173  0.007635     16.000000
  0.038173  0.038173  0.007635     16.000000
  0.007635  0.022904  0.022904      8.000000
  0.022904  0.022904  0.022904      8.000000
  0.038173  0.022904  0.022904      8.000000
  0.007635  0.038173  0.022904     16.000000
  0.022904  0.038173  0.022904     16.000000
  0.038173  0.038173  0.022904     16.000000
  0.007635  0.038173  0.038173      8.000000
  0.022904  0.038173  0.038173      8.000000
  0.038173  0.038173  0.038173      8.000000
 


--------------------------------------------------------------------------------------------------------




 Dimension of arrays:
   k-Points           NKPTS =     18   number of bands    NBANDS=    712
   number of dos      NEDOS =    301   number of ions     NIONS =    108
   non local maximal  LDIM  =      6   non local SUM 2l+1 LMDIM =     18
   total plane-waves  NPLWV = 512000
   max r-space proj   IRMAX =      1   max aug-charges    IRDMAX= 110727
   dimension x,y,z NGX =    80 NGY =   80 NGZ =   80
   dimension x,y,z NGXF=   160 NGYF=  160 NGZF=  160
   support grid    NGXF=   320 NGYF=  320 NGZF=  320
   ions per type =             108
 NGX,Y,Z   is equivalent  to a cutoff of  12.18, 12.18, 12.18 a.u.
 NGXF,Y,Z  is equivalent  to a cutoff of  24.37, 24.37, 24.37 a.u.


 I would recommend the setting:
   dimension x,y,z NGX =    80 NGY =   80 NGZ =   80
 SYSTEM =  No title                                
 POSCAR =  No title                                

 Startparameter for this run:
   NWRITE =      2    write-flag & timer
   PREC   = accura    medium, high low
   ISTART =      1    job   : 0-new  1-cont  2-samecut
   ICHARG =      0    charge: 1-file 2-atom 10-const
   ISPIN  =      1    spin polarized calculation?
   LNONCOLLINEAR =      F non collinear calculations
   LSORBIT =      F    spin-orbit coupling
   INIWAV =      1    electr: 0-lowe 1-rand  2-diag
   LASPH  =      F    aspherical Exc in radial PAW
   METAGGA=      F    non-selfconsistent MetaGGA calc.

 Electronic Relaxation 1
   ENCUT  =  500.0 eV  36.75 Ry    6.06 a.u.  19.90 19.90 19.90*2*pi/ulx,y,z
   ENINI  =  500.0     initial cutoff
   ENAUG  =  516.5 eV  augmentation charge cutoff
   NELM   =     60;   NELMIN=  2; NELMDL=  0     # of ELM steps 
   EDIFF  = 0.1E-04   stopping-criterion for ELM
   LREAL  =      F    real-space projection
   LCOMPAT=      F    compatible to vasp.4.4
   LREAL_COMPAT= F    compatible to vasp.4.5.1-3
   GGA_COMPAT  = T    GGA compatible to vasp.4.4-vasp.4.6
   LMAXPAW     = -100 max onsite density
   LMAXMIX     =    2 max onsite mixed and CHGCAR
   VOSKOWN=      1    Vosko Wilk Nusair interpolation
   ROPT   =    0.00000
 Ionic relaxation
   EDIFFG = -.2E-01   stopping-criterion for IOM
   NSW    =      0    number of steps for IOM
   NBLOCK =      1;   KBLOCK =      1    inner block; outer block 
   IBRION =     -1    ionic relax: 0-MD 1-quasi-New 2-CG
   NFREE  =      0    steps in history (QN), initial steepest desc. (CG)
   ISIF   =      2    stress and relaxation
   IWAVPR =     10    prediction:  0-non 1-charg 2-wave 3-comb
   ISYM   =      2    0-nonsym 1-usesym 2-fastsym
   LCORR  =      T    Harris-Foulkes like correction to forces

   POTIM  =   0.50    time-step for ionic-motion
   TEIN   =    0.0    initial temperature
   TEBEG  =    0.0;   TEEND  =   0.0 temperature during run
   SMASS  =  -3.00    Nose mass-parameter (am)
   estimated Nose-frequenzy (Omega)   =  0.10E-29 period in steps =****** mass=  -0.272E-26a.u.
   NPACO  =    256;   APACO  = 16.0  distance and # of slots for P.C.
   PSTRESS=    0.0 pullay stress

  Mass of Ions in am
   POMASS =  63.55
  Ionic Valenz
   ZVAL   =  11.00
  Atomic Wigner-Seitz radii
   RWIGS  =   1.17
   NELECT =    1188.0000    total number of electrons
   NUPDOWN=      -1.0000    fix difference up-down

 DOS related values:
   EMIN   =  10.00;   EMAX   =-10.00  energy-range for DOS
   ISMEAR =     1;   SIGMA  =   0.20  broadening in eV -4-tet -1-fermi 0-gaus

 Electronic relaxation 2 (details)
   IALGO  =     48    algorithm
   LDIAG  =      T    sub-space diagonalisation
   IMIX   =      4    mixing-type and parameters
     AMIX     =   0.40;   BMIX     =  1.00
     AMIX_MAG =   1.60;   BMIX_MAG =  1.00
     AMIN     =   0.10
     WC   =   100.;   INIMIX=   1;  MIXPRE=   1

 Intra band minimization:
   WEIMIN = 0.0000     energy-eigenvalue tresh-hold
   EBREAK =  0.35E-08  absolut break condition
   DEPER  =   0.30     relativ break condition  

   TIME   =   0.10     timestep for ELM

  volume/ion in A,a.u.               =      12.04        81.26
  Fermi-wavevector in a.u.,eV,Ry     =   1.588466 34.330547  2.523224

 Second variation
   LSECVAR=     F    do a second variation
 
 Write flags
   LWAVE  =      F    write WAVECAR
   LCHARG =      F    write CHGCAR
   LVTOT  =      F    write LOCPOT, local potential
   LELF   =      F    write electronic localiz. function (ELF)
   LORBIT =      0    0 simple, 1 ext, 2 COOP (PROOUT)


 Dipole corrections
   IDIPOL =      0    1-x, 2-y, 3-z
   LDIPOL =      F    correct potential



--------------------------------------------------------------------------------------------------------


 Static calculation
 charge density will be updated during run
 non-spin polarized calculation
 RMM-DIIS sequential band-by-band
 performe sub-space diagonalisation
    before iterative eigenvector-optimisation
 modified Broyden-mixing scheme, WC =      100.0
 initial mixing is a Kerker type mixing with AMIX =  0.4000 and BMIX =      1.0000
 Hartree-type preconditioning will be used
 using additional bands          118
 reciprocal scheme for non local part
 use partial core corrections
 calculate Harris-corrections to forces 
   (improved forces if not selfconsistent)
 use gradient corrections 
 use of overlap-Matrix (Vanderbilt PP)
 Methfessel and Paxton  Order N= 1 SIGMA  =   0.20


--------------------------------------------------------------------------------------------------------


  energy-cutoff  :      500.00
  volume of cell :     1300.49
      direct lattice vectors                 reciprocal lattice vectors
    10.915301600  0.000000000  0.000000000     0.091614509 -0.000000002 -0.000000002
     0.000000200 10.915301600  0.000000000     0.000000000  0.091614509 -0.000000002
     0.000000200  0.000000200 10.915301600     0.000000000  0.000000000  0.091614509

  length of vectors
    10.915301600 10.915301600 10.915301600     0.091614509  0.091614509  0.091614509


 
 old parameters found on file WAVECAR:
  energy-cutoff  :      500.00
  volume of cell :     1300.49
      direct lattice vectors                 reciprocal lattice vectors
    10.915301600  0.000000000  0.000000000     0.091614509 -0.000000002 -0.000000002
     0.000000200 10.915301600  0.000000000     0.000000000  0.091614509 -0.000000002
     0.000000200  0.000000200 10.915301600     0.000000000  0.000000000  0.091614509

  length of vectors

 
 k-points in units of 2pi/SCALE and weight: Automatic mesh                          
   0.00763454  0.00763454  0.00763454       0.037
   0.02290363  0.00763454  0.00763454       0.037
   0.03817271  0.00763454  0.00763454       0.037
   0.00763454  0.02290363  0.00763454       0.074
   0.02290363  0.02290363  0.00763454       0.074
   0.03817271  0.02290363  0.00763454       0.074
   0.00763454  0.03817271  0.00763454       0.074
   0.02290363  0.03817271  0.00763454       0.074
   0.03817271  0.03817271  0.00763454       0.074
   0.00763454  0.02290363  0.02290363       0.037
   0.02290363  0.02290363  0.02290363       0.037
   0.03817271  0.02290363  0.02290363       0.037
   0.00763454  0.03817271  0.02290363       0.074
   0.02290363  0.03817271  0.02290363       0.074
   0.03817271  0.03817271  0.02290363       0.074
   0.00763454  0.03817271  0.03817271       0.037
   0.02290363  0.03817271  0.03817271       0.037
   0.03817271  0.03817271  0.03817271       0.037
 
 k-points in reciprocal lattice and weights: Automatic mesh                          
   0.08333333  0.08333333  0.08333333       0.037
   0.25000000  0.08333333  0.08333333       0.037
   0.41666667  0.08333333  0.08333333       0.037
   0.08333333  0.25000000  0.08333333       0.074
   0.25000000  0.25000000  0.08333333       0.074
   0.41666667  0.25000000  0.08333333       0.074
   0.08333333  0.41666667  0.08333333       0.074
   0.25000000  0.41666667  0.08333333       0.074
   0.41666667  0.41666667  0.08333333       0.074
   0.08333333  0.25000000  0.25000000       0.037
   0.25000000  0.25000000  0.25000000       0.037
   0.41666667  0.25000000  0.25000000       0.037
   0.08333333  0.41666667  0.25000000       0.074
   0.25000000  0.41666667  0.25000000       0.074
   0.41666667  0.41666667  0.25000000       0.074
   0.08333333  0.41666667  0.41666667       0.037
   0.25000000  0.41666667  0.41666667       0.037
   0.41666667  0.41666667  0.41666667       0.037
 
 position of ions in fractional coordinates (direct lattice) 
   0.66666667  0.66666667  0.33333333
   0.66666667  0.83333333  0.50000000
   0.83333333  0.66666667  0.50000000
   0.66666667  0.66666667  0.00000000
   0.66666667  0.83333333  0.16666667
   0.66666667  0.00000000  0.33333333
   0.66666667  0.16666667  0.50000000
   0.83333333  0.66666667  0.16666667
   0.83333333  0.83333333  0.33333333
   0.83333333  0.00000000  0.50000000
   0.00000000  0.66666667  0.33333333
   0.00000000  0.83333333  0.50000000
   0.16666667  0.66666667  0.50000000
   0.66666667  0.66666667  0.66666667
   0.66666667  0.83333333  0.83333333
   0.66666667  0.00000000  0.00000000
   0.66666667  0.16666667  0.16666667
   0.66666667  0.33333333  0.33333333
   0.66666667  0.50000000  0.50000000
   0.83333333  0.66666667  0.83333333
   0.83333333  0.83333333  0.00000000
   0.83333333  0.00000000  0.16666667
   0.83333333  0.16666667  0.33333333
   0.83333333  0.33333333  0.50000000
   0.00000000  0.66666667  0.00000000
   0.00000000  0.83333333  0.16666667
   0.00000000  0.00000000  0.33333333
   0.00000000  0.16666667  0.50000000
   0.16666667  0.66666667  0.16666667
   0.16666667  0.83333333  0.33333333
   0.16666667  0.00000000  0.50000000
   0.33333333  0.66666667  0.33333333
   0.33333333  0.83333333  0.50000000
   0.50000000  0.66666667  0.50000000
   0.66666667  0.00000000  0.66666667
   0.66666667  0.16666667  0.83333333
   0.66666667  0.33333333  0.00000000
   0.66666667  0.50000000  0.16666667
   0.83333333  0.83333333  0.66666667
   0.83333333  0.00000000  0.83333333
   0.83333333  0.16666667  0.00000000
   0.83333333  0.33333333  0.16666667
   0.83333333  0.50000000  0.33333333
   0.00000000  0.66666667  0.66666667
   0.00000000  0.83333333  0.83333333
   0.00183200  0.00000000  0.00000000
   0.00000000  0.16666667  0.16666667
   0.00000000  0.33333333  0.33333333
   0.00000000  0.50000000  0.50000000
   0.16666667  0.66666667  0.83333333
   0.16666667  0.83333333  0.00000000
   0.16666667  0.00000000  0.16666667
   0.16666667  0.16666667  0.33333333
   0.16666667  0.33333333  0.50000000
   0.33333333  0.66666667  0.00000000
   0.33333333  0.83333333  0.16666667
   0.33333333  0.00000000  0.33333333
   0.33333333  0.16666667  0.50000000
   0.50000000  0.66666667  0.16666667
   0.50000000  0.83333333  0.33333333
   0.50000000  0.00000000  0.50000000
   0.66666667  0.33333333  0.66666667
   0.66666667  0.50000000  0.83333333
   0.83333333  0.16666667  0.66666667
   0.83333333  0.33333333  0.83333333
   0.83333333  0.50000000  0.00000000
   0.00000000  0.00000000  0.66666667
   0.00000000  0.16666667  0.83333333
   0.00000000  0.33333333  0.00000000
   0.00000000  0.50000000  0.16666667
   0.16666667  0.83333333  0.66666667
   0.16666667  0.00000000  0.83333333
   0.16666667  0.16666667  0.00000000
   0.16666667  0.33333333  0.16666667
   0.16666667  0.50000000  0.33333333
   0.33333333  0.66666667  0.66666667
   0.33333333  0.83333333  0.83333333
   0.33333333  0.00000000  0.00000000
   0.33333333  0.16666667  0.16666667
   0.33333333  0.33333333  0.33333333
   0.33333333  0.50000000  0.50000000
   0.50000000  0.66666667  0.83333333
   0.50000000  0.83333333  0.00000000
   0.50000000  0.00000000  0.16666667
   0.50000000  0.16666667  0.33333333
   0.50000000  0.33333333  0.50000000
   0.83333333  0.50000000  0.66666667
   0.00000000  0.33333333  0.66666667
   0.00000000  0.50000000  0.83333333
   0.16666667  0.16666667  0.66666667
   0.16666667  0.33333333  0.83333333
   0.16666667  0.50000000  0.00000000
   0.33333333  0.00000000  0.66666667
   0.33333333  0.16666667  0.83333333
   0.33333333  0.33333333  0.00000000
   0.33333333  0.50000000  0.16666667
   0.50000000  0.83333333  0.66666667
   0.50000000  0.00000000  0.83333333
   0.50000000  0.16666667  0.00000000
   0.50000000  0.33333333  0.16666667
   0.50000000  0.50000000  0.33333333
   0.16666667  0.50000000  0.66666667
   0.33333333  0.33333333  0.66666667
   0.33333333  0.50000000  0.83333333
   0.50000000  0.16666667  0.66666667
   0.50000000  0.33333333  0.83333333
   0.50000000  0.50000000  0.00000000
   0.50000000  0.50000000  0.66666667
 
 position of ions in cartesian coordinates  (Angst):
   7.27686797  7.27686784  3.63843383
   7.27686804  9.09608473  5.45765080
   9.09608486  7.27686787  5.45765080
   7.27686790  7.27686777  0.00000000
   7.27686797  9.09608466  1.81921697
   7.27686784  0.00000007  3.63843383
   7.27686790  1.81921707  5.45765080
   9.09608480  7.27686780  1.81921697
   9.09608486  9.09608470  3.63843383
   9.09608473  0.00000010  5.45765080
   0.00000020  7.27686784  3.63843383
   0.00000027  9.09608473  5.45765080
   1.81921720  7.27686787  5.45765080
   7.27686804  7.27686790  7.27686777
   7.27686810  9.09608480  9.09608463
   7.27686777  0.00000000  0.00000000
   7.27686784  1.81921700  1.81921697
   7.27686790  3.63843390  3.63843383
   7.27686797  5.45765090  5.45765080
   9.09608493  7.27686794  9.09608463
   9.09608480  9.09608463  0.00000000
   9.09608466  0.00000003  1.81921697
   9.09608473  1.81921704  3.63843383
   9.09608480  3.63843393  5.45765080
   0.00000013  7.27686777  0.00000000
   0.00000020  9.09608466  1.81921697
   0.00000007  0.00000007  3.63843383
   0.00000013  1.81921707  5.45765080
   1.81921714  7.27686780  1.81921697
   1.81921720  9.09608470  3.63843383
   1.81921707  0.00000010  5.45765080
   3.63843403  7.27686784  3.63843383
   3.63843410  9.09608473  5.45765080
   5.45765103  7.27686787  5.45765080
   7.27686790  0.00000013  7.27686777
   7.27686797  1.81921714  9.09608463
   7.27686784  3.63843383  0.00000000
   7.27686790  5.45765083  1.81921697
   9.09608493  9.09608476  7.27686777
   9.09608480  0.00000017  9.09608463
   9.09608466  1.81921697  0.00000000
   9.09608473  3.63843386  1.81921697
   9.09608480  5.45765087  3.63843383
   0.00000027  7.27686790  7.27686777
   0.00000033  9.09608480  9.09608463
   0.01999683  0.00000000  0.00000000
   0.00000007  1.81921700  1.81921697
   0.00000013  3.63843390  3.63843383
   0.00000020  5.45765090  5.45765080
   1.81921727  7.27686794  9.09608463
   1.81921714  9.09608463  0.00000000
   1.81921700  0.00000003  1.81921697
   1.81921707  1.81921704  3.63843383
   1.81921714  3.63843393  5.45765080
   3.63843396  7.27686777  0.00000000
   3.63843403  9.09608466  1.81921697
   3.63843390  0.00000007  3.63843383
   3.63843396  1.81921707  5.45765080
   5.45765097  7.27686780  1.81921697
   5.45765103  9.09608470  3.63843383
   5.45765090  0.00000010  5.45765080
   7.27686797  3.63843396  7.27686777
   7.27686804  5.45765097  9.09608463
   9.09608480  1.81921710  7.27686777
   9.09608486  3.63843400  9.09608463
   9.09608473  5.45765080  0.00000000
   0.00000013  0.00000013  7.27686777
   0.00000020  1.81921714  9.09608463
   0.00000007  3.63843383  0.00000000
   0.00000013  5.45765083  1.81921697
   1.81921727  9.09608476  7.27686777
   1.81921714  0.00000017  9.09608463
   1.81921700  1.81921697  0.00000000
   1.81921707  3.63843386  1.81921697
   1.81921714  5.45765087  3.63843383
   3.63843410  7.27686790  7.27686777
   3.63843416  9.09608480  9.09608463
   3.63843383  0.00000000  0.00000000
   3.63843390  1.81921700  1.81921697
   3.63843396  3.63843390  3.63843383
   3.63843403  5.45765090  5.45765080
   5.45765110  7.27686794  9.09608463
   5.45765097  9.09608463  0.00000000
   5.45765083  0.00000003  1.81921697
   5.45765090  1.81921704  3.63843383
   5.45765097  3.63843393  5.45765080
   9.09608486  5.45765093  7.27686777
   0.00000020  3.63843396  7.27686777
   0.00000027  5.45765097  9.09608463
   1.81921714  1.81921710  7.27686777
   1.81921720  3.63843400  9.09608463
   1.81921707  5.45765080  0.00000000
   3.63843396  0.00000013  7.27686777
   3.63843403  1.81921714  9.09608463
   3.63843390  3.63843383  0.00000000
   3.63843396  5.45765083  1.81921697
   5.45765110  9.09608476  7.27686777
   5.45765097  0.00000017  9.09608463
   5.45765083  1.81921697  0.00000000
   5.45765090  3.63843386  1.81921697
   5.45765097  5.45765087  3.63843383
   1.81921720  5.45765093  7.27686777
   3.63843403  3.63843396  7.27686777
   3.63843410  5.45765097  9.09608463
   5.45765097  1.81921710  7.27686777
   5.45765103  3.63843400  9.09608463
   5.45765090  5.45765080  0.00000000
   5.45765103  5.45765093  7.27686777
 


--------------------------------------------------------------------------------------------------------


 k-point  1 :  0.08330.08330.0833  plane waves:  33008
 k-point  2 :  0.25000.08330.0833  plane waves:  32982
 k-point  3 :  0.41670.08330.0833  plane waves:  33025
 k-point  4 :  0.08330.25000.0833  plane waves:  32982
 k-point  5 :  0.25000.25000.0833  plane waves:  32999
 k-point  6 :  0.41670.25000.0833  plane waves:  33008
 k-point  7 :  0.08330.41670.0833  plane waves:  33025
 k-point  8 :  0.25000.41670.0833  plane waves:  33008
 k-point  9 :  0.41670.41670.0833  plane waves:  33044
 k-point 10 :  0.08330.25000.2500  plane waves:  32999
 k-point 11 :  0.25000.25000.2500  plane waves:  33005
 k-point 12 :  0.41670.25000.2500  plane waves:  33030
 k-point 13 :  0.08330.41670.2500  plane waves:  33008
 k-point 14 :  0.25000.41670.2500  plane waves:  33030
 k-point 15 :  0.41670.41670.2500  plane waves:  33018
 k-point 16 :  0.08330.41670.4167  plane waves:  33044
 k-point 17 :  0.25000.41670.4167  plane waves:  33018
 k-point 18 :  0.41670.41670.4167  plane waves:  32996

 maximum and minimum number of plane-waves per node :  33044 32982

 maximum number of plane-waves:  33044
 maximal index in each direction: 
   IXMAX= 19   IYMAX= 19   IZMAX= 19
   IXMIN=-20   IYMIN=-20   IZMIN=-20

 NGX is ok and might be reduce to  80
 NGY is ok and might be reduce to  80
 NGZ is ok and might be reduce to  80

 parallel 3dFFT wavefunction:
    minimum data exchange during FFTs selected (reduces bandwidth)
 parallel 3dFFT charge:
    minimum data exchange during FFTs selected (reduces bandwidth)

 For storing wavefunctions 6769.46 MBYTES are necessary
 For predicting wavefunctions  807.73 MBYTES are necessary
Broyden mixing: mesh for mixing (old mesh)
   NGX = 39   NGY = 39   NGZ = 39
  (NGX  =160   NGY  =160   NGZ  =160)
 gives a total of  59319 points
 charge density for first step will be calculated from the start-wavefunctions


--------------------------------------------------------------------------------------------------------


 Maximum index for augmentation-charges        26899 (set IRDMAX)


--------------------------------------------------------------------------------------------------------


 initial charge from wavefunction
 First call to EWALD:  gamma=   0.162
 Maximum number of real-space cells 3x 3x 3
 Maximum number of reciprocal cells 3x 3x 3

    FEWALD:  VPU time    0.11: CPU time    0.11


----------------------------------------- Iteration    1(   1)  ---------------------------------------


    POTLOK:  VPU time    3.82: CPU time    3.86
    SETDIJ:  VPU time    7.85: CPU time    7.87
    EDDIAG:  VPU time  752.76: CPU time  753.76
  RMM-DIIS:  VPU time21086.82: CPU time21116.00
    ORTHCH:  VPU time  262.78: CPU time  263.19
    DOS   :  VPU time    0.00: CPU time   -0.00
    CHARGE:  VPU time  322.69: CPU time  323.27
    MIXING:  VPU time    0.11: CPU time    0.11
    ------------------------------------------
      LOOP:  VPU time22437.59: CPU time22468.82

 eigenvalue-minimisations  : 26416
 total energy-change (2. order) :-0.4015539E+03  (-0.4114543E+02)
 number of electron 1188.0000042 magnetization 
 augmentation part   774.7992423 magnetization 

 Broyden mixing:
  rms(total) = 0.27604E+00    rms(broyden)= 0.27015E+00
  rms(prec ) = 0.35568E+00
  weight for this iteration     100.00

 Free energy of the ion-electron system (eV)
  ---------------------------------------------------
  alpha Z        PSCENC =     11458.92038307
  Ewald energy   TEWEN  =   -118562.30874999
  -1/2 Hartree   DENC   =    -33325.17758680
  -V(xc)+E(xc)   XCENC  =      4630.19076503
  PAW double counting   =    118527.18195287  -134214.05379091
  entropy T*S    EENTRO =         0.01947556
  eigenvalues    EBANDS =       858.17599998
  atomic energy  EATOM  =    150225.49765690
  ---------------------------------------------------
  free energy    TOTEN  =      -401.55389430 eV

  energy without entropy =     -401.57336986  energy(sigma->0) =     -401.56038616


--------------------------------------------------------------------------------------------------------




----------------------------------------- Iteration    1(   2)  ---------------------------------------


    POTLOK:  VPU time    5.02: CPU time    5.03
    SETDIJ:  VPU time   10.76: CPU time   10.78
    EDDIAG:  VPU time 1004.34: CPU time 1006.09
  RMM-DIIS:  VPU time24210.73: CPU time24246.81
    ORTHCH:  VPU time  262.09: CPU time  262.43
    DOS   :  VPU time    0.00: CPU time   -0.00
    CHARGE:  VPU time  269.48: CPU time  269.65
    MIXING:  VPU time    0.45: CPU time    0.45
    ------------------------------------------
      LOOP:  VPU time25763.60: CPU time25801.99

 eigenvalue-minimisations  : 27187
 total energy-change (2. order) :-0.1482346E+00  (-0.5846749E+00)
 number of electron 1188.0000042 magnetization 
 augmentation part   777.3395345 magnetization 

 Broyden mixing:
  rms(total) = 0.14064E+00    rms(broyden)= 0.14063E+00
  rms(prec ) = 0.20096E+00
  weight for this iteration     100.00

 eigenvalues of (default mixing * dielectric matrix)
  average eigenvalue GAMMA=   0.6897
  0.6897

 Free energy of the ion-electron system (eV)
  ---------------------------------------------------
  alpha Z        PSCENC =     11458.92038307
  Ewald energy   TEWEN  =   -118562.30874999
  -1/2 Hartree   DENC   =    -33230.51966881
  -V(xc)+E(xc)   XCENC  =      4617.42863099
  PAW double counting   =    118281.50618895  -133916.89622795
  entropy T*S    EENTRO =         0.00934985
  eigenvalues    EBANDS =       724.66030811
  atomic energy  EATOM  =    150225.49765690
  ---------------------------------------------------
  free energy    TOTEN  =      -401.70212889 eV

  energy without entropy =     -401.71147874  energy(sigma->0) =     -401.70524551


--------------------------------------------------------------------------------------------------------




----------------------------------------- Iteration    1(   3)  ---------------------------------------


    POTLOK:  VPU time    4.04: CPU time    4.04
    SETDIJ:  VPU time    8.58: CPU time    8.59
    EDDIAG:  VPU time  862.69: CPU time  863.13
  RMM-DIIS:  VPU time 9167.19: CPU time 9169.87
    ORTHCH:  VPU time   98.12: CPU time   98.14
    DOS   :  VPU time    0.00: CPU time   -0.00
    CHARGE:  VPU time  133.36: CPU time  133.40
    MIXING:  VPU time    0.06: CPU time    0.06
    ------------------------------------------
      LOOP:  VPU time10274.64: CPU time10277.84

 eigenvalue-minimisations  : 27234
 total energy-change (2. order) : 0.2512651E-01  (-0.2387452E-01)
 number of electron 1188.0000042 magnetization 
 augmentation part   776.8706466 magnetization 

 Broyden mixing:
  rms(total) = 0.82812E-01    rms(broyden)= 0.82808E-01
  rms(prec ) = 0.12852E+00
  weight for this iteration     100.00

 eigenvalues of (default mixing * dielectric matrix)
  average eigenvalue GAMMA=   0.5986
  0.7757  0.4216

 Free energy of the ion-electron system (eV)
  ---------------------------------------------------
  alpha Z        PSCENC =     11458.92038307
  Ewald energy   TEWEN  =   -118562.30874999
  -1/2 Hartree   DENC   =    -33249.05005945
  -V(xc)+E(xc)   XCENC  =      4618.36731985
  PAW double counting   =    118305.13308584  -133944.16045667
  entropy T*S    EENTRO =         0.01071306
  eigenvalues    EBANDS =       745.91310502
  atomic energy  EATOM  =    150225.49765690
  ---------------------------------------------------
  free energy    TOTEN  =      -401.67700239 eV

  energy without entropy =     -401.68771544  energy(sigma->0) =     -401.68057340


--------------------------------------------------------------------------------------------------------




----------------------------------------- Iteration    1(   4)  ---------------------------------------


    POTLOK:  VPU time    2.29: CPU time    2.30
    SETDIJ:  VPU time    3.18: CPU time    3.18
    EDDIAG:  VPU time  397.96: CPU time  398.06
  RMM-DIIS:  VPU time 8792.00: CPU time 8794.19
    ORTHCH:  VPU time   98.06: CPU time   98.08
    DOS   :  VPU time    0.00: CPU time   -0.00
    CHARGE:  VPU time  133.38: CPU time  133.42
    MIXING:  VPU time    0.06: CPU time    0.06
    ------------------------------------------
      LOOP:  VPU time 9427.53: CPU time 9429.88

 eigenvalue-minimisations  : 27256
 total energy-change (2. order) : 0.1449718E-01  (-0.2644091E-02)
 number of electron 1188.0000042 magnetization 
 augmentation part   776.8266523 magnetization 

 Broyden mixing:
  rms(total) = 0.18792E-01    rms(broyden)= 0.18791E-01
  rms(prec ) = 0.22838E-01
  weight for this iteration     100.00

 eigenvalues of (default mixing * dielectric matrix)
  average eigenvalue GAMMA=   0.9703
  1.6822  0.8348  0.3937

 Free energy of the ion-electron system (eV)
  ---------------------------------------------------
  alpha Z        PSCENC =     11458.92038307
  Ewald energy   TEWEN  =   -118562.30874999
  -1/2 Hartree   DENC   =    -33253.57552085
  -V(xc)+E(xc)   XCENC  =      4618.58555785
  PAW double counting   =    118308.31865657  -133945.63432409
  entropy T*S    EENTRO =         0.01072629
  eigenvalues    EBANDS =       748.52310904
  atomic energy  EATOM  =    150225.49765690
  ---------------------------------------------------
  free energy    TOTEN  =      -401.66250521 eV

  energy without entropy =     -401.67323150  energy(sigma->0) =     -401.66608064


--------------------------------------------------------------------------------------------------------




----------------------------------------- Iteration    1(   5)  ---------------------------------------


    POTLOK:  VPU time    2.30: CPU time    2.30
    SETDIJ:  VPU time    3.17: CPU time    3.17
    EDDIAG:  VPU time  397.90: CPU time  398.00
  RMM-DIIS:  VPU time 8821.15: CPU time 8823.36
    ORTHCH:  VPU time   98.01: CPU time   98.03
    DOS   :  VPU time    0.00: CPU time   -0.00
    CHARGE:  VPU time  133.38: CPU time  133.42
    MIXING:  VPU time    0.06: CPU time    0.06
    ------------------------------------------
      LOOP:  VPU time 9456.56: CPU time 9458.93

 eigenvalue-minimisations  : 27347
 total energy-change (2. order) : 0.9126057E-03  (-0.2223980E-03)
 number of electron 1188.0000042 magnetization 
 augmentation part   776.8961428 magnetization 

 Broyden mixing:
  rms(total) = 0.14405E-01    rms(broyden)= 0.14405E-01
  rms(prec ) = 0.18867E-01
  weight for this iteration     100.00

 eigenvalues of (default mixing * dielectric matrix)
  average eigenvalue GAMMA=   1.0187
  2.1714  0.9218  0.5974  0.3844

 Free energy of the ion-electron system (eV)
  ---------------------------------------------------
  alpha Z        PSCENC =     11458.92038307
  Ewald energy   TEWEN  =   -118562.30874999
  -1/2 Hartree   DENC   =    -33258.05670197
  -V(xc)+E(xc)   XCENC  =      4618.78123067
  PAW double counting   =    118306.31950119  -133936.91547001
  entropy T*S    EENTRO =         0.01055479
  eigenvalues    EBANDS =       746.09000275
  atomic energy  EATOM  =    150225.49765690
  ---------------------------------------------------
  free energy    TOTEN  =      -401.66159260 eV

  energy without entropy =     -401.67214740  energy(sigma->0) =     -401.66511087


--------------------------------------------------------------------------------------------------------




----------------------------------------- Iteration    1(   6)  ---------------------------------------


    POTLOK:  VPU time    2.29: CPU time    2.30
    SETDIJ:  VPU time    3.18: CPU time    3.18
    EDDIAG:  VPU time  397.47: CPU time  397.56
  RMM-DIIS:  VPU time13265.96: CPU time13277.55
    ORTHCH:  VPU time  203.65: CPU time  203.85
    DOS   :  VPU time    0.00: CPU time   -0.00
    CHARGE:  VPU time  262.69: CPU time  262.90
    MIXING:  VPU time    0.24: CPU time    0.24
    ------------------------------------------
      LOOP:  VPU time14136.10: CPU time14148.20

 eigenvalue-minimisations  : 27566
 total energy-change (2. order) : 0.4168369E-03  (-0.9108312E-04)
 number of electron 1188.0000042 magnetization 
 augmentation part   776.8612904 magnetization 

 Broyden mixing:
  rms(total) = 0.77139E-02    rms(broyden)= 0.77137E-02
  rms(prec ) = 0.10372E-01
  weight for this iteration     100.00

 eigenvalues of (default mixing * dielectric matrix)
  average eigenvalue GAMMA=   1.0073
  2.3622  1.1517  0.7480  0.3774  0.3971

 Free energy of the ion-electron system (eV)
  ---------------------------------------------------
  alpha Z        PSCENC =     11458.92038307
  Ewald energy   TEWEN  =   -118562.30874999
  -1/2 Hartree   DENC   =    -33261.71775691
  -V(xc)+E(xc)   XCENC  =      4618.95470482
  PAW double counting   =    118308.33478670  -133937.09131254
  entropy T*S    EENTRO =         0.01066458
  eigenvalues    EBANDS =       747.73844761
  atomic energy  EATOM  =    150225.49765690
  ---------------------------------------------------
  free energy    TOTEN  =      -401.66117576 eV

  energy without entropy =     -401.67184034  energy(sigma->0) =     -401.66473062


--------------------------------------------------------------------------------------------------------




----------------------------------------- Iteration    1(   7)  ---------------------------------------


    POTLOK:  VPU time    3.78: CPU time    3.78
    SETDIJ:  VPU time    7.29: CPU time    7.30
    EDDIAG:  VPU time  847.34: CPU time  848.54
  RMM-DIIS:  VPU time22135.12: CPU time22157.88
    ORTHCH:  VPU time  215.41: CPU time  215.46
    DOS   :  VPU time    0.00: CPU time   -0.00
    CHARGE:  VPU time  278.78: CPU time  278.85
    MIXING:  VPU time    0.52: CPU time    0.52
    ------------------------------------------
      LOOP:  VPU time23488.88: CPU time23512.98

 eigenvalue-minimisations  : 27378
 total energy-change (2. order) : 0.2111780E-03  (-0.3118660E-04)
 number of electron 1188.0000042 magnetization 
 augmentation part   776.8265688 magnetization 

 Broyden mixing:
  rms(total) = 0.18687E-02    rms(broyden)= 0.18685E-02
  rms(prec ) = 0.22805E-02
  weight for this iteration     100.00

 eigenvalues of (default mixing * dielectric matrix)
  average eigenvalue GAMMA=   1.0611
  2.5320  1.2823  1.0744  0.6967  0.3816  0.3994

 Free energy of the ion-electron system (eV)
  ---------------------------------------------------
  alpha Z        PSCENC =     11458.92038307
  Ewald energy   TEWEN  =   -118562.30874999
  -1/2 Hartree   DENC   =    -33264.42338673
  -V(xc)+E(xc)   XCENC  =      4619.08407660
  PAW double counting   =    118309.78854844  -133937.55032334
  entropy T*S    EENTRO =         0.01077037
  eigenvalues    EBANDS =       749.32006010
  atomic energy  EATOM  =    150225.49765690
  ---------------------------------------------------
  free energy    TOTEN  =      -401.66096459 eV

  energy without entropy =     -401.67173495  energy(sigma->0) =     -401.66455471


--------------------------------------------------------------------------------------------------------




----------------------------------------- Iteration    1(   8)  ---------------------------------------


    POTLOK:  VPU time    3.77: CPU time    3.77
    SETDIJ:  VPU time    7.61: CPU time    7.61
    EDDIAG:  VPU time  576.39: CPU time  576.55
  RMM-DIIS:  VPU time 8061.92: CPU time 8063.93
    ORTHCH:  VPU time   98.34: CPU time   98.36
    DOS   :  VPU time    0.00: CPU time   -0.00
    CHARGE:  VPU time  133.35: CPU time  133.38
    MIXING:  VPU time    0.07: CPU time    0.07
    ------------------------------------------
      LOOP:  VPU time 8882.02: CPU time 8884.33

 eigenvalue-minimisations  : 24929
 total energy-change (2. order) : 0.3658966E-04  (-0.6288904E-05)
 number of electron 1188.0000042 magnetization 
 augmentation part   776.8460621 magnetization 

 Broyden mixing:
  rms(total) = 0.98955E-03    rms(broyden)= 0.98951E-03
  rms(prec ) = 0.13545E-02
  weight for this iteration     100.00

 eigenvalues of (default mixing * dielectric matrix)
  average eigenvalue GAMMA=   1.0232
  2.6157  1.4942  1.1226  0.7261  0.3824  0.4015  0.4199

 Free energy of the ion-electron system (eV)
  ---------------------------------------------------
  alpha Z        PSCENC =     11458.92038307
  Ewald energy   TEWEN  =   -118562.30874999
  -1/2 Hartree   DENC   =    -33264.42587515
  -V(xc)+E(xc)   XCENC  =      4619.08107386
  PAW double counting   =    118308.10493689  -133935.10624962
  entropy T*S    EENTRO =         0.01071875
  eigenvalues    EBANDS =       748.56517730
  atomic energy  EATOM  =    150225.49765690
  ---------------------------------------------------
  free energy    TOTEN  =      -401.66092800 eV

  energy without entropy =     -401.67164675  energy(sigma->0) =     -401.66450091


--------------------------------------------------------------------------------------------------------




----------------------------------------- Iteration    1(   9)  ---------------------------------------


    POTLOK:  VPU time    2.28: CPU time    2.28
    SETDIJ:  VPU time    3.17: CPU time    3.17
    EDDIAG:  VPU time  397.91: CPU time  398.01
  RMM-DIIS:  VPU time 4781.11: CPU time 4782.26
    ORTHCH:  VPU time   98.10: CPU time   98.12
    DOS   :  VPU time    0.00: CPU time   -0.00
    ------------------------------------------
      LOOP:  VPU time 5283.16: CPU time 5284.45

 eigenvalue-minimisations  : 14537
 total energy-change (2. order) : 0.4400965E-05  (-0.3545321E-06)
 number of electron 1188.0000042 magnetization 
 augmentation part   776.8460621 magnetization 

 Free energy of the ion-electron system (eV)
  ---------------------------------------------------
  alpha Z        PSCENC =     11458.92038307
  Ewald energy   TEWEN  =   -118562.30874999
  -1/2 Hartree   DENC   =    -33264.49483493
  -V(xc)+E(xc)   XCENC  =      4619.08419396
  PAW double counting   =    118307.82497965  -133934.76582236
  entropy T*S    EENTRO =         0.01071924
  eigenvalues    EBANDS =       748.57055087
  atomic energy  EATOM  =    150225.49765690
  ---------------------------------------------------
  free energy    TOTEN  =      -401.66092360 eV

  energy without entropy =     -401.67164284  energy(sigma->0) =     -401.66449668


--------------------------------------------------------------------------------------------------------




 average (electrostatic) potential at core
  the test charge radii are     1.0053
  (the norm of the test charge is              1.0000)
       1 -40.0520       2 -40.0520       3 -40.0520       4 -40.0519       5 -40.0521
       6 -40.0519       7 -40.0520       8 -40.0519       9 -40.0519      10 -40.0520
      11 -40.0520      12 -40.0520      13 -40.0520      14 -40.0520      15 -40.0521
      16 -40.0518      17 -40.0521      18 -40.0520      19 -40.0520      20 -40.0519
      21 -40.0493      22 -40.0493      23 -40.0519      24 -40.0520      25 -40.0520
      26 -40.0520      27 -40.0520      28 -40.0520      29 -40.0521      30 -40.0521
      31 -40.0520      32 -40.0521      33 -40.0521      34 -40.0520      35 -40.0519
      36 -40.0521      37 -40.0519      38 -40.0520      39 -40.0519      40 -40.0493
      41 -40.0493      42 -40.0519      43 -40.0520      44 -40.0520      45 -40.0520
      46 -40.0523      47 -40.0520      48 -40.0520      49 -40.0520      50 -40.0521
      51 -40.0547      52 -40.0547      53 -40.0521      54 -40.0520      55 -40.0521
      56 -40.0519      57 -40.0521      58 -40.0521      59 -40.0520      60 -40.0520
      61 -40.0520      62 -40.0520      63 -40.0520      64 -40.0519      65 -40.0519
      66 -40.0520      67 -40.0520      68 -40.0520      69 -40.0520      70 -40.0520
      71 -40.0521      72 -40.0547      73 -40.0547      74 -40.0521      75 -40.0520
      76 -40.0521      77 -40.0519      78 -40.0522      79 -40.0519      80 -40.0521
      81 -40.0521      82 -40.0520      83 -40.0520      84 -40.0520      85 -40.0520
      86 -40.0520      87 -40.0520      88 -40.0520      89 -40.0520      90 -40.0521
      91 -40.0521      92 -40.0520      93 -40.0521      94 -40.0519      95 -40.0521
      96 -40.0521      97 -40.0520      98 -40.0520      99 -40.0520     100 -40.0520
     101 -40.0520     102 -40.0520     103 -40.0521     104 -40.0521     105 -40.0520
     106 -40.0520     107 -40.0520     108 -40.0520
 
 
 
 E-fermi :   3.6417     XC(G=0): -12.6876     alpha+bet : -9.4458
   add alpha+bet to get absolut eigen values

 k-point   1 :       0.0833    0.0833    0.0833
  band No.  band energies     occupation 
      1      -5.5472      2.00000
      2      -4.4650      2.00000
      3      -4.4642      2.00000
      4      -4.4633      2.00000
      5      -4.0512      2.00000
      6      -4.0503      2.00000
      7      -4.0495      2.00000
      8      -3.4580      2.00000
      9      -3.4572      2.00000
     10      -3.4564      2.00000
     11      -3.0812      2.00000
     12      -3.0797      2.00000
     13      -3.0794      2.00000
     14      -3.0794      2.00000
     15      -3.0790      2.00000
     16      -3.0776      2.00000
     17      -2.7204      2.00000
     18      -2.7196      2.00000
     19      -2.7188      2.00000
     20      -2.6388      2.00000
     21      -2.3556      2.00000
     22      -2.3550      2.00000
     23      -2.3543      2.00000
     24      -2.1158      2.00000
     25      -2.1152      2.00000
     26      -2.1146      2.00000
     27      -1.9262      2.00000
     28      -1.6985      2.00000
     29      -1.6979      2.00000
     30      -1.6973      2.00000
     31      -1.4206      2.00000
     32      -1.4201      2.00000
     33      -1.4196      2.00000
     34      -1.1470      2.00000
     35      -1.1470      2.00000
     36      -1.1470      2.00000
     37      -1.0521      2.00000
     38      -1.0521      2.00000
     39      -1.0521      2.00000
     40      -1.0440      2.00000
     41      -1.0430      2.00000
     42      -1.0426      2.00000
     43      -1.0426      2.00000
     44      -1.0423      2.00000
     45      -1.0414      2.00000
     46      -1.0208      2.00000
     47      -1.0201      2.00000
     48      -1.0195      2.00000
     49      -1.0181      2.00000
     50      -1.0180      2.00000
     51      -1.0175      2.00000
     52      -1.0175      2.00000
     53      -1.0168      2.00000
     54      -1.0168      2.00000
     55      -0.8997      2.00000
     56      -0.8990      2.00000
     57      -0.8984      2.00000
     58      -0.8504      2.00000
     59      -0.8502      2.00000
     60      -0.8498      2.00000
     61      -0.8497      2.00000
     62      -0.8493      2.00000
     63      -0.8491      2.00000
     64      -0.8426      2.00000
     65      -0.8421      2.00000
     66      -0.8417      2.00000
     67      -0.8416      2.00000
     68      -0.8412      2.00000
     69      -0.8409      2.00000
     70      -0.8374      2.00000
     71      -0.8373      2.00000
     72      -0.8372      2.00000
     73      -0.8238      2.00000
     74      -0.8234      2.00000
     75      -0.8230      2.00000
     76      -0.8230      2.00000
     77      -0.8226      2.00000
     78      -0.8221      2.00000
     79      -0.7139      2.00000
     80      -0.7131      2.00000
     81      -0.7129      2.00000
     82      -0.7129      2.00000
     83      -0.7127      2.00000
     84      -0.7120      2.00000
     85      -0.7083      2.00000
     86      -0.7083      2.00000
     87      -0.7083      2.00000
     88      -0.6430      2.00000
     89      -0.6421      2.00000
     90      -0.6419      2.00000
     91      -0.6419      2.00000
     92      -0.6416      2.00000
     93      -0.6407      2.00000
     94      -0.5925      2.00000
     95      -0.5917      2.00000
     96      -0.5915      2.00000
     97      -0.5915      2.00000
     98      -0.5913      2.00000
     99      -0.5905      2.00000
    100      -0.4361      2.00000
    101      -0.4357      2.00000
    102      -0.4354      2.00000
    103      -0.4174      2.00000
    104      -0.4169      2.00000
    105      -0.4164      2.00000
    106      -0.3976      2.00000
    107      -0.3976      2.00000
    108      -0.3972      2.00000
    109      -0.3972      2.00000
    110      -0.3968      2.00000
    111      -0.3967      2.00000
    112      -0.3498      2.00000
    113      -0.3496      2.00000
    114      -0.3492      2.00000
    115      -0.3491      2.00000
    116      -0.3488      2.00000
    117      -0.3485      2.00000
    118      -0.3436      2.00000
    119      -0.3432      2.00000
    120      -0.3429      2.00000
    121      -0.3373      2.00000
    122      -0.3369      2.00000
    123      -0.3365      2.00000
    124      -0.2709      2.00000
    125      -0.2709      2.00000
    126      -0.2706      2.00000
    127      -0.2705      2.00000
    128      -0.2701      2.00000
    129      -0.2701      2.00000
    130      -0.2455      2.00000
    131      -0.2452      2.00000
    132      -0.2450      2.00000
    133      -0.2020      2.00000
    134      -0.2016      2.00000
    135      -0.2013      2.00000
    136      -0.2012      2.00000
    137      -0.2009      2.00000
    138      -0.2006      2.00000
    139      -0.1821      2.00000
    140      -0.1813      2.00000
    141      -0.1812      2.00000
    142      -0.1812      2.00000
    143      -0.1811      2.00000
    144      -0.1804      2.00000
    145      -0.1327      2.00000
    146      -0.1321      2.00000
    147      -0.1318      2.00000
    148      -0.1318      2.00000
    149      -0.1315      2.00000
    150      -0.1309      2.00000
    151      -0.1099      2.00000
    152      -0.1094      2.00000
    153      -0.1091      2.00000
    154      -0.1091      2.00000
    155      -0.1088      2.00000
    156      -0.1083      2.00000
    157      -0.0974      2.00000
    158      -0.0970      2.00000
    159      -0.0966      2.00000
    160      -0.0532      2.00000
    161      -0.0527      2.00000
    162      -0.0524      2.00000
    163      -0.0524      2.00000
    164      -0.0521      2.00000
    165      -0.0516      2.00000
    166       0.1171      2.00000
    167       0.1171      2.00000
    168       0.1172      2.00000
    169       0.1929      2.00000
    170       0.1935      2.00000
    171       0.1937      2.00000
    172       0.1937      2.00000
    173       0.1939      2.00000
    174       0.1945      2.00000
    175       0.1969      2.00000
    176       0.1974      2.00000
    177       0.1977      2.00000
    178       0.2208      2.00000
    179       0.2216      2.00000
    180       0.2218      2.00000
    181       0.2218      2.00000
    182       0.2219      2.00000
    183       0.2226      2.00000
    184       0.2302      2.00000
    185       0.2305      2.00000
    186       0.2309      2.00000
    187       0.2413      2.00000
    188       0.2416      2.00000
    189       0.2420      2.00000
    190       0.2659      2.00000
    191       0.2663      2.00000
    192       0.2666      2.00000
    193       0.2699      2.00000
    194       0.2702      2.00000
    195       0.2706      2.00000
    196       0.3096      2.00000
    197       0.3106      2.00000
    198       0.3110      2.00000
    199       0.3111      2.00000
    200       0.3114      2.00000
    201       0.3116      2.00000
    202       0.3125      2.00000
    203       0.3127      2.00000
    204       0.3129      2.00000
    205       0.3131      2.00000
    206       0.3131      2.00000
    207       0.3138      2.00000
    208       0.3170      2.00000
    209       0.3171      2.00000
    210       0.3175      2.00000
    211       0.3175      2.00000
    212       0.3179      2.00000
    213       0.3183      2.00000
    214       0.3341      2.00000
    215       0.3344      2.00000
    216       0.3348      2.00000
    217       0.3721      2.00000
    218       0.3722      2.00000
    219       0.3723      2.00000
    220       0.4249      2.00000
    221       0.4252      2.00000
    222       0.4255      2.00000
    223       0.4399      2.00000
    224       0.4406      2.00000
    225       0.4409      2.00000
    226       0.4409      2.00000
    227       0.4413      2.00000
    228       0.4420      2.00000
    229       0.4770      2.00000
    230       0.4771      2.00000
    231       0.4776      2.00000
    232       0.4776      2.00000
    233       0.4780      2.00000
    234       0.4782      2.00000
    235       0.4971      2.00000
    236       0.5060      2.00000
    237       0.5060      2.00000
    238       0.5064      2.00000
    239       0.5064      2.00000
    240       0.5067      2.00000
    241       0.5068      2.00000
    242       0.5660      2.00000
    243       0.5665      2.00000
    244       0.5671      2.00000
    245       0.6279      2.00000
    246       0.6285      2.00000
    247       0.6289      2.00000
    248       0.6292      2.00000
    249       0.6309      2.00000
    250       0.6311      2.00000
    251       0.6314      2.00000
    252       0.6391      2.00000
    253       0.6392      2.00000
    254       0.6402      2.00000
    255       0.6404      2.00000
    256       0.6408      2.00000
    257       0.6862      2.00000
    258       0.6863      2.00000
    259       0.6883      2.00000
    260       0.6886      2.00000
    261       0.6888      2.00000
    262       0.6888      2.00000
    263       0.6891      2.00000
    264       0.6892      2.00000
    265       0.6916      2.00000
    266       0.6920      2.00000
    267       0.6924      2.00000
    268       0.7001      2.00000
    269       0.7005      2.00000
    270       0.7008      2.00000
    271       0.7011      2.00000
    272       0.7013      2.00000
    273       0.7014      2.00000
    274       0.7015      2.00000
    275       0.7018      2.00000
    276       0.7019      2.00000
    277       0.7053      2.00000
    278       0.7056      2.00000
    279       0.7061      2.00000
    280       0.7110      2.00000
    281       0.7111      2.00000
    282       0.7111      2.00000
    283       0.7172      2.00000
    284       0.7174      2.00000
    285       0.7177      2.00000
    286       0.7339      2.00000
    287       0.7341      2.00000
    288       0.7345      2.00000
    289       0.7345      2.00000
    290       0.7348      2.00000
    291       0.7350      2.00000
    292       0.7356      2.00000
    293       0.7358      2.00000
    294       0.7358      2.00000
    295       0.7411      2.00000
    296       0.7412      2.00000
    297       0.7415      2.00000
    298       0.7415      2.00000
    299       0.7418      2.00000
    300       0.7419      2.00000
    301       0.7440      2.00000
    302       0.7441      2.00000
    303       0.7764      2.00000
    304       0.7767      2.00000
    305       0.7770      2.00000
    306       0.7921      2.00000
    307       0.7923      2.00000
    308       0.7926      2.00000
    309       0.8284      2.00000
    310       0.8284      2.00000
    311       0.8284      2.00000
    312       0.8841      2.00000
    313       0.8845      2.00000
    314       0.8845      2.00000
    315       0.8849      2.00000
    316       0.8849      2.00000
    317       0.8854      2.00000
    318       0.8872      2.00000
    319       0.8876      2.00000
    320       0.8880      2.00000
    321       0.8910      2.00000
    322       0.8910      2.00000
    323       0.8914      2.00000
    324       0.8914      2.00000
    325       0.8919      2.00000
    326       0.8919      2.00000
    327       0.9023      2.00000
    328       0.9029      2.00000
    329       0.9035      2.00000
    330       0.9040      2.00000
    331       0.9415      2.00000
    332       0.9421      2.00000
    333       0.9426      2.00000
    334       0.9570      2.00000
    335       0.9570      2.00000
    336       0.9574      2.00000
    337       0.9574      2.00000
    338       0.9577      2.00000
    339       0.9577      2.00000
    340       0.9672      2.00000
    341       0.9677      2.00000
    342       0.9681      2.00000
    343       0.9687      2.00000
    344       0.9687      2.00000
    345       0.9690      2.00000
    346       0.9690      2.00000
    347       0.9693      2.00000
    348       0.9695      2.00000
    349       0.9760      2.00000
    350       0.9763      2.00000
    351       0.9765      2.00000
    352       0.9821      2.00000
    353       0.9826      2.00000
    354       0.9830      2.00000
    355       1.0245      2.00000
    356       1.0245      2.00000
    357       1.0245      2.00000
    358       1.0339      2.00000
    359       1.0343      2.00000
    360       1.0347      2.00000
    361       1.0347      2.00000
    362       1.0351      2.00000
    363       1.0355      2.00000
    364       1.0653      2.00000
    365       1.0658      2.00000
    366       1.0663      2.00000
    367       1.1248      2.00000
    368       1.1249      2.00000
    369       1.1250      2.00000
    370       1.1728      2.00000
    371       1.1729      2.00000
    372       1.1730      2.00000
    373       1.1808      2.00000
    374       1.1809      2.00000
    375       1.1813      2.00000
    376       1.1813      2.00000
    377       1.1816      2.00000
    378       1.1818      2.00000
    379       1.1865      2.00000
    380       1.1866      2.00000
    381       1.1868      2.00000
    382       1.1888      2.00000
    383       1.1892      2.00000
    384       1.1895      2.00000
    385       1.2997      2.00000
    386       1.3001      2.00000
    387       1.3004      2.00000
    388       1.3049      2.00000
    389       1.3052      2.00000
    390       1.3054      2.00000
    391       1.3634      2.00000
    392       1.3637      2.00000
    393       1.3639      2.00000
    394       1.3639      2.00000
    395       1.3640      2.00000
    396       1.3644      2.00000
    397       1.3854      2.00000
    398       1.3855      2.00000
    399       1.3858      2.00000
    400       1.3858      2.00000
    401       1.3861      2.00000
    402       1.3862      2.00000
    403       1.4266      2.00000
    404       1.4269      2.00000
    405       1.4273      2.00000
    406       1.4350      2.00000
    407       1.4350      2.00000
    408       1.4582      2.00000
    409       1.4583      2.00000
    410       1.4588      2.00000
    411       1.4588      2.00000
    412       1.4589      2.00000
    413       1.4590      2.00000
    414       1.4592      2.00000
    415       1.4592      2.00000
    416       1.4593      2.00000
    417       1.4593      2.00000
    418       1.4597      2.00000
    419       1.4598      2.00000
    420       1.5348      2.00000
    421       1.5353      2.00000
    422       1.5354      2.00000
    423       1.5354      2.00000
    424       1.5354      2.00000
    425       1.5359      2.00000
    426       1.5409      2.00000
    427       1.5410      2.00000
    428       1.5413      2.00000
    429       1.5413      2.00000
    430       1.5416      2.00000
    431       1.5416      2.00000
    432       1.5490      2.00000
    433       1.5492      2.00000
    434       1.5494      2.00000
    435       1.5777      2.00000
    436       1.5782      2.00000
    437       1.5788      2.00000
    438       1.5854      2.00000
    439       1.5857      2.00000
    440       1.5859      2.00000
    441       1.5901      2.00000
    442       1.5903      2.00000
    443       1.5904      2.00000
[...]
   0.195E+01 0.166E-01 0.166E-01   -.196E+01 -.168E-01 -.168E-01   0.876E-02 0.186E-03 0.186E-03   -.185E-02 -.330E-04 -.330E-04
   0.230E+00 0.117E-02 0.117E-02   -.231E+00 -.817E-03 -.817E-03   -.429E-03 -.126E-03 -.126E-03   0.101E-02 -.328E-03 -.328E-03
   0.120E+00 -.549E-08 -.547E-08   -.120E+00 0.561E-08 0.561E-08   -.378E-03 0.807E-20 0.169E-20   0.222E-03 0.224E-09 0.224E-09
   0.124E+00 0.336E+00 0.183E+00   -.123E+00 -.338E+00 -.185E+00   -.122E-02 0.211E-02 0.501E-03   0.832E-03 0.224E-03 0.701E-03
   -.113E+01 0.305E+01 -.511E-08   0.114E+01 -.307E+01 0.594E-09   0.946E-02 -.306E-02 0.000E+00   -.833E-03 -.330E-03 -.442E-09
   -.113E+01 -.456E-07 -.305E+01   0.114E+01 0.566E-07 0.307E+01   0.946E-02 0.560E-10 0.306E-02   -.833E-03 0.173E-09 0.330E-03
   0.124E+00 -.183E+00 -.336E+00   -.123E+00 0.185E+00 0.338E+00   -.122E-02 -.501E-03 -.211E-02   0.832E-03 -.701E-03 -.224E-03
   0.697E-01 -.506E-01 0.754E-09   -.695E-01 0.515E-01 -.757E-09   0.892E-06 -.858E-04 0.000E+00   -.216E-03 -.861E-03 -.183E-10
   -.286E+00 0.281E+00 0.187E-09   0.283E+00 -.278E+00 -.321E-09   0.423E-02 -.505E-02 0.000E+00   -.131E-02 0.151E-02 0.835E-10
   -.574E+00 0.339E+00 -.339E+00   0.577E+00 -.341E+00 0.341E+00   -.265E-02 0.193E-02 -.193E-02   0.174E-03 0.167E-03 -.166E-03
   -.286E+00 -.416E-08 -.281E+00   0.283E+00 0.457E-08 0.278E+00   0.423E-02 0.926E-10 0.505E-02   -.131E-02 0.448E-09 -.151E-02
   -.114E+00 -.512E-01 0.114E-07   0.117E+00 0.517E-01 -.117E-07   -.218E-02 0.409E-03 -.847E-21   -.675E-03 -.895E-03 -.441E-09
   -.284E+00 0.768E-03 -.180E-03   0.288E+00 -.105E-02 0.536E-03   -.237E-02 0.114E-03 0.102E-03   -.136E-02 0.260E-03 -.391E-03
   -.284E+00 0.180E-03 -.768E-03   0.288E+00 -.536E-03 0.105E-02   -.237E-02 -.102E-03 -.114E-03   -.136E-02 0.391E-03 -.260E-03
   -.231E+00 0.882E-09 0.218E-07   0.228E+00 -.775E-09 -.133E-07   0.433E-02 -.284E-20 -.136E-19   -.107E-02 0.297E-09 -.564E-09
   -.112E+00 0.804E-01 -.804E-01   0.113E+00 -.808E-01 0.808E-01   -.957E-04 -.341E-04 0.341E-04   -.462E-03 0.437E-03 -.437E-03
   -.116E+00 0.106E-07 -.516E-01   0.118E+00 -.108E-07 0.514E-01   -.203E-02 0.394E-11 0.215E-03   -.432E-03 -.410E-09 -.989E-04
   0.118E+00 0.184E+00 -.336E+00   -.118E+00 -.185E+00 0.338E+00   -.137E-02 0.582E-03 -.183E-02   0.136E-02 0.999E-04 0.308E-04
   0.118E+00 0.336E+00 -.184E+00   -.118E+00 -.338E+00 0.185E+00   -.137E-02 0.183E-02 -.582E-03   0.136E-02 -.307E-04 -.997E-04
   0.108E+00 -.552E-08 -.594E-10   -.109E+00 0.587E-08 0.383E-09   0.119E-03 0.156E-20 0.000E+00   0.705E-03 0.166E-09 -.117E-09
   0.669E+00 -.142E-08 -.564E-02   -.673E+00 0.953E-09 0.551E-02   0.298E-02 0.186E-11 0.102E-03   0.101E-02 -.423E-09 0.172E-03
   0.195E+01 0.166E-01 -.166E-01   -.196E+01 -.168E-01 0.168E-01   0.876E-02 0.186E-03 -.186E-03   -.185E-02 -.330E-04 0.330E-04
   0.669E+00 0.564E-02 0.257E-06   -.673E+00 -.551E-02 0.850E-09   0.298E-02 -.102E-03 -.339E-20   0.101E-02 -.172E-03 -.345E-09
   0.237E+00 -.155E-07 0.926E-03   -.240E+00 0.160E-07 -.527E-03   0.127E-02 0.244E-11 0.133E-03   0.120E-02 0.415E-09 -.432E-03
   0.124E+00 0.183E+00 0.336E+00   -.123E+00 -.185E+00 -.338E+00   -.122E-02 0.501E-03 0.211E-02   0.832E-03 0.701E-03 0.224E-03
   -.113E+01 0.521E-07 0.305E+01   0.114E+01 -.556E-07 -.307E+01   0.946E-02 -.560E-10 -.306E-02   -.833E-03 -.448E-09 -.330E-03
   -.113E+01 -.305E+01 0.118E-07   0.114E+01 0.307E+01 0.390E-09   0.946E-02 0.306E-02 0.127E-20   -.833E-03 0.330E-03 0.166E-09
   0.124E+00 -.336E+00 -.183E+00   -.123E+00 0.338E+00 0.185E+00   -.122E-02 -.211E-02 -.501E-03   0.832E-03 -.224E-03 -.701E-03
   0.697E-01 -.201E-09 -.506E-01   -.695E-01 0.186E-09 0.515E-01   0.892E-06 -.157E-11 -.858E-04   -.216E-03 -.340E-10 -.861E-03
   -.111E+00 0.807E-01 0.807E-01   0.111E+00 -.817E-01 -.817E-01   -.271E-03 0.969E-04 0.969E-04   -.610E-03 0.947E-03 0.947E-03
   -.574E+00 0.339E+00 0.339E+00   0.577E+00 -.341E+00 -.341E+00   -.265E-02 0.193E-02 0.193E-02   0.174E-03 0.167E-03 0.166E-03
   -.167E+01 0.201E-08 0.301E-05   0.169E+01 -.525E-09 -.525E-09   -.233E-01 -.746E-20 0.000E+00   0.472E-02 0.528E-09 0.528E-09
   -.574E+00 -.339E+00 -.339E+00   0.577E+00 0.341E+00 0.341E+00   -.265E-02 -.193E-02 -.193E-02   0.174E-03 -.167E-03 -.166E-03
   -.111E+00 -.807E-01 -.807E-01   0.111E+00 0.817E-01 0.817E-01   -.271E-03 -.969E-04 -.969E-04   -.610E-03 -.947E-03 -.947E-03
   -.596E-01 0.276E-08 0.309E-08   0.594E-01 -.277E-08 -.276E-08   0.303E-03 0.110E-20 0.212E-21   -.120E-03 -.159E-09 -.159E-09
   -.284E+00 0.768E-03 0.180E-03   0.288E+00 -.105E-02 -.536E-03   -.237E-02 0.114E-03 -.102E-03   -.136E-02 0.260E-03 0.391E-03
   -.686E+00 0.181E-02 -.340E-08   0.687E+00 -.201E-02 -.972E-09   0.217E-02 -.165E-03 0.339E-20   -.356E-02 0.268E-03 0.646E-09
   -.686E+00 0.117E-08 -.181E-02   0.687E+00 -.934E-09 0.201E-02   0.217E-02 0.303E-11 0.165E-03   -.356E-02 0.679E-09 -.268E-03
   -.284E+00 -.180E-03 -.768E-03   0.288E+00 0.536E-03 0.105E-02   -.237E-02 0.102E-03 -.114E-03   -.136E-02 -.391E-03 -.260E-03
   -.139E+00 -.106E-03 0.701E-08   0.138E+00 0.320E-03 -.675E-08   0.638E-03 -.993E-04 -.847E-21   0.498E-04 -.212E-03 -.342E-09
   0.676E-01 -.786E-10 -.514E-01   -.678E-01 0.813E-10 0.516E-01   -.172E-03 0.169E-11 0.923E-04   0.161E-03 0.626E-11 -.204E-03
   0.230E+00 0.117E-02 -.117E-02   -.231E+00 -.817E-03 0.817E-03   -.429E-03 -.126E-03 0.126E-03   0.101E-02 -.328E-03 0.328E-03
   0.237E+00 -.154E-07 -.926E-03   -.240E+00 0.160E-07 0.527E-03   0.127E-02 -.244E-11 -.133E-03   0.120E-02 0.463E-09 0.432E-03
   0.124E+00 -.183E+00 0.336E+00   -.123E+00 0.185E+00 -.338E+00   -.122E-02 -.501E-03 0.211E-02   0.832E-03 -.701E-03 0.224E-03
   0.124E+00 -.336E+00 0.183E+00   -.123E+00 0.338E+00 -.185E+00   -.122E-02 -.211E-02 0.501E-03   0.832E-03 -.224E-03 0.701E-03
   0.112E+00 -.578E-08 -.769E-09   -.112E+00 0.612E-08 0.393E-09   0.310E-03 0.182E-20 0.000E+00   0.231E-03 0.134E-09 -.914E-10
   -.286E+00 0.539E-08 0.281E+00   0.283E+00 -.542E-08 -.278E+00   0.423E-02 -.926E-10 -.505E-02   -.131E-02 0.111E-09 0.151E-02
   -.574E+00 -.339E+00 0.339E+00   0.577E+00 0.341E+00 -.341E+00   -.265E-02 -.193E-02 0.193E-02   0.174E-03 -.167E-03 0.166E-03
   -.286E+00 -.281E+00 -.168E-08   0.283E+00 0.278E+00 -.522E-09   0.423E-02 0.505E-02 0.000E+00   -.131E-02 -.151E-02 0.476E-09
   -.114E+00 0.105E-07 -.512E-01   0.117E+00 -.108E-07 0.517E-01   -.218E-02 0.749E-11 0.409E-03   -.675E-03 -.457E-09 -.895E-03
   -.284E+00 0.180E-03 0.768E-03   0.288E+00 -.536E-03 -.105E-02   -.237E-02 -.102E-03 0.114E-03   -.136E-02 0.391E-03 0.260E-03
   -.686E+00 0.126E-08 0.181E-02   0.687E+00 -.101E-08 -.201E-02   0.217E-02 -.303E-11 -.165E-03   -.356E-02 0.651E-09 0.268E-03
   -.686E+00 -.181E-02 -.416E-08   0.687E+00 0.201E-02 -.971E-09   0.217E-02 0.165E-03 0.678E-20   -.356E-02 -.268E-03 0.684E-09
   -.284E+00 -.768E-03 -.180E-03   0.288E+00 0.105E-02 0.536E-03   -.237E-02 -.114E-03 0.102E-03   -.136E-02 -.260E-03 -.391E-03
   -.139E+00 0.669E-08 -.106E-03   0.138E+00 -.675E-08 0.320E-03   0.638E-03 -.182E-11 -.993E-04   0.498E-04 -.346E-09 -.212E-03
   0.697E-01 -.627E-08 0.506E-01   -.695E-01 0.649E-08 -.515E-01   0.892E-06 0.157E-11 0.858E-04   -.216E-03 0.242E-09 0.861E-03
   -.111E+00 -.807E-01 0.807E-01   0.111E+00 0.817E-01 -.817E-01   -.271E-03 -.969E-04 0.969E-04   -.610E-03 -.947E-03 0.947E-03
   -.114E+00 0.445E-08 0.512E-01   0.117E+00 -.442E-08 -.517E-01   -.218E-02 -.749E-11 -.409E-03   -.675E-03 -.193E-09 0.895E-03
   -.284E+00 -.180E-03 0.768E-03   0.288E+00 0.536E-03 -.105E-02   -.237E-02 0.102E-03 0.114E-03   -.136E-02 -.391E-03 0.260E-03
   -.284E+00 -.768E-03 0.180E-03   0.288E+00 0.105E-02 -.536E-03   -.237E-02 -.114E-03 -.102E-03   -.136E-02 -.260E-03 0.391E-03
   -.231E+00 0.132E-07 0.837E-09   0.228E+00 -.133E-07 -.776E-09   0.433E-02 0.535E-19 0.169E-20   -.107E-02 -.564E-09 0.296E-09
   -.139E+00 0.665E-08 0.106E-03   0.138E+00 -.672E-08 -.320E-03   0.638E-03 0.182E-11 0.993E-04   0.498E-04 -.328E-09 0.212E-03
 -----------------------------------------------------------------------------------------------
   0.229E-02 -.842E-10 -.187E-08   -.601E-11 0.252E-11 0.190E-11   0.921E-03 0.199E-17 0.198E-17   -.450E-02 -.215E-10 -.241E-10
 
 
 POSITION                                       TOTAL-FORCE (eV/Angst)
 -----------------------------------------------------------------------------------
      7.27687      7.27687      3.63843         0.000013      0.000061     -0.000061
      7.27687      9.09608      5.45765         0.000097     -0.000051      0.000000
      9.09608      7.27687      5.45765        -0.000199      0.000112     -0.000000
      7.27687      7.27687      0.00000         0.000185      0.000248      0.000000
      7.27687      9.09608      1.81922         0.000751      0.000246     -0.000246
      7.27687      0.00000      3.63843         0.000185     -0.000000     -0.000248
      7.27687      1.81922      5.45765         0.000097      0.000051      0.000000
      9.09608      7.27687      1.81922         0.000260      0.000372     -0.000042
      9.09608      9.09608      3.63843         0.000260      0.000042     -0.000372
      9.09608      0.00000      5.45765        -0.000162     -0.000000     -0.000000
      0.00000      7.27687      3.63843        -0.000001      0.000101     -0.000101
      0.00000      9.09608      5.45765         0.000167     -0.000100      0.000000
      1.81922      7.27687      5.45765        -0.000030      0.000063      0.000000
      7.27687      7.27687      7.27687         0.000013      0.000061      0.000061
      7.27687      9.09608      9.09608         0.000751      0.000246      0.000246
      7.27687      0.00000      0.00000         0.001047     -0.000000     -0.000000
      7.27687      1.81922      1.81922         0.000751     -0.000246     -0.000246
      7.27687      3.63843      3.63843         0.000013     -0.000061     -0.000061
      7.27687      5.45765      5.45765         0.000213     -0.000000     -0.000000
      9.09608      7.27687      9.09608         0.000260      0.000372      0.000042
      9.09608      9.09608      0.00000         0.015398      0.017109     -0.000000
      9.09608      0.00000      1.81922         0.015398     -0.000000     -0.017109
      9.09608      1.81922      3.63843         0.000260     -0.000042     -0.000372
      9.09608      3.63843      5.45765        -0.000199     -0.000112     -0.000000
      0.00000      7.27687      0.00000        -0.000500      0.000153      0.000000
      0.00000      9.09608      1.81922        -0.001655      0.000008     -0.000008
      0.00000      0.00000      3.63843        -0.000500     -0.000000     -0.000153
      0.00000      1.81922      5.45765         0.000167      0.000100      0.000000
      1.81922      7.27687      1.81922         0.000368     -0.000210      0.000139
      1.81922      9.09608      3.63843         0.000368     -0.000139      0.000210
      1.81922      0.00000      5.45765         0.000052     -0.000000     -0.000000
      3.63843      7.27687      3.63843        -0.000117      0.000064     -0.000064
      3.63843      9.09608      5.45765        -0.000073     -0.000096     -0.000000
      5.45765      7.27687      5.45765         0.000077      0.000097      0.000000
      7.27687      0.00000      7.27687         0.000185      0.000000      0.000248
      7.27687      1.81922      9.09608         0.000751     -0.000246      0.000246
      7.27687      3.63843      0.00000         0.000185     -0.000248     -0.000000
      7.27687      5.45765      1.81922         0.000097      0.000000      0.000051
      9.09608      9.09608      7.27687         0.000260      0.000042      0.000372
      9.09608      0.00000      9.09608         0.015398      0.000000      0.017109
      9.09608      1.81922      0.00000         0.015398     -0.017109     -0.000000
      9.09608      3.63843      1.81922         0.000260     -0.000372     -0.000042
      9.09608      5.45765      3.63843        -0.000199     -0.000000     -0.000112
      0.00000      7.27687      7.27687        -0.000001      0.000101      0.000101
      0.00000      9.09608      9.09608        -0.001655      0.000008      0.000008
      0.02000      0.00000      0.00000        -0.130657     -0.000000      0.000000
      0.00000      1.81922      1.81922        -0.001655     -0.000008     -0.000008
      0.00000      3.63843      3.63843        -0.000001     -0.000101     -0.000101
      0.00000      5.45765      5.45765        -0.000199     -0.000000     -0.000000
      1.81922      7.27687      9.09608         0.000368     -0.000210     -0.000139
      1.81922      9.09608      0.00000         0.016531     -0.018646      0.000000
      1.81922      0.00000      1.81922         0.016531      0.000000      0.018646
      1.81922      1.81922      3.63843         0.000368      0.000139      0.000210
      1.81922      3.63843      5.45765        -0.000030     -0.000063      0.000000
      3.63843      7.27687      0.00000         0.000000     -0.000071     -0.000000
      3.63843      9.09608      1.81922         0.000602     -0.000349      0.000349
      3.63843      0.00000      3.63843         0.000000      0.000000      0.000071
      3.63843      1.81922      5.45765        -0.000073      0.000096      0.000000
      5.45765      7.27687      1.81922         0.000031      0.000097      0.000068
      5.45765      9.09608      3.63843         0.000031     -0.000068     -0.000097
      5.45765      0.00000      5.45765         0.000464     -0.000000      0.000000
      7.27687      3.63843      7.27687         0.000013     -0.000061      0.000061
      7.27687      5.45765      9.09608         0.000097     -0.000000     -0.000051
      9.09608      1.81922      7.27687         0.000260     -0.000042      0.000372
      9.09608      3.63843      9.09608         0.000260     -0.000372      0.000042
      9.09608      5.45765      0.00000        -0.000162      0.000000     -0.000000
      0.00000      0.00000      7.27687        -0.000500      0.000000      0.000153
      0.00000      1.81922      9.09608        -0.001655     -0.000008      0.000008
      0.00000      3.63843      0.00000        -0.000500     -0.000153     -0.000000
      0.00000      5.45765      1.81922         0.000167      0.000000      0.000100
      1.81922      9.09608      7.27687         0.000368     -0.000139     -0.000210
      1.81922      0.00000      9.09608         0.016531     -0.000000     -0.018646
      1.81922      1.81922      0.00000         0.016531      0.018646      0.000000
      1.81922      3.63843      1.81922         0.000368      0.000210      0.000139
      1.81922      5.45765      3.63843        -0.000030     -0.000000     -0.000063
      3.63843      7.27687      7.27687        -0.000117      0.000064      0.000064
      3.63843      9.09608      9.09608         0.000602     -0.000349     -0.000349
      3.63843      0.00000      0.00000         0.000789      0.000000      0.000000
      3.63843      1.81922      1.81922         0.000602      0.000349      0.000349
      3.63843      3.63843      3.63843        -0.000117     -0.000064     -0.000064
      3.63843      5.45765      5.45765         0.000010      0.000000      0.000000
      5.45765      7.27687      9.09608         0.000031      0.000097     -0.000068
      5.45765      9.09608      0.00000        -0.000541     -0.000099      0.000000
      5.45765      0.00000      1.81922        -0.000541      0.000000      0.000099
      5.45765      1.81922      3.63843         0.000031      0.000068     -0.000097
      5.45765      3.63843      5.45765         0.000077     -0.000097     -0.000000
      9.09608      5.45765      7.27687        -0.000199      0.000000      0.000112
      0.00000      3.63843      7.27687        -0.000001     -0.000101      0.000101
      0.00000      5.45765      9.09608         0.000167     -0.000000     -0.000100
      1.81922      1.81922      7.27687         0.000368      0.000139     -0.000210
      1.81922      3.63843      9.09608         0.000368      0.000210     -0.000139
      1.81922      5.45765      0.00000         0.000052     -0.000000      0.000000
      3.63843      0.00000      7.27687         0.000000     -0.000000     -0.000071
      3.63843      1.81922      9.09608         0.000602      0.000349     -0.000349
      3.63843      3.63843      0.00000         0.000000      0.000071      0.000000
      3.63843      5.45765      1.81922        -0.000073      0.000000      0.000096
      5.45765      9.09608      7.27687         0.000031     -0.000068      0.000097
      5.45765      0.00000      9.09608        -0.000541     -0.000000     -0.000099
      5.45765      1.81922      0.00000        -0.000541      0.000099     -0.000000
      5.45765      3.63843      1.81922         0.000031     -0.000097      0.000068
      5.45765      5.45765      3.63843         0.000077     -0.000000     -0.000097
      1.81922      5.45765      7.27687        -0.000030      0.000000      0.000063
      3.63843      3.63843      7.27687        -0.000117     -0.000064      0.000064
      3.63843      5.45765      9.09608        -0.000073     -0.000000     -0.000096
      5.45765      1.81922      7.27687         0.000031      0.000068      0.000097
      5.45765      3.63843      9.09608         0.000031     -0.000097     -0.000068
      5.45765      5.45765      0.00000         0.000464     -0.000000      0.000000
      5.45765      5.45765      7.27687         0.000077      0.000000      0.000097
 -----------------------------------------------------------------------------------
    total drift:                               -0.001286     -0.000000     -0.000000


--------------------------------------------------------------------------------------------------------



 mean value of Nose-termostat <S>:     1.000 mean value of <T> :     0.000
 mean temperature <T/S>/<1/S>  :     0.000

     LOOP+:  VPU time********: CPU time********

 ----------------------------------------------------------------------------- 
|                                                                             |
|           W    W    AA    RRRRR   N    N  II  N    N   GGGG   !!!           |
|           W    W   A  A   R    R  NN   N  II  NN   N  G    G  !!!           |
|           W    W  A    A  R    R  N N  N  II  N N  N  G       !!!           |
|           W WW W  AAAAAA  RRRRR   N  N N  II  N  N N  G  GGG   !            |
|           WW  WW  A    A  R   R   N   NN  II  N   NN  G    G                |
|           W    W  A    A  R    R  N    N  II  N    N   GGGG   !!!           |
|                                                                             |
|      The partial DOS and the PROCAR file are not evaluated for NPAR/=1      |
|      please rerun with NPAR=1                                               |
|                                                                             |
 ----------------------------------------------------------------------------- 

  
  
 General timing and accounting informations for this job:
 ========================================================
  
                  Total CPU time used (sec):   152385.986
                            User time (sec):   149526.113
                          System time (sec):     2859.873
                         Elapsed time (sec):   152518.710
  
                   Maximum memory used (kb):     3130676.
                   Average memory used (kb):           0.
  
                          Minor page faults:       282046
                          Major page faults:            0
                 Voluntary context switches:          889
