 vasp.4.6.28 25Jul05 complex 
 executed on             LinuxIFC date 2017.01.16  15:17:52
 running on    4 nodes
 distr:  one band on    1 nodes,    4 groups


--------------------------------------------------------------------------------------------------------


 INCAR:
 POTCAR:   PAW_PBE Ag 06Sep2000                   
 POTCAR:   PAW_PBE Ag 06Sep2000                   
   VRHFIN =Ag : s1 d10                                                          
   LEXCH  = PE                                                                  
   EATOM  =  1037.4134 eV,   76.2477 Ry                                         
                                                                                
   TITEL  = PAW_PBE Ag 06Sep2000                                                
   LULTRA =        F    use ultrasoft PP ?                                      
   IUNSCR =        1    unscreen: 0-lin 1-nonlin 2-no                           
   RPACOR =    2.000    partial core radius                                     
   POMASS =  107.868; ZVAL   =   11.000    mass and valenz                      
   RCORE  =    2.400    outmost cutoff radius                                   
   RWIGS  =    2.840; RWIGS  =    1.503    wigner-seitz radius (au A)           
   ENMAX  =  249.846; ENMIN  =  187.385 eV                                      
   RCLOC  =    1.962    cutoff for local pot                                    
   LCOR   =        T    correct aug charges                                     
   LPAW   =        T    paw PP                                                  
   EAUG   =  412.496                                                            
   DEXC   =    -.047                                                            
   RMAX   =    2.917    core radius for proj-oper                               
   RAUG   =    1.300    factor for augmentation sphere                          
   RDEP   =    2.416    radius for radial grids                                 
   QCUT   =   -4.285; QGAM   =    8.570    optimization parameters              
                                                                                
   Description                                                                  
     l     E      TYP  RCUT    TYP  RCUT                                        
     2   .000     23  2.400                                                     
     2   .000     23  2.400                                                     
     0   .000     23  2.400                                                     
     0   .000     23  2.400                                                     
     1  -.200     23  2.400                                                     
     1  1.500     23  2.400                                                     
     3   .000      7   .000                                                     
  local pseudopotential read in
  partial core-charges read in
  atomic valenz-charges read in
  non local Contribution for L=           2  read in
    real space projection operators read in
  non local Contribution for L=           2  read in
    real space projection operators read in
  non local Contribution for L=           0  read in
    real space projection operators read in
  non local Contribution for L=           0  read in
    real space projection operators read in
  non local Contribution for L=           1  read in
    real space projection operators read in
  non local Contribution for L=           1  read in
    real space projection operators read in
    PAW grid and wavefunctions read in
 
   number of l-projection  operators is LMAX  =           6
   number of lm-projection operators is LMMAX =          18
 

 ----------------------------------------------------------------------------- 
|                                                                             |
|  ADVICE TO THIS USER RUNNING 'VASP/VAMP'   (HEAR YOUR MASTER'S VOICE ...):  |
|                                                                             |
|      You have a (more or less) 'large supercell' and for larger cells       |
|      it might be more efficient to use real space projection operators      |
|      So try LREAL= Auto  in the INCAR   file.                               |
|      Mind: If you want to do an extremely accurate calculations keep the    |
|      reciprocal projection scheme          (i.e. LREAL=.FALSE.)             |
|                                                                             |
 ----------------------------------------------------------------------------- 

 PAW_PBE Ag 06Sep2000                   :
 energy of atom  1       EATOM=-1037.4134
 kinetic energy error for atom=    0.0019 (will be added to EATOM!!)
 
 EXHCAR: internal setup
 exchange correlation table for  LEXCH =        8
   RHO(1)=    0.500       N(1)  =     2000
   RHO(2)=  100.500       N(2)  =     4000
 
 POSCAR: No title                                
  positions in direct lattice
  No initial velocities read in
 


--------------------------------------------------------------------------------------------------------


 ion  position               nearest neighbor table
   1  0.750  0.750  0.500-   3 3.03  14 3.03  19 3.03  20 3.03   5 3.03  26 3.03   6 3.03  29 3.03
                            11 3.03  18 3.03  10 3.03   8 3.03
   2  0.750  0.750  0.000-   8 3.03  10 3.03  22 3.03  27 3.03  11 3.03  18 3.03  12 3.03  32 3.03
                             5 3.03  26 3.03   3 3.03  20 3.03
   3  0.750  0.000  0.250-   1 3.03   5 3.03   9 3.03  28 3.03  19 3.03  12 3.03  13 3.03  18 3.03
                            27 3.03   6 3.03   4 3.03   2 3.03
   4  0.750  0.250  0.500-   6 3.03   8 3.03  10 3.03  29 3.03  13 3.03  31 3.03  14 3.03  19 3.03
                            21 3.03  28 3.03   3 3.03  20 3.03
   5  0.000  0.750  0.250-   3 3.03  12 3.03  14 3.03  25 3.03  15 3.03   1 3.03  16 3.03  10 3.03
                             2 3.03   7 3.03  22 3.03   6 3.03
   6  0.000  0.000  0.500-   4 3.03   7 3.03  11 3.03  13 3.03   8 3.03  16 3.03   1 3.03  17 3.03
                             3 3.03  23 3.03  21 3.03   5 3.03
   7  0.250  0.750  0.500-   6 3.03  16 3.03  29 3.03  30 3.03  11 3.03  18 3.03  14 3.03  19 3.03
                             5 3.03  26 3.03  25 3.03  23 3.03
   8  0.750  0.000  0.750-   2 3.03   4 3.03  11 3.03  31 3.03  27 3.03   6 3.03  21 3.03  26 3.03
                            12 3.03  19 3.03   9 3.03   1 3.03
   9  0.750  0.250  0.000-   3 3.03  12 3.03  20 3.03  32 3.03  28 3.03  21 3.03  22 3.03  27 3.03
                            31 3.03  13 3.03  10 3.03   8 3.03
  10  0.750  0.500  0.250-   2 3.03   4 3.03  13 3.03  18 3.03  22 3.03  29 3.03  28 3.03   5 3.03
                            14 3.03  32 3.03   9 3.03   1 3.03
  11  0.000  0.750  0.750-   6 3.03   8 3.03  22 3.03  30 3.03   7 3.03   2 3.03  23 3.03  20 3.03
                             1 3.03  15 3.03  14 3.03  12 3.03
  12  0.000  0.000  0.000-   5 3.03   9 3.03  15 3.03  21 3.03   3 3.03  23 3.03   2 3.03  24 3.03
                            16 3.03   8 3.03  13 3.03  11 3.03
  13  0.000  0.250  0.250-   6 3.03  10 3.03  16 3.03  22 3.03   4 3.03  24 3.03   3 3.03  25 3.03
                            17 3.03   9 3.03  14 3.03  12 3.03
  14  0.000  0.500  0.500-   1 3.03   5 3.03  17 3.03  21 3.03  20 3.03  25 3.03   4 3.03   7 3.03
                            10 3.03  30 3.03  13 3.03  11 3.03
  15  0.250  0.750  0.000-  12 3.03  23 3.03  25 3.03  32 3.03  26 3.03   5 3.03  27 3.03  22 3.03
                            11 3.03  18 3.03  30 3.03  16 3.03
  16  0.250  0.000  0.250-   7 3.03  13 3.03  18 3.03  24 3.03   6 3.03  27 3.03   5 3.03  28 3.03
                            19 3.03  12 3.03  17 3.03  15 3.03
  17  0.250  0.250  0.500-  14 3.03  19 3.03  23 3.03  25 3.03  21 3.03  28 3.03   6 3.03  29 3.03
                            13 3.03  31 3.03  30 3.03  16 3.03
  18  0.500  0.750  0.250-  10 3.03  16 3.03  27 3.03  29 3.03   2 3.03   7 3.03   3 3.03  25 3.03
                             1 3.03  15 3.03  19 3.03  32 3.03
  19  0.500  0.000  0.500-   1 3.03  17 3.03  26 3.03  28 3.03   3 3.03  23 3.03   4 3.03   7 3.03
                             8 3.03  16 3.03  18 3.03  31 3.03
  20  0.750  0.500  0.750-   1 3.03   9 3.03  21 3.03  26 3.03  14 3.03  32 3.03  31 3.03  11 3.03
                            22 3.03  29 3.03   4 3.03   2 3.03
  21  0.000  0.250  0.750-  12 3.03  14 3.03  20 3.03  23 3.03   9 3.03  17 3.03   8 3.03  30 3.03
                            24 3.03   4 3.03  22 3.03   6 3.03
  22  0.000  0.500  0.000-   2 3.03  11 3.03  13 3.03  24 3.03  10 3.03  30 3.03   9 3.03  15 3.03
                            25 3.03  20 3.03  21 3.03   5 3.03
  23  0.250  0.000  0.750-  15 3.03  17 3.03  21 3.03  26 3.03  12 3.03  19 3.03  11 3.03  31 3.03
                            27 3.03   6 3.03  24 3.03   7 3.03
  24  0.250  0.250  0.000-  16 3.03  22 3.03  27 3.03  30 3.03  13 3.03  31 3.03  12 3.03  32 3.03
                            28 3.03  21 3.03  25 3.03  23 3.03
  25  0.250  0.500  0.250-   5 3.03  15 3.03  17 3.03  28 3.03  14 3.03  32 3.03  13 3.03  18 3.03
                            29 3.03  22 3.03  24 3.03   7 3.03
  26  0.500  0.750  0.750-  19 3.03  20 3.03  23 3.03  32 3.03   1 3.03  15 3.03  30 3.03   8 3.03
                             7 3.03   2 3.03  27 3.03  29 3.03
  27  0.500  0.000  0.000-   2 3.03  18 3.03  24 3.03  31 3.03  16 3.03   8 3.03   9 3.03  15 3.03
                             3 3.03  23 3.03  28 3.03  26 3.03
  28  0.500  0.250  0.250-   3 3.03  19 3.03  25 3.03  32 3.03  17 3.03   9 3.03  10 3.03  16 3.03
                             4 3.03  24 3.03  29 3.03  27 3.03
  29  0.500  0.500  0.500-   4 3.03   7 3.03  18 3.03  31 3.03  30 3.03  10 3.03  17 3.03   1 3.03
                            20 3.03  25 3.03  26 3.03  28 3.03
  30  0.250  0.500  0.750-   7 3.03  11 3.03  24 3.03  31 3.03  29 3.03  22 3.03  21 3.03  26 3.03
                            14 3.03  32 3.03  17 3.03  15 3.03
  31  0.500  0.250  0.750-   8 3.03  27 3.03  29 3.03  30 3.03  24 3.03   4 3.03  20 3.03  23 3.03
                             9 3.03  17 3.03  19 3.03  32 3.03
  32  0.500  0.500  0.000-   9 3.03  15 3.03  26 3.03  28 3.03  20 3.03  25 3.03  24 3.03   2 3.03
                            10 3.03  30 3.03  18 3.03  31 3.03
 
  LATTYP: Found a simple cubic cell.
 ALAT       =     8.5773644000
  
  Lattice vectors:
  
 A1 = (   8.5773644000,   0.0000000000,   0.0000000000)
 A2 = (   0.0000001600,   8.5773644000,   0.0000000000)
 A3 = (   0.0000001600,   0.0000001600,   8.5773644000)
 Subroutine PRICEL returns following result:
 
  LATTYP: Found a face centered cubic cell.
 ALAT       =     4.2886822400
  
  Lattice vectors:
  
 A1 = (   2.1443411400,   2.1443411000,   0.0000000000)
 A2 = (   2.1443410600,  -0.0000000400,  -2.1443411000)
 A3 = (  -0.0000000000,   2.1443410600,  -2.1443411000)
 
  32 primitive cells build up your supercell.
 

Analysis of symmetry for initial positions (statically):

 Routine SETGRP: Setting up the symmetry group for a 
 simple cubic supercell.


 Subroutine GETGRP returns: Found 48 space group operations
 (whereof 48 operations were pure point group operations)
 out of a pool of 48 trial point group operations.


The static configuration has the point symmetry O_h .

Analysis of symmetry for dynamics (positions and initial velocities):

 Subroutine DYNSYM returns: Found 48 space group operations
 (whereof 48 operations were pure point group operations)
 out of a pool of 48 trial space group operations
 (whereof 48 operations were pure point group operations)
 and found also    32 'primitive' translations


The dynamic configuration has the point symmetry O_h .
 
 
 KPOINTS: Automatic mesh                          

Automatic generation of k-mesh.
 
 Subroutine IBZKPT returns following result:
 ===========================================
 
 Found     20 irreducible k-points:
 
 Following reciprocal coordinates:
            Coordinates               Weight
  0.062500  0.062500  0.062500      8.000000
  0.187500  0.062500  0.062500     24.000000
  0.312500  0.062500  0.062500     24.000000
  0.437500  0.062500  0.062500     24.000000
  0.187500  0.187500  0.062500     24.000000
  0.312500  0.187500  0.062500     48.000000
  0.437500  0.187500  0.062500     48.000000
  0.312500  0.312500  0.062500     24.000000
  0.437500  0.312500  0.062500     48.000000
  0.437500  0.437500  0.062500     24.000000
  0.187500  0.187500  0.187500      8.000000
  0.312500  0.187500  0.187500     24.000000
  0.437500  0.187500  0.187500     24.000000
  0.312500  0.312500  0.187500     24.000000
  0.437500  0.312500  0.187500     48.000000
  0.437500  0.437500  0.187500     24.000000
  0.312500  0.312500  0.312500      8.000000
  0.437500  0.312500  0.312500     24.000000
  0.437500  0.437500  0.312500     24.000000
  0.437500  0.437500  0.437500      8.000000
 
 Following cartesian coordinates:
            Coordinates               Weight
  0.007287  0.007287  0.007287      8.000000
  0.021860  0.007287  0.007287     24.000000
  0.036433  0.007287  0.007287     24.000000
  0.051006  0.007287  0.007287     24.000000
  0.021860  0.021860  0.007287     24.000000
  0.036433  0.021860  0.007287     48.000000
  0.051006  0.021860  0.007287     48.000000
  0.036433  0.036433  0.007287     24.000000
  0.051006  0.036433  0.007287     48.000000
  0.051006  0.051006  0.007287     24.000000
  0.021860  0.021860  0.021860      8.000000
  0.036433  0.021860  0.021860     24.000000
  0.051006  0.021860  0.021860     24.000000
  0.036433  0.036433  0.021860     24.000000
  0.051006  0.036433  0.021860     48.000000
  0.051006  0.051006  0.021860     24.000000
  0.036433  0.036433  0.036433      8.000000
  0.051006  0.036433  0.036433     24.000000
  0.051006  0.051006  0.036433     24.000000
  0.051006  0.051006  0.051006      8.000000
 


--------------------------------------------------------------------------------------------------------




 Dimension of arrays:
   k-Points           NKPTS =     20   number of bands    NBANDS=    212
   number of dos      NEDOS =    301   number of ions     NIONS =     32
   non local maximal  LDIM  =      6   non local SUM 2l+1 LMDIM =     18
   total plane-waves  NPLWV = 343000
   max r-space proj   IRMAX =      1   max aug-charges    IRDMAX= 213976
   dimension x,y,z NGX =    70 NGY =   70 NGZ =   70
   dimension x,y,z NGXF=   140 NGYF=  140 NGZF=  140
   support grid    NGXF=   280 NGYF=  280 NGZF=  280
   ions per type =              32
 NGX,Y,Z   is equivalent  to a cutoff of  13.57, 13.57, 13.57 a.u.
 NGXF,Y,Z  is equivalent  to a cutoff of  27.13, 27.13, 27.13 a.u.


 I would recommend the setting:
   dimension x,y,z NGX =    69 NGY =   69 NGZ =   69
 SYSTEM =  No title                                
 POSCAR =  No title                                

 Startparameter for this run:
   NWRITE =      2    write-flag & timer
   PREC   = accura    medium, high low
   ISTART =      0    job   : 0-new  1-cont  2-samecut
   ICHARG =      2    charge: 1-file 2-atom 10-const
   ISPIN  =      1    spin polarized calculation?
   LNONCOLLINEAR =      F non collinear calculations
   LSORBIT =      F    spin-orbit coupling
   INIWAV =      1    electr: 0-lowe 1-rand  2-diag
   LASPH  =      F    aspherical Exc in radial PAW
   METAGGA=      F    non-selfconsistent MetaGGA calc.

 Electronic Relaxation 1
   ENCUT  =  600.0 eV  44.10 Ry    6.64 a.u.  17.13 17.13 17.13*2*pi/ulx,y,z
   ENINI  =  600.0     initial cutoff
   ENAUG  =  412.5 eV  augmentation charge cutoff
   NELM   =     60;   NELMIN=  2; NELMDL=-12     # of ELM steps 
   EDIFF  = 0.1E-04   stopping-criterion for ELM
   LREAL  =      F    real-space projection
   LCOMPAT=      F    compatible to vasp.4.4
   LREAL_COMPAT= F    compatible to vasp.4.5.1-3
   GGA_COMPAT  = T    GGA compatible to vasp.4.4-vasp.4.6
   LMAXPAW     = -100 max onsite density
   LMAXMIX     =    2 max onsite mixed and CHGCAR
   VOSKOWN=      1    Vosko Wilk Nusair interpolation
   ROPT   =    0.00000
 Ionic relaxation
   EDIFFG = -.2E-01   stopping-criterion for IOM
   NSW    =    100    number of steps for IOM
   NBLOCK =      1;   KBLOCK =    100    inner block; outer block 
   IBRION =      2    ionic relax: 0-MD 1-quasi-New 2-CG
   NFREE  =      1    steps in history (QN), initial steepest desc. (CG)
   ISIF   =      2    stress and relaxation
   IWAVPR =     11    prediction:  0-non 1-charg 2-wave 3-comb
   ISYM   =      2    0-nonsym 1-usesym 2-fastsym
   LCORR  =      T    Harris-Foulkes like correction to forces

   POTIM  =   0.50    time-step for ionic-motion
   TEIN   =    0.0    initial temperature
   TEBEG  =    0.0;   TEEND  =   0.0 temperature during run
   SMASS  =  -3.00    Nose mass-parameter (am)
   estimated Nose-frequenzy (Omega)   =  0.10E-29 period in steps =****** mass=  -0.168E-26a.u.
   NPACO  =    256;   APACO  = 16.0  distance and # of slots for P.C.
   PSTRESS=    0.0 pullay stress

  Mass of Ions in am
   POMASS = 107.87
  Ionic Valenz
   ZVAL   =  11.00
  Atomic Wigner-Seitz radii
   RWIGS  =   1.34
   NELECT =     352.0000    total number of electrons
   NUPDOWN=      -1.0000    fix difference up-down

 DOS related values:
   EMIN   =  10.00;   EMAX   =-10.00  energy-range for DOS
   ISMEAR =     1;   SIGMA  =   0.20  broadening in eV -4-tet -1-fermi 0-gaus

 Electronic relaxation 2 (details)
   IALGO  =     48    algorithm
   LDIAG  =      T    sub-space diagonalisation
   IMIX   =      4    mixing-type and parameters
     AMIX     =   0.40;   BMIX     =  1.00
     AMIX_MAG =   1.60;   BMIX_MAG =  1.00
     AMIN     =   0.10
     WC   =   100.;   INIMIX=   1;  MIXPRE=   1

 Intra band minimization:
   WEIMIN = 0.0010     energy-eigenvalue tresh-hold
   EBREAK =  0.12E-07  absolut break condition
   DEPER  =   0.30     relativ break condition  

   TIME   =   0.10     timestep for ELM

  volume/ion in A,a.u.               =      19.72       133.08
  Fermi-wavevector in a.u.,eV,Ry     =   1.347623 24.709386  1.816089

 Second variation
   LSECVAR=     F    do a second variation
 
 Write flags
   LWAVE  =      T    write WAVECAR
   LCHARG =      F    write CHGCAR
   LVTOT  =      F    write LOCPOT, local potential
   LELF   =      F    write electronic localiz. function (ELF)
   LORBIT =      0    0 simple, 1 ext, 2 COOP (PROOUT)


 Dipole corrections
   IDIPOL =      0    1-x, 2-y, 3-z
   LDIPOL =      F    correct potential



--------------------------------------------------------------------------------------------------------


 conjugate gradient relaxation of ions
 charge density will be updated during run
 non-spin polarized calculation
 RMM-DIIS sequential band-by-band
 performe sub-space diagonalisation
    before iterative eigenvector-optimisation
 modified Broyden-mixing scheme, WC =      100.0
 initial mixing is a Kerker type mixing with AMIX =  0.4000 and BMIX =      1.0000
 Hartree-type preconditioning will be used
 using additional bands           36
 reciprocal scheme for non local part
 use partial core corrections
 calculate Harris-corrections to forces 
   (improved forces if not selfconsistent)
 use gradient corrections 
 use of overlap-Matrix (Vanderbilt PP)
 Methfessel and Paxton  Order N= 1 SIGMA  =   0.20


--------------------------------------------------------------------------------------------------------


  energy-cutoff  :      600.00
  volume of cell :      631.05
      direct lattice vectors                 reciprocal lattice vectors
     8.577364400  0.000000000  0.000000000     0.116585929 -0.000000002 -0.000000002
     0.000000160  8.577364400  0.000000000     0.000000000  0.116585929 -0.000000002
     0.000000160  0.000000160  8.577364400     0.000000000  0.000000000  0.116585929

  length of vectors
     8.577364400  8.577364400  8.577364400     0.116585929  0.116585929  0.116585929


 
 k-points in units of 2pi/SCALE and weight: Automatic mesh                          
   0.00728662  0.00728662  0.00728662       0.016
   0.02185986  0.00728662  0.00728662       0.047
   0.03643310  0.00728662  0.00728662       0.047
   0.05100634  0.00728662  0.00728662       0.047
   0.02185986  0.02185986  0.00728662       0.047
   0.03643310  0.02185986  0.00728662       0.094
   0.05100634  0.02185986  0.00728662       0.094
   0.03643310  0.03643310  0.00728662       0.047
   0.05100634  0.03643310  0.00728662       0.094
   0.05100634  0.05100634  0.00728662       0.047
   0.02185986  0.02185986  0.02185986       0.016
   0.03643310  0.02185986  0.02185986       0.047
   0.05100634  0.02185986  0.02185986       0.047
   0.03643310  0.03643310  0.02185986       0.047
   0.05100634  0.03643310  0.02185986       0.094
   0.05100634  0.05100634  0.02185986       0.047
   0.03643310  0.03643310  0.03643310       0.016
   0.05100634  0.03643310  0.03643310       0.047
   0.05100634  0.05100634  0.03643310       0.047
   0.05100634  0.05100634  0.05100634       0.016
 
 k-points in reciprocal lattice and weights: Automatic mesh                          
   0.06250000  0.06250000  0.06250000       0.016
   0.18750000  0.06250000  0.06250000       0.047
   0.31250000  0.06250000  0.06250000       0.047
   0.43750000  0.06250000  0.06250000       0.047
   0.18750000  0.18750000  0.06250000       0.047
   0.31250000  0.18750000  0.06250000       0.094
   0.43750000  0.18750000  0.06250000       0.094
   0.31250000  0.31250000  0.06250000       0.047
   0.43750000  0.31250000  0.06250000       0.094
   0.43750000  0.43750000  0.06250000       0.047
   0.18750000  0.18750000  0.18750000       0.016
   0.31250000  0.18750000  0.18750000       0.047
   0.43750000  0.18750000  0.18750000       0.047
   0.31250000  0.31250000  0.18750000       0.047
   0.43750000  0.31250000  0.18750000       0.094
   0.43750000  0.43750000  0.18750000       0.047
   0.31250000  0.31250000  0.31250000       0.016
   0.43750000  0.31250000  0.31250000       0.047
   0.43750000  0.43750000  0.31250000       0.047
   0.43750000  0.43750000  0.43750000       0.016
 
 position of ions in fractional coordinates (direct lattice) 
   0.75000000  0.75000000  0.50000000
   0.75000000  0.75000000  0.00000000
   0.75000000  0.00000000  0.25000000
   0.75000000  0.25000000  0.50000000
   0.00000000  0.75000000  0.25000000
   0.00000000  0.00000000  0.50000000
   0.25000000  0.75000000  0.50000000
   0.75000000  0.00000000  0.75000000
   0.75000000  0.25000000  0.00000000
   0.75000000  0.50000000  0.25000000
   0.00000000  0.75000000  0.75000000
   0.00000000  0.00000000  0.00000000
   0.00000000  0.25000000  0.25000000
   0.00000000  0.50000000  0.50000000
   0.25000000  0.75000000  0.00000000
   0.25000000  0.00000000  0.25000000
   0.25000000  0.25000000  0.50000000
   0.50000000  0.75000000  0.25000000
   0.50000000  0.00000000  0.50000000
   0.75000000  0.50000000  0.75000000
   0.00000000  0.25000000  0.75000000
   0.00000000  0.50000000  0.00000000
   0.25000000  0.00000000  0.75000000
   0.25000000  0.25000000  0.00000000
   0.25000000  0.50000000  0.25000000
   0.50000000  0.75000000  0.75000000
   0.50000000  0.00000000  0.00000000
   0.50000000  0.25000000  0.25000000
   0.50000000  0.50000000  0.50000000
   0.25000000  0.50000000  0.75000000
   0.50000000  0.25000000  0.75000000
   0.50000000  0.50000000  0.00000000
 
 position of ions in cartesian coordinates  (Angst):
   6.43302350  6.43302338  4.28868220
   6.43302342  6.43302330  0.00000000
   6.43302334  0.00000004  2.14434110
   6.43302342  2.14434118  4.28868220
   0.00000016  6.43302334  2.14434110
   0.00000008  0.00000008  4.28868220
   2.14434130  6.43302338  4.28868220
   6.43302342  0.00000012  6.43302330
   6.43302334  2.14434110  0.00000000
   6.43302342  4.28868224  2.14434110
   0.00000024  6.43302342  6.43302330
   0.00000000  0.00000000  0.00000000
   0.00000008  2.14434114  2.14434110
   0.00000016  4.28868228  4.28868220
   2.14434122  6.43302330  0.00000000
   2.14434114  0.00000004  2.14434110
   2.14434122  2.14434118  4.28868220
   4.28868236  6.43302334  2.14434110
   4.28868228  0.00000008  4.28868220
   6.43302350  4.28868232  6.43302330
   0.00000016  2.14434122  6.43302330
   0.00000008  4.28868220  0.00000000
   2.14434122  0.00000012  6.43302330
   2.14434114  2.14434110  0.00000000
   2.14434122  4.28868224  2.14434110
   4.28868244  6.43302342  6.43302330
   4.28868220  0.00000000  0.00000000
   4.28868228  2.14434114  2.14434110
   4.28868236  4.28868228  4.28868220
   2.14434130  4.28868232  6.43302330
   4.28868236  2.14434122  6.43302330
   4.28868228  4.28868220  0.00000000
 


--------------------------------------------------------------------------------------------------------


 k-point  1 :  0.06250.06250.0625  plane waves:  21028
 k-point  2 :  0.18750.06250.0625  plane waves:  21042
 k-point  3 :  0.31250.06250.0625  plane waves:  21041
 k-point  4 :  0.43750.06250.0625  plane waves:  21067
 k-point  5 :  0.18750.18750.0625  plane waves:  21062
 k-point  6 :  0.31250.18750.0625  plane waves:  21043
 k-point  7 :  0.43750.18750.0625  plane waves:  21035
 k-point  8 :  0.31250.31250.0625  plane waves:  21066
 k-point  9 :  0.43750.31250.0625  plane waves:  21062
 k-point 10 :  0.43750.43750.0625  plane waves:  21071
 k-point 11 :  0.18750.18750.1875  plane waves:  21041
 k-point 12 :  0.31250.18750.1875  plane waves:  21055
 k-point 13 :  0.43750.18750.1875  plane waves:  21062
 k-point 14 :  0.31250.31250.1875  plane waves:  21054
 k-point 15 :  0.43750.31250.1875  plane waves:  21069
 k-point 16 :  0.43750.43750.1875  plane waves:  21086
 k-point 17 :  0.31250.31250.3125  plane waves:  21089
 k-point 18 :  0.43750.31250.3125  plane waves:  21069
 k-point 19 :  0.43750.43750.3125  plane waves:  21063
 k-point 20 :  0.43750.43750.4375  plane waves:  21053

 maximum and minimum number of plane-waves per node :  21089 21028

 maximum number of plane-waves:  21089
 maximal index in each direction: 
   IXMAX= 17   IYMAX= 17   IZMAX= 17
   IXMIN=-17   IYMIN=-17   IZMIN=-17

 NGX is ok and might be reduce to  70
 NGY is ok and might be reduce to  70
 NGZ is ok and might be reduce to  70

 parallel 3dFFT wavefunction:
    minimum data exchange during FFTs selected (reduces bandwidth)
 parallel 3dFFT charge:
    minimum data exchange during FFTs selected (reduces bandwidth)

 For storing wavefunctions 1428.57 MBYTES are necessary
 For predicting wavefunctions  153.94 MBYTES are necessary
Broyden mixing: mesh for mixing (old mesh)
   NGX = 35   NGY = 35   NGZ = 35
  (NGX  =140   NGY  =140   NGZ  =140)
 gives a total of  42875 points
 initial charge density was supplied:
 charge density of overlapping atoms calculated
 number of electron  352.0000000 magnetization 
 keeping initial charge density in first step


--------------------------------------------------------------------------------------------------------


 Maximum index for augmentation-charges        51751 (set IRDMAX)


--------------------------------------------------------------------------------------------------------


 First call to EWALD:  gamma=   0.207
 Maximum number of real-space cells 3x 3x 3
 Maximum number of reciprocal cells 3x 3x 3

    FEWALD:  VPU time    0.01: CPU time    0.01


----------------------------------------- Iteration    1(   1)  ---------------------------------------


    POTLOK:  VPU time    2.35: CPU time    2.35
    SETDIJ:  VPU time    4.76: CPU time    4.76
    EDDIAG:  VPU time  116.75: CPU time  116.95
  RMM-DIIS:  VPU time  587.44: CPU time  588.42
    ORTHCH:  VPU time   11.16: CPU time   11.18
    DOS   :  VPU time    0.00: CPU time   -0.00
    ------------------------------------------
      LOOP:  VPU time  722.51: CPU time  723.73

 eigenvalue-minimisations  :  4240
 total energy-change (2. order) : 0.3929720E+04  (-0.1644644E+05)
 number of electron  352.0000000 magnetization 
 augmentation part   352.0000000 magnetization 

 Free energy of the ion-electron system (eV)
  ---------------------------------------------------
  alpha Z        PSCENC =      2881.55437992
  Ewald energy   TEWEN  =    -29803.26795134
  -1/2 Hartree   DENC   =     -7209.57028412
  -V(xc)+E(xc)   XCENC  =      -354.15014575
  PAW double counting   =     27861.41421209   -26376.63839568
  entropy T*S    EENTRO =        -0.00273322
  eigenvalues    EBANDS =      3733.21336433
  atomic energy  EATOM  =     33197.16788402
  ---------------------------------------------------
  free energy    TOTEN  =      3929.72033024 eV

  energy without entropy =     3929.72306346  energy(sigma->0) =     3929.72124132


--------------------------------------------------------------------------------------------------------




----------------------------------------- Iteration    1(   2)  ---------------------------------------


    EDDIAG:  VPU time   94.21: CPU time   94.38
  RMM-DIIS:  VPU time  565.95: CPU time  566.86
    ORTHCH:  VPU time   12.40: CPU time   12.41
    DOS   :  VPU time    0.00: CPU time   -0.00
    ------------------------------------------
      LOOP:  VPU time  672.62: CPU time  673.72

 eigenvalue-minimisations  :  4240
 total energy-change (2. order) :-0.3111586E+04  (-0.3475320E+04)
 number of electron  352.0000000 magnetization 
 augmentation part   352.0000000 magnetization 

 Free energy of the ion-electron system (eV)
  ---------------------------------------------------
  alpha Z        PSCENC =      2881.55437992
  Ewald energy   TEWEN  =    -29803.26795134
  -1/2 Hartree   DENC   =     -7209.57028412
  -V(xc)+E(xc)   XCENC  =      -354.15014575
  PAW double counting   =     27861.41421209   -26376.63839568
  entropy T*S    EENTRO =        -0.00306407
  eigenvalues    EBANDS =       621.62790191
  atomic energy  EATOM  =     33197.16788402
  ---------------------------------------------------
  free energy    TOTEN  =       818.13453697 eV

  energy without entropy =      818.13760104  energy(sigma->0) =      818.13555832


--------------------------------------------------------------------------------------------------------




----------------------------------------- Iteration    1(   3)  ---------------------------------------


    EDDIAG:  VPU time  116.85: CPU time  117.07
  RMM-DIIS:  VPU time  512.79: CPU time  513.59
    ORTHCH:  VPU time   11.24: CPU time   11.26
    DOS   :  VPU time    0.00: CPU time   -0.00
    ------------------------------------------
      LOOP:  VPU time  640.94: CPU time  641.98

 eigenvalue-minimisations  :  4240
 total energy-change (2. order) :-0.6409247E+03  (-0.6951553E+03)
 number of electron  352.0000000 magnetization 
 augmentation part   352.0000000 magnetization 

 Free energy of the ion-electron system (eV)
  ---------------------------------------------------
  alpha Z        PSCENC =      2881.55437992
  Ewald energy   TEWEN  =    -29803.26795134
  -1/2 Hartree   DENC   =     -7209.57028412
  -V(xc)+E(xc)   XCENC  =      -354.15014575
  PAW double counting   =     27861.41421209   -26376.63839568
  entropy T*S    EENTRO =        -0.02255515
  eigenvalues    EBANDS =       -19.27732122
  atomic energy  EATOM  =     33197.16788402
  ---------------------------------------------------
  free energy    TOTEN  =       177.20982276 eV

  energy without entropy =      177.23237791  energy(sigma->0) =      177.21734114


--------------------------------------------------------------------------------------------------------




----------------------------------------- Iteration    1(   4)  ---------------------------------------


    EDDIAG:  VPU time   94.81: CPU time   94.91
  RMM-DIIS:  VPU time  582.62: CPU time  583.23
    ORTHCH:  VPU time   11.89: CPU time   11.90
    DOS   :  VPU time    0.00: CPU time   -0.00
    ------------------------------------------
      LOOP:  VPU time  689.40: CPU time  690.11

 eigenvalue-minimisations  :  4240
 total energy-change (2. order) :-0.1928654E+03  (-0.1414047E+03)
 number of electron  352.0000000 magnetization 
 augmentation part   352.0000000 magnetization 

 Free energy of the ion-electron system (eV)
  ---------------------------------------------------
  alpha Z        PSCENC =      2881.55437992
  Ewald energy   TEWEN  =    -29803.26795134
  -1/2 Hartree   DENC   =     -7209.57028412
  -V(xc)+E(xc)   XCENC  =      -354.15014575
  PAW double counting   =     27861.41421209   -26376.63839568
  entropy T*S    EENTRO =        -0.00351270
  eigenvalues    EBANDS =      -212.16176402
  atomic energy  EATOM  =     33197.16788402
  ---------------------------------------------------
  free energy    TOTEN  =       -15.65557758 eV

  energy without entropy =      -15.65206489  energy(sigma->0) =      -15.65440669


--------------------------------------------------------------------------------------------------------




----------------------------------------- Iteration    1(   5)  ---------------------------------------


    EDDIAG:  VPU time  118.59: CPU time  118.71
  RMM-DIIS:  VPU time  568.99: CPU time  569.57
    ORTHCH:  VPU time    9.73: CPU time    9.74
    DOS   :  VPU time    0.00: CPU time   -0.00
    ------------------------------------------
      LOOP:  VPU time  697.37: CPU time  698.08

 eigenvalue-minimisations  :  4240
 total energy-change (2. order) :-0.6371464E+02  (-0.3789930E+02)
 number of electron  352.0000000 magnetization 
 augmentation part   352.0000000 magnetization 

 Free energy of the ion-electron system (eV)
  ---------------------------------------------------
  alpha Z        PSCENC =      2881.55437992
  Ewald energy   TEWEN  =    -29803.26795134
  -1/2 Hartree   DENC   =     -7209.57028412
  -V(xc)+E(xc)   XCENC  =      -354.15014575
  PAW double counting   =     27861.41421209   -26376.63839568
  entropy T*S    EENTRO =         0.00019749
  eigenvalues    EBANDS =      -275.88011656
  atomic energy  EATOM  =     33197.16788402
  ---------------------------------------------------
  free energy    TOTEN  =       -79.37021994 eV

  energy without entropy =      -79.37041743  energy(sigma->0) =      -79.37028577


--------------------------------------------------------------------------------------------------------




----------------------------------------- Iteration    1(   6)  ---------------------------------------


    EDDIAG:  VPU time  108.68: CPU time  108.79
  RMM-DIIS:  VPU time  594.91: CPU time  601.19
    ORTHCH:  VPU time   12.62: CPU time   12.77
    DOS   :  VPU time    0.00: CPU time   -0.00
    ------------------------------------------
      LOOP:  VPU time  716.27: CPU time  722.83

 eigenvalue-minimisations  :  4240
 total energy-change (2. order) :-0.1275117E+02  (-0.9175620E+01)
 number of electron  352.0000000 magnetization 
 augmentation part   352.0000000 magnetization 

 Free energy of the ion-electron system (eV)
  ---------------------------------------------------
  alpha Z        PSCENC =      2881.55437992
  Ewald energy   TEWEN  =    -29803.26795134
  -1/2 Hartree   DENC   =     -7209.57028412
  -V(xc)+E(xc)   XCENC  =      -354.15014575
  PAW double counting   =     27861.41421209   -26376.63839568
  entropy T*S    EENTRO =        -0.01054370
  eigenvalues    EBANDS =      -288.62054061
  atomic energy  EATOM  =     33197.16788402
  ---------------------------------------------------
  free energy    TOTEN  =       -92.12138517 eV

  energy without entropy =      -92.11084148  energy(sigma->0) =      -92.11787061


--------------------------------------------------------------------------------------------------------




----------------------------------------- Iteration    1(   7)  ---------------------------------------


    EDDIAG:  VPU time  116.28: CPU time  117.92
  RMM-DIIS:  VPU time  477.31: CPU time  481.90
    ORTHCH:  VPU time   11.29: CPU time   11.42
    DOS   :  VPU time    0.00: CPU time   -0.00
    ------------------------------------------
      LOOP:  VPU time  604.95: CPU time  611.33

 eigenvalue-minimisations  :  4240
 total energy-change (2. order) :-0.2634982E+01  (-0.2197984E+01)
 number of electron  352.0000000 magnetization 
 augmentation part   352.0000000 magnetization 

 Free energy of the ion-electron system (eV)
  ---------------------------------------------------
  alpha Z        PSCENC =      2881.55437992
  Ewald energy   TEWEN  =    -29803.26795134
  -1/2 Hartree   DENC   =     -7209.57028412
  -V(xc)+E(xc)   XCENC  =      -354.15014575
  PAW double counting   =     27861.41421209   -26376.63839568
  entropy T*S    EENTRO =        -0.01145360
  eigenvalues    EBANDS =      -291.25461246
  atomic energy  EATOM  =     33197.16788402
  ---------------------------------------------------
  free energy    TOTEN  =       -94.75636693 eV

  energy without entropy =      -94.74491333  energy(sigma->0) =      -94.75254906


--------------------------------------------------------------------------------------------------------




----------------------------------------- Iteration    1(   8)  ---------------------------------------


    EDDIAG:  VPU time  119.40: CPU time  120.02
  RMM-DIIS:  VPU time  602.48: CPU time  603.43
    ORTHCH:  VPU time   12.73: CPU time   12.75
    DOS   :  VPU time    0.00: CPU time   -0.00
    ------------------------------------------
      LOOP:  VPU time  734.68: CPU time  736.29

 eigenvalue-minimisations  :  4240
 total energy-change (2. order) :-0.5751411E+00  (-0.5362836E+00)
 number of electron  352.0000000 magnetization 
 augmentation part   352.0000000 magnetization 

 Free energy of the ion-electron system (eV)
  ---------------------------------------------------
  alpha Z        PSCENC =      2881.55437992
  Ewald energy   TEWEN  =    -29803.26795134
  -1/2 Hartree   DENC   =     -7209.57028412
  -V(xc)+E(xc)   XCENC  =      -354.15014575
  PAW double counting   =     27861.41421209   -26376.63839568
  entropy T*S    EENTRO =        -0.01165530
  eigenvalues    EBANDS =      -291.82955183
  atomic energy  EATOM  =     33197.16788402
  ---------------------------------------------------
  free energy    TOTEN  =       -95.33150800 eV

  energy without entropy =      -95.31985270  energy(sigma->0) =      -95.32762290


--------------------------------------------------------------------------------------------------------




----------------------------------------- Iteration    1(   9)  ---------------------------------------


    EDDIAG:  VPU time  106.15: CPU time  106.28
  RMM-DIIS:  VPU time  910.42: CPU time  911.51
    ORTHCH:  VPU time   11.43: CPU time   11.44
    DOS   :  VPU time    0.00: CPU time   -0.00
    ------------------------------------------
      LOOP:  VPU time 1028.07: CPU time 1029.30

 eigenvalue-minimisations  :  8478
 total energy-change (2. order) :-0.1793606E+00  (-0.1691069E+00)
 number of electron  352.0000000 magnetization 
 augmentation part   352.0000000 magnetization 

 Free energy of the ion-electron system (eV)
  ---------------------------------------------------
  alpha Z        PSCENC =      2881.55437992
  Ewald energy   TEWEN  =    -29803.26795134
  -1/2 Hartree   DENC   =     -7209.57028412
  -V(xc)+E(xc)   XCENC  =      -354.15014575
  PAW double counting   =     27861.41421209   -26376.63839568
  entropy T*S    EENTRO =        -0.01167997
  eigenvalues    EBANDS =      -292.00888779
  atomic energy  EATOM  =     33197.16788402
  ---------------------------------------------------
  free energy    TOTEN  =       -95.51086862 eV

  energy without entropy =      -95.49918866  energy(sigma->0) =      -95.50697530


--------------------------------------------------------------------------------------------------------




----------------------------------------- Iteration    1(  10)  ---------------------------------------


    EDDIAG:  VPU time  102.04: CPU time  102.16
  RMM-DIIS:  VPU time  788.76: CPU time  789.69
    ORTHCH:  VPU time   12.94: CPU time   12.96
    DOS   :  VPU time    0.00: CPU time   -0.00
    ------------------------------------------
      LOOP:  VPU time  903.82: CPU time  904.88

 eigenvalue-minimisations  :  8471
 total energy-change (2. order) :-0.1543371E-01  (-0.1446312E-01)
 number of electron  352.0000000 magnetization 
 augmentation part   352.0000000 magnetization 

 Free energy of the ion-electron system (eV)
  ---------------------------------------------------
  alpha Z        PSCENC =      2881.55437992
  Ewald energy   TEWEN  =    -29803.26795134
  -1/2 Hartree   DENC   =     -7209.57028412
  -V(xc)+E(xc)   XCENC  =      -354.15014575
  PAW double counting   =     27861.41421209   -26376.63839568
  entropy T*S    EENTRO =        -0.01168133
  eigenvalues    EBANDS =      -292.02432013
  atomic energy  EATOM  =     33197.16788402
  ---------------------------------------------------
  free energy    TOTEN  =       -95.52630233 eV

  energy without entropy =      -95.51462100  energy(sigma->0) =      -95.52240855


--------------------------------------------------------------------------------------------------------




----------------------------------------- Iteration    1(  11)  ---------------------------------------


    EDDIAG:  VPU time  118.68: CPU time  118.87
  RMM-DIIS:  VPU time  771.55: CPU time  772.43
    ORTHCH:  VPU time   10.87: CPU time   10.89
    DOS   :  VPU time   -0.00: CPU time   -0.00
    ------------------------------------------
      LOOP:  VPU time  901.18: CPU time  902.26

 eigenvalue-minimisations  :  8115
 total energy-change (2. order) :-0.6135002E-03  (-0.5535715E-03)
 number of electron  352.0000000 magnetization 
 augmentation part   352.0000000 magnetization 

 Free energy of the ion-electron system (eV)
  ---------------------------------------------------
  alpha Z        PSCENC =      2881.55437992
  Ewald energy   TEWEN  =    -29803.26795134
  -1/2 Hartree   DENC   =     -7209.57028412
  -V(xc)+E(xc)   XCENC  =      -354.15014575
  PAW double counting   =     27861.41421209   -26376.63839568
  entropy T*S    EENTRO =        -0.01168146
  eigenvalues    EBANDS =      -292.02493350
  atomic energy  EATOM  =     33197.16788402
  ---------------------------------------------------
  free energy    TOTEN  =       -95.52691583 eV

  energy without entropy =      -95.51523437  energy(sigma->0) =      -95.52302201


--------------------------------------------------------------------------------------------------------




----------------------------------------- Iteration    1(  12)  ---------------------------------------


    EDDIAG:  VPU time   98.56: CPU time   98.71
  RMM-DIIS:  VPU time  866.07: CPU time  867.44
    ORTHCH:  VPU time   12.61: CPU time   12.63
    DOS   :  VPU time    0.00: CPU time   -0.00
    CHARGE:  VPU time   64.02: CPU time   64.12
    MIXING:  VPU time    0.13: CPU time    0.13
    ------------------------------------------
      LOOP:  VPU time 1041.47: CPU time 1043.10

 eigenvalue-minimisations  :  6867
 total energy-change (2. order) :-0.5773247E-04  (-0.5581559E-04)
 number of electron  352.0000002 magnetization 
 augmentation part   163.9561577 magnetization 

 Broyden mixing:
  rms(total) = 0.14479E+01    rms(broyden)= 0.14479E+01
  rms(prec ) = 0.21809E+01
  weight for this iteration     100.00

 Free energy of the ion-electron system (eV)
  ---------------------------------------------------
  alpha Z        PSCENC =      2881.55437992
  Ewald energy   TEWEN  =    -29803.26795134
  -1/2 Hartree   DENC   =     -7209.57028412
  -V(xc)+E(xc)   XCENC  =      -354.15014575
  PAW double counting   =     27861.41421209   -26376.63839568
  entropy T*S    EENTRO =        -0.01168147
  eigenvalues    EBANDS =      -292.02499122
  atomic energy  EATOM  =     33197.16788402
  ---------------------------------------------------
  free energy    TOTEN  =       -95.52697356 eV

  energy without entropy =      -95.51529209  energy(sigma->0) =      -95.52307974


--------------------------------------------------------------------------------------------------------




----------------------------------------- Iteration    1(  13)  ---------------------------------------


    POTLOK:  VPU time    2.29: CPU time    2.30
    SETDIJ:  VPU time    4.51: CPU time    4.52
    EDDIAG:  VPU time  100.79: CPU time  100.91
  RMM-DIIS:  VPU time 1045.51: CPU time 1047.08
    ORTHCH:  VPU time   10.93: CPU time   10.95
    DOS   :  VPU time    0.00: CPU time   -0.00
    CHARGE:  VPU time   52.62: CPU time   52.68
    MIXING:  VPU time    0.24: CPU time    0.24
    ------------------------------------------
      LOOP:  VPU time 1216.97: CPU time 1218.74

 eigenvalue-minimisations  :  8480
 total energy-change (2. order) : 0.6008980E+01  (-0.2484528E+01)
 number of electron  352.0000002 magnetization 
 augmentation part   169.1084093 magnetization 

 Broyden mixing:
  rms(total) = 0.27162E+00    rms(broyden)= 0.27161E+00
  rms(prec ) = 0.36743E+00
  weight for this iteration     100.00

 eigenvalues of (default mixing * dielectric matrix)
  average eigenvalue GAMMA=   1.0360
  1.0360

 Free energy of the ion-electron system (eV)
  ---------------------------------------------------
  alpha Z        PSCENC =      2881.55437992
  Ewald energy   TEWEN  =    -29803.26795134
  -1/2 Hartree   DENC   =     -6922.63354012
  -V(xc)+E(xc)   XCENC  =      -364.60470801
  PAW double counting   =     27415.10086674   -25949.15598701
  entropy T*S    EENTRO =        -0.01327329
  eigenvalues    EBANDS =      -543.66566446
  atomic energy  EATOM  =     33197.16788402
  ---------------------------------------------------
  free energy    TOTEN  =       -89.51799355 eV

  energy without entropy =      -89.50472026  energy(sigma->0) =      -89.51356912


--------------------------------------------------------------------------------------------------------




----------------------------------------- Iteration    1(  14)  ---------------------------------------


    POTLOK:  VPU time    2.03: CPU time    2.03
    SETDIJ:  VPU time    4.04: CPU time    4.05
    EDDIAG:  VPU time  101.01: CPU time  101.13
  RMM-DIIS:  VPU time 1029.44: CPU time 1030.93
    ORTHCH:  VPU time   11.66: CPU time   11.67
    DOS   :  VPU time    0.00: CPU time   -0.00
    CHARGE:  VPU time   53.78: CPU time   53.84
    MIXING:  VPU time    0.28: CPU time    0.28
    ------------------------------------------
      LOOP:  VPU time 1202.31: CPU time 1204.00

 eigenvalue-minimisations  :  8480
 total energy-change (2. order) : 0.1148776E+00  (-0.3787473E-01)
 number of electron  352.0000002 magnetization 
 augmentation part   169.4002382 magnetization 

 Broyden mixing:
  rms(total) = 0.15000E+00    rms(broyden)= 0.15000E+00
  rms(prec ) = 0.18869E+00
  weight for this iteration     100.00

 eigenvalues of (default mixing * dielectric matrix)
  average eigenvalue GAMMA=   1.7012
  1.0520  2.3503

 Free energy of the ion-electron system (eV)
  ---------------------------------------------------
  alpha Z        PSCENC =      2881.55437992
  Ewald energy   TEWEN  =    -29803.26795134
  -1/2 Hartree   DENC   =     -6887.22518073
  -V(xc)+E(xc)   XCENC  =      -366.02650693
  PAW double counting   =     27459.24677052   -26009.14719903
  entropy T*S    EENTRO =        -0.01354378
  eigenvalues    EBANDS =      -561.69176864
  atomic energy  EATOM  =     33197.16788402
  ---------------------------------------------------
  free energy    TOTEN  =       -89.40311598 eV

  energy without entropy =      -89.38957220  energy(sigma->0) =      -89.39860139


--------------------------------------------------------------------------------------------------------




----------------------------------------- Iteration    1(  15)  ---------------------------------------


    POTLOK:  VPU time    2.04: CPU time    2.04
    SETDIJ:  VPU time    4.07: CPU time    4.08
    EDDIAG:  VPU time  102.69: CPU time  102.81
  RMM-DIIS:  VPU time  913.29: CPU time  914.41
    ORTHCH:  VPU time    9.41: CPU time    9.42
    DOS   :  VPU time   -0.00: CPU time   -0.00
    CHARGE:  VPU time   51.87: CPU time   51.94
    MIXING:  VPU time    0.11: CPU time    0.12
    ------------------------------------------
      LOOP:  VPU time 1083.56: CPU time 1084.88

 eigenvalue-minimisations  :  8480
 total energy-change (2. order) : 0.5621742E-01  (-0.4681473E-02)
 number of electron  352.0000002 magnetization 
 augmentation part   169.3172093 magnetization 

 Broyden mixing:
  rms(total) = 0.22734E-01    rms(broyden)= 0.22732E-01
  rms(prec ) = 0.34897E-01
  weight for this iteration     100.00

 eigenvalues of (default mixing * dielectric matrix)
  average eigenvalue GAMMA=   1.7445
  2.8238  1.1079  1.3018

 Free energy of the ion-electron system (eV)
  ---------------------------------------------------
  alpha Z        PSCENC =      2881.55437992
  Ewald energy   TEWEN  =    -29803.26795134
  -1/2 Hartree   DENC   =     -6861.35232148
  -V(xc)+E(xc)   XCENC  =      -367.13378291
  PAW double counting   =     27577.41121306   -26146.52649510
  entropy T*S    EENTRO =        -0.01344741
  eigenvalues    EBANDS =      -567.18637733
  atomic energy  EATOM  =     33197.16788402
  ---------------------------------------------------
  free energy    TOTEN  =       -89.34689857 eV

  energy without entropy =      -89.33345116  energy(sigma->0) =      -89.34241610


--------------------------------------------------------------------------------------------------------




----------------------------------------- Iteration    1(  16)  ---------------------------------------


    POTLOK:  VPU time    2.01: CPU time    2.01
    SETDIJ:  VPU time    3.94: CPU time    3.94
    EDDIAG:  VPU time   89.50: CPU time   89.62
  RMM-DIIS:  VPU time 1174.20: CPU time 1176.04
    ORTHCH:  VPU time   12.55: CPU time   12.56
    DOS   :  VPU time    0.00: CPU time   -0.00
    CHARGE:  VPU time   57.72: CPU time   57.78
    MIXING:  VPU time    0.28: CPU time    0.28
    ------------------------------------------
      LOOP:  VPU time 1340.27: CPU time 1342.32

 eigenvalue-minimisations  :  8480
 total energy-change (2. order) :-0.3826196E-03  (-0.1403099E-02)
 number of electron  352.0000002 magnetization 
 augmentation part   169.4365050 magnetization 

 Broyden mixing:
  rms(total) = 0.13043E-01    rms(broyden)= 0.13043E-01
  rms(prec ) = 0.19254E-01
  weight for this iteration     100.00

 eigenvalues of (default mixing * dielectric matrix)
  average eigenvalue GAMMA=   1.8153
  2.8270  2.4233  1.0055  1.0055

 Free energy of the ion-electron system (eV)
  ---------------------------------------------------
  alpha Z        PSCENC =      2881.55437992
  Ewald energy   TEWEN  =    -29803.26795134
  -1/2 Hartree   DENC   =     -6851.97619061
  -V(xc)+E(xc)   XCENC  =      -367.49519550
  PAW double counting   =     27587.09371569   -26157.83458710
  entropy T*S    EENTRO =        -0.01359756
  eigenvalues    EBANDS =      -574.57573870
  atomic energy  EATOM  =     33197.16788402
  ---------------------------------------------------
  free energy    TOTEN  =       -89.34728119 eV

  energy without entropy =      -89.33368363  energy(sigma->0) =      -89.34274867


--------------------------------------------------------------------------------------------------------




----------------------------------------- Iteration    1(  17)  ---------------------------------------


    POTLOK:  VPU time    2.18: CPU time    2.19
    SETDIJ:  VPU time    4.39: CPU time    4.39
    EDDIAG:  VPU time  109.84: CPU time  109.96
  RMM-DIIS:  VPU time  542.82: CPU time  543.34
    ORTHCH:  VPU time    6.92: CPU time    6.92
    DOS   :  VPU time   -0.00: CPU time   -0.00
    CHARGE:  VPU time   17.95: CPU time   17.95
    MIXING:  VPU time    0.03: CPU time    0.03
    ------------------------------------------
      LOOP:  VPU time  684.19: CPU time  684.86

 eigenvalue-minimisations  :  8480
 total energy-change (2. order) : 0.6174200E-03  (-0.4738283E-04)
 number of electron  352.0000002 magnetization 
 augmentation part   169.4137608 magnetization 

 Broyden mixing:
  rms(total) = 0.31527E-02    rms(broyden)= 0.31527E-02
  rms(prec ) = 0.46490E-02
  weight for this iteration     100.00

 eigenvalues of (default mixing * dielectric matrix)
  average eigenvalue GAMMA=   1.7757
  2.8625  2.4099  1.0256  1.0256  1.5549

 Free energy of the ion-electron system (eV)
  ---------------------------------------------------
  alpha Z        PSCENC =      2881.55437992
  Ewald energy   TEWEN  =    -29803.26795134
  -1/2 Hartree   DENC   =     -6855.24216250
  -V(xc)+E(xc)   XCENC  =      -367.37783805
  PAW double counting   =     27591.96235581   -26161.23578797
  entropy T*S    EENTRO =        -0.01355460
  eigenvalues    EBANDS =      -572.89398906
  atomic energy  EATOM  =     33197.16788402
  ---------------------------------------------------
  free energy    TOTEN  =       -89.34666377 eV

  energy without entropy =      -89.33310917  energy(sigma->0) =      -89.34214557


--------------------------------------------------------------------------------------------------------




----------------------------------------- Iteration    1(  18)  ---------------------------------------


    POTLOK:  VPU time    1.16: CPU time    1.16
    SETDIJ:  VPU time    1.84: CPU time    1.84
    EDDIAG:  VPU time   44.96: CPU time   44.97
  RMM-DIIS:  VPU time  207.00: CPU time  207.04
    ORTHCH:  VPU time    6.96: CPU time    6.96
    DOS   :  VPU time    0.00: CPU time   -0.00
    CHARGE:  VPU time   17.86: CPU time   17.86
    MIXING:  VPU time    0.03: CPU time    0.03
    ------------------------------------------
      LOOP:  VPU time  279.88: CPU time  279.94

 eigenvalue-minimisations  :  8235
 total energy-change (2. order) : 0.3705648E-04  (-0.1245815E-04)
 number of electron  352.0000002 magnetization 
 augmentation part   169.4029237 magnetization 

 Broyden mixing:
  rms(total) = 0.29982E-03    rms(broyden)= 0.29970E-03
  rms(prec ) = 0.41152E-03
  weight for this iteration     100.00

 eigenvalues of (default mixing * dielectric matrix)
  average eigenvalue GAMMA=   1.8398
  2.8270  2.8270  2.3585  0.9681  1.0291  1.0291

 Free energy of the ion-electron system (eV)
  ---------------------------------------------------
  alpha Z        PSCENC =      2881.55437992
  Ewald energy   TEWEN  =    -29803.26795134
  -1/2 Hartree   DENC   =     -6855.89382821
  -V(xc)+E(xc)   XCENC  =      -367.35475118
  PAW double counting   =     27592.80815023   -26162.00670659
  entropy T*S    EENTRO =        -0.01354033
  eigenvalues    EBANDS =      -572.34026323
  atomic energy  EATOM  =     33197.16788402
  ---------------------------------------------------
  free energy    TOTEN  =       -89.34662671 eV

  energy without entropy =      -89.33308638  energy(sigma->0) =      -89.34211327


--------------------------------------------------------------------------------------------------------




----------------------------------------- Iteration    1(  19)  ---------------------------------------


    POTLOK:  VPU time    1.16: CPU time    1.16
    SETDIJ:  VPU time    1.85: CPU time    1.85
    EDDIAG:  VPU time   44.42: CPU time   44.43
  RMM-DIIS:  VPU time  114.81: CPU time  114.84
    ORTHCH:  VPU time    6.95: CPU time    6.96
    DOS   :  VPU time    0.00: CPU time   -0.00
    ------------------------------------------
      LOOP:  VPU time  169.26: CPU time  169.30

 eigenvalue-minimisations  :  3605
 total energy-change (2. order) : 0.5950991E-05  (-0.1632970E-06)
 number of electron  352.0000002 magnetization 
 augmentation part   169.4029237 magnetization 

 Free energy of the ion-electron system (eV)
  ---------------------------------------------------
  alpha Z        PSCENC =      2881.55437992
  Ewald energy   TEWEN  =    -29803.26795134
  -1/2 Hartree   DENC   =     -6855.96325933
  -V(xc)+E(xc)   XCENC  =      -367.35223050
  PAW double counting   =     27592.23734477   -26161.41098484
  entropy T*S    EENTRO =        -0.01353935
  eigenvalues    EBANDS =      -572.29826411
  atomic energy  EATOM  =     33197.16788402
  ---------------------------------------------------
  free energy    TOTEN  =       -89.34662076 eV

  energy without entropy =      -89.33308141  energy(sigma->0) =      -89.34210764


--------------------------------------------------------------------------------------------------------




 average (electrostatic) potential at core
  the test charge radii are     1.1249
  (the norm of the test charge is              1.0000)
       1 -42.1409       2 -42.1409       3 -42.1409       4 -42.1409       5 -42.1409
       6 -42.1409       7 -42.1409       8 -42.1409       9 -42.1409      10 -42.1409
      11 -42.1409      12 -42.1409      13 -42.1409      14 -42.1409      15 -42.1409
      16 -42.1409      17 -42.1409      18 -42.1409      19 -42.1409      20 -42.1409
      21 -42.1409      22 -42.1409      23 -42.1409      24 -42.1409      25 -42.1409
      26 -42.1409      27 -42.1409      28 -42.1409      29 -42.1409      30 -42.1409
      31 -42.1409      32 -42.1409
 
 
 
 E-fermi :   2.3668     XC(G=0): -11.3635     alpha+bet : -7.3837
   add alpha+bet to get absolut eigen values

 k-point   1 :       0.0625    0.0625    0.0625
  band No.  band energies     occupation 
      1      -4.4106      2.00000
      2      -3.2727      2.00000
      3      -3.2727      2.00000
      4      -3.2727      2.00000
      5      -3.2614      2.00000
      6      -3.2518      2.00000
      7      -3.2518      2.00000
      8      -3.2518      2.00000
      9      -3.1846      2.00000
     10      -3.1846      2.00000
     11      -3.1846      2.00000
     12      -2.9257      2.00000
     13      -2.9257      2.00000
     14      -2.9257      2.00000
     15      -2.8453      2.00000
     16      -2.8453      2.00000
     17      -2.8453      2.00000
     18      -2.6929      2.00000
     19      -2.6929      2.00000
     20      -2.6929      2.00000
     21      -2.6859      2.00000
     22      -2.6859      2.00000
     23      -2.6859      2.00000
     24      -2.6859      2.00000
     25      -2.6859      2.00000
     26      -2.6859      2.00000
     27      -2.5805      2.00000
     28      -2.5805      2.00000
     29      -2.5805      2.00000
     30      -2.4925      2.00000
     31      -2.4925      2.00000
     32      -2.4925      2.00000
     33      -2.4702      2.00000
     34      -2.4702      2.00000
     35      -2.4702      2.00000
     36      -2.4558      2.00000
     37      -2.4558      2.00000
     38      -2.4558      2.00000
     39      -2.4558      2.00000
     40      -2.4558      2.00000
     41      -2.4558      2.00000
     42      -2.3313      2.00000
     43      -2.3313      2.00000
     44      -2.3313      2.00000
     45      -2.3313      2.00000
     46      -2.3313      2.00000
     47      -2.3313      2.00000
     48      -2.2616      2.00000
     49      -2.2616      2.00000
     50      -2.2616      2.00000
     51      -2.2590      2.00000
     52      -2.2590      2.00000
     53      -2.2590      2.00000
     54      -2.2590      2.00000
     55      -2.2590      2.00000
     56      -2.2590      2.00000
     57      -2.2173      2.00000
     58      -2.2173      2.00000
     59      -2.2173      2.00000
     60      -2.0989      2.00000
     61      -2.0989      2.00000
     62      -2.0989      2.00000
     63      -2.0989      2.00000
     64      -2.0989      2.00000
     65      -2.0989      2.00000
     66      -2.0556      2.00000
     67      -2.0556      2.00000
     68      -2.0556      2.00000
     69      -2.0434      2.00000
     70      -2.0434      2.00000
     71      -2.0408      2.00000
     72      -2.0357      2.00000
     73      -2.0357      2.00000
     74      -2.0357      2.00000
     75      -2.0286      2.00000
     76      -2.0286      2.00000
     77      -1.9290      2.00000
     78      -1.9290      2.00000
     79      -1.9290      2.00000
     80      -1.9290      2.00000
     81      -1.9290      2.00000
     82      -1.9290      2.00000
     83      -1.9076      2.00000
     84      -1.9076      2.00000
     85      -1.9076      2.00000
     86      -1.8687      2.00000
     87      -1.8687      2.00000
     88      -1.8687      2.00000
     89      -1.5517      2.00000
     90      -1.5517      2.00000
     91      -1.5517      2.00000
     92      -1.5003      2.00000
     93      -1.5003      2.00000
     94      -1.5003      2.00000
     95      -1.4958      2.00000
     96      -1.4958      2.00000
     97      -1.4958      2.00000
     98      -1.4902      2.00000
     99      -1.4902      2.00000
    100      -1.4902      2.00000
    101      -1.4902      2.00000
    102      -1.4902      2.00000
    103      -1.4902      2.00000
    104      -1.4346      2.00000
    105      -1.4346      2.00000
    106      -1.4346      2.00000
    107      -1.3349      2.00000
    108      -1.3349      2.00000
    109      -1.3349      2.00000
    110      -1.2881      2.00000
    111      -1.2881      2.00000
    112      -1.2881      2.00000
    113      -1.2794      2.00000
    114      -1.2794      2.00000
    115      -1.2794      2.00000
    116      -1.2405      2.00000
    117      -1.2405      2.00000
    118      -1.2040      2.00000
    119      -1.2040      2.00000
    120      -1.2040      2.00000
    121      -1.2040      2.00000
    122      -1.2040      2.00000
    123      -1.2040      2.00000
    124      -1.1898      2.00000
    125      -1.1898      2.00000
    126      -1.1898      2.00000
    127      -1.1898      2.00000
    128      -1.1898      2.00000
    129      -1.1898      2.00000
    130      -1.1867      2.00000
    131      -1.1867      2.00000
    132      -1.1867      2.00000
    133      -1.1295      2.00000
    134      -1.1295      2.00000
    135      -1.1295      2.00000
    136      -0.9720      2.00000
    137      -0.9720      2.00000
    138      -0.9720      2.00000
    139      -0.9112      2.00000
    140      -0.9112      2.00000
    141      -0.9112      2.00000
    142      -0.8249      2.00000
    143      -0.8249      2.00000
    144      -0.8249      2.00000
    145      -0.6680      2.00000
    146      -0.6680      2.00000
    147      -0.6680      2.00000
    148      -0.6585      2.00000
    149      -0.6585      2.00000
    150      -0.6585      2.00000
    151      -0.6338      2.00000
    152      -0.6338      2.00000
    153      -0.6213      2.00000
    154      -0.6213      2.00000
    155      -0.6213      2.00000
    156      -0.4919      2.00000
    157      -0.4919      2.00000
    158      -0.4919      2.00000
    159      -0.4727      2.00000
    160      -0.4727      2.00000
    161      -0.4727      2.00000
    162      -0.4727      2.00000
    163      -0.4727      2.00000
    164      -0.4727      2.00000
    165      -0.4706      2.00000
    166      -0.4706      2.00000
    167      -0.4706      2.00000
    168       1.1619      2.00000
    169       1.1619      2.00000
    170       1.1619      2.00000
    171       1.7043      2.00003
    172       1.7043      2.00003
    173       1.7043      2.00003
    174       1.7043      2.00003
    175       1.7043      2.00003
    176       1.7043      2.00003
    177       2.0584      2.05147
    178       2.2626      1.76314
    179       2.2626      1.76314
    180       2.2626      1.76314
    181       2.3328      1.28356
    182       2.3328      1.28356
    183       2.3328      1.28356
    184       4.0335     -0.00000
    185       4.0335     -0.00000
    186       4.0335     -0.00000
    187       5.2405     -0.00000
    188       5.2405     -0.00000
    189       5.2405     -0.00000
    190       5.4855     -0.00000
    191       7.2443     -0.00000
    192       7.2443     -0.00000
    193       7.2443     -0.00000
    194       7.2443     -0.00000
    195       7.2444     -0.00000
    196       7.2444     -0.00000
    197       7.8755      0.00000
    198       7.8755      0.00000
    199       7.8755      0.00000
    200       7.8756      0.00000
    201       7.8758      0.00000
    202       7.8786      0.00000
    203       8.1198      0.00000
    204       8.1204      0.00000
    205       8.1260      0.00000
    206       8.7246      0.00000
    207       8.7255      0.00000
    208       8.7269      0.00000
    209       8.7327      0.00000
    210       8.7645      0.00000
    211       9.6944      0.00000
    212       9.9670      0.00000

 k-point   2 :       0.1875    0.0625    0.0625
  band No.  band energies     occupation 
      1      -4.3380      2.00000
      2      -3.2457      2.00000
      3      -3.2388      2.00000
      4      -3.2388      2.00000
      5      -3.2378      2.00000
      6      -3.2190      2.00000
      7      -3.2190      2.00000
      8      -3.2099      2.00000
      9      -3.1643      2.00000
     10      -3.1523      2.00000
     11      -3.1523      2.00000
     12      -3.1351      2.00000
     13      -2.8829      2.00000
     14      -2.8829      2.00000
     15      -2.8682      2.00000
     16      -2.8059      2.00000
     17      -2.8059      2.00000
     18      -2.8012      2.00000
     19      -2.7483      2.00000
     20      -2.7483      2.00000
     21      -2.6691      2.00000
     22      -2.6691      2.00000
     23      -2.6668      2.00000
     24      -2.6668      2.00000
     25      -2.6576      2.00000
     26      -2.6576      2.00000
     27      -2.6486      2.00000
     28      -2.6158      2.00000
     29      -2.6158      2.00000
     30      -2.6083      2.00000
     31      -2.5615      2.00000
     32      -2.5615      2.00000
     33      -2.5371      2.00000
     34      -2.5371      2.00000
     35      -2.5262      2.00000
     36      -2.5262      2.00000
     37      -2.4919      2.00000
     38      -2.4919      2.00000
     39      -2.4683      2.00000
     40      -2.4502      2.00000
     41      -2.4502      2.00000
     42      -2.4407      2.00000
     43      -2.4407      2.00000
     44      -2.3305      2.00000
     45      -2.3305      2.00000
     46      -2.3293      2.00000
     47      -2.3293      2.00000
     48      -2.2763      2.00000
     49      -2.2763      2.00000
     50      -2.2726      2.00000
     51      -2.2726      2.00000
     52      -2.2724      2.00000
     53      -2.2724      2.00000
     54      -2.2189      2.00000
     55      -2.2028      2.00000
     56      -2.2028      2.00000
     57      -2.1858      2.00000
     58      -2.1858      2.00000
     59      -2.1645      2.00000
     60      -2.1153      2.00000
     61      -2.1153      2.00000
     62      -2.0954      2.00000
     63      -2.0954      2.00000
     64      -2.0774      2.00000
     65      -2.0670      2.00000
     66      -2.0670      2.00000
     67      -2.0627      2.00000
     68      -2.0414      2.00000
     69      -2.0319      2.00000
     70      -2.0319      2.00000
     71      -2.0304      2.00000
     72      -2.0304      2.00000
     73      -2.0273      2.00000
     74      -2.0102      2.00000
     75      -2.0102      2.00000
     76      -2.0071      2.00000
     77      -2.0055      2.00000
     78      -2.0044      2.00000
     79      -1.9719      2.00000
     80      -1.9719      2.00000
     81      -1.9116      2.00000
     82      -1.9116      2.00000
     83      -1.8460      2.00000
     84      -1.8460      2.00000
     85      -1.7907      2.00000
     86      -1.7907      2.00000
     87      -1.7516      2.00000
     88      -1.7336      2.00000
     89      -1.6434      2.00000
     90      -1.6389      2.00000
     91      -1.6389      2.00000
     92      -1.6131      2.00000
     93      -1.5797      2.00000
     94      -1.5719      2.00000
     95      -1.5709      2.00000
     96      -1.5709      2.00000
     97      -1.5195      2.00000
     98      -1.5195      2.00000
     99      -1.5034      2.00000
    100      -1.5034      2.00000
    101      -1.4430      2.00000
    102      -1.4430      2.00000
    103      -1.4384      2.00000
    104      -1.4384      2.00000
    105      -1.4151      2.00000
    106      -1.4151      2.00000
    107      -1.3957      2.00000
    108      -1.3957      2.00000
    109      -1.3857      2.00000
    110      -1.3329      2.00000
    111      -1.3329      2.00000
    112      -1.2981      2.00000
    113      -1.2981      2.00000
    114      -1.2643      2.00000
    115      -1.2293      2.00000
    116      -1.2169      2.00000
    117      -1.2169      2.00000
    118      -1.2095      2.00000
    119      -1.2095      2.00000
    120      -1.2022      2.00000
    121      -1.2022      2.00000
    122      -1.1791      2.00000
    123      -1.1652      2.00000
    124      -1.1459      2.00000
    125      -1.1459      2.00000
    126      -1.1381      2.00000
    127      -1.0944      2.00000
    128      -1.0944      2.00000
    129      -1.0846      2.00000
    130      -1.0846      2.00000
    131      -1.0768      2.00000
    132      -1.0768      2.00000
    133      -1.0490      2.00000
    134      -1.0418      2.00000
    135      -1.0418      2.00000
    136      -1.0307      2.00000
    137      -0.9243      2.00000
    138      -0.9243      2.00000
    139      -0.8997      2.00000
    140      -0.8997      2.00000
    141      -0.8500      2.00000
    142      -0.7692      2.00000
    143      -0.7561      2.00000
    144      -0.7561      2.00000
    145      -0.6925      2.00000
    146      -0.6925      2.00000
    147      -0.6796      2.00000
    148      -0.6745      2.00000
    149      -0.6733      2.00000
    150      -0.6377      2.00000
    151      -0.6358      2.00000
    152      -0.6358      2.00000
    153      -0.6131      2.00000
    154      -0.6131      2.00000
    155      -0.5934      2.00000
    156      -0.5934      2.00000
    157      -0.5319      2.00000
    158      -0.5148      2.00000
    159      -0.5148      2.00000
    160      -0.5142      2.00000
    161      -0.5142      2.00000
    162      -0.5065      2.00000
    163      -0.4727      2.00000
    164      -0.4727      2.00000
    165      -0.4726      2.00000
    166      -0.4726      2.00000
    167      -0.2939      2.00000
    168       0.6890      2.00000
    169       0.6890      2.00000
    170       1.1773      2.00000
    171       1.2069      2.00000
    172       1.2069      2.00000
    173       1.7296      2.00006
    174       1.7296      2.00006
    175       1.7766      2.00024
    176       2.2406      1.86691
    177       2.2406      1.86691
    178       2.2934      1.57722
    179       2.3208      1.37811
    180       2.3208      1.37811
    181       2.5165      0.04883
    182       2.8872     -0.00145
    183       2.8872     -0.00145
    184       3.5065     -0.00000
    185       4.2006     -0.00000
    186       4.2006     -0.00000
    187       5.2631     -0.00000
    188       5.5158     -0.00000
    189       5.5158     -0.00000
    190       5.9272     -0.00000
    191       6.4069     -0.00000
    192       6.4069     -0.00000
    193       6.6163     -0.00000
    194       6.6163     -0.00000
    195       6.9725     -0.00000
    196       6.9725     -0.00000
    197       7.3616     -0.00000
    198       7.3617     -0.00000
    199       7.9917      0.00000
    200       7.9928      0.00000
    201       8.1384      0.00000
    202       8.1457      0.00000
    203       8.3402      0.00000
    204       8.3611      0.00000
    205       8.6951      0.00000
    206       8.8046      0.00000
    207       8.8475      0.00000
    208       8.9027      0.00000
    209       9.0687      0.00000
    210       9.1254      0.00000
    211       9.2006      0.00000
    212       9.2789      0.00000

 k-point   3 :       0.3125    0.0625    0.0625
  band No.  band energies     occupation 
      1      -4.1950      2.00000
      2      -3.4242      2.00000
      3      -3.1934      2.00000
      4      -3.1811      2.00000
      5      -3.1734      2.00000
      6      -3.1734      2.00000
      7      -3.1541      2.00000
      8      -3.1541      2.00000
      9      -3.1368      2.00000
     10      -3.1245      2.00000
     11      -3.0880      2.00000
     12      -3.0880      2.00000
     13      -2.9422      2.00000
     14      -2.9016      2.00000
     15      -2.8520      2.00000
     16      -2.8520      2.00000
     17      -2.8216      2.00000
     18      -2.8039      2.00000
     19      -2.8039      2.00000
     20      -2.7834      2.00000
     21      -2.7834      2.00000
     22      -2.7602      2.00000
     23      -2.7355      2.00000
     24      -2.7355      2.00000
     25      -2.7160      2.00000
     26      -2.7160      2.00000
     27      -2.6345      2.00000
     28      -2.6345      2.00000
     29      -2.6172      2.00000
     30      -2.6172      2.00000
     31      -2.6036      2.00000
     32      -2.6036      2.00000
     33      -2.5515      2.00000
     34      -2.5515      2.00000
     35      -2.5345      2.00000
     36      -2.5345      2.00000
     37      -2.5231      2.00000
     38      -2.5231      2.00000
     39      -2.5006      2.00000
     40      -2.5006      2.00000
     41      -2.4307      2.00000
     42      -2.4307      2.00000
     43      -2.3606      2.00000
     44      -2.3276      2.00000
     45      -2.3276      2.00000
     46      -2.3215      2.00000
     47      -2.3215      2.00000
     48      -2.3134      2.00000
     49      -2.3134      2.00000
     50      -2.3060      2.00000
     51      -2.3060      2.00000
     52      -2.2850      2.00000
     53      -2.2850      2.00000
     54      -2.2019      2.00000
     55      -2.1894      2.00000
     56      -2.1894      2.00000
     57      -2.1683      2.00000
     58      -2.1683      2.00000
     59      -2.1398      2.00000
     60      -2.1398      2.00000
     61      -2.1158      2.00000
     62      -2.1135      2.00000
     63      -2.1135      2.00000
     64      -2.1095      2.00000
     65      -2.1067      2.00000
     66      -2.0986      2.00000
     67      -2.0986      2.00000
     68      -2.0899      2.00000
     69      -2.0899      2.00000
     70      -2.0859      2.00000
     71      -2.0859      2.00000
     72      -2.0488      2.00000
     73      -2.0441      2.00000
     74      -2.0441      2.00000
     75      -1.9879      2.00000
     76      -1.9771      2.00000
     77      -1.9771      2.00000
     78      -1.9627      2.00000
     79      -1.9627      2.00000
     80      -1.9606      2.00000
     81      -1.9597      2.00000
     82      -1.9508      2.00000
     83      -1.7841      2.00000
     84      -1.7841      2.00000
     85      -1.7488      2.00000
     86      -1.7213      2.00000
     87      -1.7213      2.00000
     88      -1.7063      2.00000
     89      -1.6960      2.00000
     90      -1.6957      2.00000
     91      -1.6957      2.00000
     92      -1.6837      2.00000
     93      -1.5772      2.00000
     94      -1.5772      2.00000
     95      -1.5431      2.00000
     96      -1.5325      2.00000
     97      -1.5325      2.00000
     98      -1.5081      2.00000
     99      -1.4656      2.00000
    100      -1.4656      2.00000
    101      -1.4509      2.00000
    102      -1.4474      2.00000
    103      -1.4474      2.00000
    104      -1.3611      2.00000
    105      -1.3611      2.00000
    106      -1.3467      2.00000
    107      -1.3467      2.00000
    108      -1.3254      2.00000
    109      -1.3254      2.00000
    110      -1.3124      2.00000
    111      -1.3124      2.00000
    112      -1.3090      2.00000
    113      -1.3034      2.00000
    114      -1.3034      2.00000
    115      -1.2235      2.00000
    116      -1.2235      2.00000
    117      -1.2073      2.00000
    118      -1.2040      2.00000
    119      -1.2040      2.00000
    120      -1.1955      2.00000
    121      -1.1955      2.00000
    122      -1.1046      2.00000
    123      -1.1046      2.00000
    124      -1.0853      2.00000
    125      -1.0574      2.00000
    126      -1.0494      2.00000
    127      -1.0494      2.00000
    128      -1.0020      2.00000
    129      -0.9917      2.00000
    130      -0.9766      2.00000
    131      -0.9766      2.00000
    132      -0.9716      2.00000
    133      -0.9716      2.00000
    134      -0.9509      2.00000
    135      -0.9509      2.00000
    136      -0.9436      2.00000
    137      -0.9339      2.00000
    138      -0.9339      2.00000
    139      -0.9221      2.00000
    140      -0.9023      2.00000
    141      -0.9023      2.00000
    142      -0.8092      2.00000
    143      -0.7986      2.00000
    144      -0.7986      2.00000
    145      -0.7893      2.00000
    146      -0.7413      2.00000
    147      -0.7382      2.00000
    148      -0.7382      2.00000
    149      -0.7049      2.00000
    150      -0.6850      2.00000
    151      -0.6850      2.00000
    152      -0.6818      2.00000
    153      -0.6785      2.00000
    154      -0.6785      2.00000
    155      -0.6088      2.00000
    156      -0.5932      2.00000
    157      -0.5932      2.00000
    158      -0.5923      2.00000
    159      -0.5923      2.00000
    160      -0.5727      2.00000
    161      -0.4729      2.00000
    162      -0.4729      2.00000
    163      -0.4728      2.00000
    164      -0.4728      2.00000
    165      -0.3240      2.00000
    166      -0.3240      2.00000
    167       0.2772      2.00000
    168       0.2772      2.00000
    169       0.3650      2.00000
    170       0.7627      2.00000
    171       0.7627      2.00000
    172       1.2120      2.00000
    173       1.5444      2.00000
    174       1.7815      2.00028
    175       1.7815      2.00028
    176       2.1052      2.06901
    177       2.1052      2.06901
    178       2.3527      1.11956
[...]
    111      -1.4086      2.00000
    112      -1.4086      2.00000
    113      -1.4070      2.00000
    114      -1.4070      2.00000
    115      -1.4070      2.00000
    116      -1.3770      2.00000
    117      -1.3467      2.00000
    118      -1.3467      2.00000
    119      -1.3467      2.00000
    120      -1.3025      2.00000
    121      -1.3025      2.00000
    122      -1.3025      2.00000
    123      -1.3025      2.00000
    124      -1.3025      2.00000
    125      -1.3025      2.00000
    126      -1.2351      2.00000
    127      -1.2351      2.00000
    128      -1.2351      2.00000
    129      -1.1972      2.00000
    130      -1.1972      2.00000
    131      -1.1828      2.00000
    132      -1.1828      2.00000
    133      -1.1828      2.00000
    134      -1.1699      2.00000
    135      -1.1699      2.00000
    136      -1.1699      2.00000
    137      -1.1001      2.00000
    138      -1.1001      2.00000
    139      -1.1001      2.00000
    140      -1.0544      2.00000
    141      -1.0544      2.00000
    142      -1.0036      2.00000
    143      -1.0036      2.00000
    144      -1.0036      2.00000
    145      -0.6053      2.00000
    146      -0.6053      2.00000
    147      -0.6053      2.00000
    148      -0.5898      2.00000
    149      -0.5898      2.00000
    150      -0.5898      2.00000
    151      -0.5898      2.00000
    152      -0.5898      2.00000
    153      -0.5898      2.00000
    154      -0.5897      2.00000
    155      -0.5897      2.00000
    156      -0.5897      2.00000
    157      -0.5897      2.00000
    158      -0.5897      2.00000
    159      -0.5897      2.00000
    160      -0.5877      2.00000
    161      -0.5877      2.00000
    162      -0.5877      2.00000
    163      -0.5768      2.00000
    164      -0.5768      2.00000
    165      -0.5768      2.00000
    166      -0.5685      2.00000
    167      -0.5685      2.00000
    168      -0.5685      2.00000
    169       2.4614      0.29068
    170       2.4614      0.29068
    171       2.4614      0.29068
    172       2.7919     -0.01045
    173       2.7919     -0.01045
    174       2.7919     -0.01045
    175       2.7919     -0.01045
    176       2.7919     -0.01045
    177       2.7919     -0.01045
    178       3.0813     -0.00001
    179       3.0813     -0.00001
    180       3.0813     -0.00001
    181       3.3039     -0.00000
    182       3.3039     -0.00000
    183       3.3039     -0.00000
    184       3.6520     -0.00000
    185       3.6520     -0.00000
    186       3.6520     -0.00000
    187       3.6520     -0.00000
    188       3.6520     -0.00000
    189       3.6520     -0.00000
    190       3.9607     -0.00000
    191       3.9607     -0.00000
    192       3.9607     -0.00000
    193       6.8893     -0.00000
    194       6.8894     -0.00000
    195       6.8897     -0.00000
    196       7.2309     -0.00000
    197       7.2310     -0.00000
    198       7.2318     -0.00000
    199       7.6578     -0.00000
    200       7.6578     -0.00000
    201       7.6582     -0.00000
    202       7.6590     -0.00000
    203       7.6621     -0.00000
    204       7.7142     -0.00000
    205       8.0068      0.00000
    206       8.0068      0.00000
    207       8.0093      0.00000
    208       8.0183      0.00000
    209       8.0697      0.00000
    210       8.3254      0.00000
    211       8.4235      0.00000
    212       8.6598      0.00000


--------------------------------------------------------------------------------------------------------


 soft charge-density along one line, spin component           1
         0         1         2         3         4         5         6         7         8         9
 total charge-density along one line
 
 pseudopotential strength for first ion, spin component:           1
-12.462   0.000  -0.000   0.000  -0.000   0.186  -0.000   0.000
  0.000 -12.462   0.000   0.000  -0.000  -0.000   0.186  -0.000
 -0.000   0.000 -12.454   0.000  -0.000   0.000  -0.000   0.185
  0.000   0.000   0.000 -12.462   0.000  -0.000  -0.000  -0.000
 -0.000  -0.000  -0.000   0.000 -12.454   0.000   0.000   0.000
  0.186  -0.000   0.000  -0.000   0.000   0.447   0.000  -0.000
 -0.000   0.186  -0.000  -0.000   0.000   0.000   0.447   0.000
  0.000  -0.000   0.185  -0.000   0.000  -0.000   0.000   0.447
 -0.000  -0.000  -0.000   0.186  -0.000   0.000   0.000   0.000
  0.000   0.000   0.000  -0.000   0.185  -0.000  -0.000  -0.000
 -0.000  -0.000  -0.000  -0.000  -0.000   0.000   0.000   0.000
  0.000   0.000   0.000   0.000   0.000  -0.000  -0.000  -0.000
  0.000  -0.000  -0.000   0.000  -0.000  -0.000   0.000   0.000
  0.000   0.000  -0.000   0.000   0.000  -0.000  -0.000   0.000
  0.000   0.000  -0.000  -0.000   0.000  -0.000  -0.000   0.000
 -0.000   0.000   0.000  -0.000   0.000   0.000  -0.000  -0.000
 -0.000  -0.000   0.000  -0.000  -0.000   0.000   0.000  -0.000
 -0.000  -0.000   0.000   0.000  -0.000   0.000   0.000  -0.000
 total augmentation occupancy for first ion, spin component:           1
  1.940  -0.000  -0.001   0.001   0.001  -0.031   0.000  -0.000  -0.001  -0.001   0.005  -0.001  -0.000  -0.000   0.000  -0.000
 -0.000   1.947  -0.002  -0.000  -0.000   0.000  -0.038   0.002   0.000  -0.001   0.001  -0.001   0.000   0.000  -0.000   0.000
 -0.001  -0.002   1.969  -0.001   0.002  -0.000   0.002  -0.060   0.001  -0.001   0.018   0.001   0.000  -0.000   0.000   0.000
  0.001  -0.000  -0.001   1.943   0.001  -0.001   0.000   0.001  -0.033  -0.001   0.004  -0.000   0.000  -0.000  -0.000   0.000
  0.001  -0.000   0.002   0.001   1.958  -0.001  -0.001  -0.001  -0.001  -0.051  -0.009  -0.001   0.000  -0.000  -0.000   0.000
 -0.031   0.000  -0.000  -0.001  -0.001   0.056  -0.000   0.001   0.000   0.001  -0.002   0.001  -0.000   0.000   0.000  -0.000
  0.000  -0.038   0.002   0.000  -0.001  -0.000   0.062  -0.002  -0.000   0.001   0.002   0.002  -0.000  -0.000   0.000  -0.000
 -0.000   0.002  -0.060   0.001  -0.001   0.001  -0.002   0.051  -0.001   0.000  -0.013   0.001  -0.000   0.000  -0.000  -0.000
 -0.001   0.000   0.001  -0.033  -0.001   0.000  -0.000  -0.001   0.056  -0.000  -0.001   0.001  -0.000   0.000   0.000  -0.000
 -0.001  -0.001  -0.001  -0.001  -0.051   0.001   0.001   0.000  -0.000   0.046   0.008   0.000  -0.000  -0.000   0.000  -0.000
  0.005   0.001   0.018   0.004  -0.009  -0.002   0.002  -0.013  -0.001   0.008   0.976  -0.303   0.000   0.000   0.000   0.000
 -0.001  -0.001   0.001  -0.000  -0.001   0.001   0.002   0.001   0.001   0.000  -0.303   0.144   0.000   0.000   0.000  -0.000
 -0.000   0.000   0.000   0.000   0.000  -0.000  -0.000  -0.000  -0.000  -0.000   0.000   0.000   0.088  -0.002   0.003  -0.005
 -0.000   0.000  -0.000  -0.000  -0.000   0.000  -0.000   0.000   0.000  -0.000   0.000   0.000  -0.002   0.092   0.001  -0.000
  0.000  -0.000   0.000  -0.000  -0.000   0.000   0.000  -0.000   0.000   0.000   0.000   0.000   0.003   0.001   0.086  -0.000
 -0.000   0.000   0.000   0.000   0.000  -0.000  -0.000  -0.000  -0.000  -0.000   0.000  -0.000  -0.005  -0.000  -0.000   0.000
 -0.000   0.000   0.000  -0.000  -0.000   0.000  -0.000  -0.000   0.000   0.000   0.000  -0.000  -0.000  -0.005  -0.000   0.000
 -0.000  -0.000   0.000  -0.000  -0.000  -0.000   0.000   0.000   0.000   0.000   0.000  -0.000  -0.000  -0.000  -0.005   0.000


------------------------ aborting loop because EDIFF is reached ----------------------------------------




--------------------------------------------------------------------------------------------------------


    CHARGE:  VPU time   19.45: CPU time   19.51
    FORLOC:  VPU time    0.19: CPU time    0.19
    FORNL :  VPU time  108.73: CPU time  108.75
    STRESS:  VPU time  173.70: CPU time  173.74
    FORCOR:  VPU time    1.25: CPU time    1.25
    FORHAR:  VPU time    0.45: CPU time    0.45
    MIXING:  VPU time    0.03: CPU time    0.03


--------------------------------------------------------------------------------------------------------



  FREE ENERGIE OF THE ION-ELECTRON SYSTEM (eV)
  ---------------------------------------------------
  free  energy   TOTEN  =       -89.346621 eV

  energy  without entropy=      -89.333081  energy(sigma->0) =      -89.342108
 

  FORCE on cell =-STRESS in cart. coord.  units (eV/reduce length):
  Direction    X        Y        Z        XY       YZ       ZX
  --------------------------------------------------------------------------------------
  Alpha Z   2881.55   2881.55   2881.55
  Ewald    -9934.46  -9934.46  -9934.46     -0.00     -0.00     -0.00
  Hartree   2285.32   2285.32   2285.32     -0.00     -0.00     -0.00
  E(xc)    -1854.39  -1854.39  -1854.39     -0.00     -0.00     -0.00
  Local     3059.85   3059.85   3059.85      0.00      0.00      0.00
  n-local  -2152.31  -2147.78  -2141.98      2.54     -0.42      1.32
  augment   1337.99   1337.99   1337.99     -0.00     -0.00     -0.00
  Kinetic   4338.99   4346.56   4356.23      2.13     -3.30      0.31
  -------------------------------------------------------------------------------------
  Total      -24.24    -24.24    -24.24     -0.00     -0.00     -0.00
  in kB      -61.54    -61.54    -61.54     -0.00     -0.00     -0.00
  external pressure =      -61.54 kB  Pullay stress =        0.00 kB


 VOLUME and BASIS-vectors are now :
 -----------------------------------------------------------------------------
  energy-cutoff  :      600.00
  volume of cell :      631.05
      direct lattice vectors                 reciprocal lattice vectors
     8.577364400  0.000000000  0.000000000     0.116585929 -0.000000002 -0.000000002
     0.000000160  8.577364400  0.000000000     0.000000000  0.116585929 -0.000000002
     0.000000160  0.000000160  8.577364400     0.000000000  0.000000000  0.116585929

  length of vectors
     8.577364400  8.577364400  8.577364400     0.116585929  0.116585929  0.116585929


 FORCES acting on ions
    electron-ion (+dipol)            ewald-force                    non-local-force                 convergence-correction
 -----------------------------------------------------------------------------------------------
   0.699E-12 -.173E-10 0.371E-11   -.191E-12 -.639E-13 -.271E-13   -.116E-23 0.126E-23 0.191E-23   0.710E-13 0.613E-14 -.713E-12
   0.681E-12 -.164E-11 -.476E-12   -.977E-13 -.906E-13 -.491E-13   0.520E-23 0.632E-23 -.355E-23   -.299E-13 -.384E-12 0.979E-12
   0.684E-12 0.113E-13 -.701E-11   -.173E-12 -.851E-13 0.280E-13   -.142E-22 -.129E-23 0.465E-23   -.146E-12 -.341E-12 -.125E-12
   0.687E-12 0.437E-11 0.232E-11   -.152E-12 -.113E-12 0.162E-13   -.521E-23 0.560E-23 0.352E-23   0.320E-13 -.751E-14 -.288E-12
   -.650E-14 0.705E-12 0.187E-12   -.851E-13 0.768E-13 -.937E-13   0.166E-23 -.856E-23 0.106E-22   -.701E-13 -.867E-13 -.273E-12
   0.456E-14 0.742E-14 0.429E-12   -.521E-13 -.770E-13 -.443E-13   -.133E-23 -.436E-24 0.300E-23   0.599E-13 -.133E-12 -.411E-12
   0.205E-12 -.142E-11 0.169E-11   -.125E-12 -.755E-14 -.113E-12   0.586E-24 0.305E-25 -.207E-23   -.712E-13 -.490E-13 -.414E-12
   0.672E-12 0.208E-12 0.248E-11   -.417E-13 -.507E-13 0.608E-13   0.214E-23 0.861E-23 0.827E-24   0.457E-13 0.585E-13 -.285E-12
   0.669E-12 -.111E-10 -.669E-12   -.172E-12 -.702E-13 -.223E-13   -.908E-23 -.135E-23 0.299E-23   -.201E-12 0.402E-12 0.606E-12
   0.693E-12 -.151E-11 0.850E-11   -.155E-12 -.679E-14 0.746E-13   0.902E-23 -.493E-23 -.783E-23   -.453E-13 0.439E-12 -.534E-12
   0.626E-14 0.716E-12 0.687E-12   -.442E-13 -.204E-13 -.293E-13   -.277E-23 0.246E-23 0.145E-23   0.228E-12 -.187E-12 -.115E-12
   0.132E-13 0.251E-14 -.122E-13   -.244E-13 -.468E-13 -.524E-13   0.485E-23 -.347E-23 -.227E-23   0.373E-12 -.475E-13 0.723E-12
   -.241E-13 0.191E-12 0.195E-12   -.816E-13 0.346E-13 0.329E-13   -.239E-23 -.345E-23 -.233E-23   0.261E-12 0.113E-12 -.349E-12
   -.299E-13 0.407E-12 0.417E-12   0.228E-13 0.115E-13 0.110E-12   -.727E-23 -.932E-23 0.807E-23   0.119E-12 0.254E-12 -.322E-12
   0.223E-12 0.293E-11 0.111E-11   -.693E-13 -.115E-12 -.847E-13   -.977E-23 0.972E-23 -.341E-23   0.302E-13 -.126E-12 0.675E-12
   0.217E-12 0.257E-13 -.198E-11   -.329E-13 -.310E-13 -.466E-13   0.275E-23 -.254E-23 -.145E-23   0.141E-12 0.541E-15 -.434E-12
   0.217E-12 0.220E-11 0.161E-11   -.719E-13 -.995E-13 0.254E-13   0.734E-23 -.101E-23 0.646E-24   -.360E-13 0.349E-13 -.305E-12
   0.424E-12 -.395E-11 -.480E-12   0.146E-12 0.195E-13 -.112E-12   -.130E-22 0.125E-23 -.465E-23   0.133E-12 -.714E-14 -.401E-12
   0.412E-12 0.369E-13 -.372E-11   0.119E-12 0.525E-13 -.998E-13   0.251E-23 0.124E-22 0.707E-23   0.806E-14 -.988E-13 -.619E-12
   0.680E-12 -.596E-12 -.130E-10   -.101E-12 0.138E-13 0.915E-13   0.138E-23 0.266E-23 -.620E-24   0.177E-13 0.375E-13 0.109E-12
   -.111E-13 0.176E-12 0.682E-12   0.119E-12 -.449E-13 0.369E-13   0.128E-24 0.123E-23 0.900E-23   0.237E-12 0.213E-12 -.165E-13
   -.230E-13 0.413E-12 -.314E-16   0.541E-13 0.165E-13 0.200E-13   -.806E-23 0.401E-23 -.693E-23   0.109E-12 0.160E-12 0.608E-12
   0.230E-12 -.185E-13 0.273E-11   0.808E-13 -.701E-13 0.573E-13   0.732E-23 0.582E-23 0.848E-23   -.515E-13 0.760E-13 0.396E-13
   0.235E-12 -.191E-11 0.117E-11   -.302E-13 0.480E-13 0.697E-14   0.878E-23 -.162E-23 -.352E-23   0.197E-12 0.107E-12 0.631E-12
   0.212E-12 0.398E-12 0.212E-11   0.870E-13 0.264E-13 0.933E-13   -.783E-23 0.498E-23 -.103E-23   0.408E-13 0.113E-12 -.515E-12
   0.411E-12 0.369E-11 0.649E-11   0.215E-12 0.178E-14 -.231E-13   -.464E-23 -.380E-23 -.114E-23   -.167E-12 -.237E-12 -.410E-13
   0.406E-12 0.143E-12 0.303E-11   0.253E-12 0.367E-13 -.195E-13   -.115E-22 0.373E-23 -.105E-22   -.305E-12 0.121E-12 0.898E-12
   0.444E-12 -.354E-11 -.770E-12   0.175E-12 -.870E-13 -.480E-13   -.324E-23 -.630E-23 -.145E-23   -.202E-12 -.100E-13 -.617E-12
   0.451E-12 -.348E-11 -.339E-11   0.836E-13 0.586E-13 -.200E-13   -.126E-23 0.664E-23 -.491E-23   -.487E-13 0.206E-12 -.399E-12
   0.224E-12 0.438E-12 -.139E-11   0.126E-12 0.345E-13 0.110E-12   -.924E-23 -.872E-24 -.589E-23   -.215E-13 0.373E-13 0.109E-12
   0.432E-12 -.283E-11 -.163E-11   0.252E-12 -.105E-12 -.178E-14   0.119E-22 0.720E-23 0.724E-23   -.177E-12 0.221E-12 0.181E-12
   0.444E-12 -.361E-11 0.231E-11   0.133E-12 0.105E-12 0.303E-13   0.549E-23 -.209E-23 -.941E-23   -.396E-13 -.156E-13 0.655E-12
 -----------------------------------------------------------------------------------------------
   0.106E-10 -.359E-10 0.731E-11   0.165E-12 -.648E-12 -.925E-13   -.409E-22 0.328E-22 -.357E-23   0.492E-12 0.869E-12 -.962E-12
 
 
 POSITION                                       TOTAL-FORCE (eV/Angst)
 -----------------------------------------------------------------------------------
      6.43302      6.43302      4.28868         0.000000      0.000000     -0.000000
      6.43302      6.43302      0.00000        -0.000000     -0.000000     -0.000000
      6.43302      0.00000      2.14434        -0.000000     -0.000000      0.000000
      6.43302      2.14434      4.28868        -0.000000      0.000000     -0.000000
      0.00000      6.43302      2.14434         0.000000      0.000000      0.000000
      0.00000      0.00000      4.28868        -0.000000     -0.000000      0.000000
      2.14434      6.43302      4.28868         0.000000      0.000000      0.000000
      6.43302      0.00000      6.43302         0.000000      0.000000      0.000000
      6.43302      2.14434      0.00000        -0.000000      0.000000      0.000000
      6.43302      4.28868      2.14434        -0.000000     -0.000000      0.000000
      0.00000      6.43302      6.43302         0.000000      0.000000      0.000000
      0.00000      0.00000      0.00000         0.000000     -0.000000      0.000000
      0.00000      2.14434      2.14434        -0.000000      0.000000      0.000000
      0.00000      4.28868      4.28868        -0.000000      0.000000     -0.000000
      2.14434      6.43302      0.00000         0.000000      0.000000      0.000000
      2.14434      0.00000      2.14434        -0.000000     -0.000000      0.000000
      2.14434      2.14434      4.28868        -0.000000      0.000000     -0.000000
      4.28868      6.43302      2.14434        -0.000000      0.000000      0.000000
      4.28868      0.00000      4.28868         0.000000      0.000000     -0.000000
      6.43302      4.28868      6.43302         0.000000      0.000000     -0.000000
      0.00000      2.14434      6.43302         0.000000      0.000000     -0.000000
      0.00000      4.28868      0.00000         0.000000      0.000000      0.000000
      2.14434      0.00000      6.43302        -0.000000      0.000000     -0.000000
      2.14434      2.14434      0.00000        -0.000000      0.000000      0.000000
      2.14434      4.28868      2.14434        -0.000000     -0.000000     -0.000000
      4.28868      6.43302      6.43302         0.000000     -0.000000     -0.000000
      4.28868      0.00000      0.00000        -0.000000      0.000000     -0.000000
      4.28868      2.14434      2.14434        -0.000000     -0.000000     -0.000000
      4.28868      4.28868      4.28868        -0.000000     -0.000000      0.000000
      2.14434      4.28868      6.43302         0.000000     -0.000000      0.000000
      4.28868      2.14434      6.43302        -0.000000      0.000000     -0.000000
      4.28868      4.28868      0.00000        -0.000000     -0.000000     -0.000000
 -----------------------------------------------------------------------------------
    total drift:                                0.000000     -0.000000      0.000000


--------------------------------------------------------------------------------------------------------




--------------------------------------------------------------------------------------------------------


  
 reached required accuracy - stopping structural energy minimisation
 writing wavefunctions
     LOOP+:  VPU time15642.63: CPU time15680.55

 ----------------------------------------------------------------------------- 
|                                                                             |
|           W    W    AA    RRRRR   N    N  II  N    N   GGGG   !!!           |
|           W    W   A  A   R    R  NN   N  II  NN   N  G    G  !!!           |
|           W    W  A    A  R    R  N N  N  II  N N  N  G       !!!           |
|           W WW W  AAAAAA  RRRRR   N  N N  II  N  N N  G  GGG   !            |
|           WW  WW  A    A  R   R   N   NN  II  N   NN  G    G                |
|           W    W  A    A  R    R  N    N  II  N    N   GGGG   !!!           |
|                                                                             |
|      The partial DOS and the PROCAR file are not evaluated for NPAR/=1      |
|      please rerun with NPAR=1                                               |
|                                                                             |
 ----------------------------------------------------------------------------- 

  
  
 General timing and accounting informations for this job:
 ========================================================
  
                  Total CPU time used (sec):    15860.911
                            User time (sec):    15298.252
                          System time (sec):      562.658
                         Elapsed time (sec):    15899.180
  
                   Maximum memory used (kb):     2031536.
                   Average memory used (kb):           0.
  
                          Minor page faults:       418209
                          Major page faults:            0
                 Voluntary context switches:         6172
