   4   4   0   0
  0.1600608E+02  0.4000507E-09  0.4000507E-09  0.4000507E-09  0.5000000E-15
  1.000000000000000E-004
  CAR 
 unknown system                          
     20.64386936     -6.96033681  301      1.58029794      1.00000000
     -6.960  0.0000E+00  0.0000E+00
     -6.868  0.0000E+00  0.0000E+00
     -6.776  0.0000E+00  0.0000E+00
     -6.684  0.0000E+00  0.0000E+00
     -6.592  0.0000E+00  0.0000E+00
     -6.500  0.0000E+00  0.0000E+00
     -6.408  0.0000E+00  0.0000E+00
     -6.316  0.0000E+00  0.0000E+00
     -6.224  0.0000E+00  0.0000E+00
     -6.132  0.0000E+00  0.0000E+00
     -6.040  0.0000E+00  0.0000E+00
     -5.948  0.0000E+00  0.0000E+00
     -5.856  0.0000E+00  0.0000E+00
     -5.764  0.2586E-19  0.2380E-20
     -5.672  0.1771E-01  0.1630E-02
     -5.580  0.8999E-01  0.1175E-01
     -5.488  0.1461E+00  0.2807E-01
     -5.396  0.1703E+00  0.4735E-01
     -5.304  0.2145E+00  0.7074E-01
     -5.212  0.2280E+00  0.9570E-01
     -5.120  0.2771E+00  0.1252E+00
     -5.028  0.3452E+00  0.1581E+00
     -4.936  0.3073E+00  0.1888E+00
     -4.844  0.3397E+00  0.2245E+00
     -4.752  0.3381E+00  0.2617E+00
     -4.660  0.3853E+00  0.3028E+00
     -4.568  0.4587E+00  0.3476E+00
     -4.476  0.3902E+00  0.3881E+00
     -4.384  0.4912E+00  0.4351E+00
     -4.292  0.4035E+00  0.4807E+00
     -4.200  0.5012E+00  0.5354E+00
     -4.108  0.4985E+00  0.5853E+00
     -4.016  0.5558E+00  0.6431E+00
     -3.924  0.5321E+00  0.6997E+00
     -3.832  0.5396E+00  0.7579E+00
     -3.740  0.5961E+00  0.8209E+00
     -3.648  0.5524E+00  0.8797E+00
     -3.556  0.6678E+00  0.9528E+00
     -3.464  0.6298E+00  0.1020E+01
     -3.372  0.7073E+00  0.1094E+01
     -3.280  0.7634E+00  0.1170E+01
     -3.188  0.7352E+00  0.1248E+01
     -3.096  0.8458E+00  0.1333E+01
     -3.004  0.7065E+00  0.1414E+01
     -2.912  0.9020E+00  0.1510E+01
     -2.820  0.8507E+00  0.1604E+01
     -2.728  0.9573E+00  0.1710E+01
     -2.636  0.1072E+01  0.1821E+01
     -2.544  0.1102E+01  0.1936E+01
     -2.452  0.1350E+01  0.2073E+01
     -2.360  0.1321E+01  0.2213E+01
     -2.268  0.1598E+01  0.2379E+01
     -2.176  0.1894E+01  0.2575E+01
     -2.084  0.2316E+01  0.2820E+01
     -1.992  0.3025E+01  0.3149E+01
     -1.900  0.3602E+01  0.3528E+01
     -1.808  0.4817E+01  0.4016E+01
     -1.716  0.5656E+01  0.4610E+01
     -1.624  0.5845E+01  0.5237E+01
     -1.532  0.6767E+01  0.5957E+01
     -1.439  0.9705E+01  0.6978E+01
     -1.347  0.1167E+02  0.8202E+01
     -1.255  0.1156E+02  0.9458E+01
     -1.163  0.1094E+02  0.1062E+02
     -1.071  0.1165E+02  0.1185E+02
     -0.979  0.1226E+02  0.1313E+02
     -0.887  0.1589E+02  0.1480E+02
     -0.795  0.1789E+02  0.1667E+02
     -0.703  0.2056E+02  0.1882E+02
     -0.611  0.2409E+02  0.2136E+02
     -0.519  0.2307E+02  0.2388E+02
     -0.427  0.1567E+02  0.2557E+02
     -0.335  0.1474E+02  0.2713E+02
     -0.243  0.2012E+02  0.2920E+02
     -0.151  0.2176E+02  0.3150E+02
     -0.059  0.1855E+02  0.3347E+02
      0.033  0.1848E+02  0.3542E+02
      0.125  0.2404E+02  0.3793E+02
      0.217  0.3018E+02  0.4115E+02
      0.309  0.5814E+01  0.4186E+02
      0.401  0.2055E+01  0.4209E+02
      0.493  0.1756E+01  0.4228E+02
      0.585  0.1672E+01  0.4246E+02
      0.677  0.1562E+01  0.4262E+02
      0.769  0.1522E+01  0.4278E+02
      0.861  0.1105E+01  0.4291E+02
      0.953  0.1411E+01  0.4307E+02
      1.045  0.1443E+01  0.4322E+02
      1.137  0.1130E+01  0.4334E+02
      1.229  0.1433E+01  0.4349E+02
      1.321  0.1155E+01  0.4361E+02
      1.413  0.1362E+01  0.4376E+02
      1.505  0.1173E+01  0.4388E+02
      1.597  0.1346E+01  0.4402E+02
      1.689  0.1135E+01  0.4415E+02
      1.781  0.1308E+01  0.4428E+02
      1.873  0.1146E+01  0.4440E+02
      1.965  0.1180E+01  0.4453E+02
      2.057  0.1113E+01  0.4465E+02
      2.149  0.1155E+01  0.4477E+02
      2.241  0.1221E+01  0.4489E+02
      2.333  0.1097E+01  0.4501E+02
      2.425  0.1120E+01  0.4512E+02
      2.517  0.1031E+01  0.4523E+02
      2.609  0.1122E+01  0.4536E+02
      2.701  0.8709E+00  0.4546E+02
      2.793  0.1070E+01  0.4557E+02
      2.885  0.1002E+01  0.4568E+02
      2.977  0.9764E+00  0.4579E+02
      3.069  0.1042E+01  0.4590E+02
      3.161  0.1017E+01  0.4600E+02
      3.253  0.8939E+00  0.4610E+02
      3.345  0.9985E+00  0.4621E+02
      3.437  0.9196E+00  0.4631E+02
      3.529  0.9797E+00  0.4641E+02
      3.621  0.9627E+00  0.4651E+02
      3.713  0.9052E+00  0.4661E+02
      3.805  0.7838E+00  0.4669E+02
      3.897  0.9721E+00  0.4679E+02
      3.989  0.8149E+00  0.4688E+02
      4.081  0.8993E+00  0.4697E+02
      4.173  0.1040E+01  0.4708E+02
      4.265  0.1292E+01  0.4722E+02
      4.357  0.1194E+01  0.4734E+02
      4.449  0.1142E+01  0.4747E+02
      4.541  0.1301E+01  0.4760E+02
      4.633  0.1105E+01  0.4773E+02
      4.725  0.1218E+01  0.4786E+02
      4.817  0.1238E+01  0.4799E+02
      4.909  0.1198E+01  0.4811E+02
      5.001  0.1352E+01  0.4825E+02
      5.093  0.9911E+00  0.4836E+02
      5.186  0.1266E+01  0.4849E+02
      5.278  0.1140E+01  0.4861E+02
      5.370  0.1163E+01  0.4873E+02
      5.462  0.9274E+00  0.4884E+02
      5.554  0.1236E+01  0.4897E+02
      5.646  0.1076E+01  0.4908E+02
      5.738  0.1263E+01  0.4921E+02
      5.830  0.8820E+00  0.4931E+02
      5.922  0.1131E+01  0.4942E+02
      6.014  0.1084E+01  0.4954E+02
      6.106  0.1015E+01  0.4965E+02
      6.198  0.1014E+01  0.4976E+02
      6.290  0.8688E+00  0.4986E+02
      6.382  0.1033E+01  0.4997E+02
      6.474  0.9918E+00  0.5008E+02
      6.566  0.1016E+01  0.5018E+02
      6.658  0.9541E+00  0.5028E+02
      6.750  0.1120E+01  0.5040E+02
      6.842  0.9655E+00  0.5049E+02
      6.934  0.1124E+01  0.5062E+02
      7.026  0.1297E+01  0.5075E+02
      7.118  0.1099E+01  0.5087E+02
      7.210  0.1385E+01  0.5102E+02
      7.302  0.1382E+01  0.5117E+02
      7.394  0.1110E+01  0.5129E+02
      7.486  0.1405E+01  0.5143E+02
      7.578  0.1490E+01  0.5158E+02
      7.670  0.1307E+01  0.5172E+02
      7.762  0.1291E+01  0.5185E+02
      7.854  0.1414E+01  0.5199E+02
      7.946  0.1390E+01  0.5215E+02
      8.038  0.1432E+01  0.5230E+02
      8.130  0.1356E+01  0.5244E+02
      8.222  0.1431E+01  0.5259E+02
      8.314  0.1397E+01  0.5274E+02
      8.406  0.1310E+01  0.5288E+02
      8.498  0.1337E+01  0.5303E+02
      8.590  0.1453E+01  0.5318E+02
      8.682  0.1467E+01  0.5333E+02
      8.774  0.1399E+01  0.5348E+02
      8.866  0.1446E+01  0.5364E+02
      8.958  0.1241E+01  0.5377E+02
      9.050  0.1513E+01  0.5393E+02
      9.142  0.1551E+01  0.5409E+02
      9.234  0.1647E+01  0.5426E+02
      9.326  0.1326E+01  0.5440E+02
      9.418  0.1331E+01  0.5454E+02
      9.510  0.1386E+01  0.5468E+02
      9.602  0.1521E+01  0.5484E+02
      9.694  0.1777E+01  0.5503E+02
      9.786  0.1320E+01  0.5517E+02
      9.878  0.1474E+01  0.5532E+02
      9.970  0.1427E+01  0.5547E+02
     10.062  0.1497E+01  0.5563E+02
     10.154  0.1477E+01  0.5579E+02
     10.246  0.1612E+01  0.5596E+02
     10.338  0.1638E+01  0.5613E+02
     10.430  0.1394E+01  0.5628E+02
     10.522  0.1391E+01  0.5643E+02
     10.614  0.1460E+01  0.5659E+02
     10.706  0.1687E+01  0.5676E+02
     10.798  0.1487E+01  0.5693E+02
     10.890  0.1623E+01  0.5711E+02
     10.982  0.1363E+01  0.5726E+02
     11.074  0.1490E+01  0.5741E+02
     11.166  0.1806E+01  0.5760E+02
     11.258  0.1446E+01  0.5776E+02
     11.350  0.1424E+01  0.5791E+02
     11.442  0.1848E+01  0.5811E+02
     11.534  0.1587E+01  0.5828E+02
     11.626  0.1474E+01  0.5843E+02
     11.719  0.1709E+01  0.5861E+02
     11.811  0.1687E+01  0.5879E+02
     11.903  0.1574E+01  0.5896E+02
     11.995  0.1663E+01  0.5914E+02
     12.087  0.1715E+01  0.5932E+02
     12.179  0.1716E+01  0.5950E+02
     12.271  0.1792E+01  0.5968E+02
     12.363  0.1833E+01  0.5988E+02
     12.455  0.1720E+01  0.6005E+02
     12.547  0.1881E+01  0.6025E+02
     12.639  0.1638E+01  0.6042E+02
     12.731  0.1937E+01  0.6062E+02
     12.823  0.1580E+01  0.6079E+02
     12.915  0.1750E+01  0.6097E+02
     13.007  0.1452E+01  0.6113E+02
     13.099  0.1507E+01  0.6128E+02
     13.191  0.1466E+01  0.6143E+02
     13.283  0.1355E+01  0.6158E+02
     13.375  0.1311E+01  0.6172E+02
     13.467  0.1100E+01  0.6184E+02
     13.559  0.1306E+01  0.6198E+02
     13.651  0.1053E+01  0.6209E+02
     13.743  0.8240E+00  0.6218E+02
     13.835  0.9586E+00  0.6229E+02
     13.927  0.7728E+00  0.6237E+02
     14.019  0.7463E+00  0.6245E+02
     14.111  0.7721E+00  0.6253E+02
     14.203  0.7600E+00  0.6262E+02
     14.295  0.6672E+00  0.6269E+02
     14.387  0.7010E+00  0.6276E+02
     14.479  0.6584E+00  0.6283E+02
     14.571  0.5432E+00  0.6289E+02
     14.663  0.6099E+00  0.6295E+02
     14.755  0.4599E+00  0.6301E+02
     14.847  0.5473E+00  0.6307E+02
     14.939  0.5274E+00  0.6312E+02
     15.031  0.4207E+00  0.6317E+02
     15.123  0.3716E+00  0.6321E+02
     15.215  0.4988E+00  0.6326E+02
     15.307  0.4250E+00  0.6331E+02
     15.399  0.3323E+00  0.6334E+02
     15.491  0.4088E+00  0.6338E+02
     15.583  0.3805E+00  0.6342E+02
     15.675  0.2641E+00  0.6345E+02
     15.767  0.2923E+00  0.6348E+02
     15.859  0.3206E+00  0.6351E+02
     15.951  0.3020E+00  0.6354E+02
     16.043  0.3058E+00  0.6357E+02
     16.135  0.1915E+00  0.6360E+02
     16.227  0.2684E+00  0.6362E+02
     16.319  0.2113E+00  0.6364E+02
     16.411  0.2424E+00  0.6367E+02
     16.503  0.1893E+00  0.6369E+02
     16.595  0.1132E+00  0.6371E+02
     16.687  0.2460E+00  0.6373E+02
     16.779  0.2261E+00  0.6375E+02
     16.871  0.1986E+00  0.6377E+02
     16.963  0.9147E-01  0.6378E+02
     17.055  0.1781E+00  0.6380E+02
     17.147  0.1959E+00  0.6382E+02
     17.239  0.9187E-01  0.6383E+02
     17.331  0.1588E+00  0.6385E+02
     17.423  0.3901E-01  0.6386E+02
     17.515  0.1900E+00  0.6388E+02
     17.607  0.9077E-01  0.6389E+02
     17.699  0.1191E+00  0.6390E+02
     17.791  0.3888E-01  0.6390E+02
     17.883  0.1342E+00  0.6392E+02
     17.975  0.1011E+00  0.6393E+02
     18.067  0.8883E-01  0.6394E+02
     18.159  0.3618E-01  0.6394E+02
     18.252  0.1130E+00  0.6395E+02
     18.344  0.7193E-01  0.6396E+02
     18.436  0.3472E-01  0.6396E+02
     18.528  0.3231E-01  0.6397E+02
     18.620  0.6032E-01  0.6397E+02
     18.712  0.3355E-01  0.6398E+02
     18.804  0.3727E-01  0.6398E+02
     18.896  0.5525E-01  0.6399E+02
     18.988  0.3354E-01  0.6399E+02
     19.080  0.1125E-01  0.6399E+02
     19.172  0.4115E-01  0.6400E+02
     19.264  0.1947E-01  0.6400E+02
     19.356  0.1615E-01  0.6400E+02
     19.448  0.1863E-02  0.6400E+02
     19.540  0.0000E+00  0.6400E+02
     19.632  0.0000E+00  0.6400E+02
     19.724  0.0000E+00  0.6400E+02
     19.816  0.0000E+00  0.6400E+02
     19.908  0.0000E+00  0.6400E+02
     20.000  0.0000E+00  0.6400E+02
     20.092  0.0000E+00  0.6400E+02
     20.184  0.0000E+00  0.6400E+02
     20.276  0.0000E+00  0.6400E+02
     20.368  0.0000E+00  0.6400E+02
     20.460  0.0000E+00  0.6400E+02
     20.552  0.0000E+00  0.6400E+02
     20.644  0.0000E+00  0.6400E+02
