    4    4    1    1
  0.1600608E+02  0.4000507E-09  0.4000507E-09  0.4000507E-09  0.5000000E-15
  1.000000000000000E-004
  CAR 
 unknown system                          
   44 1330   32
 
  0.0000000E+00  0.0000000E+00  0.0000000E+00  0.2143347E-04
   1       -5.7056
   2       -1.8477
   3       -1.8477
   4       -1.8477
   5       -1.5602
   6       -1.5602
   7       -1.5602
   8       -0.7006
   9       -0.7006
  10       -0.7006
  11       -0.1858
  12       -0.1858
  13        0.1585
  14        0.1585
  15        0.1585
  16        0.2545
  17        0.2545
  18        0.2545
  19        0.2545
  20        0.2545
  21        0.2545
  22        3.2950
  23        3.2950
  24        3.2950
  25        6.7849
  26        6.7849
  27        6.7849
  28       12.5350
  29       12.5350
  30       12.5350
  31       12.5350
  32       12.5350
 
  0.2777778E-01  0.0000000E+00  0.0000000E+00  0.1286008E-03
   1       -5.6980
   2       -1.8480
   3       -1.8446
   4       -1.8446
   5       -1.5586
   6       -1.5585
   7       -1.5585
   8       -0.7022
   9       -0.6991
  10       -0.6991
  11       -0.1873
  12       -0.1851
  13        0.1566
  14        0.1566
  15        0.1579
  16        0.2455
  17        0.2455
  18        0.2522
  19        0.2522
  20        0.2545
  21        0.2545
  22        3.2238
  23        3.3111
  24        3.3111
  25        6.7884
  26        6.7884
  27        6.8721
  28       12.4749
  29       12.4749
  30       12.4904
  31       12.4905
  32       12.5454
 
  0.5555556E-01  0.0000000E+00  0.0000000E+00  0.1286008E-03
   1       -5.6753
   2       -1.8491
   3       -1.8355
   4       -1.8355
   5       -1.5538
   6       -1.5534
   7       -1.5534
   8       -0.7073
   9       -0.6949
  10       -0.6949
  11       -0.1919
  12       -0.1832
  13        0.1507
  14        0.1507
  15        0.1559
  16        0.2191
  17        0.2191
  18        0.2451
  19        0.2451
  20        0.2545
  21        0.2545
  22        3.0289
  23        3.3588
  24        3.3588
  25        6.7991
  26        6.7991
  27        7.1151
  28       12.3062
  29       12.3062
  30       12.3632
  31       12.3632
  32       12.5766
 
  0.8333333E-01  0.0000000E+00  0.0000000E+00  0.1286008E-03
   1       -5.6375
   2       -1.8515
   3       -1.8205
   4       -1.8205
   5       -1.5459
   6       -1.5448
   7       -1.5448
   8       -0.7156
   9       -0.6878
  10       -0.6878
  11       -0.1994
  12       -0.1800
  13        0.1410
  14        0.1410
  15        0.1526
  16        0.1770
  17        0.1770
  18        0.2336
  19        0.2336
  20        0.2546
  21        0.2546
  22        2.7499
  23        3.4366
  24        3.4366
  25        6.8169
  26        6.8169
  27        7.4747
  28       12.0558
  29       12.0558
  30       12.1691
  31       12.1691
  32       12.6285
 
  0.1111111E+00  0.0000000E+00  0.0000000E+00  0.1286008E-03
   1       -5.5847
   2       -1.8559
   3       -1.7999
   4       -1.7999
   5       -1.5349
   6       -1.5329
   7       -1.5329
   8       -0.7271
   9       -0.6779
  10       -0.6779
  11       -0.2098
  12       -0.1755
  13        0.1214
  14        0.1214
  15        0.1276
  16        0.1276
  17        0.1480
  18        0.2176
  19        0.2176
  20        0.2546
  21        0.2546
  22        2.4234
  23        3.5421
  24        3.5421
  25        6.8420
  26        6.8420
  27        7.9152
  28       11.7507
  29       11.7507
  30       11.9268
  31       11.9268
  32       12.7009
 
  0.1388889E+00  0.0000000E+00  0.0000000E+00  0.1286008E-03
   1       -5.5169
   2       -1.8636
   3       -1.7739
   4       -1.7739
   5       -1.5209
   6       -1.5174
   7       -1.5174
   8       -0.7418
   9       -0.6652
  10       -0.6652
  11       -0.2229
  12       -0.1699
  13        0.0550
  14        0.0550
  15        0.1105
  16        0.1105
  17        0.1422
  18        0.1974
  19        0.1974
  20        0.2546
  21        0.2546
  22        2.0748
  23        3.6726
  24        3.6726
  25        6.8746
  26        6.8746
  27        8.4121
  28       11.4118
  29       11.4118
  30       11.6533
  31       11.6533
  32       12.7935
 
  0.1666667E+00  0.0000000E+00  0.0000000E+00  0.1286008E-03
   1       -5.4343
   2       -1.8764
   3       -1.7431
   4       -1.7431
   5       -1.5040
   6       -1.4985
   7       -1.4985
   8       -0.7595
   9       -0.6498
  10       -0.6498
  11       -0.2386
  12       -0.1630
  13       -0.0197
  14       -0.0197
  15        0.0900
  16        0.0900
  17        0.1351
  18        0.1734
  19        0.1734
  20        0.2546
  21        0.2546
  22        1.7210
  23        3.8254
  24        3.8254
  25        6.9149
  26        6.9149
  27        8.9502
  28       11.0533
  29       11.0533
  30       11.3620
  31       11.3620
  32       12.9060
 
  0.1944444E+00  0.0000000E+00  0.0000000E+00  0.1286008E-03
   1       -5.3370
   2       -1.8966
   3       -1.7080
   4       -1.7080
   5       -1.4843
   6       -1.4760
   7       -1.4760
   8       -0.7801
   9       -0.6317
  10       -0.6317
  11       -0.2566
  12       -0.1550
  13       -0.1001
  14       -0.1001
  15        0.0663
  16        0.0663
  17        0.1270
  18        0.1458
  19        0.1458
  20        0.2547
  21        0.2547
  22        1.3734
  23        3.9981
  24        3.9981
  25        6.9632
  26        6.9632
  27        9.5201
  28       10.6842
  29       10.6842
  30       11.0626
  31       11.0626
  32       13.0380
 
  0.2222222E+00  0.0000000E+00  0.0000000E+00  0.1286008E-03
   1       -5.2253
   2       -1.9275
   3       -1.6692
   4       -1.6692
   5       -1.4620
   6       -1.4500
   7       -1.4500
   8       -0.8034
   9       -0.6110
  10       -0.6110
  11       -0.2767
  12       -0.1843
  13       -0.1843
  14       -0.1460
  15        0.0397
  16        0.0397
  17        0.1149
  18        0.1149
  19        0.1177
  20        0.2547
  21        0.2547
  22        1.0409
  23        4.1887
  24        4.1887
  25        7.0197
  26        7.0197
  27       10.1161
  28       10.3107
  29       10.3107
  30       10.7624
  31       10.7624
  32       13.1891
 
  0.2500000E+00  0.0000000E+00  0.0000000E+00  0.1286008E-03
   1       -5.0994
   2       -1.9732
   3       -1.6277
   4       -1.6277
   5       -1.4372
   6       -1.4203
   7       -1.4203
   8       -0.8292
   9       -0.5877
  10       -0.5877
  11       -0.2984
  12       -0.2706
  13       -0.2706
  14       -0.1360
  15        0.0108
  16        0.0108
  17        0.0813
  18        0.0813
  19        0.1075
  20        0.2547
  21        0.2547
  22        0.7312
  23        4.3953
  24        4.3953
  25        7.0848
  26        7.0848
  27        9.9365
  28        9.9365
  29       10.4664
  30       10.4664
  31       10.7342
  32       13.3589
 
  0.2777778E+00  0.0000000E+00  0.0000000E+00  0.1286008E-03
   1       -4.9596
   2       -2.0385
   3       -1.5843
   4       -1.5843
   5       -1.4100
   6       -1.3870
   7       -1.3870
   8       -0.8574
   9       -0.5620
  10       -0.5620
  11       -0.3575
  12       -0.3575
  13       -0.3214
  14       -0.1250
  15       -0.0199
  16       -0.0199
  17        0.0452
  18        0.0452
  19        0.0963
  20        0.2548
  21        0.2548
  22        0.4515
  23        4.6165
  24        4.6165
  25        7.1585
  26        7.1585
  27        9.5644
  28        9.5644
  29       10.1783
  30       10.1783
  31       11.3719
  32       13.5467
 
  0.3055556E+00  0.0000000E+00  0.0000000E+00  0.1286008E-03
   1       -4.8063
   2       -2.1285
   3       -1.5403
   4       -1.5403
   5       -1.3808
   6       -1.3499
   7       -1.3499
   8       -0.8876
   9       -0.5338
  10       -0.5338
  11       -0.4440
  12       -0.4440
  13       -0.3452
  14       -0.1132
  15       -0.0516
  16       -0.0516
  17        0.0071
  18        0.0071
  19        0.0843
  20        0.2081
  21        0.2548
  22        0.2548
  23        4.8510
  24        4.8510
  25        7.2412
  26        7.2412
  27        9.1962
  28        9.1962
  29        9.9012
  30        9.9012
  31       12.0274
  32       13.7522
 
  0.3333333E+00  0.0000000E+00  0.0000000E+00  0.1286008E-03
   1       -4.6400
   2       -2.2468
   3       -1.4969
   4       -1.4969
   5       -1.3496
   6       -1.3091
   7       -1.3091
   8       -0.9197
   9       -0.5292
  10       -0.5292
  11       -0.5035
  12       -0.5035
  13       -0.3690
  14       -0.1006
  15       -0.0834
  16       -0.0834
  17       -0.0326
  18       -0.0326
  19        0.0059
  20        0.0715
  21        0.2548
  22        0.2548
  23        5.0980
  24        5.0980
  25        7.3327
  26        7.3327
  27        8.8332
  28        8.8332
  29        9.6372
  30        9.6372
  31       12.6993
  32       13.9747
 
  0.3611111E+00  0.0000000E+00  0.0000000E+00  0.1286008E-03
   1       -4.4613
   2       -2.3947
   3       -1.4557
   4       -1.4557
   5       -1.3167
   6       -1.2645
   7       -1.2645
   8       -0.9533
   9       -0.6124
  10       -0.6124
  11       -0.4710
  12       -0.4710
  13       -0.3921
  14       -0.1534
  15       -0.1141
  16       -0.1141
  17       -0.0874
  18       -0.0735
  19       -0.0735
  20        0.0581
  21        0.2549
  22        0.2549
  23        5.3566
  24        5.3566
  25        7.4326
  26        7.4326
  27        8.4763
  28        8.4763
  29        9.3888
  30        9.3888
  31       13.3866
  32       14.2138
 
  0.3888889E+00  0.0000000E+00  0.0000000E+00  0.1286008E-03
   1       -4.2711
   2       -2.5696
   3       -1.4183
   4       -1.4183
   5       -1.2824
   6       -1.2161
   7       -1.2161
   8       -0.9883
   9       -0.6931
  10       -0.6931
  11       -0.4365
  12       -0.4365
  13       -0.4136
  14       -0.2718
  15       -0.1425
  16       -0.1425
  17       -0.1151
  18       -0.1151
  19       -0.0736
  20        0.0442
  21        0.2549
  22        0.2549
  23        5.6261
  24        5.6261
  25        7.5398
  26        7.5398
  27        8.1263
  28        8.1263
  29        9.1584
  30        9.1584
  31       14.0884
  32       14.4690
 
  0.4166667E+00  0.0000000E+00  0.0000000E+00  0.1286008E-03
   1       -4.0704
   2       -2.7664
   3       -1.3866
   4       -1.3866
   5       -1.2469
   6       -1.1638
   7       -1.1638
   8       -1.0244
   9       -0.7708
  10       -0.7708
  11       -0.4322
  12       -0.4002
  13       -0.4002
  14       -0.3545
  15       -0.1668
  16       -0.1668
  17       -0.1572
  18       -0.1572
  19       -0.0593
  20        0.0298
  21        0.2549
  22        0.2549
  23        5.9062
  24        5.9062
  25        7.6511
  26        7.6511
  27        7.7837
  28        7.7837
  29        8.9502
  30        8.9502
  31       14.7396
  32       14.7407
 
  0.4444444E+00  0.0000000E+00  0.0000000E+00  0.1286008E-03
   1       -3.8606
   2       -2.9782
   3       -1.3623
   4       -1.3623
   5       -1.2105
   6       -1.1077
   7       -1.1077
   8       -1.0612
   9       -0.8454
  10       -0.8454
  11       -0.4464
  12       -0.4079
  13       -0.3623
  14       -0.3623
  15       -0.1994
  16       -0.1994
  17       -0.1857
  18       -0.1857
  19       -0.0447
  20        0.0151
  21        0.2549
  22        0.2549
  23        6.1962
  24        6.1962
  25        7.4490
  26        7.4490
  27        7.7595
  28        7.7595
  29        8.7720
  30        8.7720
  31       15.0252
  32       15.0252
 
  0.4722222E+00  0.0000000E+00  0.0000000E+00  0.1286008E-03
   1       -3.6436
   2       -3.1985
   3       -1.3470
   4       -1.3470
   5       -1.1735
   6       -1.0985
   7       -1.0477
   8       -1.0477
   9       -0.9165
  10       -0.9165
  11       -0.4541
  12       -0.4388
  13       -0.3230
  14       -0.3230
  15       -0.2413
  16       -0.2413
  17       -0.1977
  18       -0.1977
  19       -0.0299
  20        0.0001
  21        0.2549
  22        0.2549
  23        6.4959
  24        6.4959
  25        7.1226
  26        7.1226
  27        7.8481
  28        7.8481
  29        8.6414
  30        8.6414
  31       15.3254
  32       15.3254
 
  0.5000000E+00  0.0000000E+00  0.0000000E+00  0.6430041E-04
   1       -3.4218
   2       -3.4218
   3       -1.3417
   4       -1.3417
   5       -1.1360
   6       -1.1360
   7       -0.9839
   8       -0.9839
   9       -0.9839
  10       -0.9839
  11       -0.4527
  12       -0.4527
  13       -0.2826
  14       -0.2826
  15       -0.2826
  16       -0.2826
  17       -0.2018
  18       -0.2018
  19       -0.0149
  20       -0.0149
  21        0.2549
  22        0.2549
  23        6.8048
  24        6.8048
  25        6.8048
  26        6.8048
  27        7.8850
  28        7.8850
  29        8.5904
  30        8.5904
  31       15.6395
  32       15.6395
 
  0.2777778E-01  0.2777778E-01  0.0000000E+00  0.2572016E-03
   1       -5.6905
   2       -1.8449
   3       -1.8449
   4       -1.8416
   5       -1.5569
   6       -1.5569
   7       -1.5568
   8       -0.7032
   9       -0.6985
  10       -0.6977
  11       -0.1877
  12       -0.1856
  13        0.1546
  14        0.1558
  15        0.1558
  16        0.2382
  17        0.2432
  18        0.2432
  19        0.2522
  20        0.2522
  21        0.2530
  22        3.2397
  23        3.2397
  24        3.3271
  25        6.7920
  26        6.8758
  27        6.8758
  28       12.3147
  29       12.4852
  30       12.4852
  31       12.5008
  32       12.5008
 
  0.5555556E-01  0.2777778E-01  0.0000000E+00  0.5144033E-03
   1       -5.6678
   2       -1.8460
   3       -1.8358
   4       -1.8325
   5       -1.5521
   6       -1.5518
   7       -1.5517
   8       -0.7078
   9       -0.6946
  10       -0.6935
  11       -0.1918
  12       -0.1840
  13        0.1488
  14        0.1496
  15        0.1536
  16        0.2129
  17        0.2170
  18        0.2363
  19        0.2451
  20        0.2522
  21        0.2522
  22        3.0445
  23        3.2870
  24        3.3746
  25        6.8026
  26        6.8870
  27        7.1193
  28       12.0721
  29       12.3163
  30       12.3734
  31       12.5161
  32       12.5260
 
  0.8333333E-01  0.2777778E-01  0.0000000E+00  0.5144033E-03
   1       -5.6300
   2       -1.8483
   3       -1.8208
   4       -1.8176
   5       -1.5443
   6       -1.5433
   7       -1.5432
   8       -0.7160
   9       -0.6876
  10       -0.6865
  11       -0.1993
  12       -0.1808
  13        0.1386
  14        0.1391
  15        0.1498
  16        0.1713
  17        0.1760
  18        0.2249
  19        0.2336
  20        0.2520
  21        0.2522
  22        2.7654
  23        3.3640
  24        3.4520
  25        6.8205
  26        6.9058
  27        7.4794
  28       11.7772
  29       12.0656
  30       12.1789
  31       12.3985
  32       12.5679
 
  0.1111111E+00  0.2777778E-01  0.0000000E+00  0.5144033E-03
   1       -5.5772
   2       -1.8527
   3       -1.8001
   4       -1.7970
   5       -1.5333
   6       -1.5313
   7       -1.5313
   8       -0.7275
   9       -0.6778
  10       -0.6767
  11       -0.2096
  12       -0.1763
  13        0.1114
  14        0.1163
  15        0.1257
  16        0.1339
  17        0.1443
  18        0.2094
  19        0.2176
  20        0.2519
  21        0.2522
  22        2.4388
  23        3.4682
  24        3.5570
  25        6.8456
  26        6.9324
  27        7.9202
  28       11.4488
  29       11.7603
  30       11.9364
  31       12.1993
  32       12.6395
 
  0.1388889E+00  0.2777778E-01  0.0000000E+00  0.5144033E-03
   1       -5.5094
   2       -1.8603
   3       -1.7740
   4       -1.7712
   5       -1.5193
   6       -1.5159
   7       -1.5159
   8       -0.7421
   9       -0.6651
  10       -0.6642
  11       -0.2227
  12       -0.1706
  13        0.0491
  14        0.0504
  15        0.1087
  16        0.1125
  17        0.1369
  18        0.1902
  19        0.1974
  20        0.2519
  21        0.2522
  22        2.0905
  23        3.5969
  24        3.6870
  25        6.8783
  26        6.9668
  27        8.4174
  28       11.1005
  29       11.4212
  30       11.6626
  31       11.9493
  32       12.7313
 
  0.1666667E+00  0.2777778E-01  0.0000000E+00  0.5144033E-03
   1       -5.4268
   2       -1.8730
   3       -1.7431
   4       -1.7405
   5       -1.5025
   6       -1.4971
   7       -1.4970
   8       -0.7597
   9       -0.6497
  10       -0.6490
  11       -0.2383
  12       -0.1637
  13       -0.0249
  14       -0.0237
  15        0.0883
  16        0.0913
  17        0.1266
  18        0.1685
  19        0.1734
  20        0.2519
  21        0.2523
  22        1.7372
  23        3.7475
  24        3.8393
  25        6.9187
  26        7.0094
  27        8.9557
  28       10.7417
  29       11.0625
  30       11.3711
  31       11.6679
  32       12.8439
 
  0.1944444E+00  0.2777778E-01  0.0000000E+00  0.5144033E-03
   1       -5.3296
   2       -1.8930
   3       -1.7078
   4       -1.7055
   5       -1.4828
   6       -1.4746
   7       -1.4746
   8       -0.7803
   9       -0.6317
  10       -0.6311
  11       -0.2561
  12       -0.1556
  13       -0.1052
  14       -0.1036
  15        0.0647
  16        0.0674
  17        0.1111
  18        0.1457
  19        0.1469
  20        0.2519
  21        0.2523
  22        1.3908
  23        3.9175
  24        4.0115
  25        6.9670
  26        7.0604
  27        9.5257
  28       10.3784
  29       10.6934
  30       11.0715
  31       11.3693
  32       12.9749
 
  0.2222222E+00  0.2777778E-01  0.0000000E+00  0.5144033E-03
   1       -5.2179
   2       -1.9238
   3       -1.6690
   4       -1.6668
   5       -1.4605
   6       -1.4486
   7       -1.4486
   8       -0.8035
   9       -0.6110
  10       -0.6107
  11       -0.2760
  12       -0.1893
  13       -0.1873
  14       -0.1464
  15        0.0383
  16        0.0407
  17        0.0870
  18        0.1149
  19        0.1289
  20        0.2520
  21        0.2523
  22        1.0602
  23        4.1047
  24        4.2015
  25        7.0236
  26        7.1202
  27       10.0147
  28       10.1217
  29       10.3198
  30       10.7711
  31       11.0634
  32       13.1299
 
  0.2500000E+00  0.2777778E-01  0.0000000E+00  0.5144033E-03
   1       -5.0921
   2       -1.9693
   3       -1.6273
   4       -1.6254
   5       -1.4357
   6       -1.4191
   7       -1.4190
   8       -0.8293
   9       -0.5879
  10       -0.5877
  11       -0.2975
  12       -0.2755
  13       -0.2731
  14       -0.1362
  15        0.0095
  16        0.0118
  17        0.0543
  18        0.0812
  19        0.1143
  20        0.2520
  21        0.2523
  22        0.7537
  23        4.3072
  24        4.4077
  25        7.0886
  26        7.1890
  27        9.6534
  28        9.9456
  29       10.4750
  30       10.7398
  31       10.7576
  32       13.2918
 
  0.2777778E+00  0.2777778E-01  0.0000000E+00  0.5144033E-03
   1       -4.9523
   2       -2.0343
   3       -1.5837
   4       -1.5822
   5       -1.4086
   6       -1.3859
   7       -1.3858
   8       -0.8573
   9       -0.5627
  10       -0.5619
  11       -0.3623
  12       -0.3596
  13       -0.3201
  14       -0.1251
  15       -0.0211
  16       -0.0190
  17        0.0145
  18        0.0452
  19        0.1007
  20        0.2521
  21        0.2523
  22        0.4799
  23        4.5236
  24        4.6284
  25        7.1623
  26        7.2671
  27        9.2962
  28        9.5735
  29       10.1870
  30       10.4568
  31       11.3774
  32       13.4773
 
  0.3055556E+00  0.2777778E-01  0.0000000E+00  0.5144033E-03
   1       -4.7991
   2       -2.1240
   3       -1.5395
   4       -1.5382
   5       -1.3794
   6       -1.3491
   7       -1.3488
   8       -0.8875
   9       -0.5354
  10       -0.5338
  11       -0.4487
  12       -0.4457
  13       -0.3431
  14       -0.1131
  15       -0.0527
  16       -0.0507
  17       -0.0347
  18        0.0071
  19        0.0864
  20        0.2496
  21        0.2521
  22        0.2524
  23        4.7527
  24        4.8626
  25        7.2447
  26        7.3546
  27        8.9446
  28        9.2053
  29        9.9101
  30       10.1649
  31       12.0327
  32       13.6898
 
  0.3333333E+00  0.2777778E-01  0.0000000E+00  0.5144033E-03
   1       -4.6328
   2       -2.2420
   3       -1.4959
   4       -1.4949
   5       -1.3483
   6       -1.3086
   7       -1.3081
   8       -0.9195
   9       -0.5337
  10       -0.5305
  11       -0.5066
  12       -0.5034
  13       -0.3655
  14       -0.1035
  15       -0.1004
  16       -0.0843
  17       -0.0826
  18       -0.0326
  19        0.0584
  20        0.0916
  21        0.2522
  22        0.2524
  23        4.9935
  24        5.1092
  25        7.3353
  26        7.4514
  27        8.5997
  28        8.8423
  29        9.6466
  30        9.8848
  31       12.7042
  32       13.9010
 
  0.3611111E+00  0.2777778E-01  0.0000000E+00  0.5144033E-03
   1       -4.4543
   2       -2.3896
   3       -1.4545
   4       -1.4536
   5       -1.3156
   6       -1.2644
   7       -1.2636
   8       -0.9530
   9       -0.6167
  10       -0.6133
  11       -0.4776
  12       -0.4709
  13       -0.3854
  14       -0.2005
  15       -0.1149
  16       -0.1133
  17       -0.0869
  18       -0.0735
  19       -0.0300
  20        0.0633
  21        0.2522
  22        0.2524
  23        5.2449
  24        5.3675
  25        7.4324
  26        7.5571
  27        8.2637
  28        8.4855
  29        9.3991
  30        9.6193
  31       13.3906
  32       14.1371
 
  0.3888889E+00  0.2777778E-01  0.0000000E+00  0.5144033E-03
   1       -4.2642
   2       -2.5643
   3       -1.4169
   4       -1.4162
   5       -1.2813
   6       -1.2165
   7       -1.2152
   8       -0.9880
   9       -0.6971
  10       -0.6937
  11       -0.4540
  12       -0.4365
  13       -0.3962
  14       -0.2972
  15       -0.1430
  16       -0.1417
  17       -0.1152
  18       -0.0921
  19       -0.0729
  20        0.0478
  21        0.2523
  22        0.2524
  23        5.5065
  24        5.6368
  25        7.5270
  26        7.6699
  27        7.9450
  28        8.1356
  29        9.1706
  30        9.3708
  31       14.0894
  32       14.3901
 
  0.4166667E+00  0.2777778E-01  0.0000000E+00  0.5144033E-03
   1       -4.0636
   2       -2.7608
   3       -1.3849
   4       -1.3844
   5       -1.2459
   6       -1.1648
   7       -1.1631
   8       -1.0239
   9       -0.7746
  10       -0.7712
  11       -0.4497
  12       -0.4002
  13       -0.3830
  14       -0.3712
  15       -0.1672
  16       -0.1662
  17       -0.1573
  18       -0.1423
  19       -0.0584
  20        0.0327
  21        0.2523
  22        0.2524
  23        5.7774
  24        5.9165
  25        7.5147
  26        7.7467
  27        7.7857
  28        7.7931
  29        8.9665
  30        9.1427
  31       14.6547
  32       14.6647
 
  0.4444444E+00  0.2777778E-01  0.0000000E+00  0.5144033E-03
   1       -3.8539
   2       -2.9723
   3       -1.3604
   4       -1.3600
   5       -1.2096
   6       -1.1092
   7       -1.1071
   8       -1.0606
   9       -0.8488
  10       -0.8455
  11       -0.4576
  12       -0.4205
  13       -0.3623
  14       -0.3515
  15       -0.1995
  16       -0.1883
  17       -0.1859
  18       -0.1852
  19       -0.0436
  20        0.0175
  21        0.2523
  22        0.2524
  23        6.0572
  24        6.2064
  25        7.2461
  26        7.4585
  27        7.8131
  28        7.8942
  29        8.7980
  30        8.9409
  31       14.9360
  32       14.9558
 
  0.4722222E+00  0.2777778E-01  0.0000000E+00  0.5144033E-03
   1       -3.6370
   2       -3.1924
   3       -1.3449
   4       -1.3447
   5       -1.1726
   6       -1.0979
   7       -1.0498
   8       -1.0473
   9       -0.9195
  10       -0.9164
  11       -0.4636
  12       -0.4492
  13       -0.3231
  14       -0.3142
  15       -0.2414
  16       -0.2321
  17       -0.1977
  18       -0.1973
  19       -0.0284
  20        0.0022
  21        0.2524
  22        0.2524
  23        6.3452
  24        6.5058
  25        6.9424
  26        7.1322
  27        7.9117
  28        7.9709
  29        8.6905
  30        8.7781
  31       15.2313
  32       15.2540
 
  0.5000000E+00  0.2777778E-01  0.0000000E+00  0.2572016E-03
   1       -3.4154
   2       -3.4154
   3       -1.3395
   4       -1.3395
   5       -1.1353
   6       -1.1353
   7       -0.9865
   8       -0.9865
   9       -0.9837
  10       -0.9837
  11       -0.4622
  12       -0.4622
  13       -0.2826
  14       -0.2826
  15       -0.2741
  16       -0.2741
  17       -0.2016
  18       -0.2016
  19       -0.0132
  20       -0.0132
  21        0.2524
  22        0.2524
  23        6.6407
  24        6.6407
  25        6.8145
  26        6.8145
  27        7.9779
  28        7.9779
  29        8.6823
  30        8.6823
  31       15.5399
  32       15.5448
 
  0.5555556E-01  0.5555556E-01  0.0000000E+00  0.2572016E-03
   1       -5.6451
   2       -1.8368
   3       -1.8368
   4       -1.8236
   5       -1.5471
   6       -1.5471
   7       -1.5466
   8       -0.7109
   9       -0.6922
  10       -0.6894
  11       -0.1935
  12       -0.1848
  13        0.1430
  14        0.1463
  15        0.1463
  16        0.1912
  17        0.2108
  18        0.2108
  19        0.2452
  20        0.2452
  21        0.2484
  22        3.0908
  23        3.0908
  24        3.4214
  25        6.8133
  26        7.1319
  27        7.1319
  28       11.7618
  29       12.3466
  30       12.3466
  31       12.4037
  32       12.4037
 
  0.8333333E-01  0.5555556E-01  0.0000000E+00  0.5144033E-03
   1       -5.6073
   2       -1.8390
   3       -1.8216
   4       -1.8088
   5       -1.5392
   6       -1.5386
   7       -1.5382
   8       -0.7180
   9       -0.6862
  10       -0.6827
  11       -0.1997
  12       -0.1826
  13        0.1313
  14        0.1335
  15        0.1403
  16        0.1528
  17        0.1732
  18        0.2008
  19        0.2335
  20        0.2452
  21        0.2462
  22        2.8109
  23        3.1660
  24        3.4977
  25        6.8313
  26        7.1529
  27        7.4934
  28       11.4192
  29       12.0951
  30       12.2085
  31       12.3970
  32       12.4543
 
  0.1111111E+00  0.5555556E-01  0.0000000E+00  0.5144033E-03
   1       -5.5546
   2       -1.8431
   3       -1.8007
   4       -1.7885
   5       -1.5284
   6       -1.5267
   7       -1.5264
   8       -0.7290
   9       -0.6769
  10       -0.6732
  11       -0.2095
  12       -0.1783
  13        0.0952
  14        0.1001
  15        0.1203
  16        0.1311
  17        0.1394
  18        0.1879
  19        0.2175
  20        0.2452
  21        0.2452
  22        2.4841
  23        3.2675
  24        3.6013
  25        6.8566
  26        7.1826
  27        7.9354
  28       11.0582
  29       11.7891
  30       11.9651
  31       12.4672
  32       12.4961
 
  0.1388889E+00  0.5555556E-01  0.0000000E+00  0.5144033E-03
   1       -5.4869
   2       -1.8505
   3       -1.7744
   4       -1.7629
   5       -1.5145
   6       -1.5114
   7       -1.5111
   8       -0.7433
   9       -0.6645
  10       -0.6611
  11       -0.2222
  12       -0.1725
  13        0.0337
  14        0.0363
  15        0.1035
  16        0.1167
  17        0.1175
  18        0.1732
  19        0.1974
  20        0.2446
  21        0.2452
  22        2.1364
  23        3.3926
  24        3.7298
  25        6.8894
  26        7.2211
  27        8.4334
  28       10.6882
  29       11.4495
  30       11.6905
  31       12.3117
  32       12.5570
 
  0.1666667E+00  0.5555556E-01  0.0000000E+00  0.5144033E-03
   1       -5.4044
   2       -1.8627
   3       -1.7432
   4       -1.7325
   5       -1.4977
   6       -1.4927
   7       -1.4924
   8       -0.7606
   9       -0.6492
  10       -0.6465
  11       -0.2374
  12       -0.1654
  13       -0.0399
  14       -0.0359
  15        0.0834
  16        0.0945
  17        0.0981
  18        0.1584
  19        0.1733
  20        0.2444
  21        0.2452
  22        1.7847
  23        3.5383
  24        3.8805
  25        6.9300
  26        7.2687
  27        8.9721
  28       10.3152
  29       11.0903
  30       11.3983
  31       12.0747
  32       12.6660
 
  0.1944444E+00  0.5555556E-01  0.0000000E+00  0.5144033E-03
   1       -5.3073
   2       -1.8824
   3       -1.7076
   4       -1.6979
   5       -1.4782
   6       -1.4704
   7       -1.4702
   8       -0.7809
   9       -0.6312
  10       -0.6293
  11       -0.2549
  12       -0.1570
  13       -0.1200
  14       -0.1141
  15        0.0601
  16        0.0701
  17        0.0718
  18        0.1441
  19        0.1457
  20        0.2442
  21        0.2451
  22        1.4409
  23        3.7021
  24        4.0512
  25        6.9785
  26        7.3257
  27        9.5424
  28        9.9436
  29       10.7209
  30       11.0982
  31       11.8047
  32       12.7937
 
  0.2222222E+00  0.5555556E-01  0.0000000E+00  0.5144033E-03
   1       -5.1958
   2       -1.9126
   3       -1.6682
   4       -1.6597
   5       -1.4561
   6       -1.4446
   7       -1.4445
   8       -0.8039
   9       -0.6106
  10       -0.6098
  11       -0.2743
  12       -0.2040
  13       -0.1962
  14       -0.1474
  15        0.0340
  16        0.0386
  17        0.0433
  18        0.1148
  19        0.1302
  20        0.2442
  21        0.2451
  22        1.1147
  23        3.8820
  24        4.2399
  25        7.0352
  26        7.3923
  27        9.5762
  28       10.1385
  29       10.3471
  30       10.7974
  31       11.5162
  32       12.9398
 
  0.2500000E+00  0.5555556E-01  0.0000000E+00  0.5144033E-03
   1       -5.0701
   2       -1.9574
   3       -1.6261
   4       -1.6187
   5       -1.4314
   6       -1.4153
   7       -1.4151
   8       -0.8294
   9       -0.5882
  10       -0.5874
  11       -0.2950