 running on    4 nodes
 distr:  one band on    1 nodes,    4 groups
 vasp.4.6.28 25Jul05 complex 
 POSCAR found :  1 types and    4 ions
 LDA part: xc-table for Pade appr. of Perdew
 POSCAR, INCAR and KPOINTS ok, starting setup
 FFT: planning ...           1
 reading WAVECAR
 WARNING: random wavefunctions but no delay for mixing, default for NELMDL
 entering main loop
       N       E                     dE             d eps       ncg     rms          rms(c)
DAV:   1     0.455210109117E+03    0.45521E+03   -0.26948E+04  4704   0.208E+03
DAV:   2     0.439743641265E+01   -0.45081E+03   -0.42786E+03  4728   0.466E+02
DAV:   3    -0.113533223791E+02   -0.15751E+02   -0.15536E+02  5144   0.103E+02
DAV:   4    -0.114804977581E+02   -0.12718E+00   -0.12708E+00  4944   0.878E+00
DAV:   5    -0.114809909184E+02   -0.49316E-03   -0.49313E-03  5008   0.496E-01    0.463E+00
DAV:   6    -0.108361063253E+02    0.64488E+00   -0.26140E+00  4888   0.166E+01    0.912E-01
DAV:   7    -0.108279071526E+02    0.81992E-02   -0.41190E-02  4852   0.148E+00    0.524E-01
DAV:   8    -0.108237653487E+02    0.41418E-02   -0.50453E-03  4892   0.758E-01    0.378E-02
DAV:   9    -0.108238700152E+02   -0.10467E-03   -0.21149E-04  4952   0.119E-01    0.242E-02
DAV:  10    -0.108238671191E+02    0.28961E-05   -0.20021E-05  4876   0.371E-02    0.384E-03
DAV:  11    -0.108238664653E+02    0.65378E-06   -0.12965E-06  4956   0.925E-03    0.603E-04
DAV:  12    -0.108238659637E+02    0.50161E-06   -0.43900E-08  4440   0.176E-03    0.140E-04
DAV:  13    -0.108238659443E+02    0.19390E-07   -0.76704E-10  2520   0.254E-04    0.831E-05
DAV:  14    -0.108238659543E+02   -0.99226E-08   -0.53036E-10  2496   0.218E-04
   1 F= -.10823866E+02 E0= -.10823857E+02  d E =-.175137E-04
