   4   4   0   0
  0.2148559E+02  0.4413018E-09  0.4413018E-09  0.4413018E-09  0.5000000E-15
  1.000000000000000E-004
  CAR 
 unknown system                          
     12.12190023     -5.30752994  301      1.80038262      1.00000000
     -5.308  0.0000E+00  0.0000E+00
     -5.249  0.0000E+00  0.0000E+00
     -5.191  0.0000E+00  0.0000E+00
     -5.133  0.0000E+00  0.0000E+00
     -5.075  0.0000E+00  0.0000E+00
     -5.017  0.0000E+00  0.0000E+00
     -4.959  0.0000E+00  0.0000E+00
     -4.901  0.0000E+00  0.0000E+00
     -4.843  0.0000E+00  0.0000E+00
     -4.785  0.0000E+00  0.0000E+00
     -4.727  0.0000E+00  0.0000E+00
     -4.668  0.0000E+00  0.0000E+00
     -4.610  0.0000E+00  0.0000E+00
     -4.552  0.1702E-08  0.9886E-10
     -4.494  0.1989E-01  0.1156E-02
     -4.436  0.1191E+00  0.8073E-02
     -4.378  0.2376E+00  0.2187E-01
     -4.320  0.1596E+00  0.3115E-01
     -4.262  0.1185E+00  0.3803E-01
     -4.204  0.4726E+00  0.6549E-01
     -4.146  0.4832E+00  0.9356E-01
     -4.087  0.3286E-02  0.9375E-01
     -4.029  0.2387E+00  0.1076E+00
     -3.971  0.5975E+00  0.1423E+00
     -3.913  0.4785E+00  0.1701E+00
     -3.855  0.5661E+00  0.2030E+00
     -3.797  0.8991E-01  0.2083E+00
     -3.739  0.1256E+01  0.2812E+00
     -3.681  0.1596E+00  0.2905E+00
     -3.623  0.5659E+00  0.3234E+00
     -3.565  0.5106E+00  0.3531E+00
     -3.506  0.1195E+01  0.4225E+00
     -3.448  0.1489E+01  0.5090E+00
     -3.390  0.4832E+01  0.7897E+00
     -3.332  0.8852E+01  0.1304E+01
     -3.274  0.1105E+02  0.1946E+01
     -3.216  0.1396E+02  0.2757E+01
     -3.158  0.1642E+02  0.3711E+01
     -3.100  0.2357E+02  0.5080E+01
     -3.042  0.2002E+02  0.6243E+01
     -2.984  0.1850E+02  0.7318E+01
     -2.926  0.1815E+02  0.8373E+01
     -2.867  0.1256E+02  0.9103E+01
     -2.809  0.1426E+02  0.9931E+01
     -2.751  0.9596E+01  0.1049E+02
     -2.693  0.1610E+02  0.1142E+02
     -2.635  0.1494E+02  0.1229E+02
     -2.577  0.1640E+02  0.1324E+02
     -2.519  0.1933E+02  0.1437E+02
     -2.461  0.1528E+02  0.1526E+02
     -2.403  0.1328E+02  0.1603E+02
     -2.345  0.1918E+02  0.1714E+02
     -2.286  0.1910E+02  0.1825E+02
     -2.228  0.2993E+02  0.1999E+02
     -2.170  0.2415E+02  0.2139E+02
     -2.112  0.1595E+02  0.2232E+02
     -2.054  0.1799E+02  0.2336E+02
     -1.996  0.1334E+02  0.2414E+02
     -1.938  0.1941E+02  0.2527E+02
     -1.880  0.1512E+02  0.2615E+02
     -1.822  0.1941E+02  0.2727E+02
     -1.764  0.2084E+02  0.2848E+02
     -1.705  0.1897E+02  0.2959E+02
     -1.647  0.2213E+02  0.3087E+02
     -1.589  0.1645E+02  0.3183E+02
     -1.531  0.1621E+02  0.3277E+02
     -1.473  0.1438E+02  0.3361E+02
     -1.415  0.1677E+02  0.3458E+02
     -1.357  0.1720E+02  0.3558E+02
     -1.299  0.2152E+02  0.3683E+02
     -1.241  0.2297E+02  0.3816E+02
     -1.183  0.2941E+02  0.3987E+02
     -1.124  0.1138E+02  0.4053E+02
     -1.066  0.1017E+02  0.4112E+02
     -1.008  0.1473E+01  0.4121E+02
     -0.950  0.1745E+01  0.4131E+02
     -0.892  0.3179E+00  0.4133E+02
     -0.834  0.1194E+00  0.4134E+02
     -0.776  0.4781E+00  0.4136E+02
     -0.718  0.2892E+00  0.4138E+02
     -0.660  0.2557E+01  0.4153E+02
     -0.602  0.1102E+01  0.4159E+02
     -0.543  0.1790E+01  0.4170E+02
     -0.485  0.6866E+00  0.4174E+02
     -0.427  0.2696E+00  0.4175E+02
     -0.369  0.4207E+00  0.4178E+02
     -0.311  0.7596E+00  0.4182E+02
     -0.253  0.1207E+01  0.4189E+02
     -0.195  0.2349E+00  0.4191E+02
     -0.137  0.1232E+01  0.4198E+02
     -0.079  0.1597E+01  0.4207E+02
     -0.021  0.1511E+01  0.4216E+02
      0.037  0.9146E-01  0.4216E+02
      0.096  0.5449E+00  0.4219E+02
      0.154  0.2323E+01  0.4233E+02
      0.212  0.4738E+00  0.4236E+02
      0.270  0.1230E+01  0.4243E+02
      0.328  0.2085E+00  0.4244E+02
      0.386  0.6822E-03  0.4244E+02
      0.444  0.2165E+01  0.4257E+02
      0.502  0.8507E+00  0.4262E+02
      0.560  0.1914E+01  0.4273E+02
      0.618  0.1273E+01  0.4280E+02
      0.677  0.1127E+01  0.4287E+02
      0.735  0.8242E+00  0.4291E+02
      0.793  0.5970E+00  0.4295E+02
      0.851  0.1426E-01  0.4295E+02
      0.909  0.1103E+01  0.4301E+02
      0.967  0.2192E+01  0.4314E+02
      1.025  0.1719E+00  0.4315E+02
      1.083  0.6349E+00  0.4319E+02
      1.141  0.7278E+00  0.4323E+02
      1.199  0.2904E+01  0.4340E+02
      1.258  0.2759E+00  0.4342E+02
      1.316  0.2036E+01  0.4353E+02
      1.374  0.3539E+00  0.4355E+02
      1.432  0.9506E+00  0.4361E+02
      1.490  0.2322E+01  0.4374E+02
      1.548  0.1490E+01  0.4383E+02
      1.606  0.1859E-01  0.4383E+02
      1.664  0.9561E+00  0.4389E+02
      1.722  0.5480E-02  0.4389E+02
      1.780  0.1848E+01  0.4400E+02
      1.839  0.5865E+00  0.4403E+02
      1.897  0.1509E+01  0.4412E+02
      1.955  0.2140E+01  0.4424E+02
      2.013  0.9366E+00  0.4430E+02
      2.071  0.1616E+01  0.4439E+02
      2.129  0.1091E+01  0.4445E+02
      2.187  0.1941E+01  0.4457E+02
      2.245  0.1204E+01  0.4464E+02
      2.303  0.1666E+01  0.4473E+02
      2.361  0.9119E-07  0.4473E+02
      2.420  0.5623E+00  0.4477E+02
      2.478  0.2257E+01  0.4490E+02
      2.536  0.5241E+00  0.4493E+02
      2.594  0.1193E+01  0.4500E+02
      2.652  0.1194E+01  0.4507E+02
      2.710  0.2157E+01  0.4519E+02
      2.768  0.1436E+01  0.4527E+02
      2.826  0.2907E-01  0.4528E+02
      2.884  0.2333E+01  0.4541E+02
      2.942  0.5051E+00  0.4544E+02
      3.000  0.1198E+01  0.4551E+02
      3.059  0.2364E+01  0.4565E+02
      3.117  0.8614E+00  0.4570E+02
      3.175  0.4781E+00  0.4573E+02
      3.233  0.8323E-01  0.4573E+02
      3.291  0.2307E+01  0.4586E+02
      3.349  0.4779E+00  0.4589E+02
      3.407  0.1685E-10  0.4589E+02
      3.465  0.9492E+00  0.4595E+02
      3.523  0.3372E+01  0.4614E+02
      3.581  0.1050E+01  0.4620E+02
      3.640  0.2040E+01  0.4632E+02
      3.698  0.1007E+01  0.4638E+02
      3.756  0.9415E+00  0.4644E+02
      3.814  0.1223E+01  0.4651E+02
      3.872  0.4749E+00  0.4653E+02
      3.930  0.1433E+01  0.4662E+02
      3.988  0.3840E+00  0.4664E+02
      4.046  0.3319E+00  0.4666E+02
      4.104  0.1352E+01  0.4674E+02
      4.162  0.1605E+01  0.4683E+02
      4.221  0.9384E+00  0.4689E+02
      4.279  0.4889E+00  0.4691E+02
      4.337  0.8106E+00  0.4696E+02
      4.395  0.3104E+01  0.4714E+02
      4.453  0.6266E+00  0.4718E+02
      4.511  0.2626E+01  0.4733E+02
      4.569  0.1461E+01  0.4742E+02
      4.627  0.1651E+01  0.4751E+02
      4.685  0.1514E+01  0.4760E+02
      4.743  0.1352E+01  0.4768E+02
      4.802  0.9607E+00  0.4773E+02
      4.860  0.1792E+01  0.4784E+02
      4.918  0.1326E+01  0.4792E+02
      4.976  0.2140E+01  0.4804E+02
      5.034  0.9538E+00  0.4809E+02
      5.092  0.4808E+00  0.4812E+02
      5.150  0.1431E+01  0.4821E+02
      5.208  0.5720E+00  0.4824E+02
      5.266  0.2853E+01  0.4840E+02
      5.324  0.1550E+01  0.4849E+02
      5.383  0.1955E+01  0.4861E+02
      5.441  0.1900E+01  0.4872E+02
      5.499  0.8152E+00  0.4877E+02
      5.557  0.1994E+01  0.4888E+02
      5.615  0.2221E+01  0.4901E+02
      5.673  0.4735E+00  0.4904E+02
      5.731  0.1129E-01  0.4904E+02
      5.789  0.2918E+00  0.4906E+02
      5.847  0.1882E+01  0.4917E+02
      5.905  0.2013E+01  0.4928E+02
      5.964  0.2666E+01  0.4944E+02
      6.022  0.1073E+00  0.4944E+02
      6.080  0.1088E+01  0.4951E+02
      6.138  0.2157E+01  0.4963E+02
      6.196  0.1429E+01  0.4972E+02
      6.254  0.1203E+01  0.4979E+02
      6.312  0.7097E+00  0.4983E+02
      6.370  0.5886E+00  0.4986E+02
      6.428  0.2737E+01  0.5002E+02
      6.486  0.1449E+01  0.5010E+02
      6.544  0.7233E-02  0.5010E+02
      6.603  0.1014E+01  0.5016E+02
      6.661  0.2811E+01  0.5033E+02
      6.719  0.6790E+00  0.5037E+02
      6.777  0.9944E+00  0.5042E+02
      6.835  0.1398E+01  0.5050E+02
      6.893  0.1656E+01  0.5060E+02
      6.951  0.1012E+01  0.5066E+02
      7.009  0.5065E+01  0.5095E+02
      7.067  0.5236E-01  0.5096E+02
      7.125  0.1536E+01  0.5105E+02
      7.184  0.1057E+01  0.5111E+02
      7.242  0.1534E+01  0.5120E+02
      7.300  0.2566E+00  0.5121E+02
      7.358  0.1411E+01  0.5129E+02
      7.416  0.1306E+01  0.5137E+02
      7.474  0.1709E+01  0.5147E+02
      7.532  0.2157E+01  0.5159E+02
      7.590  0.2839E+01  0.5176E+02
      7.648  0.1857E+01  0.5187E+02
      7.706  0.3417E+01  0.5207E+02
      7.765  0.1688E+01  0.5216E+02
      7.823  0.1647E+01  0.5226E+02
      7.881  0.2961E+01  0.5243E+02
      7.939  0.1756E+01  0.5253E+02
      7.997  0.8245E-01  0.5254E+02
      8.055  0.1256E+01  0.5261E+02
      8.113  0.6039E+00  0.5265E+02
      8.171  0.1248E+01  0.5272E+02
      8.229  0.1912E+01  0.5283E+02
      8.287  0.4370E+00  0.5286E+02
      8.346  0.3058E+01  0.5303E+02
      8.404  0.2290E+01  0.5317E+02
      8.462  0.2803E+01  0.5333E+02
      8.520  0.1219E+01  0.5340E+02
      8.578  0.2026E+01  0.5352E+02
      8.636  0.1897E+01  0.5363E+02
      8.694  0.2384E+01  0.5377E+02
      8.752  0.1948E+01  0.5388E+02
      8.810  0.2431E+01  0.5402E+02
      8.868  0.2679E+01  0.5418E+02
      8.927  0.1024E+01  0.5424E+02
      8.985  0.1171E+01  0.5430E+02
      9.043  0.2041E+01  0.5442E+02
      9.101  0.2748E+01  0.5458E+02
      9.159  0.4094E-02  0.5458E+02
      9.217  0.5817E+00  0.5462E+02
      9.275  0.8527E+00  0.5467E+02
      9.333  0.1408E+01  0.5475E+02
      9.391  0.6621E+00  0.5479E+02
      9.449  0.2870E+01  0.5495E+02
      9.507  0.2494E+01  0.5510E+02
      9.566  0.3244E+01  0.5529E+02
      9.624  0.4780E+00  0.5531E+02
      9.682  0.6275E+00  0.5535E+02
      9.740  0.1892E+01  0.5546E+02
      9.798  0.8190E+00  0.5551E+02
      9.856  0.5893E+00  0.5554E+02
      9.914  0.8777E+00  0.5559E+02
      9.972  0.8357E+00  0.5564E+02
     10.030  0.1905E+01  0.5575E+02
     10.088  0.1029E+01  0.5581E+02
     10.147  0.3067E-01  0.5581E+02
     10.205  0.0000E+00  0.5581E+02
     10.263  0.2401E-03  0.5581E+02
     10.321  0.1194E+01  0.5588E+02
     10.379  0.5068E+00  0.5591E+02
     10.437  0.1205E+01  0.5598E+02
     10.495  0.2918E-02  0.5598E+02
     10.553  0.0000E+00  0.5598E+02
     10.611  0.0000E+00  0.5598E+02
     10.669  0.0000E+00  0.5598E+02
     10.728  0.0000E+00  0.5598E+02
     10.786  0.0000E+00  0.5598E+02
     10.844  0.0000E+00  0.5598E+02
     10.902  0.0000E+00  0.5598E+02
     10.960  0.0000E+00  0.5598E+02
     11.018  0.7770E-14  0.5598E+02
     11.076  0.9456E-01  0.5599E+02
     11.134  0.2497E-01  0.5599E+02
     11.192  0.1110E-12  0.5599E+02
     11.250  0.1388E+00  0.5600E+02
     11.309  0.2057E-01  0.5600E+02
     11.367  0.1989E-01  0.5600E+02
     11.425  0.0000E+00  0.5600E+02
     11.483  0.0000E+00  0.5600E+02
     11.541  0.0000E+00  0.5600E+02
     11.599  0.0000E+00  0.5600E+02
     11.657  0.0000E+00  0.5600E+02
     11.715  0.0000E+00  0.5600E+02
     11.773  0.0000E+00  0.5600E+02
     11.831  0.0000E+00  0.5600E+02
     11.890  0.0000E+00  0.5600E+02
     11.948  0.0000E+00  0.5600E+02
     12.006  0.0000E+00  0.5600E+02
     12.064  0.0000E+00  0.5600E+02
     12.122  0.0000E+00  0.5600E+02
