    4    4    1    1
  0.2148559E+02  0.4413018E-09  0.4413018E-09  0.4413018E-09  0.5000000E-15
  1.000000000000000E-004
  CAR 
 unknown system                          
   44   84   28
 
  0.0000000E+00  0.0000000E+00  0.0000000E+00  0.5787037E-03
   1       -4.5153
   2       -3.4801
   3       -3.4801
   4       -3.4801
   5       -3.4147
   6       -3.4147
   7       -3.4147
   8       -2.4225
   9       -2.4225
  10       -2.4225
  11       -1.7410
  12       -1.7410
  13       -1.2361
  14       -1.2361
  15       -1.2361
  16       -1.0759
  17       -1.0759
  18       -1.0759
  19       -1.0759
  20       -1.0759
  21       -1.0759
  22        3.5264
  23        3.5264
  24        3.5264
  25        6.8576
  26        6.8576
  27        6.8576
  28       11.3297
 
  0.8333333E-01  0.0000000E+00  0.0000000E+00  0.3472222E-02
   1       -4.4547
   2       -3.4588
   3       -3.4527
   4       -3.4527
   5       -3.3990
   6       -3.3903
   7       -3.3903
   8       -2.4408
   9       -2.4043
  10       -2.4043
  11       -1.7591
  12       -1.7327
  13       -1.2600
  14       -1.2600
  15       -1.2450
  16       -1.1537
  17       -1.1537
  18       -1.1055
  19       -1.1055
  20       -1.0759
  21       -1.0759
  22        3.0214
  23        3.6584
  24        3.6584
  25        6.8729
  26        6.8729
  27        7.4667
  28       11.0704
 
  0.1666667E+00  0.0000000E+00  0.0000000E+00  0.3472222E-02
   1       -4.2758
   2       -3.3977
   3       -3.3742
   4       -3.3742
   5       -3.3529
   6       -3.3173
   7       -3.3173
   8       -2.4942
   9       -2.3503
  10       -2.3503
  11       -1.8093
  12       -1.7084
  13       -1.3618
  14       -1.3618
  15       -1.3290
  16       -1.3290
  17       -1.2712
  18       -1.1904
  19       -1.1904
  20       -1.0758
  21       -1.0758
  22        2.0243
  23        4.0284
  24        4.0284
  25        6.9191
  26        6.9191
  27        8.7769
  28       10.4231
 
  0.2500000E+00  0.0000000E+00  0.0000000E+00  0.3472222E-02
   1       -3.9900
   2       -3.3046
   3       -3.2789
   4       -3.2562
   5       -3.2562
   6       -3.1962
   7       -3.1962
   8       -2.5782
   9       -2.2621
  10       -2.2621
  11       -1.8768
  12       -1.6694
  13       -1.6471
  14       -1.6471
  15       -1.4344
  16       -1.4344
  17       -1.3201
  18       -1.3201
  19       -1.3125
  20       -1.0756
  21       -1.0756
  22        0.9691
  23        4.5812
  24        4.5812
  25        6.9970
  26        6.9970
  27        9.5904
  28        9.5904
 
  0.3333333E+00  0.0000000E+00  0.0000000E+00  0.3472222E-02
   1       -3.6289
   2       -3.1958
   3       -3.1810
   4       -3.1206
   5       -3.1206
   6       -3.0282
   7       -3.0282
   8       -2.6859
   9       -2.1428
  10       -2.1428
  11       -1.9616
  12       -1.9616
  13       -1.9248
  14       -1.6183
  15       -1.5577
  16       -1.5577
  17       -1.4801
  18       -1.4801
  19       -1.3660
  20       -1.0755
  21       -1.0755
  22       -0.0157
  23        5.2655
  24        5.2655
  25        7.1015
  26        7.1015
  27        8.6895
  28        8.6895
 
  0.4166667E+00  0.0000000E+00  0.0000000E+00  0.3472222E-02
   1       -3.2794
   2       -3.1030
   3       -3.0652
   4       -3.0043
   5       -3.0043
   6       -2.8153
   7       -2.8153
   8       -2.8090
   9       -2.2729
  10       -2.2729
  11       -1.9970
  12       -1.9970
  13       -1.8592
  14       -1.6652
  15       -1.6652
  16       -1.6552
  17       -1.6552
  18       -1.5583
  19       -1.4277
  20       -1.0754
  21       -1.0754
  22       -0.8697
  23        6.0436
  24        6.0436
  25        7.2088
  26        7.2088
  27        7.7782
  28        7.7782
 
  0.5000000E+00  0.0000000E+00  0.0000000E+00  0.1736111E-02
   1       -3.0953
   2       -3.0953
   3       -2.9564
   4       -2.9564
   5       -2.9384
   6       -2.9384
   7       -2.5613
   8       -2.5613
   9       -2.5613
  10       -2.5613
  11       -1.8314
  12       -1.8314
  13       -1.8314
  14       -1.8314
  15       -1.7099
  16       -1.7099
  17       -1.5185
  18       -1.5185
  19       -1.4933
  20       -1.4933
  21       -1.0754
  22       -1.0754
  23        6.8885
  24        6.8885
  25        6.8885
  26        6.8885
  27        7.2597
  28        7.2597
 
  0.8333333E-01  0.8333333E-01  0.0000000E+00  0.6944444E-02
   1       -4.3949
   2       -3.4326
   3       -3.4313
   4       -3.4313
   5       -3.3750
   6       -3.3750
   7       -3.3597
   8       -2.4468
   9       -2.3980
  10       -2.3872
  11       -1.7637
  12       -1.7362
  13       -1.2829
  14       -1.2800
  15       -1.2800
  16       -1.2068
  17       -1.1722
  18       -1.1722
  19       -1.1056
  20       -1.1056
  21       -1.0968
  22        3.1442
  23        3.1442
  24        3.7867
  25        6.8875
  26        7.4900
  27        7.4900
  28       10.2944
 
  0.1666667E+00  0.8333333E-01  0.0000000E+00  0.1388889E-01
   1       -4.2186
   2       -3.3707
   3       -3.3696
   4       -3.3524
   5       -3.3298
   6       -3.3030
   7       -3.2732
   8       -2.4931
   9       -2.3497
  10       -2.3369
  11       -1.8069
  12       -1.7133
  13       -1.4316
  14       -1.3955
  15       -1.3494
  16       -1.3462
  17       -1.2966
  18       -1.2177
  19       -1.1907
  20       -1.1070
  21       -1.1058
  22        2.1415
  23        3.4842
  24        4.1479
  25        6.9299
  26        7.5599
  27        8.8016
  28        9.4178
 
  0.2500000E+00  0.8333333E-01  0.0000000E+00  0.1388889E-01
   1       -3.9375
   2       -3.2756
   3       -3.2678
   4       -3.2573
   5       -3.2336
   6       -3.1836
   7       -3.1421
   8       -2.5736
   9       -2.2629
  10       -2.2586
  11       -1.8664
  12       -1.7003
  13       -1.6693
  14       -1.6683
  15       -1.4623
  16       -1.4511
  17       -1.4149
  18       -1.3207
  19       -1.2752
  20       -1.1089
  21       -1.1061
  22        1.0891
  23        3.9821
  24        4.6909
  25        6.9889
  26        7.6725
  27        8.5691
  28        9.6756
 
  0.3333333E+00  0.8333333E-01  0.0000000E+00  0.1388889E-01
   1       -3.5834
   2       -3.1651
   3       -3.1616
   4       -3.1338
   5       -3.0970
   6       -3.0180
   7       -2.9795
   8       -2.6782
   9       -2.1738
  10       -2.1440
  11       -2.0032
  12       -1.9730
  13       -1.8837
  14       -1.6173
  15       -1.6095
  16       -1.5702
  17       -1.5438
  18       -1.4811
  19       -1.3414
  20       -1.1090
  21       -1.1065
  22        0.1142
  23        4.5826
  24        5.3665
  25        6.9826
  26        7.8021
  27        7.8741
  28        8.7739
 
  0.4166667E+00  0.8333333E-01  0.0000000E+00  0.1388889E-01
   1       -3.2408
   2       -3.0698
   3       -3.0483
   4       -3.0017
   5       -2.9807
   6       -2.8085
   7       -2.7982
   8       -2.7921
   9       -2.2998
  10       -2.2766
  11       -2.1071
  12       -1.9984
  13       -1.7966
  14       -1.7529
  15       -1.6726
  16       -1.6578
  17       -1.6565
  18       -1.5318
  19       -1.4168
  20       -1.1085
  21       -1.1071
  22       -0.7197
  23        5.2444
  24        6.1376
  25        6.5976
  26        7.6510
  27        7.8606
  28        7.8638
 
  0.5000000E+00  0.8333333E-01  0.0000000E+00  0.6944444E-02
   1       -3.0595
   2       -3.0595
   3       -2.9379
   4       -2.9379
   5       -2.9245
   6       -2.9245
   7       -2.5674
   8       -2.5674
   9       -2.5590
  10       -2.5590
  11       -1.9799
  12       -1.9799
  13       -1.8328
  14       -1.8328
  15       -1.7105
  16       -1.7105
  17       -1.5173
  18       -1.5173
  19       -1.3245
  20       -1.3245
  21       -1.1078
  22       -1.1078
  23        5.9350
  24        5.9350
  25        6.9775
  26        6.9775
  27        7.7641
  28        7.7641
 
  0.1666667E+00  0.1666667E+00  0.0000000E+00  0.6944444E-02
   1       -4.0504
   2       -3.3342
   3       -3.2892
   4       -3.2892
   5       -3.2608
   6       -3.2608
   7       -3.1705
   8       -2.5107
   9       -2.3263
  10       -2.2983
  11       -1.8239
  12       -1.6992
  13       -1.5491
  14       -1.5491
  15       -1.5207
  16       -1.4088
  17       -1.2883
  18       -1.2883
  19       -1.1917
  20       -1.1917
  21       -1.1583
  22        2.4614
  23        2.4614
  24        4.4879
  25        6.9466
  26        8.4324
  27        8.8653
  28        8.8653
 
  0.2500000E+00  0.1666667E+00  0.0000000E+00  0.1388889E-01
   1       -3.7845
   2       -3.2544
   3       -3.1931
   4       -3.1922
   5       -3.1679
   6       -3.1464
   7       -3.0311
   8       -2.5697
   9       -2.2548
  10       -2.2443
  11       -1.8651
  12       -1.8194
  13       -1.7416
  14       -1.6956
  15       -1.6385
  16       -1.5004
  17       -1.3948
  18       -1.3226
  19       -1.3140
  20       -1.1932
  21       -1.1855
  22        1.4085
  23        2.9230
  24        5.0061
  25        6.8325
  26        7.6906
  27        8.9109
  28        9.9258
 
  0.3333333E+00  0.1666667E+00  0.0000000E+00  0.1388889E-01
   1       -3.4533
   2       -3.1350
   3       -3.1039
   4       -3.0767
   5       -3.0283
   6       -2.9883
   7       -2.8742
   8       -2.6600
   9       -2.2142
  10       -2.1425
  11       -2.1047
  12       -2.0111
  13       -1.8628
  14       -1.8555
  15       -1.6078
  16       -1.5349
  17       -1.5240
  18       -1.4838
  19       -1.3706
  20       -1.1957
  21       -1.1950
  22        0.4432
  23        3.4778
  24        5.6590
  25        6.2539
  26        7.5508
  27        8.7716
  28        9.0214
 
  0.4166667E+00  0.1666667E+00  0.0000000E+00  0.1388889E-01
   1       -3.1332
   2       -2.9986
   3       -2.9930
   4       -2.9739
   5       -2.9120
   6       -2.7891
   7       -2.7683
   8       -2.7239
   9       -2.3683
  10       -2.2896
  11       -2.2274
  12       -2.0382
  13       -1.9999
  14       -1.7326
  15       -1.6970
  16       -1.6596
  17       -1.6474
  18       -1.4560
  19       -1.3562
  20       -1.1986
  21       -1.1969
  22       -0.3775
  23        4.0992
  24        5.5026
  25        6.4117
  26        7.7321
  27        8.1151
  28        8.4143
 
  0.5000000E+00  0.1666667E+00  0.0000000E+00  0.6944444E-02
   1       -2.9579
   2       -2.9579
   3       -2.8891
   4       -2.8891
   5       -2.8841
   6       -2.8841
   7       -2.5756
   8       -2.5756
   9       -2.5535
  10       -2.5535
  11       -2.1833
  12       -2.1833
  13       -1.8356
  14       -1.8356
  15       -1.7175
  16       -1.7175
  17       -1.5753
  18       -1.5753
  19       -1.1984
  20       -1.1984
  21       -0.9935
  22       -0.9935
  23        4.7759
  24        4.7759
  25        7.2377
  26        7.2377
  27        8.0360
  28        8.0360
 
  0.2500000E+00  0.2500000E+00  0.0000000E+00  0.6944444E-02
   1       -3.5473
   2       -3.1998
   3       -3.0871
   4       -3.0871
   5       -3.0660
   6       -3.0660
   7       -2.8898
   8       -2.5897
   9       -2.2197
  10       -2.2129
  11       -1.9667
  12       -1.9667
  13       -1.9005
  14       -1.8841
  15       -1.5779
  16       -1.5334
  17       -1.4052
  18       -1.4052
  19       -1.3254
  20       -1.3254
  21       -1.2578
  22        1.8590
  23        1.8590
  24        5.4938
  25        6.1310
  26        7.5007
  27        9.9664
  28        9.9664
 
  0.3333333E+00  0.2500000E+00  0.0000000E+00  0.1388889E-01
   1       -3.2603
   2       -3.1044
   3       -3.0094
   4       -2.9420
   5       -2.9414
   6       -2.9202
   7       -2.7399
   8       -2.6453
   9       -2.2328
  10       -2.2230
  11       -2.1250
  12       -2.1232
  13       -2.0870
  14       -1.9049
  15       -1.6701
  16       -1.5285
  17       -1.4872
  18       -1.4542
  19       -1.3499
  20       -1.3283
  21       -1.3012
  22        0.8894
  23        2.3973
  24        5.2567
  25        6.1174
  26        7.6477
  27        9.3655
  28        9.4174
 
  0.4166667E+00  0.2500000E+00  0.0000000E+00  0.1388889E-01
   1       -2.9847
   2       -2.9736
   3       -2.9187
   4       -2.8274
   5       -2.8050
   6       -2.7597
   7       -2.7270
   8       -2.6174
   9       -2.4535
  10       -2.3179
  11       -2.2930
  12       -2.2734
  13       -1.9932
  14       -1.8098
  15       -1.7434
  16       -1.6622
  17       -1.6566
  18       -1.5431
  19       -1.3302
  20       -1.3216
  21       -1.0587
  22        0.0575
  23        3.0059
  24        4.4323
  25        6.8452
  26        7.9212
  27        8.5165
  28        8.7869
 
  0.5000000E+00  0.2500000E+00  0.0000000E+00  0.6944444E-02
   1       -2.8338
   2       -2.8338
   3       -2.8217
   4       -2.8217
   5       -2.8126
   6       -2.8126
   7       -2.5557
   8       -2.5557
   9       -2.5483
  10       -2.5483
  11       -2.3468
  12       -2.3468
  13       -1.8354
  14       -1.8354
  15       -1.7440
  16       -1.7440
  17       -1.6686
  18       -1.6686
  19       -1.3291
  20       -1.3291
  21       -0.5992
  22       -0.5992
  23        3.6827
  24        3.6827
  25        7.6520
  26        7.6520
  27        8.3012
  28        8.3012
 
  0.3333333E+00  0.3333333E+00  0.0000000E+00  0.6944444E-02
   1       -3.0433
   2       -3.0385
   3       -2.8812
   4       -2.8812
   5       -2.7836
   6       -2.7836
   7       -2.6520
   8       -2.5976
   9       -2.3666
  10       -2.3666
  11       -2.2134
  12       -2.2092
  13       -2.0667
  14       -1.9664
  15       -1.7489
  16       -1.5728
  17       -1.5728
  18       -1.4894
  19       -1.4894
  20       -1.3902
  21       -1.0701
  22        1.4157
  23        1.4157
  24        4.3097
  25        6.7113
  26        7.8744
  27        9.8660
  28        9.8660
 
  0.4166667E+00  0.3333333E+00  0.0000000E+00  0.1388889E-01
   1       -2.9363
   2       -2.8465
   3       -2.8133
   4       -2.7248
   5       -2.6879
   6       -2.6791
   7       -2.6510
   8       -2.5260
   9       -2.4883
  10       -2.4781
  11       -2.3705
  12       -2.2809
  13       -1.9644
  14       -1.9200
  15       -1.8132
  16       -1.7029
  17       -1.6618
  18       -1.6604
  19       -1.4873
  20       -1.4469
  21       -0.6773
  22        0.5635
  23        2.0144
  24        3.4533
  25        7.4126
  26        8.2050
  27        9.0476
  28        9.1971
 
  0.5000000E+00  0.3333333E+00  0.0000000E+00  0.6944444E-02
   1       -2.8003
   2       -2.8003
   3       -2.7455
   4       -2.7455
   5       -2.6920
   6       -2.6920
   7       -2.5495
   8       -2.5495
   9       -2.4763
  10       -2.4763
  11       -2.4165
  12       -2.4165
  13       -1.8241
  14       -1.8241
  15       -1.8020
  16       -1.8020
  17       -1.7889
  18       -1.7889
  19       -1.4758
  20       -1.4758
  21       -0.1377
  22       -0.1377
  23        2.6905
  24        2.6905
  25        8.1980
  26        8.1980
  27        8.6437
  28        8.6437
 
  0.4166667E+00  0.4166667E+00  0.0000000E+00  0.6944444E-02
   1       -2.8737
   2       -2.7581
   3       -2.6913
   4       -2.6913
   5       -2.6658
   6       -2.6493
   7       -2.6493
   8       -2.4725
   9       -2.4725
  10       -2.4542
  11       -2.3725
  12       -2.2369
  13       -1.9962
  14       -1.8987
  15       -1.8873
  16       -1.7931
  17       -1.7931
  18       -1.6474
  19       -1.6474
  20       -1.5481
  21       -0.1961
  22        1.1445
  23        1.1445
  24        2.5798
  25        8.0891
  26        8.5897
  27        9.6907
  28        9.6945
 
  0.5000000E+00  0.4166667E+00  0.0000000E+00  0.6944444E-02
   1       -2.7793
   2       -2.7793
   3       -2.7005
   4       -2.7005
   5       -2.6684
   6       -2.6684
   7       -2.5659
   8       -2.5659
   9       -2.3544
  10       -2.3544
  11       -2.3261
  12       -2.3261
  13       -1.9160
  14       -1.9160
  15       -1.8926
  16       -1.8926
  17       -1.7902
  18       -1.7902
  19       -1.6136
  20       -1.6136
  21        0.4072
  22        0.4072
  23        1.8126
  24        1.8126
  25        8.8534
  26        8.8534
  27        9.0839
  28        9.0839
 
  0.5000000E+00  0.5000000E+00  0.0000000E+00  0.1736111E-02
   1       -2.7474
   2       -2.7474
   3       -2.7474
   4       -2.7474
   5       -2.6052
   6       -2.6052
   7       -2.6052
   8       -2.6052
   9       -2.2624
  10       -2.2624
  11       -2.2624
  12       -2.2624
  13       -1.9720
  14       -1.9720
  15       -1.9720
  16       -1.9720
  17       -1.7216
  18       -1.7216
  19       -1.7216
  20       -1.7216
  21        1.0530
  22        1.0530
  23        1.0530
  24        1.0530
  25        9.5982
  26        9.5982
  27        9.5982
  28        9.5982
 
  0.8333333E-01  0.8333333E-01  0.8333333E-01  0.4629630E-02
   1       -4.3361
   2       -3.4122
   3       -3.4122
   4       -3.4122
   5       -3.3436
   6       -3.3436
   7       -3.3436
   8       -2.4498
   9       -2.3826
  10       -2.3826
  11       -1.7533
  12       -1.7533
  13       -1.3037
  14       -1.3037
  15       -1.3037
  16       -1.2384
  17       -1.2384
  18       -1.2384
  19       -1.1124
  20       -1.1124
  21       -1.1124
  22        3.2627
  23        3.2627
  24        3.2627
  25        7.5115
  26        7.5115
  27        7.5115
  28       10.3856
 
  0.1666667E+00  0.8333333E-01  0.8333333E-01  0.1388889E-01
   1       -4.1630
   2       -3.3545
   3       -3.3519
   4       -3.3519
   5       -3.2951
   6       -3.2563
   7       -3.2563
   8       -2.4880
   9       -2.3394
  10       -2.3369
  11       -1.7990
  12       -1.7225
  13       -1.4502
  14       -1.4502
  15       -1.3661
  16       -1.3461
  17       -1.3461
  18       -1.3294
  19       -1.1551
  20       -1.1217
  21       -1.1217
  22        2.2533
  23        3.5928
  24        3.5928
  25        7.5706
  26        7.5706
  27        8.8170
  28        9.5170
 
  0.2500000E+00  0.8333333E-01  0.8333333E-01  0.1388889E-01
   1       -3.8881
   2       -3.2707
   3       -3.2502
   4       -3.2502
   5       -3.2133
   6       -3.1253
   7       -3.1253
   8       -2.5631
   9       -2.2621
  10       -2.2603
  11       -1.8508
  12       -1.7160
  13       -1.7160
  14       -1.6734
  15       -1.4702
  16       -1.4676
  17       -1.4459
  18       -1.4459
  19       -1.2162
  20       -1.1283
  21       -1.1283
  22        1.2007
  23        4.0797
  24        4.0797
  25        7.6219
  26        7.6219
  27        8.7237
  28        8.7237
 
  0.3333333E+00  0.8333333E-01  0.8333333E-01  0.1388889E-01
   1       -3.5442
   2       -3.1745
   3       -3.1159
   4       -3.1159
   5       -3.1042
   6       -2.9657
   7       -2.9657
   8       -2.6619
   9       -2.1881
  10       -2.1606
  11       -2.0105
  12       -2.0105
  13       -1.8378
  14       -1.6482
  15       -1.6092
  16       -1.5985
  17       -1.5646
  18       -1.5646
  19       -1.2889
  20       -1.1320
  21       -1.1320
  22        0.2284
  23        4.6706
  24        4.6706
  25        7.3885
  26        7.3885
  27        8.3252
  28        8.3252
 
  0.4166667E+00  0.8333333E-01  0.8333333E-01  0.1388889E-01
   1       -3.2157
   2       -3.0811
   3       -2.9894
   4       -2.9809
   5       -2.9809
   6       -2.7881
   7       -2.7881
   8       -2.7734
   9       -2.2966
  10       -2.2966
  11       -2.1499
  12       -2.0363
  13       -1.8490
  14       -1.7455
  15       -1.6711
  16       -1.6711
  17       -1.6492
  18       -1.5339
  19       -1.3690
  20       -1.1338
  21       -1.1338
  22       -0.6054
  23        5.3253
  24        5.3253
  25        6.7490
  26        6.7490
  27        8.4287
  28        8.4287
 
  0.5000000E+00  0.8333333E-01  0.8333333E-01  0.6944444E-02
   1       -3.0519
   2       -3.0519
   3       -2.9195
   4       -2.9195
   5       -2.8843
   6       -2.8843
   7       -2.6240
   8       -2.6240
   9       -2.5048
  10       -2.5048
  11       -2.0412
  12       -2.0412
  13       -1.8951
  14       -1.8951
  15       -1.7163
  16       -1.7163
  17       -1.4522
  18       -1.4522
  19       -1.2440
  20       -1.2440
  21       -1.1343
  22       -1.1343
  23        5.9346
  24        5.9346
  25        6.1238
  26        6.1238
  27        8.5526
  28        8.5526
 
  0.1666667E+00  0.1666667E+00  0.8333333E-01  0.1388889E-01
   1       -4.0004
   2       -3.3184
   3       -3.2998
   4       -3.2998
   5       -3.2042
   6       -3.2042
   7       -3.1520
   8       -2.4942
   9       -2.3209
  10       -2.3031
  11       -1.8053
  12       -1.7146
  13       -1.5612
  14       -1.5612
  15       -1.5523
  16       -1.4453
  17       -1.3895
  18       -1.3895
  19       -1.1587
  20       -1.1587
  21       -1.1524
  22        2.5613
  23        2.5613
  24        3.8989
  25        7.5474
  26        8.6019
  27        8.8129
  28        8.8129
 
  0.2500000E+00  0.1666667E+00  0.8333333E-01  0.2777778E-01
   1       -3.7457
   2       -3.2409
   3       -3.2253
   4       -3.2023
   5       -3.1162
   6       -3.0731
   7       -3.0130
   8       -2.5409
   9       -2.2602
  10       -2.2500
  11       -1.8370
  12       -1.8279
  13       -1.7750
  14       -1.7059
  15       -1.6523
  16       -1.5281
  17       -1.4901
  18       -1.4632
  19       -1.2101
  20       -1.1795
  21       -1.1780
  22        1.5032
  23        3.0106
  24        4.3578
  25        7.1423
  26        8.2046
  27        8.4711
  28        9.4643
 
  0.3333333E+00  0.1666667E+00  0.8333333E-01  0.2777778E-01
   1       -3.4354
   2       -3.1402
   3       -3.1233
   4       -3.0683
   5       -2.9991
   6       -2.9209
   7       -2.8605
   8       -2.6162
   9       -2.2209
  10       -2.1707
  11       -2.1031
  12       -2.0366
  13       -1.8745
  14       -1.7948
  15       -1.6278
  16       -1.6247
  17       -1.5685
  18       -1.5512
  19       -1.2776
  20       -1.1970
  21       -1.1941
  22        0.5309
  23        3.5559
  24        4.9239
  25        6.3682
  26        7.7480
  27        8.3395
  28        9.5277
 
  0.4166667E+00  0.1666667E+00  0.8333333E-01  0.2777778E-01
   1       -3.1518
   2       -3.0588
   3       -2.9799
   4       -2.9233
   5       -2.8742
   6       -2.7762
   7       -2.7293
   8       -2.6982
   9       -2.3440
  10       -2.2886
  11       -2.2408
  12       -2.0594
  13       -2.0534
  14       -1.7795
  15       -1.7121
  16       -1.6774
  17       -1.6275
  18       -1.3691
  19       -1.3638
  20       -1.2054
  21       -1.2035
  22       -0.3060
  23        4.1715
  24        5.5472
  25        5.5975
  26        6.9854
  27        8.6586
  28        9.4750
 
  0.5000000E+00  0.1666667E+00  0.8333333E-01  0.1388889E-01
   1       -3.0259
   2       -3.0259
   3       -2.8710
   4       -2.8710
   5       -2.7740
   6       -2.7740
   7       -2.6793
   8       -2.6793
   9       -2.4487
  10       -2.4487
  11       -2.2006
  12       -2.2006
  13       -1.9271
  14       -1.9271
  15       -1.7384
  16       -1.7384
  17       -1.4727
  18       -1.4727
  19       -1.2071
  20       -1.2071
  21       -0.9598
  22       -0.9598
  23        4.8470
  24        4.8470
  25        6.2539
  26        6.2539
  27        9.0786
  28        9.0786
 
  0.2500000E+00  0.2500000E+00  0.8333333E-01  0.1388889E-01
   1       -3.5303
   2       -3.1905
   3       -3.1365
   4       -3.1365
   5       -2.9823
   6       -2.9823
   7       -2.8738
   8       -2.5341
   9       -2.2318
  10       -2.2243
  11       -1.9697
  12       -1.9697
  13       -1.9045
  14       -1.8608
  15       -1.6242
  16       -1.5510
  17       -1.5355
  18       -1.5355
  19       -1.2415
  20       -1.2415
  21       -1.2342
  22        1.9383
  23        1.9383
  24        4.7823
  25        6.2348
  26        8.2788
  27        8.9896
  28        8.9896
 
  0.3333333E+00  0.2500000E+00  0.8333333E-01  0.2777778E-01
   1       -3.2834
   2       -3.0994
   3       -3.0654
   4       -3.0095
   5       -2.8582
   6       -2.8366
   7       -2.7326
   8       -2.5570
   9       -2.2237
  10       -2.2188
  11       -2.1669
  12       -2.1225
  13       -2.0925
  14       -1.8363
  15       -1.7119
  16       -1.6569
  17       -1.6135
  18       -1.3682
  19       -1.3171
  20       -1.2783
  21       -1.2771
  22        0.9572
  23        2.4657
  24        5.2931
  25        5.3501
  26        8.1395
  27        8.5420
  28        9.5228
 
  0.4166667E+00  0.2500000E+00  0.8333333E-01  0.2777778E-01
   1       -3.0751
   2       -3.0031
   3       -2.9724
   4       -2.8549
   5       -2.7467
   6       -2.7198
   7       -2.6450
   8       -2.5852
   9       -2.3898
  10       -2.2967
  11       -2.2786
  12       -2.2669
  13       -2.0701
  14       -1.8014
  15       -1.7805
  16       -1.7125
  17       -1.7026
  18       -1.4153
  19       -1.3024
  20       -1.3021
  21       -1.0660
  22        0.1068
  23        3.0677
  24        4.4928
  25        5.9313
  26        7.3439
  27        8.9309
  28       10.0315
 
  0.5000000E+00  0.2500000E+00  0.8333333E-01  0.1388889E-01
   1       -2.9839
   2       -2.9839
   3       -2.8279
   4       -2.8279
   5       -2.6987
   6       -2.6987
   7       -2.6146
   8       -2.6146
   9       -2.3895
  10       -2.3895
  11       -2.3485
  12       -2.3485
  13       -1.9449
  14       -1.9449
  15       -1.7858
  16       -1.7858
  17       -1.5447
  18       -1.5447
  19       -1.3101
  20       -1.3101
  21       -0.5783
  22       -0.5783
  23        3.7418
  24        3.7418
  25        6.6083
  26        6.6083
  27        9.4346
  28        9.4346
 
  0.3333333E+00  0.3333333E+00  0.8333333E-01  0.1388889E-01
   1       -3.1283
   2       -3.0417
   3       -2.9577
   4       -2.9577
   5       -2.7111
   6       -2.7111
   7       -2.6118
   8       -2.5183
   9       -2.3340
  10       -2.3340
  11       -2.1931
  12       -2.1806
  13       -2.1466
  14       -1.8701
  15       -1.8015
  16       -1.7085
  17       -1.7085
  18       -1.3740
  19       -1.3740
  20       -1.3513
  21       -1.0846
  22        1.4717
  23        1.4717
  24        4.3649
  25        5.8223
  26        8.6325
  27        8.6325
  28        8.8636
 
  0.4166667E+00  0.3333333E+00  0.8333333E-01  0.2777778E-01
   1       -3.0063
   2       -2.9509
   3       -2.9270
   4       -2.8363
   5       -2.6678
   6       -2.5689
   7       -2.5582
   8       -2.5067
   9       -2.4293
  10       -2.4007
  11       -2.2591
  12       -2.2548
  13       -2.0767
  14       -1.8667
  15       -1.8348
  16       -1.7871
  17       -1.7827
  18       -1.4883
  19       -1.4163
  20       -1.4045
  21       -0.6797
  22        0.6026
  23        2.0642
  24        3.5031
  25        6.4134
  26        7.8183
  27        9.2257
  28        9.3017
 
  0.5000000E+00  0.3333333E+00  0.8333333E-01  0.1388889E-01
   1       -2.9378
   2       -2.9378
   3       -2.8391
   4       -2.8391
   5       -2.6476
   6       -2.6476
   7       -2.4872
   8       -2.4872
   9       -2.3971
  10       -2.3971
  11       -2.3177
  12       -2.3177
  13       -1.9650
  14       -1.9650
  15       -1.8618
  16       -1.8618
  17       -1.6296
  18       -1.6296
  19       -1.4272
  20       -1.4272
  21       -0.1196
  22       -0.1196
  23        2.7385
  24        2.7385
  25        7.0796
  26        7.0796
  27        9.8549
  28        9.8549
 
  0.4166667E+00  0.4166667E+00  0.8333333E-01  0.1388889E-01
   1       -2.9503
   2       -2.9112
   3       -2.8613
   4       -2.8613
   5       -2.5816
   6       -2.5816
   7       -2.5534
   8       -2.5028
   9       -2.3477
  10       -2.3477
  11       -2.2156
  12       -2.1568
  13       -2.0968
  14       -1.9467
  15       -1.8913
  16       -1.8913
  17       -1.7876
  18       -1.5436
  19       -1.5436
  20       -1.4936
  21       -0.1890
  22        1.1805
  23        1.1805
  24        2.6221
  25        6.9901
  26        8.3962
  27        8.3962
  28        9.7831
 
  0.5000000E+00  0.4166667E+00  0.8333333E-01  0.1388889E-01
   1       -2.9025
   2       -2.9025
   3       -2.8636
   4       -2.8636
   5       -2.5895
   6       -2.5895
   7       -2.5292
   8       -2.5292
   9       -2.2389
  10       -2.2389
  11       -2.2253
  12       -2.2253
  13       -2.0042
  14       -2.0042
  15       -1.9572
  16       -1.9572
  17       -1.6809
  18       -1.6809
  19       -1.5467
  20       -1.5467
  21        0.4282
  22        0.4282
  23        1.8501
  24        1.8501
  25        7.6517
  26        7.6517
  27        9.0690
  28        9.0690
 
  0.5000000E+00  0.5000000E+00  0.8333333E-01  0.3472222E-02
   1       -2.8819
   2       -2.8819
   3       -2.8819
   4       -2.8819
   5       -2.5563
   6       -2.5563
   7       -2.5563
   8       -2.5563
   9       -2.1443
  10       -2.1443
  11       -2.1443
  12       -2.1443
  13       -2.0435
  14       -2.0435
  15       -2.0435
  16       -2.0435
  17       -1.6467
  18       -1.6467
  19       -1.6467
  20       -1.6467
  21        1.0810
  22        1.0810
  23        1.0810
  24        1.0810
  25        8.3158
  26        8.3158
  27        8.3158
  28        8.3158
 
  0.1666667E+00  0.1666667E+00  0.1666667E+00  0.4629630E-02
   1       -3.8560
   2       -3.2747
   3       -3.2747
   4       -3.2747
   5       -3.0958
   6       -3.0958
   7       -3.0958
   8       -2.4603
   9       -2.3027
  10       -2.3027
  11       -1.7528
  12       -1.7528
  13       -1.6426
  14       -1.6426
  15       -1.6426
  16       -1.5362
  17       -1.5362
  18       -1.5362
  19       -1.1507
  20       -1.1507
  21       -1.1507
  22        2.8414
  23        2.8414
  24        2.8414
  25        8.3429
  26        8.3429
  27        8.3429
  28        9.4026
 
  0.2500000E+00  0.1666667E+00  0.1666667E+00  0.1388889E-01