 vasp.4.6.28 25Jul05 complex 
 executed on             LinuxIFC date 2017.01.06  05:45:12
 running on    4 nodes
 distr:  one band on    1 nodes,    4 groups


--------------------------------------------------------------------------------------------------------


 INCAR:
 POTCAR:   PAW_PBE Ag 06Sep2000                   
 POTCAR:   PAW_PBE Ag 06Sep2000                   
   VRHFIN =Ag : s1 d10                                                          
   LEXCH  = PE                                                                  
   EATOM  =  1037.4134 eV,   76.2477 Ry                                         
                                                                                
   TITEL  = PAW_PBE Ag 06Sep2000                                                
   LULTRA =        F    use ultrasoft PP ?                                      
   IUNSCR =        1    unscreen: 0-lin 1-nonlin 2-no                           
   RPACOR =    2.000    partial core radius                                     
   POMASS =  107.868; ZVAL   =   11.000    mass and valenz                      
   RCORE  =    2.400    outmost cutoff radius                                   
   RWIGS  =    2.840; RWIGS  =    1.503    wigner-seitz radius (au A)           
   ENMAX  =  249.846; ENMIN  =  187.385 eV                                      
   RCLOC  =    1.962    cutoff for local pot                                    
   LCOR   =        T    correct aug charges                                     
   LPAW   =        T    paw PP                                                  
   EAUG   =  412.496                                                            
   DEXC   =    -.047                                                            
   RMAX   =    2.917    core radius for proj-oper                               
   RAUG   =    1.300    factor for augmentation sphere                          
   RDEP   =    2.416    radius for radial grids                                 
   QCUT   =   -4.285; QGAM   =    8.570    optimization parameters              
                                                                                
   Description                                                                  
     l     E      TYP  RCUT    TYP  RCUT                                        
     2   .000     23  2.400                                                     
     2   .000     23  2.400                                                     
     0   .000     23  2.400                                                     
     0   .000     23  2.400                                                     
     1  -.200     23  2.400                                                     
     1  1.500     23  2.400                                                     
     3   .000      7   .000                                                     
  local pseudopotential read in
  partial core-charges read in
  atomic valenz-charges read in
  non local Contribution for L=           2  read in
    real space projection operators read in
  non local Contribution for L=           2  read in
    real space projection operators read in
  non local Contribution for L=           0  read in
    real space projection operators read in
  non local Contribution for L=           0  read in
    real space projection operators read in
  non local Contribution for L=           1  read in
    real space projection operators read in
  non local Contribution for L=           1  read in
    real space projection operators read in
    PAW grid and wavefunctions read in
 
   number of l-projection  operators is LMAX  =           6
   number of lm-projection operators is LMMAX =          18
 
 PAW_PBE Ag 06Sep2000                   :
 energy of atom  1       EATOM=-1037.4134
 kinetic energy error for atom=    0.0010 (will be added to EATOM!!)
 
 EXHCAR: internal setup
 exchange correlation table for  LEXCH =        8
   RHO(1)=    0.500       N(1)  =     2000
   RHO(2)=  100.500       N(2)  =     4000
 
 POSCAR: Ag                                      
  positions in direct lattice
  velocities in cartesian coordinates
 


--------------------------------------------------------------------------------------------------------


 ion  position               nearest neighbor table
   1  0.000  0.000  0.000-   2 3.12   3 3.12   4 3.12   3 3.12   4 3.12   2 3.12   4 3.12   4 3.12
                             2 3.12   3 3.12   3 3.12   2 3.12
   2  0.500  0.500  0.000-   1 3.12   3 3.12   4 3.12   3 3.12   4 3.12   1 3.12   3 3.12   3 3.12
                             1 3.12   4 3.12   4 3.12   1 3.12
   3  0.500  0.000  0.500-   1 3.12   2 3.12   4 3.12   1 3.12   2 3.12   2 3.12   4 3.12   2 3.12
                             1 3.12   4 3.12   1 3.12   4 3.12
   4  0.000  0.500  0.500-   1 3.12   2 3.12   3 3.12   1 3.12   2 3.12   1 3.12   3 3.12   1 3.12
                             2 3.12   3 3.12   2 3.12   3 3.12
 
  LATTYP: Found a simple cubic cell.
 ALAT       =     4.4130182685
  
  Lattice vectors:
  
 A1 = (   4.4130182685,   0.0000000000,   0.0000000000)
 A2 = (   0.0000000000,   4.4130182685,   0.0000000000)
 A3 = (   0.0000000000,   0.0000000000,   4.4130182685)
 Subroutine PRICEL returns following result:
 
  LATTYP: Found a face centered cubic cell.
 ALAT       =     4.4130182685
  
  Lattice vectors:
  
 A1 = (   2.2065091343,   2.2065091343,   0.0000000000)
 A2 = (   2.2065091343,   0.0000000000,  -2.2065091343)
 A3 = (   0.0000000000,   2.2065091343,  -2.2065091343)
 
   4 primitive cells build up your supercell.
 

Analysis of symmetry for initial positions (statically):

 Routine SETGRP: Setting up the symmetry group for a 
 simple cubic supercell.


 Subroutine GETGRP returns: Found 48 space group operations
 (whereof 48 operations were pure point group operations)
 out of a pool of 48 trial point group operations.


The static configuration has the point symmetry O_h .

Analysis of symmetry for dynamics (positions and initial velocities):

 Subroutine DYNSYM returns: Found 48 space group operations
 (whereof 48 operations were pure point group operations)
 out of a pool of 48 trial space group operations
 (whereof 48 operations were pure point group operations)
 and found also     4 'primitive' translations


The dynamic configuration has the point symmetry O_h .
 
 
 KPOINTS: Automatic mesh                          

Automatic generation of k-mesh.
 
 Subroutine IBZKPT returns following result:
 ===========================================
 
 Found     84 irreducible k-points:
 
 Following reciprocal coordinates:
            Coordinates               Weight
  0.000000  0.000000  0.000000      1.000000
  0.083333  0.000000  0.000000      6.000000
  0.166667  0.000000  0.000000      6.000000
  0.250000  0.000000  0.000000      6.000000
  0.333333  0.000000  0.000000      6.000000
  0.416667  0.000000  0.000000      6.000000
  0.500000  0.000000  0.000000      3.000000
  0.083333  0.083333  0.000000     12.000000
  0.166667  0.083333  0.000000     24.000000
  0.250000  0.083333  0.000000     24.000000
  0.333333  0.083333  0.000000     24.000000
  0.416667  0.083333  0.000000     24.000000
  0.500000  0.083333  0.000000     12.000000
  0.166667  0.166667  0.000000     12.000000
  0.250000  0.166667  0.000000     24.000000
  0.333333  0.166667  0.000000     24.000000
  0.416667  0.166667  0.000000     24.000000
  0.500000  0.166667  0.000000     12.000000
  0.250000  0.250000  0.000000     12.000000
  0.333333  0.250000  0.000000     24.000000
  0.416667  0.250000  0.000000     24.000000
  0.500000  0.250000  0.000000     12.000000
  0.333333  0.333333  0.000000     12.000000
  0.416667  0.333333  0.000000     24.000000
  0.500000  0.333333  0.000000     12.000000
  0.416667  0.416667  0.000000     12.000000
  0.500000  0.416667  0.000000     12.000000
  0.500000  0.500000  0.000000      3.000000
  0.083333  0.083333  0.083333      8.000000
  0.166667  0.083333  0.083333     24.000000
  0.250000  0.083333  0.083333     24.000000
  0.333333  0.083333  0.083333     24.000000
  0.416667  0.083333  0.083333     24.000000
  0.500000  0.083333  0.083333     12.000000
  0.166667  0.166667  0.083333     24.000000
  0.250000  0.166667  0.083333     48.000000
  0.333333  0.166667  0.083333     48.000000
  0.416667  0.166667  0.083333     48.000000
  0.500000  0.166667  0.083333     24.000000
  0.250000  0.250000  0.083333     24.000000
  0.333333  0.250000  0.083333     48.000000
  0.416667  0.250000  0.083333     48.000000
  0.500000  0.250000  0.083333     24.000000
  0.333333  0.333333  0.083333     24.000000
  0.416667  0.333333  0.083333     48.000000
  0.500000  0.333333  0.083333     24.000000
  0.416667  0.416667  0.083333     24.000000
  0.500000  0.416667  0.083333     24.000000
  0.500000  0.500000  0.083333      6.000000
  0.166667  0.166667  0.166667      8.000000
  0.250000  0.166667  0.166667     24.000000
  0.333333  0.166667  0.166667     24.000000
  0.416667  0.166667  0.166667     24.000000
  0.500000  0.166667  0.166667     12.000000
  0.250000  0.250000  0.166667     24.000000
  0.333333  0.250000  0.166667     48.000000
  0.416667  0.250000  0.166667     48.000000
  0.500000  0.250000  0.166667     24.000000
  0.333333  0.333333  0.166667     24.000000
  0.416667  0.333333  0.166667     48.000000
  0.500000  0.333333  0.166667     24.000000
  0.416667  0.416667  0.166667     24.000000
  0.500000  0.416667  0.166667     24.000000
  0.500000  0.500000  0.166667      6.000000
  0.250000  0.250000  0.250000      8.000000
  0.333333  0.250000  0.250000     24.000000
  0.416667  0.250000  0.250000     24.000000
  0.500000  0.250000  0.250000     12.000000
  0.333333  0.333333  0.250000     24.000000
  0.416667  0.333333  0.250000     48.000000
  0.500000  0.333333  0.250000     24.000000
  0.416667  0.416667  0.250000     24.000000
  0.500000  0.416667  0.250000     24.000000
  0.500000  0.500000  0.250000      6.000000
  0.333333  0.333333  0.333333      8.000000
  0.416667  0.333333  0.333333     24.000000
  0.500000  0.333333  0.333333     12.000000
  0.416667  0.416667  0.333333     24.000000
  0.500000  0.416667  0.333333     24.000000
  0.500000  0.500000  0.333333      6.000000
  0.416667  0.416667  0.416667      8.000000
  0.500000  0.416667  0.416667     12.000000
  0.500000  0.500000  0.416667      6.000000
  0.500000  0.500000  0.500000      1.000000
 
 Following cartesian coordinates:
            Coordinates               Weight
  0.000000  0.000000  0.000000      1.000000
  0.020017  0.000000  0.000000      6.000000
  0.040033  0.000000  0.000000      6.000000
  0.060050  0.000000  0.000000      6.000000
  0.080066  0.000000  0.000000      6.000000
  0.100083  0.000000  0.000000      6.000000
  0.120099  0.000000  0.000000      3.000000
  0.020017  0.020017  0.000000     12.000000
  0.040033  0.020017  0.000000     24.000000
  0.060050  0.020017  0.000000     24.000000
  0.080066  0.020017  0.000000     24.000000
  0.100083  0.020017  0.000000     24.000000
  0.120099  0.020017  0.000000     12.000000
  0.040033  0.040033  0.000000     12.000000
  0.060050  0.040033  0.000000     24.000000
  0.080066  0.040033  0.000000     24.000000
  0.100083  0.040033  0.000000     24.000000
  0.120099  0.040033  0.000000     12.000000
  0.060050  0.060050  0.000000     12.000000
  0.080066  0.060050  0.000000     24.000000
  0.100083  0.060050  0.000000     24.000000
  0.120099  0.060050  0.000000     12.000000
  0.080066  0.080066  0.000000     12.000000
  0.100083  0.080066  0.000000     24.000000
  0.120099  0.080066  0.000000     12.000000
  0.100083  0.100083  0.000000     12.000000
  0.120099  0.100083  0.000000     12.000000
  0.120099  0.120099  0.000000      3.000000
  0.020017  0.020017  0.020017      8.000000
  0.040033  0.020017  0.020017     24.000000
  0.060050  0.020017  0.020017     24.000000
  0.080066  0.020017  0.020017     24.000000
  0.100083  0.020017  0.020017     24.000000
  0.120099  0.020017  0.020017     12.000000
  0.040033  0.040033  0.020017     24.000000
  0.060050  0.040033  0.020017     48.000000
  0.080066  0.040033  0.020017     48.000000
  0.100083  0.040033  0.020017     48.000000
  0.120099  0.040033  0.020017     24.000000
  0.060050  0.060050  0.020017     24.000000
  0.080066  0.060050  0.020017     48.000000
  0.100083  0.060050  0.020017     48.000000
  0.120099  0.060050  0.020017     24.000000
  0.080066  0.080066  0.020017     24.000000
  0.100083  0.080066  0.020017     48.000000
  0.120099  0.080066  0.020017     24.000000
  0.100083  0.100083  0.020017     24.000000
  0.120099  0.100083  0.020017     24.000000
  0.120099  0.120099  0.020017      6.000000
  0.040033  0.040033  0.040033      8.000000
  0.060050  0.040033  0.040033     24.000000
  0.080066  0.040033  0.040033     24.000000
  0.100083  0.040033  0.040033     24.000000
  0.120099  0.040033  0.040033     12.000000
  0.060050  0.060050  0.040033     24.000000
  0.080066  0.060050  0.040033     48.000000
  0.100083  0.060050  0.040033     48.000000
  0.120099  0.060050  0.040033     24.000000
  0.080066  0.080066  0.040033     24.000000
  0.100083  0.080066  0.040033     48.000000
  0.120099  0.080066  0.040033     24.000000
  0.100083  0.100083  0.040033     24.000000
  0.120099  0.100083  0.040033     24.000000
  0.120099  0.120099  0.040033      6.000000
  0.060050  0.060050  0.060050      8.000000
  0.080066  0.060050  0.060050     24.000000
  0.100083  0.060050  0.060050     24.000000
  0.120099  0.060050  0.060050     12.000000
  0.080066  0.080066  0.060050     24.000000
  0.100083  0.080066  0.060050     48.000000
  0.120099  0.080066  0.060050     24.000000
  0.100083  0.100083  0.060050     24.000000
  0.120099  0.100083  0.060050     24.000000
  0.120099  0.120099  0.060050      6.000000
  0.080066  0.080066  0.080066      8.000000
  0.100083  0.080066  0.080066     24.000000
  0.120099  0.080066  0.080066     12.000000
  0.100083  0.100083  0.080066     24.000000
  0.120099  0.100083  0.080066     24.000000
  0.120099  0.120099  0.080066      6.000000
  0.100083  0.100083  0.100083      8.000000
  0.120099  0.100083  0.100083     12.000000
  0.120099  0.120099  0.100083      6.000000
  0.120099  0.120099  0.120099      1.000000
 


--------------------------------------------------------------------------------------------------------




 Dimension of arrays:
   k-Points           NKPTS =     84   number of bands    NBANDS=     28
   number of dos      NEDOS =    301   number of ions     NIONS =      4
   non local maximal  LDIM  =      6   non local SUM 2l+1 LMDIM =     18
   total plane-waves  NPLWV =  64000
   max r-space proj   IRMAX =      1   max aug-charges    IRDMAX= 293087
   dimension x,y,z NGX =    40 NGY =   40 NGZ =   40
   dimension x,y,z NGXF=    80 NGYF=   80 NGZF=   80
   support grid    NGXF=   160 NGYF=  160 NGZF=  160
   ions per type =               4
 NGX,Y,Z   is equivalent  to a cutoff of  15.07, 15.07, 15.07 a.u.
 NGXF,Y,Z  is equivalent  to a cutoff of  30.14, 30.14, 30.14 a.u.


 I would recommend the setting:
   dimension x,y,z NGX =    39 NGY =   39 NGZ =   39
 SYSTEM =  unknown system                          
 POSCAR =  Ag                                      

 Startparameter for this run:
   NWRITE =      2    write-flag & timer
   PREC   = accura    medium, high low
   ISTART =      0    job   : 0-new  1-cont  2-samecut
   ICHARG =      2    charge: 1-file 2-atom 10-const
   ISPIN  =      1    spin polarized calculation?
   LNONCOLLINEAR =      F non collinear calculations
   LSORBIT =      F    spin-orbit coupling
   INIWAV =      1    electr: 0-lowe 1-rand  2-diag
   LASPH  =      F    aspherical Exc in radial PAW
   METAGGA=      F    non-selfconsistent MetaGGA calc.

 Electronic Relaxation 1
   ENCUT  =  750.0 eV  55.12 Ry    7.42 a.u.   9.85  9.85  9.85*2*pi/ulx,y,z
   ENINI  =  750.0     initial cutoff
   ENAUG  =  412.5 eV  augmentation charge cutoff
   NELM   =     60;   NELMIN=  2; NELMDL=  0     # of ELM steps 
   EDIFF  = 0.1E-07   stopping-criterion for ELM
   LREAL  =      F    real-space projection
   LCOMPAT=      F    compatible to vasp.4.4
   LREAL_COMPAT= F    compatible to vasp.4.5.1-3
   GGA_COMPAT  = T    GGA compatible to vasp.4.4-vasp.4.6
   LMAXPAW     = -100 max onsite density
   LMAXMIX     =    2 max onsite mixed and CHGCAR
   VOSKOWN=      0    Vosko Wilk Nusair interpolation
   ROPT   =    0.00000
 Ionic relaxation
   EDIFFG = 0.1E-06   stopping-criterion for IOM
   NSW    =      0    number of steps for IOM
   NBLOCK =      1;   KBLOCK =      1    inner block; outer block 
   IBRION =     -1    ionic relax: 0-MD 1-quasi-New 2-CG
   NFREE  =      0    steps in history (QN), initial steepest desc. (CG)
   ISIF   =      2    stress and relaxation
   IWAVPR =     10    prediction:  0-non 1-charg 2-wave 3-comb
   ISYM   =      2    0-nonsym 1-usesym 2-fastsym
   LCORR  =      T    Harris-Foulkes like correction to forces

   POTIM  =   0.50    time-step for ionic-motion
   TEIN   =    0.0    initial temperature
   TEBEG  =    0.0;   TEEND  =   0.0 temperature during run
   SMASS  =  -3.00    Nose mass-parameter (am)
   estimated Nose-frequenzy (Omega)   =  0.10E-29 period in steps =****** mass=  -0.445E-27a.u.
   NPACO  =    256;   APACO  = 16.0  distance and # of slots for P.C.
   PSTRESS=    0.0 pullay stress

  Mass of Ions in am
   POMASS = 107.87
  Ionic Valenz
   ZVAL   =  11.00
  Atomic Wigner-Seitz radii
   RWIGS  =  -1.00
   NELECT =      44.0000    total number of electrons
   NUPDOWN=      -1.0000    fix difference up-down

 DOS related values:
   EMIN   =  10.00;   EMAX   =-10.00  energy-range for DOS
   ISMEAR =     0;   SIGMA  =   0.01  broadening in eV -4-tet -1-fermi 0-gaus

 Electronic relaxation 2 (details)
   IALGO  =     38    algorithm
   LDIAG  =      T    sub-space diagonalisation
   IMIX   =      4    mixing-type and parameters
     AMIX     =   0.40;   BMIX     =  1.00
     AMIX_MAG =   1.60;   BMIX_MAG =  1.00
     AMIN     =   0.10
     WC   =   100.;   INIMIX=   1;  MIXPRE=   1

 Intra band minimization:
   WEIMIN = 0.0000     energy-eigenvalue tresh-hold
   EBREAK =  0.96E-10  absolut break condition
   DEPER  =   0.30     relativ break condition  

   TIME   =   0.10     timestep for ELM

  volume/ion in A,a.u.               =      21.49       144.99
  Fermi-wavevector in a.u.,eV,Ry     =   1.309654 23.336635  1.715194

 Second variation
   LSECVAR=     F    do a second variation
 
 Write flags
   LWAVE  =      F    write WAVECAR
   LCHARG =      F    write CHGCAR
   LVTOT  =      F    write LOCPOT, local potential
   LELF   =      F    write electronic localiz. function (ELF)
   LORBIT =      0    0 simple, 1 ext, 2 COOP (PROOUT)


 Dipole corrections
   IDIPOL =      0    1-x, 2-y, 3-z
   LDIPOL =      F    correct potential



--------------------------------------------------------------------------------------------------------


 Static calculation
 charge density will be updated during run
 non-spin polarized calculation
 Variant of blocked Davidson
 Davidson routine will perform the subspace rotation
 performe sub-space diagonalisation
    after iterative eigenvector-optimisation
 modified Broyden-mixing scheme, WC =      100.0
 initial mixing is a Kerker type mixing with AMIX =  0.4000 and BMIX =      1.0000
 Hartree-type preconditioning will be used
 using additional bands            6
 reciprocal scheme for non local part
 use partial core corrections
 calculate Harris-corrections to forces 
   (improved forces if not selfconsistent)
 use gradient corrections 
 use of overlap-Matrix (Vanderbilt PP)
 Gauss-broadening in eV      SIGMA  =   0.01


--------------------------------------------------------------------------------------------------------


  energy-cutoff  :      750.00
  volume of cell :       85.94
      direct lattice vectors                 reciprocal lattice vectors
     4.413018269  0.000000000  0.000000000     0.226602280  0.000000000  0.000000000
     0.000000000  4.413018269  0.000000000     0.000000000  0.226602280  0.000000000
     0.000000000  0.000000000  4.413018269     0.000000000  0.000000000  0.226602280

  length of vectors
     4.413018269  4.413018269  4.413018269     0.226602280  0.226602280  0.226602280


 
 k-points in units of 2pi/SCALE and weight: Automatic mesh                          
   0.00000000  0.00000000  0.00000000       0.001
   0.02001653  0.00000000  0.00000000       0.003
   0.04003307  0.00000000  0.00000000       0.003
   0.06004960  0.00000000  0.00000000       0.003
   0.08006614  0.00000000  0.00000000       0.003
   0.10008267  0.00000000  0.00000000       0.003
   0.12009921  0.00000000  0.00000000       0.002
   0.02001653  0.02001653  0.00000000       0.007
   0.04003307  0.02001653  0.00000000       0.014
   0.06004960  0.02001653  0.00000000       0.014
   0.08006614  0.02001653  0.00000000       0.014
   0.10008267  0.02001653  0.00000000       0.014
   0.12009921  0.02001653  0.00000000       0.007
   0.04003307  0.04003307  0.00000000       0.007
   0.06004960  0.04003307  0.00000000       0.014
   0.08006614  0.04003307  0.00000000       0.014
   0.10008267  0.04003307  0.00000000       0.014
   0.12009921  0.04003307  0.00000000       0.007
   0.06004960  0.06004960  0.00000000       0.007
   0.08006614  0.06004960  0.00000000       0.014
   0.10008267  0.06004960  0.00000000       0.014
   0.12009921  0.06004960  0.00000000       0.007
   0.08006614  0.08006614  0.00000000       0.007
   0.10008267  0.08006614  0.00000000       0.014
   0.12009921  0.08006614  0.00000000       0.007
   0.10008267  0.10008267  0.00000000       0.007
   0.12009921  0.10008267  0.00000000       0.007
   0.12009921  0.12009921  0.00000000       0.002
   0.02001653  0.02001653  0.02001653       0.005
   0.04003307  0.02001653  0.02001653       0.014
   0.06004960  0.02001653  0.02001653       0.014
   0.08006614  0.02001653  0.02001653       0.014
   0.10008267  0.02001653  0.02001653       0.014
   0.12009921  0.02001653  0.02001653       0.007
   0.04003307  0.04003307  0.02001653       0.014
   0.06004960  0.04003307  0.02001653       0.028
   0.08006614  0.04003307  0.02001653       0.028
   0.10008267  0.04003307  0.02001653       0.028
   0.12009921  0.04003307  0.02001653       0.014
   0.06004960  0.06004960  0.02001653       0.014
   0.08006614  0.06004960  0.02001653       0.028
   0.10008267  0.06004960  0.02001653       0.028
   0.12009921  0.06004960  0.02001653       0.014
   0.08006614  0.08006614  0.02001653       0.014
   0.10008267  0.08006614  0.02001653       0.028
   0.12009921  0.08006614  0.02001653       0.014
   0.10008267  0.10008267  0.02001653       0.014
   0.12009921  0.10008267  0.02001653       0.014
   0.12009921  0.12009921  0.02001653       0.003
   0.04003307  0.04003307  0.04003307       0.005
   0.06004960  0.04003307  0.04003307       0.014
   0.08006614  0.04003307  0.04003307       0.014
   0.10008267  0.04003307  0.04003307       0.014
   0.12009921  0.04003307  0.04003307       0.007
   0.06004960  0.06004960  0.04003307       0.014
   0.08006614  0.06004960  0.04003307       0.028
   0.10008267  0.06004960  0.04003307       0.028
   0.12009921  0.06004960  0.04003307       0.014
   0.08006614  0.08006614  0.04003307       0.014
   0.10008267  0.08006614  0.04003307       0.028
   0.12009921  0.08006614  0.04003307       0.014
   0.10008267  0.10008267  0.04003307       0.014
   0.12009921  0.10008267  0.04003307       0.014
   0.12009921  0.12009921  0.04003307       0.003
   0.06004960  0.06004960  0.06004960       0.005
   0.08006614  0.06004960  0.06004960       0.014
   0.10008267  0.06004960  0.06004960       0.014
   0.12009921  0.06004960  0.06004960       0.007
   0.08006614  0.08006614  0.06004960       0.014
   0.10008267  0.08006614  0.06004960       0.028
   0.12009921  0.08006614  0.06004960       0.014
   0.10008267  0.10008267  0.06004960       0.014
   0.12009921  0.10008267  0.06004960       0.014
   0.12009921  0.12009921  0.06004960       0.003
   0.08006614  0.08006614  0.08006614       0.005
   0.10008267  0.08006614  0.08006614       0.014
   0.12009921  0.08006614  0.08006614       0.007
   0.10008267  0.10008267  0.08006614       0.014
   0.12009921  0.10008267  0.08006614       0.014
   0.12009921  0.12009921  0.08006614       0.003
   0.10008267  0.10008267  0.10008267       0.005
   0.12009921  0.10008267  0.10008267       0.007
   0.12009921  0.12009921  0.10008267       0.003
   0.12009921  0.12009921  0.12009921       0.001
 
 k-points in reciprocal lattice and weights: Automatic mesh                          
   0.00000000  0.00000000  0.00000000       0.001
   0.08333333  0.00000000  0.00000000       0.003
   0.16666667  0.00000000  0.00000000       0.003
   0.25000000  0.00000000  0.00000000       0.003
   0.33333333  0.00000000  0.00000000       0.003
   0.41666667  0.00000000  0.00000000       0.003
   0.50000000  0.00000000  0.00000000       0.002
   0.08333333  0.08333333  0.00000000       0.007
   0.16666667  0.08333333  0.00000000       0.014
   0.25000000  0.08333333  0.00000000       0.014
   0.33333333  0.08333333  0.00000000       0.014
   0.41666667  0.08333333  0.00000000       0.014
   0.50000000  0.08333333  0.00000000       0.007
   0.16666667  0.16666667  0.00000000       0.007
   0.25000000  0.16666667  0.00000000       0.014
   0.33333333  0.16666667  0.00000000       0.014
   0.41666667  0.16666667  0.00000000       0.014
   0.50000000  0.16666667  0.00000000       0.007
   0.25000000  0.25000000  0.00000000       0.007
   0.33333333  0.25000000  0.00000000       0.014
   0.41666667  0.25000000  0.00000000       0.014
   0.50000000  0.25000000  0.00000000       0.007
   0.33333333  0.33333333  0.00000000       0.007
   0.41666667  0.33333333  0.00000000       0.014
   0.50000000  0.33333333  0.00000000       0.007
   0.41666667  0.41666667  0.00000000       0.007
   0.50000000  0.41666667  0.00000000       0.007
   0.50000000  0.50000000  0.00000000       0.002
   0.08333333  0.08333333  0.08333333       0.005
   0.16666667  0.08333333  0.08333333       0.014
   0.25000000  0.08333333  0.08333333       0.014
   0.33333333  0.08333333  0.08333333       0.014
   0.41666667  0.08333333  0.08333333       0.014
   0.50000000  0.08333333  0.08333333       0.007
   0.16666667  0.16666667  0.08333333       0.014
   0.25000000  0.16666667  0.08333333       0.028
   0.33333333  0.16666667  0.08333333       0.028
   0.41666667  0.16666667  0.08333333       0.028
   0.50000000  0.16666667  0.08333333       0.014
   0.25000000  0.25000000  0.08333333       0.014
   0.33333333  0.25000000  0.08333333       0.028
   0.41666667  0.25000000  0.08333333       0.028
   0.50000000  0.25000000  0.08333333       0.014
   0.33333333  0.33333333  0.08333333       0.014
   0.41666667  0.33333333  0.08333333       0.028
   0.50000000  0.33333333  0.08333333       0.014
   0.41666667  0.41666667  0.08333333       0.014
   0.50000000  0.41666667  0.08333333       0.014
   0.50000000  0.50000000  0.08333333       0.003
   0.16666667  0.16666667  0.16666667       0.005
   0.25000000  0.16666667  0.16666667       0.014
   0.33333333  0.16666667  0.16666667       0.014
   0.41666667  0.16666667  0.16666667       0.014
   0.50000000  0.16666667  0.16666667       0.007
   0.25000000  0.25000000  0.16666667       0.014
   0.33333333  0.25000000  0.16666667       0.028
   0.41666667  0.25000000  0.16666667       0.028
   0.50000000  0.25000000  0.16666667       0.014
   0.33333333  0.33333333  0.16666667       0.014
   0.41666667  0.33333333  0.16666667       0.028
   0.50000000  0.33333333  0.16666667       0.014
   0.41666667  0.41666667  0.16666667       0.014
   0.50000000  0.41666667  0.16666667       0.014
   0.50000000  0.50000000  0.16666667       0.003
   0.25000000  0.25000000  0.25000000       0.005
   0.33333333  0.25000000  0.25000000       0.014
   0.41666667  0.25000000  0.25000000       0.014
   0.50000000  0.25000000  0.25000000       0.007
   0.33333333  0.33333333  0.25000000       0.014
   0.41666667  0.33333333  0.25000000       0.028
   0.50000000  0.33333333  0.25000000       0.014
   0.41666667  0.41666667  0.25000000       0.014
   0.50000000  0.41666667  0.25000000       0.014
   0.50000000  0.50000000  0.25000000       0.003
   0.33333333  0.33333333  0.33333333       0.005
   0.41666667  0.33333333  0.33333333       0.014
   0.50000000  0.33333333  0.33333333       0.007
   0.41666667  0.41666667  0.33333333       0.014
   0.50000000  0.41666667  0.33333333       0.014
   0.50000000  0.50000000  0.33333333       0.003
   0.41666667  0.41666667  0.41666667       0.005
   0.50000000  0.41666667  0.41666667       0.007
   0.50000000  0.50000000  0.41666667       0.003
   0.50000000  0.50000000  0.50000000       0.001
 
 position of ions in fractional coordinates (direct lattice) 
   0.00000000  0.00000000  0.00000000
   0.50000000  0.50000000  0.00000000
   0.50000000  0.00000000  0.50000000
   0.00000000  0.50000000  0.50000000
 
 position of ions in cartesian coordinates  (Angst):
   0.00000000  0.00000000  0.00000000
   2.20650913  2.20650913  0.00000000
   2.20650913  0.00000000  2.20650913
   0.00000000  2.20650913  2.20650913
 


--------------------------------------------------------------------------------------------------------


 k-point  1 :  0.00000.00000.0000  plane waves:   3959
 k-point  2 :  0.08330.00000.0000  plane waves:   3955
 k-point  3 :  0.16670.00000.0000  plane waves:   3988
 k-point  4 :  0.25000.00000.0000  plane waves:   4012
 k-point  5 :  0.33330.00000.0000  plane waves:   3988
 k-point  6 :  0.41670.00000.0000  plane waves:   4020
 k-point  7 :  0.50000.00000.0000  plane waves:   3980
 k-point  8 :  0.08330.08330.0000  plane waves:   3970
 k-point  9 :  0.16670.08330.0000  plane waves:   3984
 k-point 10 :  0.25000.08330.0000  plane waves:   4007
 k-point 11 :  0.33330.08330.0000  plane waves:   4005
 k-point 12 :  0.41670.08330.0000  plane waves:   4020
 k-point 13 :  0.50000.08330.0000  plane waves:   4022
 k-point 14 :  0.16670.16670.0000  plane waves:   3998
 k-point 15 :  0.25000.16670.0000  plane waves:   4009
 k-point 16 :  0.33330.16670.0000  plane waves:   4006
 k-point 17 :  0.41670.16670.0000  plane waves:   4010
 k-point 18 :  0.50000.16670.0000  plane waves:   4008
 k-point 19 :  0.25000.25000.0000  plane waves:   4008
 k-point 20 :  0.33330.25000.0000  plane waves:   4015
 k-point 21 :  0.41670.25000.0000  plane waves:   4011
 k-point 22 :  0.50000.25000.0000  plane waves:   4002
 k-point 23 :  0.33330.33330.0000  plane waves:   4008
 k-point 24 :  0.41670.33330.0000  plane waves:   4020
 k-point 25 :  0.50000.33330.0000  plane waves:   4020
 k-point 26 :  0.41670.41670.0000  plane waves:   4012
 k-point 27 :  0.50000.41670.0000  plane waves:   4014
 k-point 28 :  0.50000.50000.0000  plane waves:   4012
 k-point 29 :  0.08330.08330.0833  plane waves:   3977
 k-point 30 :  0.16670.08330.0833  plane waves:   3988
 k-point 31 :  0.25000.08330.0833  plane waves:   4004
 k-point 32 :  0.33330.08330.0833  plane waves:   4006
 k-point 33 :  0.41670.08330.0833  plane waves:   4015
 k-point 34 :  0.50000.08330.0833  plane waves:   4018
 k-point 35 :  0.16670.16670.0833  plane waves:   3992
 k-point 36 :  0.25000.16670.0833  plane waves:   4006
 k-point 37 :  0.33330.16670.0833  plane waves:   4009
 k-point 38 :  0.41670.16670.0833  plane waves:   4016
 k-point 39 :  0.50000.16670.0833  plane waves:   4010
 k-point 40 :  0.25000.25000.0833  plane waves:   4007
 k-point 41 :  0.33330.25000.0833  plane waves:   4013
 k-point 42 :  0.41670.25000.0833  plane waves:   4016
 k-point 43 :  0.50000.25000.0833  plane waves:   4016
 k-point 44 :  0.33330.33330.0833  plane waves:   4008
 k-point 45 :  0.41670.33330.0833  plane waves:   4009
 k-point 46 :  0.50000.33330.0833  plane waves:   4022
 k-point 47 :  0.41670.41670.0833  plane waves:   4016
 k-point 48 :  0.50000.41670.0833  plane waves:   4012
 k-point 49 :  0.50000.50000.0833  plane waves:   4016
 k-point 50 :  0.16670.16670.1667  plane waves:   4001
 k-point 51 :  0.25000.16670.1667  plane waves:   4008
 k-point 52 :  0.33330.16670.1667  plane waves:   4003
 k-point 53 :  0.41670.16670.1667  plane waves:   4011
 k-point 54 :  0.50000.16670.1667  plane waves:   4022
 k-point 55 :  0.25000.25000.1667  plane waves:   4006
 k-point 56 :  0.33330.25000.1667  plane waves:   4008
 k-point 57 :  0.41670.25000.1667  plane waves:   4013
 k-point 58 :  0.50000.25000.1667  plane waves:   4010
 k-point 59 :  0.33330.33330.1667  plane waves:   4008
 k-point 60 :  0.41670.33330.1667  plane waves:   3998
 k-point 61 :  0.50000.33330.1667  plane waves:   4014
 k-point 62 :  0.41670.41670.1667  plane waves:   4012
 k-point 63 :  0.50000.41670.1667  plane waves:   4008
 k-point 64 :  0.50000.50000.1667  plane waves:   4008
 k-point 65 :  0.25000.25000.2500  plane waves:   4013
 k-point 66 :  0.33330.25000.2500  plane waves:   4007
 k-point 67 :  0.41670.25000.2500  plane waves:   4002
 k-point 68 :  0.50000.25000.2500  plane waves:   4016
 k-point 69 :  0.33330.33330.2500  plane waves:   4001
 k-point 70 :  0.41670.33330.2500  plane waves:   4003
 k-point 71 :  0.50000.33330.2500  plane waves:   4008
 k-point 72 :  0.41670.41670.2500  plane waves:   4016
 k-point 73 :  0.50000.41670.2500  plane waves:   4012
 k-point 74 :  0.50000.50000.2500  plane waves:   4032
 k-point 75 :  0.33330.33330.3333  plane waves:   4020
 k-point 76 :  0.41670.33330.3333  plane waves:   4015
 k-point 77 :  0.50000.33330.3333  plane waves:   4018
 k-point 78 :  0.41670.41670.3333  plane waves:   4006
 k-point 79 :  0.50000.41670.3333  plane waves:   4020
 k-point 80 :  0.50000.50000.3333  plane waves:   4016
 k-point 81 :  0.41670.41670.4167  plane waves:   4014
 k-point 82 :  0.50000.41670.4167  plane waves:   4010
 k-point 83 :  0.50000.50000.4167  plane waves:   3980
 k-point 84 :  0.50000.50000.5000  plane waves:   4032

 maximum and minimum number of plane-waves per node :   4032  3955

 maximum number of plane-waves:   4032
 maximal index in each direction: 
   IXMAX=  9   IYMAX=  9   IZMAX=  9
   IXMIN=-10   IYMIN=-10   IZMIN=-10

 NGX is ok and might be reduce to  40
 NGY is ok and might be reduce to  40
 NGZ is ok and might be reduce to  40

 parallel 3dFFT wavefunction:
    minimum data exchange during FFTs selected (reduces bandwidth)
 parallel 3dFFT charge:
    minimum data exchange during FFTs selected (reduces bandwidth)

 For storing wavefunctions  150.80 MBYTES are necessary
 For predicting wavefunctions    4.99 MBYTES are necessary
Broyden mixing: mesh for mixing (old mesh)
   NGX = 19   NGY = 19   NGZ = 19
  (NGX  = 80   NGY  = 80   NGZ  = 80)
 gives a total of   6859 points
 initial charge density was supplied:
 charge density of overlapping atoms calculated
 number of electron   44.0000000 magnetization 
 keeping initial charge density in first step


--------------------------------------------------------------------------------------------------------


 Maximum index for augmentation-charges        70949 (set IRDMAX)


--------------------------------------------------------------------------------------------------------


 First call to EWALD:  gamma=   0.402
 Maximum number of real-space cells 3x 3x 3
 Maximum number of reciprocal cells 3x 3x 3

    FEWALD:  VPU time    0.00: CPU time    0.00


----------------------------------------- Iteration    1(   1)  ---------------------------------------


    POTLOK:  VPU time    0.15: CPU time    0.15
    SETDIJ:  VPU time    0.32: CPU time    0.32
    EDDAV :  VPU time   12.99: CPU time   13.01
    DOS   :  VPU time    0.00: CPU time   -0.00
    ------------------------------------------
      LOOP:  VPU time   13.47: CPU time   13.49

 eigenvalue-minimisations  :  4704
 total energy-change (2. order) : 0.4552101E+03  (-0.2694789E+04)
 number of electron   44.0000000 magnetization 
 augmentation part    44.0000000 magnetization 

 Free energy of the ion-electron system (eV)
  ---------------------------------------------------
  alpha Z        PSCENC =       330.59878490
  Ewald energy   TEWEN  =     -3620.44532950
  -1/2 Hartree   DENC   =      -955.83310864
  -V(xc)+E(xc)   XCENC  =       -45.01748709
  PAW double counting   =      3482.67677651    -3297.07979946
  entropy T*S    EENTRO =        -0.00019612
  eigenvalues    EBANDS =       410.66085579
  atomic energy  EATOM  =      4149.64961272
  ---------------------------------------------------
  free energy    TOTEN  =       455.21010912 eV

  energy without entropy =      455.21030523  energy(sigma->0) =      455.21020718


--------------------------------------------------------------------------------------------------------




----------------------------------------- Iteration    1(   2)  ---------------------------------------


    EDDAV :  VPU time   13.03: CPU time   13.05
    DOS   :  VPU time    0.00: CPU time   -0.00
    ------------------------------------------
      LOOP:  VPU time   13.04: CPU time   13.06

 eigenvalue-minimisations  :  4728
 total energy-change (2. order) :-0.4508127E+03  (-0.4278571E+03)
 number of electron   44.0000000 magnetization 
 augmentation part    44.0000000 magnetization 

 Free energy of the ion-electron system (eV)
  ---------------------------------------------------
  alpha Z        PSCENC =       330.59878490
  Ewald energy   TEWEN  =     -3620.44532950
  -1/2 Hartree   DENC   =      -955.83310864
  -V(xc)+E(xc)   XCENC  =       -45.01748709
  PAW double counting   =      3482.67677651    -3297.07979946
  entropy T*S    EENTRO =        -0.00004102
  eigenvalues    EBANDS =       -40.15197200
  atomic energy  EATOM  =      4149.64961272
  ---------------------------------------------------
  free energy    TOTEN  =         4.39743641 eV

  energy without entropy =        4.39747744  energy(sigma->0) =        4.39745693


--------------------------------------------------------------------------------------------------------




----------------------------------------- Iteration    1(   3)  ---------------------------------------


    EDDAV :  VPU time   13.75: CPU time   13.77
    DOS   :  VPU time    0.00: CPU time   -0.00
    ------------------------------------------
      LOOP:  VPU time   13.76: CPU time   13.77

 eigenvalue-minimisations  :  5144
 total energy-change (2. order) :-0.1575076E+02  (-0.1553606E+02)
 number of electron   44.0000000 magnetization 
 augmentation part    44.0000000 magnetization 

 Free energy of the ion-electron system (eV)
  ---------------------------------------------------
  alpha Z        PSCENC =       330.59878490
  Ewald energy   TEWEN  =     -3620.44532950
  -1/2 Hartree   DENC   =      -955.83310864
  -V(xc)+E(xc)   XCENC  =       -45.01748709
  PAW double counting   =      3482.67677651    -3297.07979946
  entropy T*S    EENTRO =        -0.00004043
  eigenvalues    EBANDS =       -55.90273139
  atomic energy  EATOM  =      4149.64961272
  ---------------------------------------------------
  free energy    TOTEN  =       -11.35332238 eV

  energy without entropy =      -11.35328195  energy(sigma->0) =      -11.35330216


--------------------------------------------------------------------------------------------------------




----------------------------------------- Iteration    1(   4)  ---------------------------------------


    EDDAV :  VPU time   13.34: CPU time   13.36
    DOS   :  VPU time    0.00: CPU time   -0.00
    ------------------------------------------
      LOOP:  VPU time   13.35: CPU time   13.37

 eigenvalue-minimisations  :  4944
 total energy-change (2. order) :-0.1271754E+00  (-0.1270801E+00)
 number of electron   44.0000000 magnetization 
 augmentation part    44.0000000 magnetization 

 Free energy of the ion-electron system (eV)
  ---------------------------------------------------
  alpha Z        PSCENC =       330.59878490
  Ewald energy   TEWEN  =     -3620.44532950
  -1/2 Hartree   DENC   =      -955.83310864
  -V(xc)+E(xc)   XCENC  =       -45.01748709
  PAW double counting   =      3482.67677651    -3297.07979946
  entropy T*S    EENTRO =        -0.00004043
  eigenvalues    EBANDS =       -56.02990677
  atomic energy  EATOM  =      4149.64961272
  ---------------------------------------------------
  free energy    TOTEN  =       -11.48049776 eV

  energy without entropy =      -11.48045732  energy(sigma->0) =      -11.48047754


--------------------------------------------------------------------------------------------------------




----------------------------------------- Iteration    1(   5)  ---------------------------------------


    EDDAV :  VPU time   13.22: CPU time   13.23
    DOS   :  VPU time    0.00: CPU time   -0.00
    CHARGE:  VPU time    1.13: CPU time    1.13
    MIXING:  VPU time    0.00: CPU time    0.00
    ------------------------------------------
      LOOP:  VPU time   14.36: CPU time   14.38

 eigenvalue-minimisations  :  5008
 total energy-change (2. order) :-0.4931602E-03  (-0.4931332E-03)
 number of electron   44.0000001 magnetization 
 augmentation part    20.5973270 magnetization 

 Broyden mixing:
  rms(total) = 0.46260E+00    rms(broyden)= 0.46260E+00
  rms(prec ) = 0.11347E+01
  weight for this iteration     100.00

 Free energy of the ion-electron system (eV)
  ---------------------------------------------------
  alpha Z        PSCENC =       330.59878490
  Ewald energy   TEWEN  =     -3620.44532950
  -1/2 Hartree   DENC   =      -955.83310864
  -V(xc)+E(xc)   XCENC  =       -45.01748709
  PAW double counting   =      3482.67677651    -3297.07979946
  entropy T*S    EENTRO =        -0.00004043
  eigenvalues    EBANDS =       -56.03039993
  atomic energy  EATOM  =      4149.64961272
  ---------------------------------------------------
  free energy    TOTEN  =       -11.48099092 eV

  energy without entropy =      -11.48095048  energy(sigma->0) =      -11.48097070


--------------------------------------------------------------------------------------------------------




----------------------------------------- Iteration    1(   6)  ---------------------------------------


    POTLOK:  VPU time    0.13: CPU time    0.13
    SETDIJ:  VPU time    0.27: CPU time    0.27
    EDDAV :  VPU time   10.74: CPU time   10.75
    DOS   :  VPU time    0.00: CPU time   -0.00
    CHARGE:  VPU time    0.81: CPU time    0.81
    MIXING:  VPU time    0.00: CPU time    0.00
    ------------------------------------------
      LOOP:  VPU time   11.97: CPU time   11.98

 eigenvalue-minimisations  :  4888
 total energy-change (2. order) : 0.6448846E+00  (-0.2613992E+00)
 number of electron   44.0000001 magnetization 
 augmentation part    21.2134575 magnetization 

 Broyden mixing:
  rms(total) = 0.91233E-01    rms(broyden)= 0.91233E-01
  rms(prec ) = 0.17457E+00
  weight for this iteration     100.00

 eigenvalues of (default mixing * dielectric matrix)
  average eigenvalue GAMMA=   0.9972
  0.9972

 Free energy of the ion-electron system (eV)
  ---------------------------------------------------
  alpha Z        PSCENC =       330.59878490
  Ewald energy   TEWEN  =     -3620.44532950
  -1/2 Hartree   DENC   =      -921.85818007
  -V(xc)+E(xc)   XCENC  =       -46.26364917
  PAW double counting   =      3423.97864578    -3240.16552137
  entropy T*S    EENTRO =        -0.00001750
  eigenvalues    EBANDS =       -86.33045212
  atomic energy  EATOM  =      4149.64961272
  ---------------------------------------------------
  free energy    TOTEN  =       -10.83610633 eV

  energy without entropy =      -10.83608883  energy(sigma->0) =      -10.83609758


--------------------------------------------------------------------------------------------------------




----------------------------------------- Iteration    1(   7)  ---------------------------------------


    POTLOK:  VPU time    0.12: CPU time    0.12
    SETDIJ:  VPU time    0.22: CPU time    0.22
    EDDAV :  VPU time    8.78: CPU time    8.78
    DOS   :  VPU time    0.00: CPU time   -0.00
    CHARGE:  VPU time    0.82: CPU time    0.82
    MIXING:  VPU time    0.00: CPU time    0.00
    ------------------------------------------
      LOOP:  VPU time    9.94: CPU time    9.95

 eigenvalue-minimisations  :  4852
 total energy-change (2. order) : 0.8199173E-02  (-0.4119037E-02)
 number of electron   44.0000001 magnetization 
 augmentation part    21.2261866 magnetization 

 Broyden mixing:
  rms(total) = 0.52438E-01    rms(broyden)= 0.52437E-01
  rms(prec ) = 0.99467E-01
  weight for this iteration     100.00

 eigenvalues of (default mixing * dielectric matrix)
  average eigenvalue GAMMA=   1.7362
  1.0111  2.4612

 Free energy of the ion-electron system (eV)
  ---------------------------------------------------
  alpha Z        PSCENC =       330.59878490
  Ewald energy   TEWEN  =     -3620.44532950
  -1/2 Hartree   DENC   =      -918.54496564
  -V(xc)+E(xc)   XCENC  =       -46.40510793
  PAW double counting   =      3426.97806140    -3244.78774765
  entropy T*S    EENTRO =        -0.00001750
  eigenvalues    EBANDS =       -87.87119795
  atomic energy  EATOM  =      4149.64961272
  ---------------------------------------------------
  free energy    TOTEN  =       -10.82790715 eV

  energy without entropy =      -10.82788965  energy(sigma->0) =      -10.82789840


--------------------------------------------------------------------------------------------------------




----------------------------------------- Iteration    1(   8)  ---------------------------------------


    POTLOK:  VPU time    0.12: CPU time    0.12
    SETDIJ:  VPU time    0.22: CPU time    0.22
    EDDAV :  VPU time    8.94: CPU time    8.95
    DOS   :  VPU time    0.00: CPU time   -0.00
    CHARGE:  VPU time    0.84: CPU time    0.84
    MIXING:  VPU time    0.00: CPU time    0.00
    ------------------------------------------
      LOOP:  VPU time   10.13: CPU time   10.13

 eigenvalue-minimisations  :  4892
 total energy-change (2. order) : 0.4141804E-02  (-0.5045305E-03)
 number of electron   44.0000001 magnetization 
 augmentation part    21.2289407 magnetization 

 Broyden mixing:
  rms(total) = 0.37777E-02    rms(broyden)= 0.37772E-02
  rms(prec ) = 0.64543E-02
  weight for this iteration     100.00

 eigenvalues of (default mixing * dielectric matrix)
  average eigenvalue GAMMA=   1.7212
  2.6982  1.0164  1.4489

 Free energy of the ion-electron system (eV)
  ---------------------------------------------------
  alpha Z        PSCENC =       330.59878490
  Ewald energy   TEWEN  =     -3620.44532950
  -1/2 Hartree   DENC   =      -914.49754897
  -V(xc)+E(xc)   XCENC  =       -46.57927314
  PAW double counting   =      3434.89803575    -3254.80617463
  entropy T*S    EENTRO =        -0.00001751
  eigenvalues    EBANDS =       -89.64185498
  atomic energy  EATOM  =      4149.64961272
  ---------------------------------------------------
  free energy    TOTEN  =       -10.82376535 eV

  energy without entropy =      -10.82374784  energy(sigma->0) =      -10.82375659


--------------------------------------------------------------------------------------------------------




----------------------------------------- Iteration    1(   9)  ---------------------------------------


    POTLOK:  VPU time    0.12: CPU time    0.12
    SETDIJ:  VPU time    0.22: CPU time    0.22
    EDDAV :  VPU time    8.89: CPU time    8.90
    DOS   :  VPU time    0.00: CPU time   -0.00
    CHARGE:  VPU time    0.81: CPU time    0.81
    MIXING:  VPU time    0.00: CPU time    0.00
    ------------------------------------------
      LOOP:  VPU time   10.05: CPU time   10.06

 eigenvalue-minimisations  :  4952
 total energy-change (2. order) :-0.1046665E-03  (-0.2114950E-04)
 number of electron   44.0000001 magnetization 
 augmentation part    21.2337771 magnetization 

 Broyden mixing:
  rms(total) = 0.24241E-02    rms(broyden)= 0.24241E-02
  rms(prec ) = 0.47753E-02
  weight for this iteration     100.00

 eigenvalues of (default mixing * dielectric matrix)
  average eigenvalue GAMMA=   1.7732
  0.9828  0.9828  2.7296  2.3975

 Free energy of the ion-electron system (eV)
  ---------------------------------------------------
  alpha Z        PSCENC =       330.59878490
  Ewald energy   TEWEN  =     -3620.44532950
  -1/2 Hartree   DENC   =      -914.23341059
  -V(xc)+E(xc)   XCENC  =       -46.59042958
  PAW double counting   =      3435.99465184    -3255.85489340
  entropy T*S    EENTRO =        -0.00001753
  eigenvalues    EBANDS =       -89.94283887
  atomic energy  EATOM  =      4149.64961272
  ---------------------------------------------------
  free energy    TOTEN  =       -10.82387002 eV

  energy without entropy =      -10.82385249  energy(sigma->0) =      -10.82386125


--------------------------------------------------------------------------------------------------------




----------------------------------------- Iteration    1(  10)  ---------------------------------------


    POTLOK:  VPU time    0.12: CPU time    0.12
    SETDIJ:  VPU time    0.22: CPU time    0.22
    EDDAV :  VPU time    9.47: CPU time    9.48
    DOS   :  VPU time    0.00: CPU time   -0.00
    CHARGE:  VPU time    1.21: CPU time    1.21
    MIXING:  VPU time    0.00: CPU time    0.00
    ------------------------------------------
      LOOP:  VPU time   11.03: CPU time   11.04

 eigenvalue-minimisations  :  4876
 total energy-change (2. order) : 0.2896078E-05  (-0.2002070E-05)
 number of electron   44.0000001 magnetization 
 augmentation part    21.2326771 magnetization 

 Broyden mixing:
  rms(total) = 0.38387E-03    rms(broyden)= 0.38386E-03
  rms(prec ) = 0.81683E-03
  weight for this iteration     100.00

 eigenvalues of (default mixing * dielectric matrix)
  average eigenvalue GAMMA=   1.8100
  1.0022  1.0022  2.8934  2.4231  1.7295

 Free energy of the ion-electron system (eV)
  ---------------------------------------------------
  alpha Z        PSCENC =       330.59878490
  Ewald energy   TEWEN  =     -3620.44532950
  -1/2 Hartree   DENC   =      -914.42010813
  -V(xc)+E(xc)   XCENC  =       -46.58401787
  PAW double counting   =      3436.91245333    -3256.66265197
  entropy T*S    EENTRO =        -0.00001752
  eigenvalues    EBANDS =       -89.87259309
  atomic energy  EATOM  =      4149.64961272
  ---------------------------------------------------
  free energy    TOTEN  =       -10.82386712 eV

  energy without entropy =      -10.82384960  energy(sigma->0) =      -10.82385836


--------------------------------------------------------------------------------------------------------




----------------------------------------- Iteration    1(  11)  ---------------------------------------


    POTLOK:  VPU time    0.15: CPU time    0.15
    SETDIJ:  VPU time    0.32: CPU time    0.32
    EDDAV :  VPU time   12.95: CPU time   12.96
    DOS   :  VPU time    0.00: CPU time   -0.00
    CHARGE:  VPU time    1.36: CPU time    1.36
    MIXING:  VPU time    0.00: CPU time    0.00
    ------------------------------------------
      LOOP:  VPU time   14.79: CPU time   14.81

 eigenvalue-minimisations  :  4956
 total energy-change (2. order) : 0.6537830E-06  (-0.1296490E-06)
 number of electron   44.0000001 magnetization 
 augmentation part    21.2323477 magnetization 

 Broyden mixing:
  rms(total) = 0.60272E-04    rms(broyden)= 0.60270E-04
  rms(prec ) = 0.10864E-03
  weight for this iteration     100.00

 eigenvalues of (default mixing * dielectric matrix)
  average eigenvalue GAMMA=   1.8785
  3.1702  2.6561  2.4771  0.9727  0.9973  0.9973

 Free energy of the ion-electron system (eV)
  ---------------------------------------------------
  alpha Z        PSCENC =       330.59878490
  Ewald energy   TEWEN  =     -3620.44532950
  -1/2 Hartree   DENC   =      -914.44811582
  -V(xc)+E(xc)   XCENC  =       -46.58311541
  PAW double counting   =      3436.99101346    -3256.72990939
  entropy T*S    EENTRO =        -0.00001751
  eigenvalues    EBANDS =       -89.85678991
  atomic energy  EATOM  =      4149.64961272
  ---------------------------------------------------
  free energy    TOTEN  =       -10.82386647 eV

  energy without entropy =      -10.82384895  energy(sigma->0) =      -10.82385771


--------------------------------------------------------------------------------------------------------




----------------------------------------- Iteration    1(  12)  ---------------------------------------


    POTLOK:  VPU time    0.17: CPU time    0.17
    SETDIJ:  VPU time    0.38: CPU time    0.38
    EDDAV :  VPU time    8.40: CPU time    8.41
    DOS   :  VPU time    0.00: CPU time   -0.00
    CHARGE:  VPU time    0.79: CPU time    0.79
    MIXING:  VPU time    0.00: CPU time    0.00
    ------------------------------------------
      LOOP:  VPU time    9.75: CPU time    9.76

 eigenvalue-minimisations  :  4440
 total energy-change (2. order) : 0.5016109E-06  (-0.4390046E-08)
 number of electron   44.0000001 magnetization 
 augmentation part    21.2323502 magnetization 

 Broyden mixing:
  rms(total) = 0.14020E-04    rms(broyden)= 0.14020E-04
  rms(prec ) = 0.25132E-04
  weight for this iteration     100.00

 eigenvalues of (default mixing * dielectric matrix)
  average eigenvalue GAMMA=   1.7916
  2.9755  2.6035  2.4663  1.0061  1.0061  1.0770  1.4070

 Free energy of the ion-electron system (eV)
  ---------------------------------------------------
  alpha Z        PSCENC =       330.59878490
  Ewald energy   TEWEN  =     -3620.44532950
  -1/2 Hartree   DENC   =      -914.45061108
  -V(xc)+E(xc)   XCENC  =       -46.58303251
  PAW double counting   =      3436.91405316    -3256.65187029
  entropy T*S    EENTRO =        -0.00001751
  eigenvalues    EBANDS =       -89.85545585
  atomic energy  EATOM  =      4149.64961272
  ---------------------------------------------------
  free energy    TOTEN  =       -10.82386596 eV

  energy without entropy =      -10.82384845  energy(sigma->0) =      -10.82385721


--------------------------------------------------------------------------------------------------------




----------------------------------------- Iteration    1(  13)  ---------------------------------------


    POTLOK:  VPU time    0.12: CPU time    0.12
    SETDIJ:  VPU time    0.22: CPU time    0.22
    EDDAV :  VPU time    5.88: CPU time    5.89
    DOS   :  VPU time    0.00: CPU time   -0.00
    CHARGE:  VPU time    0.79: CPU time    0.79
    MIXING:  VPU time    0.00: CPU time    0.00
    ------------------------------------------
      LOOP:  VPU time    7.02: CPU time    7.03

 eigenvalue-minimisations  :  2520
 total energy-change (2. order) : 0.1939043E-07  (-0.7670424E-10)
 number of electron   44.0000001 magnetization 
 augmentation part    21.2323513 magnetization 

 Broyden mixing:
  rms(total) = 0.83098E-05    rms(broyden)= 0.83097E-05
  rms(prec ) = 0.16841E-04
  weight for this iteration     100.00

 eigenvalues of (default mixing * dielectric matrix)
  average eigenvalue GAMMA=   1.8647
  2.8881  2.8881  2.5953  2.5290  1.0096  1.0096  0.9989  0.9989

 Free energy of the ion-electron system (eV)
  ---------------------------------------------------
  alpha Z        PSCENC =       330.59878490
  Ewald energy   TEWEN  =     -3620.44532950
  -1/2 Hartree   DENC   =      -914.45056209
  -V(xc)+E(xc)   XCENC  =       -46.58303008
  PAW double counting   =      3436.91485727    -3256.65271861
  entropy T*S    EENTRO =        -0.00001751
  eigenvalues    EBANDS =       -89.85546305
  atomic energy  EATOM  =      4149.64961272
  ---------------------------------------------------
  free energy    TOTEN  =       -10.82386594 eV

  energy without entropy =      -10.82384843  energy(sigma->0) =      -10.82385719


--------------------------------------------------------------------------------------------------------




----------------------------------------- Iteration    1(  14)  ---------------------------------------


    POTLOK:  VPU time    0.11: CPU time    0.12
    SETDIJ:  VPU time    0.21: CPU time    0.21
    EDDAV :  VPU time    6.78: CPU time    6.79
    DOS   :  VPU time    0.00: CPU time   -0.00
    ------------------------------------------
      LOOP:  VPU time    7.12: CPU time    7.13

 eigenvalue-minimisations  :  2496
 total energy-change (2. order) :-0.9922587E-08  (-0.5303568E-10)
 number of electron   44.0000001 magnetization 
 augmentation part    21.2323513 magnetization 

 Free energy of the ion-electron system (eV)
  ---------------------------------------------------
  alpha Z        PSCENC =       330.59878490
  Ewald energy   TEWEN  =     -3620.44532950
  -1/2 Hartree   DENC   =      -914.44987176
  -V(xc)+E(xc)   XCENC  =       -46.58305255
  PAW double counting   =      3436.91842948    -3256.65648271
  entropy T*S    EENTRO =        -0.00001751
  eigenvalues    EBANDS =       -89.85593901
  atomic energy  EATOM  =      4149.64961272
  ---------------------------------------------------
  free energy    TOTEN  =       -10.82386595 eV

  energy without entropy =      -10.82384844  energy(sigma->0) =      -10.82385720


--------------------------------------------------------------------------------------------------------




 average (electrostatic) potential at core
  the test charge radii are     1.1249
  (the norm of the test charge is              1.0000)
       1 -42.5901       2 -42.5901       3 -42.5901       4 -42.5901
 
 
 
 E-fermi :   1.8004     XC(G=0): -10.8868     alpha+bet : -6.7771
   add alpha+bet to get absolut eigen values

 k-point   1 :       0.0000    0.0000    0.0000
  band No.  band energies     occupation 
      1      -4.5153      2.00000
      2      -3.4801      2.00000
      3      -3.4801      2.00000
      4      -3.4801      2.00000
      5      -3.4147      2.00000
      6      -3.4147      2.00000
      7      -3.4147      2.00000
      8      -2.4225      2.00000
      9      -2.4225      2.00000
     10      -2.4225      2.00000
     11      -1.7410      2.00000
     12      -1.7410      2.00000
     13      -1.2361      2.00000
     14      -1.2361      2.00000
     15      -1.2361      2.00000
     16      -1.0759      2.00000
     17      -1.0759      2.00000
     18      -1.0759      2.00000
     19      -1.0759      2.00000
     20      -1.0759      2.00000
     21      -1.0759      2.00000
     22       3.5264      0.00000
     23       3.5264      0.00000
     24       3.5264      0.00000
     25       6.8576      0.00000
     26       6.8576      0.00000
     27       6.8576      0.00000
     28      11.3297      0.00000

 k-point   2 :       0.0833    0.0000    0.0000
  band No.  band energies     occupation 
      1      -4.4547      2.00000
      2      -3.4588      2.00000
      3      -3.4527      2.00000
      4      -3.4527      2.00000
      5      -3.3990      2.00000
      6      -3.3903      2.00000
      7      -3.3903      2.00000
      8      -2.4408      2.00000
      9      -2.4043      2.00000
     10      -2.4043      2.00000
     11      -1.7591      2.00000
     12      -1.7327      2.00000
     13      -1.2600      2.00000
     14      -1.2600      2.00000
     15      -1.2450      2.00000
     16      -1.1537      2.00000
     17      -1.1537      2.00000
     18      -1.1055      2.00000
     19      -1.1055      2.00000
     20      -1.0759      2.00000
     21      -1.0759      2.00000
     22       3.0214      0.00000
     23       3.6584      0.00000
     24       3.6584      0.00000
     25       6.8729      0.00000
     26       6.8729      0.00000
     27       7.4667      0.00000
     28      11.0704      0.00000

 k-point   3 :       0.1667    0.0000    0.0000
  band No.  band energies     occupation 
      1      -4.2758      2.00000
      2      -3.3977      2.00000
      3      -3.3742      2.00000
      4      -3.3742      2.00000
      5      -3.3529      2.00000
      6      -3.3173      2.00000
      7      -3.3173      2.00000
      8      -2.4942      2.00000
      9      -2.3503      2.00000
     10      -2.3503      2.00000
     11      -1.8093      2.00000
     12      -1.7084      2.00000
     13      -1.3618      2.00000
     14      -1.3618      2.00000
     15      -1.3290      2.00000
     16      -1.3290      2.00000
     17      -1.2712      2.00000
     18      -1.1904      2.00000
     19      -1.1904      2.00000
     20      -1.0758      2.00000
     21      -1.0758      2.00000
     22       2.0243      0.00000
     23       4.0284      0.00000
     24       4.0284      0.00000
     25       6.9191      0.00000
     26       6.9191      0.00000
     27       8.7769      0.00000
     28      10.4231      0.00000

 k-point   4 :       0.2500    0.0000    0.0000
  band No.  band energies     occupation 
      1      -3.9900      2.00000
      2      -3.3046      2.00000
      3      -3.2789      2.00000
      4      -3.2562      2.00000
      5      -3.2562      2.00000
      6      -3.1962      2.00000
      7      -3.1962      2.00000
      8      -2.5782      2.00000
      9      -2.2621      2.00000
     10      -2.2621      2.00000
     11      -1.8768      2.00000
     12      -1.6694      2.00000
     13      -1.6471      2.00000
     14      -1.6471      2.00000
     15      -1.4344      2.00000
     16      -1.4344      2.00000
     17      -1.3201      2.00000
     18      -1.3201      2.00000
     19      -1.3125      2.00000
     20      -1.0756      2.00000
     21      -1.0756      2.00000
     22       0.9691      2.00000
     23       4.5812      0.00000
     24       4.5812      0.00000
     25       6.9970      0.00000
     26       6.9970      0.00000
     27       9.5904      0.00000
     28       9.5904      0.00000

 k-point   5 :       0.3333    0.0000    0.0000
  band No.  band energies     occupation 
      1      -3.6289      2.00000
      2      -3.1958      2.00000
      3      -3.1810      2.00000
      4      -3.1206      2.00000
      5      -3.1206      2.00000
      6      -3.0282      2.00000
      7      -3.0282      2.00000
      8      -2.6859      2.00000
      9      -2.1428      2.00000
     10      -2.1428      2.00000
     11      -1.9616      2.00000
     12      -1.9616      2.00000
     13      -1.9248      2.00000
     14      -1.6183      2.00000
     15      -1.5577      2.00000
     16      -1.5577      2.00000
     17      -1.4801      2.00000
     18      -1.4801      2.00000
     19      -1.3660      2.00000
     20      -1.0755      2.00000
     21      -1.0755      2.00000
     22      -0.0157      2.00000
     23       5.2655      0.00000
     24       5.2655      0.00000
     25       7.1015      0.00000
     26       7.1015      0.00000
     27       8.6895      0.00000
     28       8.6895      0.00000

 k-point   6 :       0.4167    0.0000    0.0000
  band No.  band energies     occupation 
      1      -3.2794      2.00000
      2      -3.1030      2.00000
      3      -3.0652      2.00000
      4      -3.0043      2.00000
      5      -3.0043      2.00000
      6      -2.8153      2.00000
      7      -2.8153      2.00000
      8      -2.8090      2.00000
      9      -2.2729      2.00000
     10      -2.2729      2.00000
     11      -1.9970      2.00000
     12      -1.9970      2.00000
     13      -1.8592      2.00000
     14      -1.6652      2.00000
     15      -1.6652      2.00000
     16      -1.6552      2.00000
     17      -1.6552      2.00000
     18      -1.5583      2.00000
     19      -1.4277      2.00000
     20      -1.0754      2.00000
     21      -1.0754      2.00000
     22      -0.8697      2.00000
     23       6.0436      0.00000
     24       6.0436      0.00000
     25       7.2088      0.00000
     26       7.2088      0.00000
     27       7.7782      0.00000
     28       7.7782      0.00000

 k-point   7 :       0.5000    0.0000    0.0000
  band No.  band energies     occupation 
      1      -3.0953      2.00000
      2      -3.0953      2.00000
      3      -2.9564      2.00000
      4      -2.9564      2.00000
      5      -2.9384      2.00000
      6      -2.9384      2.00000
      7      -2.5613      2.00000
      8      -2.5613      2.00000
      9      -2.5613      2.00000
     10      -2.5613      2.00000
     11      -1.8314      2.00000
     12      -1.8314      2.00000
     13      -1.8314      2.00000
     14      -1.8314      2.00000
     15      -1.7099      2.00000
     16      -1.7099      2.00000
     17      -1.5185      2.00000
     18      -1.5185      2.00000
     19      -1.4933      2.00000
     20      -1.4933      2.00000
     21      -1.0754      2.00000
     22      -1.0754      2.00000
     23       6.8885      0.00000
     24       6.8885      0.00000
     25       6.8885      0.00000
     26       6.8885      0.00000
     27       7.2597      0.00000
     28       7.2597      0.00000

 k-point   8 :       0.0833    0.0833    0.0000
  band No.  band energies     occupation 
      1      -4.3949      2.00000
      2      -3.4326      2.00000
      3      -3.4313      2.00000
      4      -3.4313      2.00000
      5      -3.3750      2.00000
      6      -3.3750      2.00000
      7      -3.3597      2.00000
      8      -2.4468      2.00000
      9      -2.3980      2.00000
     10      -2.3872      2.00000
     11      -1.7637      2.00000
     12      -1.7362      2.00000
     13      -1.2829      2.00000
     14      -1.2800      2.00000
     15      -1.2800      2.00000
     16      -1.2068      2.00000
     17      -1.1722      2.00000
     18      -1.1722      2.00000
     19      -1.1056      2.00000
     20      -1.1056      2.00000
     21      -1.0968      2.00000
     22       3.1442      0.00000
     23       3.1442      0.00000
     24       3.7867      0.00000
     25       6.8875      0.00000
     26       7.4900      0.00000
     27       7.4900      0.00000
     28      10.2944      0.00000

 k-point   9 :       0.1667    0.0833    0.0000
  band No.  band energies     occupation 
      1      -4.2186      2.00000
      2      -3.3707      2.00000
      3      -3.3696      2.00000
      4      -3.3524      2.00000
      5      -3.3298      2.00000
      6      -3.3030      2.00000
      7      -3.2732      2.00000
      8      -2.4931      2.00000
      9      -2.3497      2.00000
     10      -2.3369      2.00000
     11      -1.8069      2.00000
     12      -1.7133      2.00000
     13      -1.4316      2.00000
     14      -1.3955      2.00000
     15      -1.3494      2.00000
     16      -1.3462      2.00000
     17      -1.2966      2.00000
     18      -1.2177      2.00000
     19      -1.1907      2.00000
     20      -1.1070      2.00000
     21      -1.1058      2.00000
     22       2.1415      0.00000
     23       3.4842      0.00000
     24       4.1479      0.00000
     25       6.9299      0.00000
     26       7.5599      0.00000
     27       8.8016      0.00000
     28       9.4178      0.00000

 k-point  10 :       0.2500    0.0833    0.0000
  band No.  band energies     occupation 
      1      -3.9375      2.00000
      2      -3.2756      2.00000
      3      -3.2678      2.00000
      4      -3.2573      2.00000
      5      -3.2336      2.00000
      6      -3.1836      2.00000
      7      -3.1421      2.00000
      8      -2.5736      2.00000
      9      -2.2629      2.00000
     10      -2.2586      2.00000
     11      -1.8664      2.00000
     12      -1.7003      2.00000
     13      -1.6693      2.00000
     14      -1.6683      2.00000
     15      -1.4623      2.00000
     16      -1.4511      2.00000
     17      -1.4149      2.00000
     18      -1.3207      2.00000
     19      -1.2752      2.00000
     20      -1.1089      2.00000
     21      -1.1061      2.00000
     22       1.0891      2.00000
     23       3.9821      0.00000
     24       4.6909      0.00000
     25       6.9889      0.00000
     26       7.6725      0.00000
     27       8.5691      0.00000
     28       9.6756      0.00000

 k-point  11 :       0.3333    0.0833    0.0000
  band No.  band energies     occupation 
      1      -3.5834      2.00000
      2      -3.1651      2.00000
      3      -3.1616      2.00000
      4      -3.1338      2.00000
      5      -3.0970      2.00000
      6      -3.0180      2.00000
      7      -2.9795      2.00000
      8      -2.6782      2.00000
      9      -2.1738      2.00000
     10      -2.1440      2.00000
     11      -2.0032      2.00000
     12      -1.9730      2.00000
     13      -1.8837      2.00000
     14      -1.6173      2.00000
     15      -1.6095      2.00000
     16      -1.5702      2.00000
     17      -1.5438      2.00000
     18      -1.4811      2.00000
     19      -1.3414      2.00000
     20      -1.1090      2.00000
     21      -1.1065      2.00000
     22       0.1142      2.00000
     23       4.5826      0.00000
     24       5.3665      0.00000
     25       6.9826      0.00000
     26       7.8021      0.00000
     27       7.8741      0.00000
     28       8.7739      0.00000

 k-point  12 :       0.4167    0.0833    0.0000
  band No.  band energies     occupation 
      1      -3.2408      2.00000
      2      -3.0698      2.00000
      3      -3.0483      2.00000
      4      -3.0017      2.00000
      5      -2.9807      2.00000
      6      -2.8085      2.00000
      7      -2.7982      2.00000
      8      -2.7921      2.00000
      9      -2.2998      2.00000
     10      -2.2766      2.00000
     11      -2.1071      2.00000
     12      -1.9984      2.00000
     13      -1.7966      2.00000
     14      -1.7529      2.00000
     15      -1.6726      2.00000
     16      -1.6578      2.00000
     17      -1.6565      2.00000
     18      -1.5318      2.00000
     19      -1.4168      2.00000
     20      -1.1085      2.00000
     21      -1.1071      2.00000
     22      -0.7197      2.00000
     23       5.2444      0.00000
     24       6.1376      0.00000
     25       6.5976      0.00000
     26       7.6510      0.00000
     27       7.8606      0.00000
     28       7.8638      0.00000

 k-point  13 :       0.5000    0.0833    0.0000
  band No.  band energies     occupation 
      1      -3.0595      2.00000
      2      -3.0595      2.00000
      3      -2.9379      2.00000
      4      -2.9379      2.00000
      5      -2.9245      2.00000
      6      -2.9245      2.00000
      7      -2.5674      2.00000
      8      -2.5674      2.00000
      9      -2.5590      2.00000
     10      -2.5590      2.00000
     11      -1.9799      2.00000
     12      -1.9799      2.00000
     13      -1.8328      2.00000
     14      -1.8328      2.00000
     15      -1.7105      2.00000
     16      -1.7105      2.00000
     17      -1.5173      2.00000
     18      -1.5173      2.00000
     19      -1.3245      2.00000
     20      -1.3245      2.00000
     21      -1.1078      2.00000
     22      -1.1078      2.00000
     23       5.9350      0.00000
     24       5.9350      0.00000
     25       6.9775      0.00000
     26       6.9775      0.00000
     27       7.7641      0.00000
     28       7.7641      0.00000

 k-point  14 :       0.1667    0.1667    0.0000
  band No.  band energies     occupation 
      1      -4.0504      2.00000
      2      -3.3342      2.00000
      3      -3.2892      2.00000
      4      -3.2892      2.00000
      5      -3.2608      2.00000
      6      -3.2608      2.00000
      7      -3.1705      2.00000
      8      -2.5107      2.00000
      9      -2.3263      2.00000
     10      -2.2983      2.00000
     11      -1.8239      2.00000
     12      -1.6992      2.00000
     13      -1.5491      2.00000
     14      -1.5491      2.00000
     15      -1.5207      2.00000
     16      -1.4088      2.00000
     17      -1.2883      2.00000
     18      -1.2883      2.00000
     19      -1.1917      2.00000
     20      -1.1917      2.00000
     21      -1.1583      2.00000
     22       2.4614      0.00000
     23       2.4614      0.00000
     24       4.4879      0.00000
     25       6.9466      0.00000
     26       8.4324      0.00000
     27       8.8653      0.00000
     28       8.8653      0.00000

 k-point  15 :       0.2500    0.1667    0.0000
  band No.  band energies     occupation 
      1      -3.7845      2.00000
      2      -3.2544      2.00000
      3      -3.1931      2.00000
      4      -3.1922      2.00000
      5      -3.1679      2.00000
      6      -3.1464      2.00000
      7      -3.0311      2.00000
      8      -2.5697      2.00000
      9      -2.2548      2.00000
     10      -2.2443      2.00000
     11      -1.8651      2.00000
     12      -1.8194      2.00000
     13      -1.7416      2.00000
     14      -1.6956      2.00000
     15      -1.6385      2.00000
     16      -1.5004      2.00000
     17      -1.3948      2.00000
     18      -1.3226      2.00000
     19      -1.3140      2.00000
     20      -1.1932      2.00000
     21      -1.1855      2.00000
     22       1.4085      2.00000
     23       2.9230      0.00000
     24       5.0061      0.00000
     25       6.8325      0.00000
     26       7.6906      0.00000
     27       8.9109      0.00000
     28       9.9258      0.00000

 k-point  16 :       0.3333    0.1667    0.0000
  band No.  band energies     occupation 
      1      -3.4533      2.00000
      2      -3.1350      2.00000
      3      -3.1039      2.00000
      4      -3.0767      2.00000
      5      -3.0283      2.00000
      6      -2.9883      2.00000
      7      -2.8742      2.00000
      8      -2.6600      2.00000
      9      -2.2142      2.00000
     10      -2.1425      2.00000
     11      -2.1047      2.00000
     12      -2.0111      2.00000
     13      -1.8628      2.00000
     14      -1.8555      2.00000
     15      -1.6078      2.00000
     16      -1.5349      2.00000
     17      -1.5240      2.00000
     18      -1.4838      2.00000
     19      -1.3706      2.00000
     20      -1.1957      2.00000
     21      -1.1950      2.00000
     22       0.4432      2.00000
     23       3.4778      0.00000
     24       5.6590      0.00000
     25       6.2539      0.00000
     26       7.5508      0.00000
     27       8.7716      0.00000
     28       9.0214      0.00000

 k-point  17 :       0.4167    0.1667    0.0000
  band No.  band energies     occupation 
      1      -3.1332      2.00000
      2      -2.9986      2.00000
      3      -2.9930      2.00000
      4      -2.9739      2.00000
      5      -2.9120      2.00000
      6      -2.7891      2.00000
      7      -2.7683      2.00000
      8      -2.7239      2.00000
      9      -2.3683      2.00000
     10      -2.2896      2.00000
     11      -2.2274      2.00000
     12      -2.0382      2.00000
     13      -1.9999      2.00000
     14      -1.7326      2.00000
     15      -1.6970      2.00000
     16      -1.6596      2.00000
     17      -1.6474      2.00000
     18      -1.4560      2.00000
     19      -1.3562      2.00000
     20      -1.1986      2.00000
     21      -1.1969      2.00000
     22      -0.3775      2.00000
     23       4.0992      0.00000
     24       5.5026      0.00000
     25       6.4117      0.00000
     26       7.7321      0.00000
     27       8.1151      0.00000
     28       8.4143      0.00000

 k-point  18 :       0.5000    0.1667    0.0000
  band No.  band energies     occupation 
      1      -2.9579      2.00000
      2      -2.9579      2.00000
      3      -2.8891      2.00000
      4      -2.8891      2.00000
      5      -2.8841      2.00000
      6      -2.8841      2.00000
      7      -2.5756      2.00000
      8      -2.5756      2.00000
      9      -2.5535      2.00000
     10      -2.5535      2.00000
     11      -2.1833      2.00000
     12      -2.1833      2.00000
     13      -1.8356      2.00000
     14      -1.8356      2.00000
     15      -1.7175      2.00000
     16      -1.7175      2.00000
     17      -1.5753      2.00000
     18      -1.5753      2.00000
     19      -1.1984      2.00000
     20      -1.1984      2.00000
     21      -0.9935      2.00000
     22      -0.9935      2.00000
     23       4.7759      0.00000
     24       4.7759      0.00000
     25       7.2377      0.00000
     26       7.2377      0.00000
     27       8.0360      0.00000
     28       8.0360      0.00000

 k-point  19 :       0.2500    0.2500    0.0000
  band No.  band energies     occupation 
      1      -3.5473      2.00000
      2      -3.1998      2.00000
      3      -3.0871      2.00000
      4      -3.0871      2.00000
      5      -3.0660      2.00000
      6      -3.0660      2.00000
      7      -2.8898      2.00000
      8      -2.5897      2.00000
      9      -2.2197      2.00000
     10      -2.2129      2.00000
     11      -1.9667      2.00000
     12      -1.9667      2.00000
     13      -1.9005      2.00000
     14      -1.8841      2.00000
     15      -1.5779      2.00000
     16      -1.5334      2.00000
     17      -1.4052      2.00000
     18      -1.4052      2.00000
     19      -1.3254      2.00000
     20      -1.3254      2.00000
     21      -1.2578      2.00000
     22       1.8590      0.00000
     23       1.8590      0.00000
     24       5.4938      0.00000
     25       6.1310      0.00000
     26       7.5007      0.00000
     27       9.9664      0.00000
     28       9.9664      0.00000

 k-point  20 :       0.3333    0.2500    0.0000
  band No.  band energies     occupation 
      1      -3.2603      2.00000
      2      -3.1044      2.00000
      3      -3.0094      2.00000
      4      -2.9420      2.00000
      5      -2.9414      2.00000
      6      -2.9202      2.00000
      7      -2.7399      2.00000
      8      -2.6453      2.00000
      9      -2.2328      2.00000
     10      -2.2230      2.00000
     11      -2.1250      2.00000
     12      -2.1232      2.00000
     13      -2.0870      2.00000
     14      -1.9049      2.00000
     15      -1.6701      2.00000
     16      -1.5285      2.00000
     17      -1.4872      2.00000
     18      -1.4542      2.00000
     19      -1.3499      2.00000
     20      -1.3283      2.00000
     21      -1.3012      2.00000
     22       0.8894      2.00000
     23       2.3973      0.00000
     24       5.2567      0.00000
     25       6.1174      0.00000
     26       7.6477      0.00000
     27       9.3655      0.00000
     28       9.4174      0.00000

 k-point  21 :       0.4167    0.2500    0.0000
  band No.  band energies     occupation 
      1      -2.9847      2.00000
      2      -2.9736      2.00000
      3      -2.9187      2.00000
      4      -2.8274      2.00000
      5      -2.8050      2.00000
      6      -2.7597      2.00000
      7      -2.7270      2.00000
      8      -2.6174      2.00000
      9      -2.4535      2.00000
     10      -2.3179      2.00000
     11      -2.2930      2.00000
     12      -2.2734      2.00000
     13      -1.9932      2.00000
     14      -1.8098      2.00000
     15      -1.7434      2.00000
     16      -1.6622      2.00000
     17      -1.6566      2.00000
     18      -1.5431      2.00000
     19      -1.3302      2.00000
     20      -1.3216      2.00000
     21      -1.0587      2.00000
     22       0.0575      2.00000
     23       3.0059      0.00000
     24       4.4323      0.00000
     25       6.8452      0.00000
     26       7.9212      0.00000
     27       8.5165      0.00000
     28       8.7869      0.00000

 k-point  22 :       0.5000    0.2500    0.0000
  band No.  band energies     occupation 
      1      -2.8338      2.00000
      2      -2.8338      2.00000
      3      -2.8217      2.00000
      4      -2.8217      2.00000
      5      -2.8126      2.00000
      6      -2.8126      2.00000
      7      -2.5557      2.00000
      8      -2.5557      2.00000
[...]
     14      -1.6392      2.00000
     15      -1.6392      2.00000
     16      -1.6392      2.00000
     17      -1.3951      2.00000
     18      -1.3951      2.00000
     19      -1.3951      2.00000
     20      -1.3951      2.00000
     21       1.3201      2.00000
     22       1.3201      2.00000
     23       1.3201      2.00000
     24       1.3201      2.00000
     25       6.0498      0.00000
     26       6.0498      0.00000
     27       6.0498      0.00000
     28       6.0498      0.00000

 k-point  75 :       0.3333    0.3333    0.3333
  band No.  band energies     occupation 
      1      -3.3721      2.00000
      2      -3.1893      2.00000
      3      -3.1893      2.00000
      4      -3.1893      2.00000
      5      -2.5626      2.00000
      6      -2.5626      2.00000
      7      -2.5626      2.00000
      8      -2.3425      2.00000
      9      -2.3425      2.00000
     10      -2.1522      2.00000
     11      -2.1522      2.00000
     12      -2.1522      2.00000
     13      -1.9020      2.00000
     14      -1.9020      2.00000
     15      -1.9020      2.00000
     16      -1.4540      2.00000
     17      -1.4540      2.00000
     18      -1.1947      2.00000
     19      -1.1947      2.00000
     20      -1.1947      2.00000
     21      -0.9345      2.00000
     22       2.2645      0.00000
     23       2.2645      0.00000
     24       2.2645      0.00000
     25       5.4595      0.00000
     26       5.4595      0.00000
     27       5.4595      0.00000
     28       8.3513      0.00000

 k-point  76 :       0.4167    0.3333    0.3333
  band No.  band energies     occupation 
      1      -3.3702      2.00000
      2      -3.2685      2.00000
      3      -3.2218      2.00000
      4      -3.2218      2.00000
      5      -2.5582      2.00000
      6      -2.5582      2.00000
      7      -2.4968      2.00000
      8      -2.3798      2.00000
      9      -2.3440      2.00000
     10      -2.2457      2.00000
     11      -2.2112      2.00000
     12      -2.2112      2.00000
     13      -1.7773      2.00000
     14      -1.7658      2.00000
     15      -1.7658      2.00000
     16      -1.5235      2.00000
     17      -1.3409      2.00000
     18      -1.2201      2.00000
     19      -1.2201      2.00000
     20      -1.2061      2.00000
     21      -0.3313      2.00000
     22       1.2920      2.00000
     23       2.6538      0.00000
     24       2.6538      0.00000
     25       4.7237      0.00000
     26       4.7237      0.00000
     27       6.0270      0.00000
     28       7.4773      0.00000

 k-point  77 :       0.5000    0.3333    0.3333
  band No.  band energies     occupation 
      1      -3.3329      2.00000
      2      -3.3329      2.00000
      3      -3.2324      2.00000
      4      -3.2324      2.00000
      5      -2.5593      2.00000
      6      -2.5593      2.00000
      7      -2.4327      2.00000
      8      -2.4327      2.00000
      9      -2.3110      2.00000
     10      -2.3110      2.00000
     11      -2.2300      2.00000
     12      -2.2300      2.00000
     13      -1.7069      2.00000
     14      -1.7069      2.00000
     15      -1.6465      2.00000
     16      -1.6465      2.00000
     17      -1.2560      2.00000
     18      -1.2560      2.00000
     19      -1.2399      2.00000
     20      -1.2399      2.00000
     21       0.4234      2.00000
     22       0.4234      2.00000
     23       2.8703      0.00000
     24       2.8703      0.00000
     25       4.3913      0.00000
     26       4.3913      0.00000
     27       6.7016      0.00000
     28       6.7016      0.00000

 k-point  78 :       0.4167    0.4167    0.3333
  band No.  band energies     occupation 
      1      -3.3937      2.00000
      2      -3.3130      2.00000
      3      -3.3130      2.00000
      4      -3.2891      2.00000
      5      -2.5231      2.00000
      6      -2.4961      2.00000
      7      -2.4961      2.00000
      8      -2.3931      2.00000
      9      -2.3754      2.00000
     10      -2.2978      2.00000
     11      -2.2978      2.00000
     12      -2.2834      2.00000
     13      -1.6099      2.00000
     14      -1.6099      2.00000
     15      -1.6082      2.00000
     16      -1.3740      2.00000
     17      -1.3630      2.00000
     18      -1.2341      2.00000
     19      -1.2239      2.00000
     20      -1.2239      2.00000
     21       0.1970      2.00000
     22       1.7402      2.00000
     23       1.7402      2.00000
     24       2.6503      0.00000
     25       4.3429      0.00000
     26       5.2175      0.00000
     27       5.2175      0.00000
     28       6.6120      0.00000

 k-point  79 :       0.5000    0.4167    0.3333
  band No.  band energies     occupation 
      1      -3.3729      2.00000
      2      -3.3729      2.00000
      3      -3.3198      2.00000
      4      -3.3198      2.00000
      5      -2.5027      2.00000
      6      -2.5027      2.00000
      7      -2.4379      2.00000
      8      -2.4379      2.00000
      9      -2.3545      2.00000
     10      -2.3545      2.00000
     11      -2.3127      2.00000
     12      -2.3127      2.00000
     13      -1.5362      2.00000
     14      -1.5362      2.00000
     15      -1.4710      2.00000
     16      -1.4710      2.00000
     17      -1.2724      2.00000
     18      -1.2724      2.00000
     19      -1.2512      2.00000
     20      -1.2512      2.00000
     21       0.9062      2.00000
     22       0.9062      2.00000
     23       2.2513      0.00000
     24       2.2513      0.00000
     25       4.5990      0.00000
     26       4.5990      0.00000
     27       5.8561      0.00000
     28       5.8561      0.00000

 k-point  80 :       0.5000    0.5000    0.3333
  band No.  band energies     occupation 
      1      -3.3679      2.00000
      2      -3.3679      2.00000
      3      -3.3679      2.00000
      4      -3.3679      2.00000
      5      -2.4577      2.00000
      6      -2.4577      2.00000
      7      -2.4577      2.00000
      8      -2.4577      2.00000
      9      -2.3586      2.00000
     10      -2.3586      2.00000
     11      -2.3586      2.00000
     12      -2.3586      2.00000
     13      -1.4153      2.00000
     14      -1.4153      2.00000
     15      -1.4153      2.00000
     16      -1.4153      2.00000
     17      -1.2971      2.00000
     18      -1.2971      2.00000
     19      -1.2971      2.00000
     20      -1.2971      2.00000
     21       1.5356      2.00000
     22       1.5356      2.00000
     23       1.5356      2.00000
     24       1.5356      2.00000
     25       5.1425      0.00000
     26       5.1425      0.00000
     27       5.1425      0.00000
     28       5.1425      0.00000

 k-point  81 :       0.4167    0.4167    0.4167
  band No.  band energies     occupation 
      1      -3.4393      2.00000
      2      -3.3827      2.00000
      3      -3.3827      2.00000
      4      -3.3827      2.00000
      5      -2.4742      2.00000
      6      -2.4742      2.00000
      7      -2.4742      2.00000
      8      -2.4054      2.00000
      9      -2.4054      2.00000
     10      -2.3577      2.00000
     11      -2.3577      2.00000
     12      -2.3577      2.00000
     13      -1.4431      2.00000
     14      -1.4431      2.00000
     15      -1.4431      2.00000
     16      -1.2804      2.00000
     17      -1.2804      2.00000
     18      -1.2078      2.00000
     19      -1.2078      2.00000
     20      -1.2078      2.00000
     21       0.6590      2.00000
     22       2.0217      0.00000
     23       2.0217      0.00000
     24       2.0217      0.00000
     25       4.5329      0.00000
     26       4.5329      0.00000
     27       4.5329      0.00000
     28       5.7678      0.00000

 k-point  82 :       0.5000    0.4167    0.4167
  band No.  band energies     occupation 
      1      -3.4345      2.00000
      2      -3.4345      2.00000
      3      -3.4061      2.00000
      4      -3.4061      2.00000
      5      -2.4651      2.00000
      6      -2.4651      2.00000
      7      -2.4331      2.00000
      8      -2.4331      2.00000
      9      -2.3994      2.00000
     10      -2.3994      2.00000
     11      -2.3797      2.00000
     12      -2.3797      2.00000
     13      -1.3674      2.00000
     14      -1.3674      2.00000
     15      -1.3234      2.00000
     16      -1.3234      2.00000
     17      -1.2235      2.00000
     18      -1.2235      2.00000
     19      -1.2200      2.00000
     20      -1.2200      2.00000
     21       1.2959      2.00000
     22       1.2959      2.00000
     23       2.1647      0.00000
     24       2.1647      0.00000
     25       4.2538      0.00000
     26       4.2538      0.00000
     27       5.0609      0.00000
     28       5.0609      0.00000

 k-point  83 :       0.5000    0.5000    0.4167
  band No.  band energies     occupation 
      1      -3.4453      2.00000
      2      -3.4453      2.00000
      3      -3.4453      2.00000
      4      -3.4453      2.00000
      5      -2.4378      2.00000
      6      -2.4378      2.00000
      7      -2.4378      2.00000
      8      -2.4378      2.00000
      9      -2.4123      2.00000
     10      -2.4123      2.00000
     11      -2.4123      2.00000
     12      -2.4123      2.00000
     13      -1.2652      2.00000
     14      -1.2652      2.00000
     15      -1.2652      2.00000
     16      -1.2652      2.00000
     17      -1.2341      2.00000
     18      -1.2341      2.00000
     19      -1.2341      2.00000
     20      -1.2341      2.00000
     21       1.7704      1.99998
     22       1.7704      1.99998
     23       1.7704      1.99998
     24       1.7704      1.99998
     25       4.4765      0.00000
     26       4.4765      0.00000
     27       4.4765      0.00000
     28       4.4765      0.00000

 k-point  84 :       0.5000    0.5000    0.5000
  band No.  band energies     occupation 
      1      -3.4713      2.00000
      2      -3.4713      2.00000
      3      -3.4713      2.00000
      4      -3.4713      2.00000
      5      -2.4306      2.00000
      6      -2.4306      2.00000
      7      -2.4306      2.00000
      8      -2.4306      2.00000
      9      -2.4306      2.00000
     10      -2.4306      2.00000
     11      -2.4306      2.00000
     12      -2.4306      2.00000
     13      -1.2125      2.00000
     14      -1.2125      2.00000
     15      -1.2125      2.00000
     16      -1.2125      2.00000
     17      -1.2125      2.00000
     18      -1.2125      2.00000
     19      -1.2125      2.00000
     20      -1.2125      2.00000
     21       1.8877      0.00000
     22       1.8877      0.00000
     23       1.8877      0.00000
     24       1.8877      0.00000
     25       4.2128      0.00000
     26       4.2128      0.00000
     27       4.2128      0.00000
     28       4.2128      0.00000


--------------------------------------------------------------------------------------------------------


 soft charge-density along one line, spin component           1
         0         1         2         3         4         5         6         7         8         9
 total charge-density along one line
 
 pseudopotential strength for first ion, spin component:           1
-12.711  -0.000   0.000  -0.000  -0.000   0.233   0.000  -0.000
 -0.000 -12.711   0.000  -0.000   0.000   0.000   0.233  -0.000
  0.000   0.000 -12.704   0.000  -0.000  -0.000  -0.000   0.232
 -0.000  -0.000   0.000 -12.711  -0.000   0.000   0.000  -0.000
 -0.000   0.000  -0.000  -0.000 -12.704   0.000  -0.000   0.000
  0.233   0.000  -0.000   0.000   0.000   0.438  -0.000   0.000
  0.000   0.233  -0.000   0.000  -0.000  -0.000   0.438   0.000
 -0.000  -0.000   0.232  -0.000   0.000   0.000   0.000   0.438
  0.000   0.000  -0.000   0.233   0.000  -0.000  -0.000   0.000
  0.000  -0.000   0.000   0.000   0.232  -0.000   0.000  -0.000
  0.000   0.000  -0.000   0.000  -0.000  -0.000  -0.000   0.000
 -0.000  -0.000   0.000  -0.000   0.000   0.000   0.000  -0.000
  0.000  -0.000   0.000   0.000   0.000  -0.000   0.000  -0.000
  0.000  -0.000  -0.000   0.000  -0.000  -0.000   0.000   0.000
 -0.000   0.000  -0.000  -0.000   0.000   0.000  -0.000   0.000
 -0.000   0.000  -0.000  -0.000  -0.000   0.000  -0.000   0.000
 -0.000   0.000   0.000  -0.000   0.000   0.000  -0.000  -0.000
  0.000  -0.000   0.000   0.000  -0.000  -0.000   0.000  -0.000
 total augmentation occupancy for first ion, spin component:           1
  1.924  -0.004  -0.001   0.004  -0.008  -0.032   0.003  -0.008  -0.004   0.008   0.011  -0.012   0.000   0.000   0.000   0.000
 -0.004   1.968  -0.002  -0.005  -0.000   0.003  -0.053   0.003   0.005  -0.005   0.041  -0.003  -0.000  -0.000  -0.000   0.000
 -0.001  -0.002   1.948   0.003  -0.016  -0.008   0.003  -0.042  -0.002   0.016  -0.045  -0.029  -0.000  -0.000  -0.000   0.000
  0.004  -0.005   0.003   1.950  -0.002  -0.004   0.005  -0.002  -0.032   0.005   0.014  -0.005  -0.000  -0.000  -0.000  -0.000
 -0.008  -0.000  -0.016  -0.002   1.983   0.008  -0.005   0.016   0.005  -0.072   0.067   0.014  -0.000  -0.000  -0.000  -0.000
 -0.032   0.003  -0.008  -0.004   0.008   0.058  -0.001   0.013   0.005  -0.006   0.019   0.014  -0.000  -0.000   0.000   0.000
  0.003  -0.053   0.003   0.005  -0.005  -0.001   0.042  -0.003  -0.003   0.006  -0.018   0.009  -0.000   0.000   0.000  -0.000
 -0.008   0.003  -0.042  -0.002   0.016   0.013  -0.003   0.041   0.001  -0.005   0.080  -0.008  -0.000  -0.000   0.000  -0.000
 -0.004   0.005  -0.002  -0.032   0.005   0.005  -0.003   0.001   0.032  -0.007   0.002   0.007  -0.000  -0.000   0.000   0.000
  0.008  -0.005   0.016   0.005  -0.072  -0.006   0.006  -0.005  -0.007   0.032  -0.065   0.012  -0.000  -0.000  -0.000   0.000
  0.011   0.041  -0.045   0.014   0.067   0.019  -0.018   0.080   0.002  -0.065   0.927  -0.267  -0.000  -0.000   0.000  -0.000
 -0.012  -0.003  -0.029  -0.005   0.014   0.014   0.009  -0.008   0.007   0.012  -0.267   0.118   0.000   0.000  -0.000   0.000
  0.000  -0.000  -0.000  -0.000  -0.000  -0.000  -0.000  -0.000  -0.000  -0.000  -0.000   0.000   0.064   0.014  -0.007  -0.003
  0.000  -0.000  -0.000  -0.000  -0.000  -0.000   0.000  -0.000  -0.000  -0.000  -0.000   0.000   0.014   0.042  -0.000  -0.001
  0.000  -0.000  -0.000  -0.000  -0.000   0.000   0.000   0.000   0.000  -0.000   0.000  -0.000  -0.007  -0.000   0.117  -0.000
  0.000   0.000   0.000  -0.000  -0.000   0.000  -0.000  -0.000   0.000   0.000  -0.000   0.000  -0.003  -0.001  -0.000   0.000
  0.000  -0.000  -0.000   0.000   0.000   0.000   0.000  -0.000  -0.000   0.000  -0.000   0.000  -0.001  -0.003  -0.000   0.000
  0.000  -0.000  -0.000  -0.000  -0.000   0.000   0.000   0.000   0.000   0.000   0.000   0.000  -0.000  -0.000  -0.006   0.000


------------------------ aborting loop because EDIFF is reached ----------------------------------------




--------------------------------------------------------------------------------------------------------


    CHARGE:  VPU time    1.25: CPU time    1.25
    FORLOC:  VPU time    0.00: CPU time    0.01
    FORNL :  VPU time    2.95: CPU time    2.96
    STRESS:  VPU time    7.90: CPU time    7.91
    FORCOR:  VPU time    0.14: CPU time    0.14
    FORHAR:  VPU time    0.04: CPU time    0.04
    MIXING:  VPU time    0.00: CPU time    0.00


--------------------------------------------------------------------------------------------------------



  FREE ENERGIE OF THE ION-ELECTRON SYSTEM (eV)
  ---------------------------------------------------
  free  energy   TOTEN  =       -10.823866 eV

  energy  without entropy=      -10.823848  energy(sigma->0) =      -10.823857
 

  FORCE on cell =-STRESS in cart. coord.  units (eV/reduce length):
  Direction    X        Y        Z        XY       YZ       ZX
  --------------------------------------------------------------------------------------
  Alpha Z    330.60    330.60    330.60
  Ewald    -1206.82  -1206.82  -1206.82      0.00      0.00      0.00
  Hartree    304.82    304.82    304.82     -0.00     -0.00     -0.00
  E(xc)     -231.30   -231.30   -231.30     -0.00     -0.00     -0.00
  Local      360.08    360.08    360.08     -0.00      0.00     -0.00
  n-local   -267.22   -274.01   -275.83      0.10      2.00      0.53
  augment    166.81    166.81    166.81     -0.00      0.00      0.00
  Kinetic    550.22    541.73    537.39     -2.46      0.99     -0.79
  -------------------------------------------------------------------------------------
  Total       -5.06     -5.06     -5.06     -0.00     -0.00      0.00
  in kB      -94.25    -94.25    -94.25     -0.00     -0.00      0.00
  external pressure =      -94.25 kB  Pullay stress =        0.00 kB


 VOLUME and BASIS-vectors are now :
 -----------------------------------------------------------------------------
  energy-cutoff  :      750.00
  volume of cell :       85.94
      direct lattice vectors                 reciprocal lattice vectors
     4.413018269  0.000000000  0.000000000     0.226602280  0.000000000  0.000000000
     0.000000000  4.413018269  0.000000000     0.000000000  0.226602280  0.000000000
     0.000000000  0.000000000  4.413018269     0.000000000  0.000000000  0.226602280

  length of vectors
     4.413018269  4.413018269  4.413018269     0.226602280  0.226602280  0.226602280


 FORCES acting on ions
    electron-ion (+dipol)            ewald-force                    non-local-force                 convergence-correction
 -----------------------------------------------------------------------------------------------
   0.166E-13 0.747E-14 0.184E-14   -.216E-13 -.230E-14 -.118E-13   0.000E+00 -.646E-25 -.177E-24   -.595E-13 -.941E-13 -.703E-13
   -.764E-13 -.668E-12 -.286E-11   0.417E-14 -.196E-14 -.118E-13   -.103E-24 0.129E-25 0.905E-25   0.227E-14 0.354E-13 -.774E-13
   -.757E-13 0.512E-14 -.345E-11   0.514E-14 0.146E-15 0.101E-13   -.103E-24 -.646E-26 -.905E-25   -.924E-16 -.840E-13 0.510E-13
   0.166E-13 -.820E-13 -.895E-13   0.158E-13 0.483E-15 0.101E-13   -.129E-25 0.129E-25 0.948E-25   -.629E-13 0.285E-13 0.610E-13
 -----------------------------------------------------------------------------------------------
   -.119E-12 -.737E-12 -.640E-11   0.350E-14 -.362E-14 -.346E-14   -.220E-24 -.452E-25 -.818E-25   -.120E-12 -.114E-12 -.356E-13
 
 
 POSITION                                       TOTAL-FORCE (eV/Angst)
 -----------------------------------------------------------------------------------
      0.00000      0.00000      0.00000         0.000000      0.000000      0.000000
      2.20651      2.20651      0.00000         0.000000     -0.000000      0.000000
      2.20651      0.00000      2.20651         0.000000      0.000000      0.000000
      0.00000      2.20651      2.20651        -0.000000     -0.000000     -0.000000
 -----------------------------------------------------------------------------------
    total drift:                               -0.000000     -0.000000     -0.000000


--------------------------------------------------------------------------------------------------------



 mean value of Nose-termostat <S>:     1.000 mean value of <T> :     0.000
 mean temperature <T/S>/<1/S>  :     0.000

     LOOP+:  VPU time  172.11: CPU time  172.29
  
  
 General timing and accounting informations for this job:
 ========================================================
  
                  Total CPU time used (sec):      175.207
                            User time (sec):      159.635
                          System time (sec):       15.573
                         Elapsed time (sec):      175.419
  
                   Maximum memory used (kb):      509828.
                   Average memory used (kb):           0.
  
                          Minor page faults:       186858
                          Major page faults:            0
                 Voluntary context switches:          864
