<?xml version="1.0" encoding="ISO-8859-1"?>
<modeling>
 <generator>
  <i name="program" type="string">vasp</i>
  <i name="version" type="string">4.6.28 </i>
  <i name="subversion" type="string">25Jul05 complex  parallel</i>
  <i name="platform" type="string">LinuxIFC</i>
  <i name="date" type="string">2017 01 06</i>
  <i name="time" type="string">05:45:12</i>
 </generator>
 <incar>
  <i type="string" name="PREC">accurate</i>
  <i type="int" name="IALGO">    38</i>
  <i type="logical" name="ADDGRID"> T  </i>
  <i name="EDIFF">      0.00000001</i>
  <i type="int" name="IBRION">    -1</i>
  <i name="ENCUT">    750.00000000</i>
  <i type="logical" name="LREAL"> F  </i>
  <i type="int" name="ISMEAR">     0</i>
  <i name="SIGMA">      0.01000000</i>
  <i type="logical" name="LWAVE"> F  </i>
  <i type="logical" name="LCHARG"> F  </i>
 </incar>
 <kpoints>
  <generation param="Gamma">
   <v type="int" name="divisions">      12      12      12</v>
   <v name="usershift">      0.00000000      0.00000000      0.00000000</v>
   <v name="genvec1">      0.08333333      0.00000000      0.00000000</v>
   <v name="genvec2">      0.00000000      0.08333333      0.00000000</v>
   <v name="genvec3">      0.00000000      0.00000000      0.08333333</v>
   <v name="shift">      0.00000000      0.00000000      0.00000000</v>
  </generation>
  <varray name="kpointlist" >
   <v>       0.00000000      0.00000000      0.00000000</v>
   <v>       0.08333333      0.00000000      0.00000000</v>
   <v>       0.16666667      0.00000000      0.00000000</v>
   <v>       0.25000000      0.00000000      0.00000000</v>
   <v>       0.33333333      0.00000000      0.00000000</v>
   <v>       0.41666667      0.00000000      0.00000000</v>
   <v>       0.50000000      0.00000000      0.00000000</v>
   <v>       0.08333333      0.08333333      0.00000000</v>
   <v>       0.16666667      0.08333333      0.00000000</v>
   <v>       0.25000000      0.08333333      0.00000000</v>
   <v>       0.33333333      0.08333333      0.00000000</v>
   <v>       0.41666667      0.08333333      0.00000000</v>
   <v>       0.50000000      0.08333333      0.00000000</v>
   <v>       0.16666667      0.16666667      0.00000000</v>
   <v>       0.25000000      0.16666667      0.00000000</v>
   <v>       0.33333333      0.16666667      0.00000000</v>
   <v>       0.41666667      0.16666667      0.00000000</v>
   <v>       0.50000000      0.16666667      0.00000000</v>
   <v>       0.25000000      0.25000000      0.00000000</v>
   <v>       0.33333333      0.25000000      0.00000000</v>
   <v>       0.41666667      0.25000000      0.00000000</v>
   <v>       0.50000000      0.25000000      0.00000000</v>
   <v>       0.33333333      0.33333333      0.00000000</v>
   <v>       0.41666667      0.33333333      0.00000000</v>
   <v>       0.50000000      0.33333333      0.00000000</v>
   <v>       0.41666667      0.41666667      0.00000000</v>
   <v>       0.50000000      0.41666667      0.00000000</v>
   <v>       0.50000000      0.50000000      0.00000000</v>
   <v>       0.08333333      0.08333333      0.08333333</v>
   <v>       0.16666667      0.08333333      0.08333333</v>
   <v>       0.25000000      0.08333333      0.08333333</v>
   <v>       0.33333333      0.08333333      0.08333333</v>
   <v>       0.41666667      0.08333333      0.08333333</v>
   <v>       0.50000000      0.08333333      0.08333333</v>
   <v>       0.16666667      0.16666667      0.08333333</v>
   <v>       0.25000000      0.16666667      0.08333333</v>
   <v>       0.33333333      0.16666667      0.08333333</v>
   <v>       0.41666667      0.16666667      0.08333333</v>
   <v>       0.50000000      0.16666667      0.08333333</v>
   <v>       0.25000000      0.25000000      0.08333333</v>
   <v>       0.33333333      0.25000000      0.08333333</v>
   <v>       0.41666667      0.25000000      0.08333333</v>
   <v>       0.50000000      0.25000000      0.08333333</v>
   <v>       0.33333333      0.33333333      0.08333333</v>
   <v>       0.41666667      0.33333333      0.08333333</v>
   <v>       0.50000000      0.33333333      0.08333333</v>
   <v>       0.41666667      0.41666667      0.08333333</v>
   <v>       0.50000000      0.41666667      0.08333333</v>
   <v>       0.50000000      0.50000000      0.08333333</v>
   <v>       0.16666667      0.16666667      0.16666667</v>
   <v>       0.25000000      0.16666667      0.16666667</v>
   <v>       0.33333333      0.16666667      0.16666667</v>
   <v>       0.41666667      0.16666667      0.16666667</v>
   <v>       0.50000000      0.16666667      0.16666667</v>
   <v>       0.25000000      0.25000000      0.16666667</v>
   <v>       0.33333333      0.25000000      0.16666667</v>
   <v>       0.41666667      0.25000000      0.16666667</v>
   <v>       0.50000000      0.25000000      0.16666667</v>
   <v>       0.33333333      0.33333333      0.16666667</v>
   <v>       0.41666667      0.33333333      0.16666667</v>
   <v>       0.50000000      0.33333333      0.16666667</v>
   <v>       0.41666667      0.41666667      0.16666667</v>
   <v>       0.50000000      0.41666667      0.16666667</v>
   <v>       0.50000000      0.50000000      0.16666667</v>
   <v>       0.25000000      0.25000000      0.25000000</v>
   <v>       0.33333333      0.25000000      0.25000000</v>
   <v>       0.41666667      0.25000000      0.25000000</v>
   <v>       0.50000000      0.25000000      0.25000000</v>
   <v>       0.33333333      0.33333333      0.25000000</v>
   <v>       0.41666667      0.33333333      0.25000000</v>
   <v>       0.50000000      0.33333333      0.25000000</v>
   <v>       0.41666667      0.41666667      0.25000000</v>
   <v>       0.50000000      0.41666667      0.25000000</v>
   <v>       0.50000000      0.50000000      0.25000000</v>
   <v>       0.33333333      0.33333333      0.33333333</v>
   <v>       0.41666667      0.33333333      0.33333333</v>
   <v>       0.50000000      0.33333333      0.33333333</v>
   <v>       0.41666667      0.41666667      0.33333333</v>
   <v>       0.50000000      0.41666667      0.33333333</v>
   <v>       0.50000000      0.50000000      0.33333333</v>
   <v>       0.41666667      0.41666667      0.41666667</v>
   <v>       0.50000000      0.41666667      0.41666667</v>
   <v>       0.50000000      0.50000000      0.41666667</v>
   <v>       0.50000000      0.50000000      0.50000000</v>
  </varray>
  <varray name="weights" >
   <v>       0.00057870</v>
   <v>       0.00347222</v>
   <v>       0.00347222</v>
   <v>       0.00347222</v>
   <v>       0.00347222</v>
   <v>       0.00347222</v>
   <v>       0.00173611</v>
   <v>       0.00694444</v>
   <v>       0.01388889</v>
   <v>       0.01388889</v>
   <v>       0.01388889</v>
   <v>       0.01388889</v>
   <v>       0.00694444</v>
   <v>       0.00694444</v>
   <v>       0.01388889</v>
   <v>       0.01388889</v>
   <v>       0.01388889</v>
   <v>       0.00694444</v>
   <v>       0.00694444</v>
   <v>       0.01388889</v>
   <v>       0.01388889</v>
   <v>       0.00694444</v>
   <v>       0.00694444</v>
   <v>       0.01388889</v>
   <v>       0.00694444</v>
   <v>       0.00694444</v>
   <v>       0.00694444</v>
   <v>       0.00173611</v>
   <v>       0.00462963</v>
   <v>       0.01388889</v>
   <v>       0.01388889</v>
   <v>       0.01388889</v>
   <v>       0.01388889</v>
   <v>       0.00694444</v>
   <v>       0.01388889</v>
   <v>       0.02777778</v>
   <v>       0.02777778</v>
   <v>       0.02777778</v>
   <v>       0.01388889</v>
   <v>       0.01388889</v>
   <v>       0.02777778</v>
   <v>       0.02777778</v>
   <v>       0.01388889</v>
   <v>       0.01388889</v>
   <v>       0.02777778</v>
   <v>       0.01388889</v>
   <v>       0.01388889</v>
   <v>       0.01388889</v>
   <v>       0.00347222</v>
   <v>       0.00462963</v>
   <v>       0.01388889</v>
   <v>       0.01388889</v>
   <v>       0.01388889</v>
   <v>       0.00694444</v>
   <v>       0.01388889</v>
   <v>       0.02777778</v>
   <v>       0.02777778</v>
   <v>       0.01388889</v>
   <v>       0.01388889</v>
   <v>       0.02777778</v>
   <v>       0.01388889</v>
   <v>       0.01388889</v>
   <v>       0.01388889</v>
   <v>       0.00347222</v>
   <v>       0.00462963</v>
   <v>       0.01388889</v>
   <v>       0.01388889</v>
   <v>       0.00694444</v>
   <v>       0.01388889</v>
   <v>       0.02777778</v>
   <v>       0.01388889</v>
   <v>       0.01388889</v>
   <v>       0.01388889</v>
   <v>       0.00347222</v>
   <v>       0.00462963</v>
   <v>       0.01388889</v>
   <v>       0.00694444</v>
   <v>       0.01388889</v>
   <v>       0.01388889</v>
   <v>       0.00347222</v>
   <v>       0.00462963</v>
   <v>       0.00694444</v>
   <v>       0.00347222</v>
   <v>       0.00057870</v>
  </varray>
 </kpoints>
 <parameters>
  <separator name="general" >
   <i type="string" name="SYSTEM">unknown system</i>
   <i type="logical" name="LCOMPAT"> F  </i>
  </separator>
  <separator name="electronic" >
   <i type="string" name="PREC">accura</i>
   <i name="ENMAX">    750.00000000</i>
   <i name="ENAUG">    412.49600000</i>
   <i name="EDIFF">      0.00000001</i>
   <i type="int" name="IALGO">    38</i>
   <i type="int" name="IWAVPR">    10</i>
   <i type="int" name="NBANDS">    26</i>
   <i name="NELECT">     44.00000000</i>
   <separator name="electronic smearing" >
    <i type="int" name="ISMEAR">     0</i>
    <i name="SIGMA">      0.01000000</i>
   </separator>
   <separator name="electronic projectors" >
    <i type="logical" name="LREAL"> F  </i>
    <v name="ROPT">      0.00000000</v>
    <i type="int" name="LMAXPAW">  -100</i>
    <i type="int" name="LMAXMIX">     2</i>
   </separator>
   <separator name="electronic startup" >
    <i type="int" name="ISTART">     0</i>
    <i type="int" name="ICHARG">     2</i>
    <i type="int" name="INIWAV">     1</i>
   </separator>
   <separator name="electronic spin" >
    <i type="int" name="ISPIN">     1</i>
    <i type="logical" name="LNONCOLLINEAR"> F  </i>
    <v name="MAGMOM">      1.00000000      1.00000000      1.00000000      1.00000000</v>
    <i name="NUPDOWN">     -1.00000000</i>
    <i type="logical" name="LSORBIT"> F  </i>
    <v name="SAXIS">      0.00000000      0.00000000      1.00000000</v>
    <i type="logical" name="LSPIRAL"> F  </i>
    <v name="QSPIRAL">      0.00000000      0.00000000      0.00000000</v>
    <i type="logical" name="LZEROZ"> F  </i>
   </separator>
   <separator name="electronic exchange-correlation" >
    <i type="string" name="GGA">--</i>
    <i type="int" name="VOSKOWN">     0</i>
    <i type="logical" name="LASPH"> F  </i>
    <i type="logical" name="LMETAGGA"> F  </i>
    <i type="string" name="GGA2">--</i>
   </separator>
   <separator name="electronic convergence" >
    <i type="int" name="NELM">    60</i>
    <i type="int" name="NELMDL">     0</i>
    <i type="int" name="NELMIN">     2</i>
    <i name="ENINI">    750.00000000</i>
    <separator name="electronic convergence detail" >
     <i type="logical" name="LDIAG"> T  </i>
     <i name="WEIMIN">      0.00000000</i>
     <i name="EBREAK">      0.00000000</i>
     <i name="DEPER">      0.30000000</i>
     <i type="int" name="NRMM">     4</i>
     <i name="TIME">      0.10000000</i>
    </separator>
   </separator>
   <separator name="electronic mixer" >
    <i name="AMIX">      0.40000000</i>
    <i name="BMIX">      1.00000000</i>
    <i name="AMIN">      0.10000000</i>
    <i name="AMIX_MAG">      1.60000000</i>
    <i name="BMIX_MAG">      1.00000000</i>
    <separator name="electronic mixer details" >
     <i type="int" name="IMIX">     4</i>
     <i type="int" name="MAXMIX">   -45</i>
     <i name="WC">    100.00000000</i>
     <i type="int" name="INIMIX">     1</i>
     <i type="int" name="MIXPRE">     1</i>
     <i type="int" name="MREMOVE">     5</i>
    </separator>
   </separator>
   <separator name="electronic dipolcorrection" >
    <i type="int" name="IDIPOL">     0</i>
    <i type="logical" name="LDIPOL"> F  </i>
    <v name="DIPOL">   -100.00000000</v>
    <i name="EFIELD">      0.00000000</i>
   </separator>
  </separator>
  <separator name="grids" >
   <i type="int" name="NGX">    40</i>
   <i type="int" name="NGY">    40</i>
   <i type="int" name="NGZ">    40</i>
   <i type="int" name="NGXF">    80</i>
   <i type="int" name="NGYF">    80</i>
   <i type="int" name="NGZF">    80</i>
   <i type="logical" name="ADDGRID"> T  </i>
  </separator>
  <separator name="ionic" >
   <i type="int" name="NSW">     0</i>
   <i type="int" name="IBRION">    -1</i>
   <i type="int" name="ISIF">     2</i>
   <i name="PSTRESS">      0.00000000</i>
   <i name="EDIFFG">      0.00000010</i>
   <i type="int" name="NFREE">     0</i>
   <i name="POTIM">      0.50000000</i>
   <i name="SMASS">     -3.00000000</i>
  </separator>
  <separator name="ionic md" >
   <i name="TEBEG">      0.00010000</i>
   <i name="TEEND">      0.00010000</i>
   <i type="int" name="NBLOCK">     1</i>
   <i type="int" name="KBLOCK">     1</i>
   <i type="int" name="NPACO">   256</i>
   <i name="APACO">     16.00000000</i>
  </separator>
  <separator name="symmetry" >
   <i type="int" name="ISYM">     2</i>
   <i name="SYMPREC">      0.00001000</i>
  </separator>
  <separator name="dos" >
   <i type="logical" name="LORBIT"> F  </i>
   <v name="RWIGS">     -1.00000000</v>
   <i type="int" name="NEDOS">   301</i>
   <i name="EMIN">     10.00000000</i>
   <i name="EMAX">    -10.00000000</i>
  </separator>
  <separator name="writing" >
   <i type="int" name="NWRITE">     2</i>
   <i type="logical" name="LWAVE"> F  </i>
   <i type="logical" name="LCHARG"> F  </i>
   <i type="logical" name="LPARD"> F  </i>
   <i type="logical" name="LVTOT"> F  </i>
   <i type="logical" name="LELF"> F  </i>
   <i type="logical" name="LOPTICS"> F  </i>
   <i name="STM">      0.00000000</i>
  </separator>
  <separator name="performance" >
   <i type="int" name="NPAR">     4</i>
   <i type="int" name="NSIM">     4</i>
   <i type="int" name="NBLK">   256</i>
   <i type="logical" name="LPLANE"> T  </i>
   <i type="logical" name="LCRITICAL_MEM"> F  </i>
   <i type="logical" name="LSCALAPACK"> F  </i>
   <i type="logical" name="LSCALU"> F  </i>
   <i type="logical" name="LASYNC"> F  </i>
  </separator>
  <separator name="miscellaneous" >
   <i type="int" name="IDIOT">     3</i>
   <i type="logical" name="LMUSIC"> F  </i>
   <v name="POMASS">    107.86800000</v>
   <i type="logical" name="LCORR"> T  </i>
  </separator>
  <i type="logical" name="LREAL_COMPAT"> F  </i>
  <i type="logical" name="GGA_COMPAT"> T  </i>
  <i type="logical" name="LBERRY"> F  </i>
  <i type="int" name="ICORELEVEL">     0</i>
  <i type="logical" name="LDAU"> F  </i>
  <i type="int" name="I_CONSTRAINED_M">     0</i>
 </parameters>
 <atominfo>
  <atoms>       4</atoms>
  <types>       1</types>
  <array name="atoms" >
   <dimension dim="1">ion</dimension>
   <field type="string">element</field>
   <field type="int">atomtype</field>
   <set>
    <rc><c>Ag</c><c>   1</c></rc>
    <rc><c>Ag</c><c>   1</c></rc>
    <rc><c>Ag</c><c>   1</c></rc>
    <rc><c>Ag</c><c>   1</c></rc>
   </set>
  </array>
  <array name="atomtypes" >
   <dimension dim="1">type</dimension>
   <field type="int">atomspertype</field>
   <field type="string">element</field>
   <field>mass</field>
   <field>valence</field>
   <field type="string">pseudopotential</field>
   <set>
    <rc><c>   4</c><c>Ag</c><c>    107.86800000</c><c>     11.00000000</c><c> PAW_PBE Ag 06Sep2000                   </c></rc>
   </set>
  </array>
 </atominfo>
 <structure name="initialpos" >
  <crystal>
   <varray name="basis" >
    <v>       4.41301827      0.00000000      0.00000000</v>
    <v>       0.00000000      4.41301827      0.00000000</v>
    <v>       0.00000000      0.00000000      4.41301827</v>
   </varray>
   <i name="volume">     85.94234032</i>
   <varray name="rec_basis" >
    <v>       0.22660228      0.00000000      0.00000000</v>
    <v>       0.00000000      0.22660228      0.00000000</v>
    <v>       0.00000000      0.00000000      0.22660228</v>
   </varray>
  </crystal>
  <varray name="positions" >
   <v>       0.00000000      0.00000000      0.00000000</v>
   <v>       0.50000000      0.50000000      0.00000000</v>
   <v>       0.50000000      0.00000000      0.50000000</v>
   <v>       0.00000000      0.50000000      0.50000000</v>
  </varray>
 </structure>
 <calculation>
  <scstep>
   <time name="dav">   12.99   13.01</time>
   <time name="total">   13.47   13.49</time>
   <energy>
    <i name="alphaZ">    330.59878490</i>
    <i name="ewald">  -3620.44532950</i>
    <i name="hartreedc">   -955.83310864</i>
    <i name="XCdc">    -45.01748709</i>
    <i name="pawpsdc">   3482.67677651</i>
    <i name="pawaedc">  -3297.07979946</i>
    <i name="eentropy">     -0.00019612</i>
    <i name="bandstr">    410.66085579</i>
    <i name="atom">   4149.64961272</i>
    <i name="e_fr_energy">    455.21010912</i>
    <i name="e_wo_entrp">    455.21030523</i>
    <i name="e_0_energy">    455.21020718</i>
   </energy>
  </scstep>
  <scstep>
   <time name="dav">   13.03   13.05</time>
   <time name="total">   13.04   13.06</time>
   <energy>
    <i name="e_fr_energy">      4.39743641</i>
    <i name="e_wo_entrp">      4.39747744</i>
    <i name="e_0_energy">      4.39745693</i>
   </energy>
  </scstep>
  <scstep>
   <time name="dav">   13.75   13.77</time>
   <time name="total">   13.76   13.77</time>
   <energy>
    <i name="e_fr_energy">    -11.35332238</i>
    <i name="e_wo_entrp">    -11.35328195</i>
    <i name="e_0_energy">    -11.35330216</i>
   </energy>
  </scstep>
  <scstep>
   <time name="dav">   13.34   13.36</time>
   <time name="total">   13.35   13.37</time>
   <energy>
    <i name="e_fr_energy">    -11.48049776</i>
    <i name="e_wo_entrp">    -11.48045732</i>
    <i name="e_0_energy">    -11.48047754</i>
   </energy>
  </scstep>
  <scstep>
   <time name="dav">   13.22   13.23</time>
   <time name="total">   14.36   14.38</time>
   <energy>
    <i name="e_fr_energy">    -11.48099092</i>
    <i name="e_wo_entrp">    -11.48095048</i>
    <i name="e_0_energy">    -11.48097070</i>
   </energy>
  </scstep>
  <scstep>
   <time name="dav">   10.74   10.75</time>
   <time name="total">   11.97   11.98</time>
   <energy>
    <i name="e_fr_energy">    -10.83610633</i>
    <i name="e_wo_entrp">    -10.83608883</i>
    <i name="e_0_energy">    -10.83609758</i>
   </energy>
  </scstep>
  <scstep>
   <time name="dav">    8.78    8.78</time>
   <time name="total">    9.94    9.95</time>
   <energy>
    <i name="e_fr_energy">    -10.82790715</i>
    <i name="e_wo_entrp">    -10.82788965</i>
    <i name="e_0_energy">    -10.82789840</i>
   </energy>
  </scstep>
  <scstep>
   <time name="dav">    8.94    8.95</time>
   <time name="total">   10.13   10.13</time>
   <energy>
    <i name="e_fr_energy">    -10.82376535</i>
    <i name="e_wo_entrp">    -10.82374784</i>
    <i name="e_0_energy">    -10.82375659</i>
   </energy>
  </scstep>
  <scstep>
   <time name="dav">    8.89    8.90</time>
   <time name="total">   10.05   10.06</time>
   <energy>
    <i name="e_fr_energy">    -10.82387002</i>
    <i name="e_wo_entrp">    -10.82385249</i>
    <i name="e_0_energy">    -10.82386125</i>
   </energy>
  </scstep>
  <scstep>
   <time name="dav">    9.47    9.48</time>
   <time name="total">   11.03   11.04</time>
   <energy>
    <i name="e_fr_energy">    -10.82386712</i>
    <i name="e_wo_entrp">    -10.82384960</i>
    <i name="e_0_energy">    -10.82385836</i>
   </energy>
  </scstep>
  <scstep>
   <time name="dav">   12.95   12.96</time>
   <time name="total">   14.79   14.81</time>
   <energy>
    <i name="e_fr_energy">    -10.82386647</i>
    <i name="e_wo_entrp">    -10.82384895</i>
    <i name="e_0_energy">    -10.82385771</i>
   </energy>
  </scstep>
  <scstep>
   <time name="dav">    8.40    8.41</time>
   <time name="total">    9.75    9.76</time>
   <energy>
    <i name="e_fr_energy">    -10.82386596</i>
    <i name="e_wo_entrp">    -10.82384845</i>
    <i name="e_0_energy">    -10.82385721</i>
   </energy>
  </scstep>
  <scstep>
   <time name="dav">    5.88    5.89</time>
   <time name="total">    7.02    7.03</time>
   <energy>
    <i name="e_fr_energy">    -10.82386594</i>
    <i name="e_wo_entrp">    -10.82384843</i>
    <i name="e_0_energy">    -10.82385719</i>
   </energy>
  </scstep>
  <scstep>
   <time name="dav">    6.78    6.79</time>
   <time name="total">    7.12    7.13</time>
   <energy>
    <i name="alphaZ">    330.59878490</i>
    <i name="ewald">  -3620.44532950</i>
    <i name="hartreedc">   -914.44987176</i>
    <i name="XCdc">    -46.58305255</i>
    <i name="pawpsdc">   3436.91842948</i>
    <i name="pawaedc">  -3256.65648271</i>
    <i name="eentropy">     -0.00001751</i>
    <i name="bandstr">    -89.85593901</i>
    <i name="atom">   4149.64961272</i>
    <i name="e_fr_energy">    -10.82386595</i>
    <i name="e_wo_entrp">    -10.82384844</i>
    <i name="e_0_energy">    -10.82385720</i>
   </energy>
  </scstep>
  <structure>
   <crystal>
    <varray name="basis" >
     <v>       4.41301827      0.00000000      0.00000000</v>
     <v>       0.00000000      4.41301827      0.00000000</v>
     <v>       0.00000000      0.00000000      4.41301827</v>
    </varray>
    <i name="volume">     85.94234032</i>
    <varray name="rec_basis" >
     <v>       0.22660228      0.00000000      0.00000000</v>
     <v>       0.00000000      0.22660228      0.00000000</v>
     <v>       0.00000000      0.00000000      0.22660228</v>
    </varray>
   </crystal>
   <varray name="positions" >
    <v>       0.00000000      0.00000000      0.00000000</v>
    <v>       0.50000000      0.50000000      0.00000000</v>
    <v>       0.50000000      0.00000000      0.50000000</v>
    <v>       0.00000000      0.50000000      0.50000000</v>
   </varray>
  </structure>
  <varray name="forces" >
   <v>       0.00000000      0.00000000      0.00000000</v>
   <v>       0.00000000     -0.00000000      0.00000000</v>
   <v>       0.00000000      0.00000000      0.00000000</v>
   <v>      -0.00000000     -0.00000000     -0.00000000</v>
  </varray>
  <varray name="stress" >
   <v>     -94.25216155     -0.00000000      0.00000000</v>
   <v>      -0.00000000    -94.25216155     -0.00000000</v>
   <v>       0.00000000     -0.00000000    -94.25216155</v>
  </varray>
  <energy>
   <i name="e_fr_energy">    -10.82386595</i>
   <i name="e_wo_entrp">    -10.82385720</i>
   <i name="e_0_energy">     -0.00001751</i>
  </energy>
  <eigenvalues>
   <array>
    <dimension dim="1">band</dimension>
    <dimension dim="2">kpoint</dimension>
    <dimension dim="3">spin</dimension>
    <field>eigene</field>
    <field>occ</field>
    <set>
     <set comment="spin 1">
      <set comment="kpoint 1">
       <r>  -4.5153  1.0000</r>
       <r>  -3.4801  1.0000</r>
       <r>  -3.4801  1.0000</r>
       <r>  -3.4801  1.0000</r>
       <r>  -3.4147  1.0000</r>
       <r>  -3.4147  1.0000</r>
       <r>  -3.4147  1.0000</r>
       <r>  -2.4225  1.0000</r>
       <r>  -2.4225  1.0000</r>
       <r>  -2.4225  1.0000</r>
       <r>  -1.7410  1.0000</r>
       <r>  -1.7410  1.0000</r>
       <r>  -1.2361  1.0000</r>
       <r>  -1.2361  1.0000</r>
       <r>  -1.2361  1.0000</r>
       <r>  -1.0759  1.0000</r>
       <r>  -1.0759  1.0000</r>
       <r>  -1.0759  1.0000</r>
       <r>  -1.0759  1.0000</r>
       <r>  -1.0759  1.0000</r>
       <r>  -1.0759  1.0000</r>
       <r>   3.5264  0.0000</r>
       <r>   3.5264  0.0000</r>
       <r>   3.5264  0.0000</r>
       <r>   6.8576  0.0000</r>
       <r>   6.8576  0.0000</r>
       <r>   6.8576  0.0000</r>
       <r>  11.3297  0.0000</r>
      </set>
      <set comment="kpoint 2">
       <r>  -4.4547  1.0000</r>
       <r>  -3.4588  1.0000</r>
       <r>  -3.4527  1.0000</r>
       <r>  -3.4527  1.0000</r>
       <r>  -3.3990  1.0000</r>
       <r>  -3.3903  1.0000</r>
       <r>  -3.3903  1.0000</r>
       <r>  -2.4408  1.0000</r>
       <r>  -2.4043  1.0000</r>
       <r>  -2.4043  1.0000</r>
       <r>  -1.7591  1.0000</r>
       <r>  -1.7327  1.0000</r>
       <r>  -1.2600  1.0000</r>
       <r>  -1.2600  1.0000</r>
       <r>  -1.2450  1.0000</r>
       <r>  -1.1537  1.0000</r>
       <r>  -1.1537  1.0000</r>
       <r>  -1.1055  1.0000</r>
       <r>  -1.1055  1.0000</r>
       <r>  -1.0759  1.0000</r>
       <r>  -1.0759  1.0000</r>
       <r>   3.0214  0.0000</r>
       <r>   3.6584  0.0000</r>
       <r>   3.6584  0.0000</r>
       <r>   6.8729  0.0000</r>
       <r>   6.8729  0.0000</r>
       <r>   7.4667  0.0000</r>
       <r>  11.0704  0.0000</r>
      </set>
      <set comment="kpoint 3">
       <r>  -4.2758  1.0000</r>
       <r>  -3.3977  1.0000</r>
       <r>  -3.3742  1.0000</r>
       <r>  -3.3742  1.0000</r>
       <r>  -3.3529  1.0000</r>
       <r>  -3.3173  1.0000</r>
       <r>  -3.3173  1.0000</r>
       <r>  -2.4942  1.0000</r>
       <r>  -2.3503  1.0000</r>
       <r>  -2.3503  1.0000</r>
       <r>  -1.8093  1.0000</r>
       <r>  -1.7084  1.0000</r>
       <r>  -1.3618  1.0000</r>
       <r>  -1.3618  1.0000</r>
       <r>  -1.3290  1.0000</r>
       <r>  -1.3290  1.0000</r>
       <r>  -1.2712  1.0000</r>
       <r>  -1.1904  1.0000</r>
       <r>  -1.1904  1.0000</r>
       <r>  -1.0758  1.0000</r>
       <r>  -1.0758  1.0000</r>
       <r>   2.0243  0.0000</r>
       <r>   4.0284  0.0000</r>
       <r>   4.0284  0.0000</r>
       <r>   6.9191  0.0000</r>
       <r>   6.9191  0.0000</r>
       <r>   8.7769  0.0000</r>
       <r>  10.4231  0.0000</r>
      </set>
      <set comment="kpoint 4">
       <r>  -3.9900  1.0000</r>
       <r>  -3.3046  1.0000</r>
       <r>  -3.2789  1.0000</r>
       <r>  -3.2562  1.0000</r>
       <r>  -3.2562  1.0000</r>
       <r>  -3.1962  1.0000</r>
       <r>  -3.1962  1.0000</r>
       <r>  -2.5782  1.0000</r>
       <r>  -2.2621  1.0000</r>
       <r>  -2.2621  1.0000</r>
       <r>  -1.8768  1.0000</r>
       <r>  -1.6694  1.0000</r>
       <r>  -1.6471  1.0000</r>
       <r>  -1.6471  1.0000</r>
       <r>  -1.4344  1.0000</r>
       <r>  -1.4344  1.0000</r>
       <r>  -1.3201  1.0000</r>
       <r>  -1.3201  1.0000</r>
       <r>  -1.3125  1.0000</r>
       <r>  -1.0756  1.0000</r>
       <r>  -1.0756  1.0000</r>
       <r>   0.9691  1.0000</r>
       <r>   4.5812  0.0000</r>
       <r>   4.5812  0.0000</r>
       <r>   6.9970  0.0000</r>
       <r>   6.9970  0.0000</r>
       <r>   9.5904  0.0000</r>
       <r>   9.5904  0.0000</r>
      </set>
      <set comment="kpoint 5">
       <r>  -3.6289  1.0000</r>
       <r>  -3.1958  1.0000</r>
       <r>  -3.1810  1.0000</r>
       <r>  -3.1206  1.0000</r>
       <r>  -3.1206  1.0000</r>
       <r>  -3.0282  1.0000</r>
       <r>  -3.0282  1.0000</r>
       <r>  -2.6859  1.0000</r>
       <r>  -2.1428  1.0000</r>
       <r>  -2.1428  1.0000</r>
       <r>  -1.9616  1.0000</r>
       <r>  -1.9616  1.0000</r>
       <r>  -1.9248  1.0000</r>
       <r>  -1.6183  1.0000</r>
       <r>  -1.5577  1.0000</r>
       <r>  -1.5577  1.0000</r>
       <r>  -1.4801  1.0000</r>
       <r>  -1.4801  1.0000</r>
       <r>  -1.3660  1.0000</r>
       <r>  -1.0755  1.0000</r>
       <r>  -1.0755  1.0000</r>
       <r>  -0.0157  1.0000</r>
       <r>   5.2655  0.0000</r>
       <r>   5.2655  0.0000</r>
       <r>   7.1015  0.0000</r>
       <r>   7.1015  0.0000</r>
       <r>   8.6895  0.0000</r>
       <r>   8.6895  0.0000</r>
      </set>
      <set comment="kpoint 6">
       <r>  -3.2794  1.0000</r>
       <r>  -3.1030  1.0000</r>
       <r>  -3.0652  1.0000</r>
       <r>  -3.0043  1.0000</r>
       <r>  -3.0043  1.0000</r>
       <r>  -2.8153  1.0000</r>
       <r>  -2.8153  1.0000</r>
       <r>  -2.8090  1.0000</r>
       <r>  -2.2729  1.0000</r>
       <r>  -2.2729  1.0000</r>
       <r>  -1.9970  1.0000</r>
       <r>  -1.9970  1.0000</r>
       <r>  -1.8592  1.0000</r>
       <r>  -1.6652  1.0000</r>
       <r>  -1.6652  1.0000</r>
       <r>  -1.6552  1.0000</r>
       <r>  -1.6552  1.0000</r>
       <r>  -1.5583  1.0000</r>
       <r>  -1.4277  1.0000</r>
       <r>  -1.0754  1.0000</r>
       <r>  -1.0754  1.0000</r>
       <r>  -0.8697  1.0000</r>
       <r>   6.0436  0.0000</r>
       <r>   6.0436  0.0000</r>
       <r>   7.2088  0.0000</r>
       <r>   7.2088  0.0000</r>
       <r>   7.7782  0.0000</r>
       <r>   7.7782  0.0000</r>
      </set>
      <set comment="kpoint 7">
       <r>  -3.0953  1.0000</r>
       <r>  -3.0953  1.0000</r>
       <r>  -2.9564  1.0000</r>
       <r>  -2.9564  1.0000</r>
       <r>  -2.9384  1.0000</r>
       <r>  -2.9384  1.0000</r>
       <r>  -2.5613  1.0000</r>
       <r>  -2.5613  1.0000</r>
       <r>  -2.5613  1.0000</r>
       <r>  -2.5613  1.0000</r>
       <r>  -1.8314  1.0000</r>
       <r>  -1.8314  1.0000</r>
       <r>  -1.8314  1.0000</r>
       <r>  -1.8314  1.0000</r>
       <r>  -1.7099  1.0000</r>
       <r>  -1.7099  1.0000</r>
       <r>  -1.5185  1.0000</r>
       <r>  -1.5185  1.0000</r>
       <r>  -1.4933  1.0000</r>
       <r>  -1.4933  1.0000</r>
       <r>  -1.0754  1.0000</r>
       <r>  -1.0754  1.0000</r>
       <r>   6.8885  0.0000</r>
       <r>   6.8885  0.0000</r>
       <r>   6.8885  0.0000</r>
       <r>   6.8885  0.0000</r>
       <r>   7.2597  0.0000</r>
       <r>   7.2597  0.0000</r>
      </set>
      <set comment="kpoint 8">
       <r>  -4.3949  1.0000</r>
       <r>  -3.4326  1.0000</r>
       <r>  -3.4313  1.0000</r>
       <r>  -3.4313  1.0000</r>
       <r>  -3.3750  1.0000</r>
       <r>  -3.3750  1.0000</r>
       <r>  -3.3597  1.0000</r>
       <r>  -2.4468  1.0000</r>
       <r>  -2.3980  1.0000</r>
       <r>  -2.3872  1.0000</r>
       <r>  -1.7637  1.0000</r>
       <r>  -1.7362  1.0000</r>
       <r>  -1.2829  1.0000</r>
       <r>  -1.2800  1.0000</r>
       <r>  -1.2800  1.0000</r>
       <r>  -1.2068  1.0000</r>
       <r>  -1.1722  1.0000</r>
       <r>  -1.1722  1.0000</r>
       <r>  -1.1056  1.0000</r>
       <r>  -1.1056  1.0000</r>
       <r>  -1.0968  1.0000</r>
       <r>   3.1442  0.0000</r>
       <r>   3.1442  0.0000</r>
       <r>   3.7867  0.0000</r>
       <r>   6.8875  0.0000</r>
       <r>   7.4900  0.0000</r>
       <r>   7.4900  0.0000</r>
       <r>  10.2944  0.0000</r>
      </set>
      <set comment="kpoint 9">
       <r>  -4.2186  1.0000</r>
       <r>  -3.3707  1.0000</r>
       <r>  -3.3696  1.0000</r>
       <r>  -3.3524  1.0000</r>
       <r>  -3.3298  1.0000</r>
       <r>  -3.3030  1.0000</r>
       <r>  -3.2732  1.0000</r>
       <r>  -2.4931  1.0000</r>
       <r>  -2.3497  1.0000</r>
       <r>  -2.3369  1.0000</r>
       <r>  -1.8069  1.0000</r>
       <r>  -1.7133  1.0000</r>
       <r>  -1.4316  1.0000</r>
       <r>  -1.3955  1.0000</r>
       <r>  -1.3494  1.0000</r>
       <r>  -1.3462  1.0000</r>
       <r>  -1.2966  1.0000</r>
       <r>  -1.2177  1.0000</r>
       <r>  -1.1907  1.0000</r>
       <r>  -1.1070  1.0000</r>
       <r>  -1.1058  1.0000</r>
       <r>   2.1415  0.0000</r>
       <r>   3.4842  0.0000</r>
       <r>   4.1479  0.0000</r>
       <r>   6.9299  0.0000</r>
       <r>   7.5599  0.0000</r>
       <r>   8.8016  0.0000</r>
       <r>   9.4178  0.0000</r>
      </set>
      <set comment="kpoint 10">
       <r>  -3.9375  1.0000</r>
       <r>  -3.2756  1.0000</r>
       <r>  -3.2678  1.0000</r>
       <r>  -3.2573  1.0000</r>
       <r>  -3.2336  1.0000</r>
       <r>  -3.1836  1.0000</r>
       <r>  -3.1421  1.0000</r>
       <r>  -2.5736  1.0000</r>
       <r>  -2.2629  1.0000</r>
       <r>  -2.2586  1.0000</r>
       <r>  -1.8664  1.0000</r>
       <r>  -1.7003  1.0000</r>
       <r>  -1.6693  1.0000</r>
       <r>  -1.6683  1.0000</r>
       <r>  -1.4623  1.0000</r>
       <r>  -1.4511  1.0000</r>
       <r>  -1.4149  1.0000</r>
       <r>  -1.3207  1.0000</r>
       <r>  -1.2752  1.0000</r>
       <r>  -1.1089  1.0000</r>
       <r>  -1.1061  1.0000</r>
       <r>   1.0891  1.0000</r>
       <r>   3.9821  0.0000</r>
       <r>   4.6909  0.0000</r>
       <r>   6.9889  0.0000</r>
       <r>   7.6725  0.0000</r>
       <r>   8.5691  0.0000</r>
       <r>   9.6756  0.0000</r>
      </set>
      <set comment="kpoint 11">
       <r>  -3.5834  1.0000</r>
       <r>  -3.1651  1.0000</r>
       <r>  -3.1616  1.0000</r>
       <r>  -3.1338  1.0000</r>
       <r>  -3.0970  1.0000</r>
       <r>  -3.0180  1.0000</r>
       <r>  -2.9795  1.0000</r>
       <r>  -2.6782  1.0000</r>
       <r>  -2.1738  1.0000</r>
       <r>  -2.1440  1.0000</r>
       <r>  -2.0032  1.0000</r>
       <r>  -1.9730  1.0000</r>
       <r>  -1.8837  1.0000</r>
       <r>  -1.6173  1.0000</r>
       <r>  -1.6095  1.0000</r>
       <r>  -1.5702  1.0000</r>
       <r>  -1.5438  1.0000</r>
       <r>  -1.4811  1.0000</r>
       <r>  -1.3414  1.0000</r>
       <r>  -1.1090  1.0000</r>
       <r>  -1.1065  1.0000</r>
       <r>   0.1142  1.0000</r>
       <r>   4.5826  0.0000</r>
       <r>   5.3665  0.0000</r>
       <r>   6.9826  0.0000</r>
       <r>   7.8021  0.0000</r>
       <r>   7.8741  0.0000</r>
       <r>   8.7739  0.0000</r>
      </set>
      <set comment="kpoint 12">
       <r>  -3.2408  1.0000</r>
       <r>  -3.0698  1.0000</r>
       <r>  -3.0483  1.0000</r>
       <r>  -3.0017  1.0000</r>
       <r>  -2.9807  1.0000</r>
       <r>  -2.8085  1.0000</r>
       <r>  -2.7982  1.0000</r>
       <r>  -2.7921  1.0000</r>
       <r>  -2.2998  1.0000</r>
       <r>  -2.2766  1.0000</r>
       <r>  -2.1071  1.0000</r>
       <r>  -1.9984  1.0000</r>
       <r>  -1.7966  1.0000</r>
       <r>  -1.7529  1.0000</r>
       <r>  -1.6726  1.0000</r>
       <r>  -1.6578  1.0000</r>
       <r>  -1.6565  1.0000</r>
       <r>  -1.5318  1.0000</r>
       <r>  -1.4168  1.0000</r>
       <r>  -1.1085  1.0000</r>
       <r>  -1.1071  1.0000</r>
       <r>  -0.7197  1.0000</r>
       <r>   5.2444  0.0000</r>
       <r>   6.1376  0.0000</r>
       <r>   6.5976  0.0000</r>
       <r>   7.6510  0.0000</r>
       <r>   7.8606  0.0000</r>
       <r>   7.8638  0.0000</r>
      </set>
      <set comment="kpoint 13">
       <r>  -3.0595  1.0000</r>
       <r>  -3.0595  1.0000</r>
       <r>  -2.9379  1.0000</r>
       <r>  -2.9379  1.0000</r>
       <r>  -2.9245  1.0000</r>
       <r>  -2.9245  1.0000</r>
       <r>  -2.5674  1.0000</r>
       <r>  -2.5674  1.0000</r>
       <r>  -2.5590  1.0000</r>
       <r>  -2.5590  1.0000</r>
       <r>  -1.9799  1.0000</r>
       <r>  -1.9799  1.0000</r>
       <r>  -1.8328  1.0000</r>
       <r>  -1.8328  1.0000</r>
       <r>  -1.7105  1.0000</r>
       <r>  -1.7105  1.0000</r>
       <r>  -1.5173  1.0000</r>
       <r>  -1.5173  1.0000</r>
       <r>  -1.3245  1.0000</r>
       <r>  -1.3245  1.0000</r>
       <r>  -1.1078  1.0000</r>
       <r>  -1.1078  1.0000</r>
       <r>   5.9350  0.0000</r>
       <r>   5.9350  0.0000</r>
       <r>   6.9775  0.0000</r>
       <r>   6.9775  0.0000</r>
       <r>   7.7641  0.0000</r>
       <r>   7.7641  0.0000</r>
      </set>
      <set comment="kpoint 14">
       <r>  -4.0504  1.0000</r>
       <r>  -3.3342  1.0000</r>
       <r>  -3.2892  1.0000</r>
       <r>  -3.2892  1.0000</r>
       <r>  -3.2608  1.0000</r>
       <r>  -3.2608  1.0000</r>
       <r>  -3.1705  1.0000</r>
       <r>  -2.5107  1.0000</r>
       <r>  -2.3263  1.0000</r>
       <r>  -2.2983  1.0000</r>
       <r>  -1.8239  1.0000</r>
       <r>  -1.6992  1.0000</r>
       <r>  -1.5491  1.0000</r>
       <r>  -1.5491  1.0000</r>
       <r>  -1.5207  1.0000</r>
       <r>  -1.4088  1.0000</r>
       <r>  -1.2883  1.0000</r>
       <r>  -1.2883  1.0000</r>
       <r>  -1.1917  1.0000</r>
       <r>  -1.1917  1.0000</r>
       <r>  -1.1583  1.0000</r>
       <r>   2.4614  0.0000</r>
       <r>   2.4614  0.0000</r>
       <r>   4.4879  0.0000</r>
       <r>   6.9466  0.0000</r>
       <r>   8.4324  0.0000</r>
       <r>   8.8653  0.0000</r>
       <r>   8.8653  0.0000</r>
      </set>
      <set comment="kpoint 15">
       <r>  -3.7845  1.0000</r>
       <r>  -3.2544  1.0000</r>
       <r>  -3.1931  1.0000</r>
       <r>  -3.1922  1.0000</r>
       <r>  -3.1679  1.0000</r>
       <r>  -3.1464  1.0000</r>
       <r>  -3.0311  1.0000</r>
       <r>  -2.5697  1.0000</r>
       <r>  -2.2548  1.0000</r>
       <r>  -2.2443  1.0000</r>
       <r>  -1.8651  1.0000</r>
       <r>  -1.8194  1.0000</r>
       <r>  -1.7416  1.0000</r>
       <r>  -1.6956  1.0000</r>
       <r>  -1.6385  1.0000</r>
       <r>  -1.5004  1.0000</r>
       <r>  -1.3948  1.0000</r>
       <r>  -1.3226  1.0000</r>
       <r>  -1.3140  1.0000</r>
       <r>  -1.1932  1.0000</r>
       <r>  -1.1855  1.0000</r>
       <r>   1.4085  1.0000</r>
       <r>   2.9230  0.0000</r>
       <r>   5.0061  0.0000</r>
       <r>   6.8325  0.0000</r>
       <r>   7.6906  0.0000</r>
       <r>   8.9109  0.0000</r>
       <r>   9.9258  0.0000</r>
      </set>
      <set comment="kpoint 16">
       <r>  -3.4533  1.0000</r>
       <r>  -3.1350  1.0000</r>
       <r>  -3.1039  1.0000</r>
       <r>  -3.0767  1.0000</r>
       <r>  -3.0283  1.0000</r>
       <r>  -2.9883  1.0000</r>
       <r>  -2.8742  1.0000</r>
       <r>  -2.6600  1.0000</r>
       <r>  -2.2142  1.0000</r>
       <r>  -2.1425  1.0000</r>
       <r>  -2.1047  1.0000</r>
       <r>  -2.0111  1.0000</r>
       <r>  -1.8628  1.0000</r>
       <r>  -1.8555  1.0000</r>
       <r>  -1.6078  1.0000</r>
       <r>  -1.5349  1.0000</r>
       <r>  -1.5240  1.0000</r>
       <r>  -1.4838  1.0000</r>
       <r>  -1.3706  1.0000</r>
       <r>  -1.1957  1.0000</r>
       <r>  -1.1950  1.0000</r>
       <r>   0.4432  1.0000</r>
       <r>   3.4778  0.0000</r>
       <r>   5.6590  0.0000</r>
       <r>   6.2539  0.0000</r>
       <r>   7.5508  0.0000</r>
       <r>   8.7716  0.0000</r>
       <r>   9.0214  0.0000</r>
      </set>
      <set comment="kpoint 17">
       <r>  -3.1332  1.0000</r>
       <r>  -2.9986  1.0000</r>
       <r>  -2.9930  1.0000</r>
       <r>  -2.9739  1.0000</r>
       <r>  -2.9120  1.0000</r>
       <r>  -2.7891  1.0000</r>
       <r>  -2.7683  1.0000</r>
       <r>  -2.7239  1.0000</r>
       <r>  -2.3683  1.0000</r>
       <r>  -2.2896  1.0000</r>
       <r>  -2.2274  1.0000</r>
       <r>  -2.0382  1.0000</r>
       <r>  -1.9999  1.0000</r>
       <r>  -1.7326  1.0000</r>
       <r>  -1.6970  1.0000</r>
       <r>  -1.6596  1.0000</r>
       <r>  -1.6474  1.0000</r>
       <r>  -1.4560  1.0000</r>
       <r>  -1.3562  1.0000</r>
       <r>  -1.1986  1.0000</r>
       <r>  -1.1969  1.0000</r>
       <r>  -0.3775  1.0000</r>
       <r>   4.0992  0.0000</r>
       <r>   5.5026  0.0000</r>
       <r>   6.4117  0.0000</r>
       <r>   7.7321  0.0000</r>
       <r>   8.1151  0.0000</r>
       <r>   8.4143  0.0000</r>
      </set>
      <set comment="kpoint 18">
       <r>  -2.9579  1.0000</r>
       <r>  -2.9579  1.0000</r>
       <r>  -2.8891  1.0000</r>
       <r>  -2.8891  1.0000</r>
       <r>  -2.8841  1.0000</r>
       <r>  -2.8841  1.0000</r>
       <r>  -2.5756  1.0000</r>
       <r>  -2.5756  1.0000</r>
       <r>  -2.5535  1.0000</r>
       <r>  -2.5535  1.0000</r>
       <r>  -2.1833  1.0000</r>
       <r>  -2.1833  1.0000</r>
       <r>  -1.8356  1.0000</r>
       <r>  -1.8356  1.0000</r>
       <r>  -1.7175  1.0000</r>
       <r>  -1.7175  1.0000</r>
       <r>  -1.5753  1.0000</r>
       <r>  -1.5753  1.0000</r>
       <r>  -1.1984  1.0000</r>
       <r>  -1.1984  1.0000</r>
       <r>  -0.9935  1.0000</r>
       <r>  -0.9935  1.0000</r>
       <r>   4.7759  0.0000</r>
       <r>   4.7759  0.0000</r>
       <r>   7.2377  0.0000</r>
       <r>   7.2377  0.0000</r>
       <r>   8.0360  0.0000</r>
       <r>   8.0360  0.0000</r>
      </set>
      <set comment="kpoint 19">
       <r>  -3.5473  1.0000</r>
       <r>  -3.1998  1.0000</r>
       <r>  -3.0871  1.0000</r>
       <r>  -3.0871  1.0000</r>
       <r>  -3.0660  1.0000</r>
       <r>  -3.0660  1.0000</r>
       <r>  -2.8898  1.0000</r>
       <r>  -2.5897  1.0000</r>
       <r>  -2.2197  1.0000</r>
       <r>  -2.2129  1.0000</r>
       <r>  -1.9667  1.0000</r>
       <r>  -1.9667  1.0000</r>
       <r>  -1.9005  1.0000</r>
       <r>  -1.8841  1.0000</r>
       <r>  -1.5779  1.0000</r>
       <r>  -1.5334  1.0000</r>
       <r>  -1.4052  1.0000</r>
       <r>  -1.4052  1.0000</r>
       <r>  -1.3254  1.0000</r>
       <r>  -1.3254  1.0000</r>
       <r>  -1.2578  1.0000</r>
       <r>   1.8590  0.0000</r>
       <r>   1.8590  0.0000</r>
       <r>   5.4938  0.0000</r>
       <r>   6.1310  0.0000</r>
       <r>   7.5007  0.0000</r>
       <r>   9.9664  0.0000</r>
       <r>   9.9664  0.0000</r>
      </set>
      <set comment="kpoint 20">
       <r>  -3.2603  1.0000</r>
       <r>  -3.1044  1.0000</r>
       <r>  -3.0094  1.0000</r>
       <r>  -2.9420  1.0000</r>
       <r>  -2.9414  1.0000</r>
       <r>  -2.9202  1.0000</r>
       <r>  -2.7399  1.0000</r>
       <r>  -2.6453  1.0000</r>
       <r>  -2.2328  1.0000</r>
       <r>  -2.2230  1.0000</r>
       <r>  -2.1250  1.0000</r>
       <r>  -2.1232  1.0000</r>
       <r>  -2.0870  1.0000</r>
       <r>  -1.9049  1.0000</r>
       <r>  -1.6701  1.0000</r>
       <r>  -1.5285  1.0000</r>
       <r>  -1.4872  1.0000</r>
       <r>  -1.4542  1.0000</r>
       <r>  -1.3499  1.0000</r>
       <r>  -1.3283  1.0000</r>
       <r>  -1.3012  1.0000</r>
       <r>   0.8894  1.0000</r>
       <r>   2.3973  0.0000</r>
       <r>   5.2567  0.0000</r>
       <r>   6.1174  0.0000</r>
       <r>   7.6477  0.0000</r>
       <r>   9.3655  0.0000</r>
       <r>   9.4174  0.0000</r>
      </set>
      <set comment="kpoint 21">
       <r>  -2.9847  1.0000</r>
       <r>  -2.9736  1.0000</r>
       <r>  -2.9187  1.0000</r>
       <r>  -2.8274  1.0000</r>
       <r>  -2.8050  1.0000</r>
       <r>  -2.7597  1.0000</r>
       <r>  -2.7270  1.0000</r>
       <r>  -2.6174  1.0000</r>
       <r>  -2.4535  1.0000</r>
       <r>  -2.3179  1.0000</r>
       <r>  -2.2930  1.0000</r>
       <r>  -2.2734  1.0000</r>
       <r>  -1.9932  1.0000</r>
       <r>  -1.8098  1.0000</r>
       <r>  -1.7434  1.0000</r>
       <r>  -1.6622  1.0000</r>
       <r>  -1.6566  1.0000</r>
       <r>  -1.5431  1.0000</r>
       <r>  -1.3302  1.0000</r>
       <r>  -1.3216  1.0000</r>
       <r>  -1.0587  1.0000</r>
       <r>   0.0575  1.0000</r>
       <r>   3.0059  0.0000</r>
       <r>   4.4323  0.0000</r>
       <r>   6.8452  0.0000</r>
       <r>   7.9212  0.0000</r>
       <r>   8.5165  0.0000</r>
       <r>   8.7869  0.0000</r>
      </set>
      <set comment="kpoint 22">
       <r>  -2.8338  1.0000</r>
       <r>  -2.8338  1.0000</r>
       <r>  -2.8217  1.0000</r>
       <r>  -2.8217  1.0000</r>
       <r>  -2.8126  1.0000</r>
       <r>  -2.8126  1.0000</r>
       <r>  -2.5557  1.0000</r>
       <r>  -2.5557  1.0000</r>
       <r>  -2.5483  1.0000</r>
       <r>  -2.5483  1.0000</r>
       <r>  -2.3468  1.0000</r>
       <r>  -2.3468  1.0000</r>
       <r>  -1.8354  1.0000</r>
       <r>  -1.8354  1.0000</r>
       <r>  -1.7440  1.0000</r>
       <r>  -1.7440  1.0000</r>
       <r>  -1.6686  1.0000</r>
       <r>  -1.6686  1.0000</r>
       <r>  -1.3291  1.0000</r>
       <r>  -1.3291  1.0000</r>
       <r>  -0.5992  1.0000</r>
       <r>  -0.5992  1.0000</r>
       <r>   3.6827  0.0000</r>
       <r>   3.6827  0.0000</r>
       <r>   7.6520  0.0000</r>
       <r>   7.6520  0.0000</r>
       <r>   8.3012  0.0000</r>
       <r>   8.3012  0.0000</r>
      </set>
      <set comment="kpoint 23">
       <r>  -3.0433  1.0000</r>
       <r>  -3.0385  1.0000</r>
       <r>  -2.8812  1.0000</r>
       <r>  -2.8812  1.0000</r>
       <r>  -2.7836  1.0000</r>
       <r>  -2.7836  1.0000</r>
       <r>  -2.6520  1.0000</r>
       <r>  -2.5976  1.0000</r>
       <r>  -2.3666  1.0000</r>
       <r>  -2.3666  1.0000</r>
       <r>  -2.2134  1.0000</r>
       <r>  -2.2092  1.0000</r>
       <r>  -2.0667  1.0000</r>
       <r>  -1.9664  1.0000</r>
       <r>  -1.7489  1.0000</r>
       <r>  -1.5728  1.0000</r>
       <r>  -1.5728  1.0000</r>
       <r>  -1.4894  1.0000</r>
       <r>  -1.4894  1.0000</r>
       <r>  -1.3902  1.0000</r>
       <r>  -1.0701  1.0000</r>
       <r>   1.4157  1.0000</r>
       <r>   1.4157  1.0000</r>
       <r>   4.3097  0.0000</r>
       <r>   6.7113  0.0000</r>
       <r>   7.8744  0.0000</r>
       <r>   9.8660  0.0000</r>
       <r>   9.8660  0.0000</r>
      </set>
      <set comment="kpoint 24">
       <r>  -2.9363  1.0000</r>
       <r>  -2.8465  1.0000</r>
       <r>  -2.8133  1.0000</r>
       <r>  -2.7248  1.0000</r>
       <r>  -2.6879  1.0000</r>
       <r>  -2.6791  1.0000</r>
       <r>  -2.6510  1.0000</r>
       <r>  -2.5260  1.0000</r>
       <r>  -2.4883  1.0000</r>
       <r>  -2.4781  1.0000</r>
       <r>  -2.3705  1.0000</r>
       <r>  -2.2809  1.0000</r>
       <r>  -1.9644  1.0000</r>
       <r>  -1.9200  1.0000</r>
       <r>  -1.8132  1.0000</r>
       <r>  -1.7029  1.0000</r>
       <r>  -1.6618  1.0000</r>
       <r>  -1.6604  1.0000</r>
       <r>  -1.4873  1.0000</r>
       <r>  -1.4469  1.0000</r>
       <r>  -0.6773  1.0000</r>
       <r>   0.5635  1.0000</r>
       <r>   2.0144  0.0000</r>
       <r>   3.4533  0.0000</r>
       <r>   7.4126  0.0000</r>
       <r>   8.2050  0.0000</r>
       <r>   9.0476  0.0000</r>
       <r>   9.1971  0.0000</r>
      </set>
      <set comment="kpoint 25">
       <r>  -2.8003  1.0000</r>
       <r>  -2.8003  1.0000</r>
       <r>  -2.7455  1.0000</r>
       <r>  -2.7455  1.0000</r>
       <r>  -2.6920  1.0000</r>
       <r>  -2.6920  1.0000</r>
       <r>  -2.5495  1.0000</r>
       <r>  -2.5495  1.0000</r>
       <r>  -2.4763  1.0000</r>
       <r>  -2.4763  1.0000</r>
       <r>  -2.4165  1.0000</r>
       <r>  -2.4165  1.0000</r>
       <r>  -1.8241  1.0000</r>
       <r>  -1.8241  1.0000</r>
       <r>  -1.8020  1.0000</r>
       <r>  -1.8020  1.0000</r>
       <r>  -1.7889  1.0000</r>
       <r>  -1.7889  1.0000</r>
       <r>  -1.4758  1.0000</r>
       <r>  -1.4758  1.0000</r>
       <r>  -0.1377  1.0000</r>
       <r>  -0.1377  1.0000</r>
       <r>   2.6905  0.0000</r>
       <r>   2.6905  0.0000</r>
       <r>   8.1980  0.0000</r>
       <r>   8.1980  0.0000</r>
       <r>   8.6437  0.0000</r>
       <r>   8.6437  0.0000</r>
      </set>
      <set comment="kpoint 26">
       <r>  -2.8737  1.0000</r>
       <r>  -2.7581  1.0000</r>
       <r>  -2.6913  1.0000</r>
       <r>  -2.6913  1.0000</r>
       <r>  -2.6658  1.0000</r>
       <r>  -2.6493  1.0000</r>
       <r>  -2.6493  1.0000</r>
       <r>  -2.4725  1.0000</r>
       <r>  -2.4725  1.0000</r>
       <r>  -2.4542  1.0000</r>
       <r>  -2.3725  1.0000</r>
       <r>  -2.2369  1.0000</r>
       <r>  -1.9962  1.0000</r>
       <r>  -1.8987  1.0000</r>
       <r>  -1.8873  1.0000</r>
       <r>  -1.7931  1.0000</r>
       <r>  -1.7931  1.0000</r>
       <r>  -1.6474  1.0000</r>
       <r>  -1.6474  1.0000</r>
       <r>  -1.5481  1.0000</r>
       <r>  -0.1961  1.0000</r>
       <r>   1.1445  1.0000</r>
       <r>   1.1445  1.0000</r>
       <r>   2.5798  0.0000</r>
       <r>   8.0891  0.0000</r>
       <r>   8.5897  0.0000</r>
       <r>   9.6907  0.0000</r>
       <r>   9.6945  0.0000</r>
      </set>
      <set comment="kpoint 27">
       <r>  -2.7793  1.0000</r>
       <r>  -2.7793  1.0000</r>
       <r>  -2.7005  1.0000</r>
       <r>  -2.7005  1.0000</r>
       <r>  -2.6684  1.0000</r>
       <r>  -2.6684  1.0000</r>
       <r>  -2.5659  1.0000</r>
       <r>  -2.5659  1.0000</r>
       <r>  -2.3544  1.0000</r>
       <r>  -2.3544  1.0000</r>
       <r>  -2.3261  1.0000</r>
       <r>  -2.3261  1.0000</r>
       <r>  -1.9160  1.0000</r>
       <r>  -1.9160  1.0000</r>
       <r>  -1.8926  1.0000</r>
       <r>  -1.8926  1.0000</r>
       <r>  -1.7902  1.0000</r>
       <r>  -1.7902  1.0000</r>
       <r>  -1.6136  1.0000</r>
       <r>  -1.6136  1.0000</r>
       <r>   0.4072  1.0000</r>
       <r>   0.4072  1.0000</r>
       <r>   1.8126  0.0417</r>
       <r>   1.8126  0.0417</r>
       <r>   8.8534  0.0000</r>
       <r>   8.8534  0.0000</r>
       <r>   9.0839  0.0000</r>
       <r>   9.0839  0.0000</r>
      </set>
      <set comment="kpoint 28">
       <r>  -2.7474  1.0000</r>
       <r>  -2.7474  1.0000</r>
       <r>  -2.7474  1.0000</r>
       <r>  -2.7474  1.0000</r>
       <r>  -2.6052  1.0000</r>
       <r>  -2.6052  1.0000</r>
       <r>  -2.6052  1.0000</r>
       <r>  -2.6052  1.0000</r>
       <r>  -2.2624  1.0000</r>
       <r>  -2.2624  1.0000</r>
       <r>  -2.2624  1.0000</r>
       <r>  -2.2624  1.0000</r>
       <r>  -1.9720  1.0000</r>
       <r>  -1.9720  1.0000</r>
       <r>  -1.9720  1.0000</r>
       <r>  -1.9720  1.0000</r>
       <r>  -1.7216  1.0000</r>
       <r>  -1.7216  1.0000</r>
       <r>  -1.7216  1.0000</r>
       <r>  -1.7216  1.0000</r>
       <r>   1.0530  1.0000</r>
       <r>   1.0530  1.0000</r>
       <r>   1.0530  1.0000</r>
       <r>   1.0530  1.0000</r>
       <r>   9.5982  0.0000</r>
       <r>   9.5982  0.0000</r>
       <r>   9.5982  0.0000</r>
       <r>   9.5982  0.0000</r>
      </set>
      <set comment="kpoint 29">
       <r>  -4.3361  1.0000</r>
       <r>  -3.4122  1.0000</r>
       <r>  -3.4122  1.0000</r>
       <r>  -3.4122  1.0000</r>
       <r>  -3.3436  1.0000</r>
       <r>  -3.3436  1.0000</r>
       <r>  -3.3436  1.0000</r>
       <r>  -2.4498  1.0000</r>
       <r>  -2.3826  1.0000</r>
       <r>  -2.3826  1.0000</r>
       <r>  -1.7533  1.0000</r>
       <r>  -1.7533  1.0000</r>
       <r>  -1.3037  1.0000</r>
       <r>  -1.3037  1.0000</r>
       <r>  -1.3037  1.0000</r>
       <r>  -1.2384  1.0000</r>
       <r>  -1.2384  1.0000</r>
       <r>  -1.2384  1.0000</r>
       <r>  -1.1124  1.0000</r>
       <r>  -1.1124  1.0000</r>
       <r>  -1.1124  1.0000</r>
       <r>   3.2627  0.0000</r>
       <r>   3.2627  0.0000</r>
       <r>   3.2627  0.0000</r>
       <r>   7.5115  0.0000</r>
       <r>   7.5115  0.0000</r>
       <r>   7.5115  0.0000</r>
       <r>  10.3856  0.0000</r>
      </set>
      <set comment="kpoint 30">
       <r>  -4.1630  1.0000</r>
       <r>  -3.3545  1.0000</r>
       <r>  -3.3519  1.0000</r>
       <r>  -3.3519  1.0000</r>
       <r>  -3.2951  1.0000</r>
       <r>  -3.2563  1.0000</r>
       <r>  -3.2563  1.0000</r>
       <r>  -2.4880  1.0000</r>
       <r>  -2.3394  1.0000</r>
       <r>  -2.3369  1.0000</r>
       <r>  -1.7990  1.0000</r>
       <r>  -1.7225  1.0000</r>
       <r>  -1.4502  1.0000</r>
       <r>  -1.4502  1.0000</r>
       <r>  -1.3661  1.0000</r>
       <r>  -1.3461  1.0000</r>
       <r>  -1.3461  1.0000</r>
       <r>  -1.3294  1.0000</r>
       <r>  -1.1551  1.0000</r>
       <r>  -1.1217  1.0000</r>
       <r>  -1.1217  1.0000</r>
       <r>   2.2533  0.0000</r>
       <r>   3.5928  0.0000</r>
       <r>   3.5928  0.0000</r>
       <r>   7.5706  0.0000</r>
       <r>   7.5706  0.0000</r>
       <r>   8.8170  0.0000</r>
       <r>   9.5170  0.0000</r>
      </set>
      <set comment="kpoint 31">
       <r>  -3.8881  1.0000</r>
       <r>  -3.2707  1.0000</r>
       <r>  -3.2502  1.0000</r>
       <r>  -3.2502  1.0000</r>
       <r>  -3.2133  1.0000</r>
       <r>  -3.1253  1.0000</r>
       <r>  -3.1253  1.0000</r>
       <r>  -2.5631  1.0000</r>
       <r>  -2.2621  1.0000</r>
       <r>  -2.2603  1.0000</r>
       <r>  -1.8508  1.0000</r>
       <r>  -1.7160  1.0000</r>
       <r>  -1.7160  1.0000</r>
       <r>  -1.6734  1.0000</r>
       <r>  -1.4702  1.0000</r>
       <r>  -1.4676  1.0000</r>
       <r>  -1.4459  1.0000</r>
       <r>  -1.4459  1.0000</r>
       <r>  -1.2162  1.0000</r>
       <r>  -1.1283  1.0000</r>
       <r>  -1.1283  1.0000</r>
       <r>   1.2007  1.0000</r>
       <r>   4.0797  0.0000</r>
       <r>   4.0797  0.0000</r>
       <r>   7.6219  0.0000</r>
       <r>   7.6219  0.0000</r>
       <r>   8.7237  0.0000</r>
       <r>   8.7237  0.0000</r>
      </set>
      <set comment="kpoint 32">
       <r>  -3.5442  1.0000</r>
       <r>  -3.1745  1.0000</r>
       <r>  -3.1159  1.0000</r>
       <r>  -3.1159  1.0000</r>
       <r>  -3.1042  1.0000</r>
       <r>  -2.9657  1.0000</r>
       <r>  -2.9657  1.0000</r>
       <r>  -2.6619  1.0000</r>
       <r>  -2.1881  1.0000</r>
       <r>  -2.1606  1.0000</r>
       <r>  -2.0105  1.0000</r>
       <r>  -2.0105  1.0000</r>
       <r>  -1.8378  1.0000</r>
       <r>  -1.6482  1.0000</r>
       <r>  -1.6092  1.0000</r>
       <r>  -1.5985  1.0000</r>
       <r>  -1.5646  1.0000</r>
       <r>  -1.5646  1.0000</r>
       <r>  -1.2889  1.0000</r>
       <r>  -1.1320  1.0000</r>
       <r>  -1.1320  1.0000</r>
       <r>   0.2284  1.0000</r>
       <r>   4.6706  0.0000</r>
       <r>   4.6706  0.0000</r>
       <r>   7.3885  0.0000</r>
       <r>   7.3885  0.0000</r>
       <r>   8.3252  0.0000</r>
       <r>   8.3252  0.0000</r>
      </set>
      <set comment="kpoint 33">
       <r>  -3.2157  1.0000</r>
       <r>  -3.0811  1.0000</r>
       <r>  -2.9894  1.0000</r>
       <r>  -2.9809  1.0000</r>
       <r>  -2.9809  1.0000</r>
       <r>  -2.7881  1.0000</r>
       <r>  -2.7881  1.0000</r>
       <r>  -2.7734  1.0000</r>
       <r>  -2.2966  1.0000</r>
       <r>  -2.2966  1.0000</r>
       <r>  -2.1499  1.0000</r>
       <r>  -2.0363  1.0000</r>
       <r>  -1.8490  1.0000</r>
       <r>  -1.7455  1.0000</r>
       <r>  -1.6711  1.0000</r>
       <r>  -1.6711  1.0000</r>
       <r>  -1.6492  1.0000</r>
       <r>  -1.5339  1.0000</r>
       <r>  -1.3690  1.0000</r>
       <r>  -1.1338  1.0000</r>
       <r>  -1.1338  1.0000</r>
       <r>  -0.6054  1.0000</r>
       <r>   5.3253  0.0000</r>
       <r>   5.3253  0.0000</r>
       <r>   6.7490  0.0000</r>
       <r>   6.7490  0.0000</r>
       <r>   8.4287  0.0000</r>
       <r>   8.4287  0.0000</r>
      </set>
      <set comment="kpoint 34">
       <r>  -3.0519  1.0000</r>
       <r>  -3.0519  1.0000</r>
       <r>  -2.9195  1.0000</r>
       <r>  -2.9195  1.0000</r>
       <r>  -2.8843  1.0000</r>
       <r>  -2.8843  1.0000</r>
       <r>  -2.6240  1.0000</r>
       <r>  -2.6240  1.0000</r>
       <r>  -2.5048  1.0000</r>
       <r>  -2.5048  1.0000</r>
       <r>  -2.0412  1.0000</r>
       <r>  -2.0412  1.0000</r>
       <r>  -1.8951  1.0000</r>
       <r>  -1.8951  1.0000</r>
       <r>  -1.7163  1.0000</r>
       <r>  -1.7163  1.0000</r>
       <r>  -1.4522  1.0000</r>
       <r>  -1.4522  1.0000</r>
       <r>  -1.2440  1.0000</r>
       <r>  -1.2440  1.0000</r>
       <r>  -1.1343  1.0000</r>
       <r>  -1.1343  1.0000</r>
       <r>   5.9346  0.0000</r>
       <r>   5.9346  0.0000</r>
       <r>   6.1238  0.0000</r>
       <r>   6.1238  0.0000</r>
       <r>   8.5526  0.0000</r>
       <r>   8.5526  0.0000</r>
      </set>
      <set comment="kpoint 35">
       <r>  -4.0004  1.0000</r>
       <r>  -3.3184  1.0000</r>
       <r>  -3.2998  1.0000</r>
       <r>  -3.2998  1.0000</r>
       <r>  -3.2042  1.0000</r>
       <r>  -3.2042  1.0000</r>
       <r>  -3.1520  1.0000</r>
       <r>  -2.4942  1.0000</r>
       <r>  -2.3209  1.0000</r>
       <r>  -2.3031  1.0000</r>
       <r>  -1.8053  1.0000</r>
       <r>  -1.7146  1.0000</r>
       <r>  -1.5612  1.0000</r>
       <r>  -1.5612  1.0000</r>
       <r>  -1.5523  1.0000</r>
       <r>  -1.4453  1.0000</r>
       <r>  -1.3895  1.0000</r>
       <r>  -1.3895  1.0000</r>
       <r>  -1.1587  1.0000</r>
       <r>  -1.1587  1.0000</r>
       <r>  -1.1524  1.0000</r>
       <r>   2.5613  0.0000</r>
       <r>   2.5613  0.0000</r>
       <r>   3.8989  0.0000</r>
       <r>   7.5474  0.0000</r>
       <r>   8.6019  0.0000</r>
       <r>   8.8129  0.0000</r>
       <r>   8.8129  0.0000</r>
      </set>
      <set comment="kpoint 36">
       <r>  -3.7457  1.0000</r>
       <r>  -3.2409  1.0000</r>
       <r>  -3.2253  1.0000</r>
       <r>  -3.2023  1.0000</r>
       <r>  -3.1162  1.0000</r>
       <r>  -3.0731  1.0000</r>
       <r>  -3.0130  1.0000</r>
       <r>  -2.5409  1.0000</r>
       <r>  -2.2602  1.0000</r>
       <r>  -2.2500  1.0000</r>
       <r>  -1.8370  1.0000</r>
       <r>  -1.8279  1.0000</r>
       <r>  -1.7750  1.0000</r>
       <r>  -1.7059  1.0000</r>
       <r>  -1.6523  1.0000</r>
       <r>  -1.5281  1.0000</r>
       <r>  -1.4901  1.0000</r>
       <r>  -1.4632  1.0000</r>
       <r>  -1.2101  1.0000</r>
       <r>  -1.1795  1.0000</r>
       <r>  -1.1780  1.0000</r>
       <r>   1.5032  1.0000</r>
       <r>   3.0106  0.0000</r>
       <r>   4.3578  0.0000</r>
       <r>   7.1423  0.0000</r>
       <r>   8.2046  0.0000</r>
       <r>   8.4711  0.0000</r>
       <r>   9.4643  0.0000</r>
      </set>
      <set comment="kpoint 37">
       <r>  -3.4354  1.0000</r>
       <r>  -3.1402  1.0000</r>
       <r>  -3.1233  1.0000</r>
       <r>  -3.0683  1.0000</r>
       <r>  -2.9991  1.0000</r>
       <r>  -2.9209  1.0000</r>
       <r>  -2.8605  1.0000</r>
       <r>  -2.6162  1.0000</r>
       <r>  -2.2209  1.0000</r>
       <r>  -2.1707  1.0000</r>
       <r>  -2.1031  1.0000</r>
       <r>  -2.0366  1.0000</r>
       <r>  -1.8745  1.0000</r>
       <r>  -1.7948  1.0000</r>
       <r>  -1.6278  1.0000</r>
       <r>  -1.6247  1.0000</r>
       <r>  -1.5685  1.0000</r>
       <r>  -1.5512  1.0000</r>
       <r>  -1.2776  1.0000</r>
       <r>  -1.1970  1.0000</r>
       <r>  -1.1941  1.0000</r>
       <r>   0.5309  1.0000</r>
       <r>   3.5559  0.0000</r>
       <r>   4.9239  0.0000</r>
       <r>   6.3682  0.0000</r>
       <r>   7.7480  0.0000</r>
       <r>   8.3395  0.0000</r>
       <r>   9.5277  0.0000</r>
      </set>
      <set comment="kpoint 38">
       <r>  -3.1518  1.0000</r>
       <r>  -3.0588  1.0000</r>
       <r>  -2.9799  1.0000</r>
       <r>  -2.9233  1.0000</r>
       <r>  -2.8742  1.0000</r>
       <r>  -2.7762  1.0000</r>
       <r>  -2.7293  1.0000</r>
       <r>  -2.6982  1.0000</r>
       <r>  -2.3440  1.0000</r>
       <r>  -2.2886  1.0000</r>
       <r>  -2.2408  1.0000</r>
       <r>  -2.0594  1.0000</r>
       <r>  -2.0534  1.0000</r>
       <r>  -1.7795  1.0000</r>
       <r>  -1.7121  1.0000</r>
       <r>  -1.6774  1.0000</r>
       <r>  -1.6275  1.0000</r>
       <r>  -1.3691  1.0000</r>
       <r>  -1.3638  1.0000</r>
       <r>  -1.2054  1.0000</r>
       <r>  -1.2035  1.0000</r>
       <r>  -0.3060  1.0000</r>
       <r>   4.1715  0.0000</r>
       <r>   5.5472  0.0000</r>
       <r>   5.5975  0.0000</r>
       <r>   6.9854  0.0000</r>
       <r>   8.6586  0.0000</r>
       <r>   9.4750  0.0000</r>
      </set>
      <set comment="kpoint 39">
       <r>  -3.0259  1.0000</r>
       <r>  -3.0259  1.0000</r>
       <r>  -2.8710  1.0000</r>
       <r>  -2.8710  1.0000</r>
       <r>  -2.7740  1.0000</r>
       <r>  -2.7740  1.0000</r>
       <r>  -2.6793  1.0000</r>
       <r>  -2.6793  1.0000</r>
       <r>  -2.4487  1.0000</r>
       <r>  -2.4487  1.0000</r>
       <r>  -2.2006  1.0000</r>
       <r>  -2.2006  1.0000</r>
       <r>  -1.9271  1.0000</r>
       <r>  -1.9271  1.0000</r>
       <r>  -1.7384  1.0000</r>
       <r>  -1.7384  1.0000</r>
       <r>  -1.4727  1.0000</r>
       <r>  -1.4727  1.0000</r>
       <r>  -1.2071  1.0000</r>
       <r>  -1.2071  1.0000</r>
       <r>  -0.9598  1.0000</r>
       <r>  -0.9598  1.0000</r>
       <r>   4.8470  0.0000</r>
       <r>   4.8470  0.0000</r>
       <r>   6.2539  0.0000</r>
       <r>   6.2539  0.0000</r>
       <r>   9.0786  0.0000</r>
       <r>   9.0786  0.0000</r>
      </set>
      <set comment="kpoint 40">
       <r>  -3.5303  1.0000</r>
       <r>  -3.1905  1.0000</r>
       <r>  -3.1365  1.0000</r>
       <r>  -3.1365  1.0000</r>
       <r>  -2.9823  1.0000</r>
       <r>  -2.9823  1.0000</r>
       <r>  -2.8738  1.0000</r>
       <r>  -2.5341  1.0000</r>
       <r>  -2.2318  1.0000</r>
       <r>  -2.2243  1.0000</r>
       <r>  -1.9697  1.0000</r>
       <r>  -1.9697  1.0000</r>
       <r>  -1.9045  1.0000</r>
       <r>  -1.8608  1.0000</r>
       <r>  -1.6242  1.0000</r>
       <r>  -1.5510  1.0000</r>
       <r>  -1.5355  1.0000</r>
       <r>  -1.5355  1.0000</r>
       <r>  -1.2415  1.0000</r>
       <r>  -1.2415  1.0000</r>
       <r>  -1.2342  1.0000</r>
       <r>   1.9383  0.0000</r>
       <r>   1.9383  0.0000</r>
       <r>   4.7823  0.0000</r>
       <r>   6.2348  0.0000</r>
       <r>   8.2788  0.0000</r>
       <r>   8.9896  0.0000</r>
       <r>   8.9896  0.0000</r>
      </set>
      <set comment="kpoint 41">
       <r>  -3.2834  1.0000</r>
       <r>  -3.0994  1.0000</r>
       <r>  -3.0654  1.0000</r>
       <r>  -3.0095  1.0000</r>
       <r>  -2.8582  1.0000</r>
       <r>  -2.8366  1.0000</r>
       <r>  -2.7326  1.0000</r>
       <r>  -2.5570  1.0000</r>
       <r>  -2.2237  1.0000</r>
       <r>  -2.2188  1.0000</r>
       <r>  -2.1669  1.0000</r>
       <r>  -2.1225  1.0000</r>
       <r>  -2.0925  1.0000</r>
       <r>  -1.8363  1.0000</r>
       <r>  -1.7119  1.0000</r>
       <r>  -1.6569  1.0000</r>
       <r>  -1.6135  1.0000</r>
       <r>  -1.3682  1.0000</r>
       <r>  -1.3171  1.0000</r>
       <r>  -1.2783  1.0000</r>
       <r>  -1.2771  1.0000</r>
       <r>   0.9572  1.0000</r>
       <r>   2.4657  0.0000</r>
       <r>   5.2931  0.0000</r>
       <r>   5.3501  0.0000</r>
       <r>   8.1395  0.0000</r>
       <r>   8.5420  0.0000</r>
       <r>   9.5228  0.0000</r>
      </set>
      <set comment="kpoint 42">
       <r>  -3.0751  1.0000</r>
       <r>  -3.0031  1.0000</r>
       <r>  -2.9724  1.0000</r>
       <r>  -2.8549  1.0000</r>
       <r>  -2.7467  1.0000</r>
       <r>  -2.7198  1.0000</r>
       <r>  -2.6450  1.0000</r>
       <r>  -2.5852  1.0000</r>
       <r>  -2.3898  1.0000</r>
       <r>  -2.2967  1.0000</r>
       <r>  -2.2786  1.0000</r>
       <r>  -2.2669  1.0000</r>
       <r>  -2.0701  1.0000</r>
       <r>  -1.8014  1.0000</r>
       <r>  -1.7805  1.0000</r>
       <r>  -1.7125  1.0000</r>
       <r>  -1.7026  1.0000</r>
       <r>  -1.4153  1.0000</r>
       <r>  -1.3024  1.0000</r>
       <r>  -1.3021  1.0000</r>
       <r>  -1.0660  1.0000</r>
       <r>   0.1068  1.0000</r>
       <r>   3.0677  0.0000</r>
       <r>   4.4928  0.0000</r>
       <r>   5.9313  0.0000</r>
       <r>   7.3439  0.0000</r>
       <r>   8.9309  0.0000</r>
       <r>  10.0315  0.0000</r>
      </set>
      <set comment="kpoint 43">
       <r>  -2.9839  1.0000</r>
       <r>  -2.9839  1.0000</r>
       <r>  -2.8279  1.0000</r>
       <r>  -2.8279  1.0000</r>
       <r>  -2.6987  1.0000</r>
       <r>  -2.6987  1.0000</r>
       <r>  -2.6146  1.0000</r>
       <r>  -2.6146  1.0000</r>
       <r>  -2.3895  1.0000</r>
       <r>  -2.3895  1.0000</r>
       <r>  -2.3485  1.0000</r>
       <r>  -2.3485  1.0000</r>
       <r>  -1.9449  1.0000</r>
       <r>  -1.9449  1.0000</r>
       <r>  -1.7858  1.0000</r>
       <r>  -1.7858  1.0000</r>
       <r>  -1.5447  1.0000</r>
       <r>  -1.5447  1.0000</r>
       <r>  -1.3101  1.0000</r>
       <r>  -1.3101  1.0000</r>
       <r>  -0.5783  1.0000</r>
       <r>  -0.5783  1.0000</r>
       <r>   3.7418  0.0000</r>
       <r>   3.7418  0.0000</r>
       <r>   6.6083  0.0000</r>
       <r>   6.6083  0.0000</r>
       <r>   9.4346  0.0000</r>
       <r>   9.4346  0.0000</r>
      </set>
      <set comment="kpoint 44">
       <r>  -3.1283  1.0000</r>
       <r>  -3.0417  1.0000</r>
       <r>  -2.9577  1.0000</r>
       <r>  -2.9577  1.0000</r>
       <r>  -2.7111  1.0000</r>
       <r>  -2.7111  1.0000</r>
       <r>  -2.6118  1.0000</r>
       <r>  -2.5183  1.0000</r>
       <r>  -2.3340  1.0000</r>
       <r>  -2.3340  1.0000</r>
       <r>  -2.1931  1.0000</r>
       <r>  -2.1806  1.0000</r>
       <r>  -2.1466  1.0000</r>
       <r>  -1.8701  1.0000</r>
       <r>  -1.8015  1.0000</r>
       <r>  -1.7085  1.0000</r>
       <r>  -1.7085  1.0000</r>
       <r>  -1.3740  1.0000</r>
       <r>  -1.3740  1.0000</r>
       <r>  -1.3513  1.0000</r>
       <r>  -1.0846  1.0000</r>
       <r>   1.4717  1.0000</r>
       <r>   1.4717  1.0000</r>
       <r>   4.3649  0.0000</r>
       <r>   5.8223  0.0000</r>
       <r>   8.6325  0.0000</r>
       <r>   8.6325  0.0000</r>
       <r>   8.8636  0.0000</r>
      </set>
      <set comment="kpoint 45">
       <r>  -3.0063  1.0000</r>
       <r>  -2.9509  1.0000</r>
       <r>  -2.9270  1.0000</r>
       <r>  -2.8363  1.0000</r>
       <r>  -2.6678  1.0000</r>
       <r>  -2.5689  1.0000</r>
       <r>  -2.5582  1.0000</r>
       <r>  -2.5067  1.0000</r>
       <r>  -2.4293  1.0000</r>
       <r>  -2.4007  1.0000</r>
       <r>  -2.2591  1.0000</r>
       <r>  -2.2548  1.0000</r>
       <r>  -2.0767  1.0000</r>
       <r>  -1.8667  1.0000</r>
       <r>  -1.8348  1.0000</r>
       <r>  -1.7871  1.0000</r>
       <r>  -1.7827  1.0000</r>
       <r>  -1.4883  1.0000</r>
       <r>  -1.4163  1.0000</r>
       <r>  -1.4045  1.0000</r>
       <r>  -0.6797  1.0000</r>
       <r>   0.6026  1.0000</r>
       <r>   2.0642  0.0000</r>
       <r>   3.5031  0.0000</r>
       <r>   6.4134  0.0000</r>
       <r>   7.8183  0.0000</r>
       <r>   9.2257  0.0000</r>
       <r>   9.3017  0.0000</r>
      </set>
      <set comment="kpoint 46">
       <r>  -2.9378  1.0000</r>
       <r>  -2.9378  1.0000</r>
       <r>  -2.8391  1.0000</r>
       <r>  -2.8391  1.0000</r>
       <r>  -2.6476  1.0000</r>
       <r>  -2.6476  1.0000</r>
       <r>  -2.4872  1.0000</r>
       <r>  -2.4872  1.0000</r>
       <r>  -2.3971  1.0000</r>
       <r>  -2.3971  1.0000</r>
       <r>  -2.3177  1.0000</r>
       <r>  -2.3177  1.0000</r>
       <r>  -1.9650  1.0000</r>
       <r>  -1.9650  1.0000</r>
       <r>  -1.8618  1.0000</r>
       <r>  -1.8618  1.0000</r>
       <r>  -1.6296  1.0000</r>
       <r>  -1.6296  1.0000</r>
       <r>  -1.4272  1.0000</r>
       <r>  -1.4272  1.0000</r>
       <r>  -0.1196  1.0000</r>
       <r>  -0.1196  1.0000</r>
       <r>   2.7385  0.0000</r>
       <r>   2.7385  0.0000</r>
       <r>   7.0796  0.0000</r>
       <r>   7.0796  0.0000</r>
       <r>   9.8549  0.0000</r>
       <r>   9.8549  0.0000</r>
      </set>
      <set comment="kpoint 47">
       <r>  -2.9503  1.0000</r>
       <r>  -2.9112  1.0000</r>
       <r>  -2.8613  1.0000</r>
       <r>  -2.8613  1.0000</r>
       <r>  -2.5816  1.0000</r>
       <r>  -2.5816  1.0000</r>
       <r>  -2.5534  1.0000</r>
       <r>  -2.5028  1.0000</r>
       <r>  -2.3477  1.0000</r>
       <r>  -2.3477  1.0000</r>
       <r>  -2.2156  1.0000</r>
       <r>  -2.1568  1.0000</r>
       <r>  -2.0968  1.0000</r>
       <r>  -1.9467  1.0000</r>
       <r>  -1.8913  1.0000</r>
       <r>  -1.8913  1.0000</r>
       <r>  -1.7876  1.0000</r>
       <r>  -1.5436  1.0000</r>
       <r>  -1.5436  1.0000</r>
       <r>  -1.4936  1.0000</r>
       <r>  -0.1890  1.0000</r>
       <r>   1.1805  1.0000</r>
       <r>   1.1805  1.0000</r>
       <r>   2.6221  0.0000</r>
       <r>   6.9901  0.0000</r>
       <r>   8.3962  0.0000</r>
       <r>   8.3962  0.0000</r>
       <r>   9.7831  0.0000</r>
      </set>
      <set comment="kpoint 48">
       <r>  -2.9025  1.0000</r>
       <r>  -2.9025  1.0000</r>
       <r>  -2.8636  1.0000</r>
       <r>  -2.8636  1.0000</r>
       <r>  -2.5895  1.0000</r>
       <r>  -2.5895  1.0000</r>
       <r>  -2.5292  1.0000</r>
       <r>  -2.5292  1.0000</r>
       <r>  -2.2389  1.0000</r>
       <r>  -2.2389  1.0000</r>
       <r>  -2.2253  1.0000</r>
       <r>  -2.2253  1.0000</r>
       <r>  -2.0042  1.0000</r>
       <r>  -2.0042  1.0000</r>
       <r>  -1.9572  1.0000</r>
       <r>  -1.9572  1.0000</r>
       <r>  -1.6809  1.0000</r>
       <r>  -1.6809  1.0000</r>
       <r>  -1.5467  1.0000</r>
       <r>  -1.5467  1.0000</r>
       <r>   0.4282  1.0000</r>
       <r>   0.4282  1.0000</r>
       <r>   1.8501  0.0000</r>
       <r>   1.8501  0.0000</r>
       <r>   7.6517  0.0000</r>
       <r>   7.6517  0.0000</r>
       <r>   9.0690  0.0000</r>
       <r>   9.0690  0.0000</r>
      </set>
      <set comment="kpoint 49">
       <r>  -2.8819  1.0000</r>
       <r>  -2.8819  1.0000</r>
       <r>  -2.8819  1.0000</r>
       <r>  -2.8819  1.0000</r>
       <r>  -2.5563  1.0000</r>
       <r>  -2.5563  1.0000</r>
       <r>  -2.5563  1.0000</r>
       <r>  -2.5563  1.0000</r>
       <r>  -2.1443  1.0000</r>
       <r>  -2.1443  1.0000</r>
       <r>  -2.1443  1.0000</r>
       <r>  -2.1443  1.0000</r>
       <r>  -2.0435  1.0000</r>
       <r>  -2.0435  1.0000</r>
       <r>  -2.0435  1.0000</r>
       <r>  -2.0435  1.0000</r>
       <r>  -1.6467  1.0000</r>
       <r>  -1.6467  1.0000</r>
       <r>  -1.6467  1.0000</r>
       <r>  -1.6467  1.0000</r>
       <r>   1.0810  1.0000</r>
       <r>   1.0810  1.0000</r>
       <r>   1.0810  1.0000</r>
       <r>   1.0810  1.0000</r>
       <r>   8.3158  0.0000</r>
       <r>   8.3158  0.0000</r>
       <r>   8.3158  0.0000</r>
       <r>   8.3158  0.0000</r>
      </set>
      <set comment="kpoint 50">
       <r>  -3.8560  1.0000</r>
       <r>  -3.2747  1.0000</r>
       <r>  -3.2747  1.0000</r>
       <r>  -3.2747  1.0000</r>
       <r>  -3.0958  1.0000</r>
       <r>  -3.0958  1.0000</r>
       <r>  -3.0958  1.0000</r>
       <r>  -2.4603  1.0000</r>
       <r>  -2.3027  1.0000</r>
       <r>  -2.3027  1.0000</r>
       <r>  -1.7528  1.0000</r>
       <r>  -1.7528  1.0000</r>
       <r>  -1.6426  1.0000</r>
       <r>  -1.6426  1.0000</r>
       <r>  -1.6426  1.0000</r>
       <r>  -1.5362  1.0000</r>
       <r>  -1.5362  1.0000</r>
       <r>  -1.5362  1.0000</r>
       <r>  -1.1507  1.0000</r>
       <r>  -1.1507  1.0000</r>
       <r>  -1.1507  1.0000</r>
       <r>   2.8414  0.0000</r>
       <r>   2.8414  0.0000</r>
       <r>   2.8414  0.0000</r>
       <r>   8.3429  0.0000</r>
       <r>   8.3429  0.0000</r>
       <r>   8.3429  0.0000</r>
       <r>   9.4026  0.0000</r>
      </set>
      <set comment="kpoint 51">
       <r>  -3.6374  1.0000</r>
       <r>  -3.2132  1.0000</r>
       <r>  -3.2052  1.0000</r>
       <r>  -3.2052  1.0000</r>
       <r>  -3.0016  1.0000</r>
       <r>  -2.9577  1.0000</r>
       <r>  -2.9577  1.0000</r>
       <r>  -2.4591  1.0000</r>
       <r>  -2.2672  1.0000</r>
       <r>  -2.2598  1.0000</r>
       <r>  -1.8635  1.0000</r>
       <r>  -1.8635  1.0000</r>
       <r>  -1.7800  1.0000</r>
       <r>  -1.7760  1.0000</r>
       <r>  -1.6741  1.0000</r>
       <r>  -1.6551  1.0000</r>
       <r>  -1.6043  1.0000</r>
       <r>  -1.6043  1.0000</r>
       <r>  -1.1727  1.0000</r>
       <r>  -1.1727  1.0000</r>
       <r>  -1.1707  1.0000</r>
       <r>   1.7685  1.0000</r>
       <r>   3.2603  0.0000</r>
       <r>   3.2603  0.0000</r>
       <r>   7.4766  0.0000</r>
       <r>   7.4766  0.0000</r>
       <r>   8.8541  0.0000</r>
       <r>   9.4889  0.0000</r>
      </set>
      <set comment="kpoint 52">
       <r>  -3.3875  1.0000</r>
       <r>  -3.1464  1.0000</r>
       <r>  -3.0948  1.0000</r>
       <r>  -3.0948  1.0000</r>
       <r>  -2.8751  1.0000</r>
       <r>  -2.8168  1.0000</r>
       <r>  -2.8168  1.0000</r>
       <r>  -2.4917  1.0000</r>
       <r>  -2.2361  1.0000</r>
       <r>  -2.2106  1.0000</r>
       <r>  -2.1006  1.0000</r>
       <r>  -2.1006  1.0000</r>
       <r>  -1.9474  1.0000</r>
       <r>  -1.7848  1.0000</r>
       <r>  -1.6784  1.0000</r>
       <r>  -1.6784  1.0000</r>
       <r>  -1.6718  1.0000</r>
       <r>  -1.5790  1.0000</r>
       <r>  -1.2174  1.0000</r>
       <r>  -1.2030  1.0000</r>
       <r>  -1.2030  1.0000</r>
       <r>   0.7795  1.0000</r>
       <r>   3.7800  0.0000</r>
       <r>   3.7800  0.0000</r>
       <r>   6.6039  0.0000</r>
       <r>   6.6039  0.0000</r>
       <r>   9.3948  0.0000</r>
       <r>   9.7442  0.0000</r>
      </set>
      <set comment="kpoint 53">
       <r>  -3.1788  1.0000</r>
       <r>  -3.0914  1.0000</r>
       <r>  -2.9526  1.0000</r>
       <r>  -2.9526  1.0000</r>
       <r>  -2.7363  1.0000</r>
       <r>  -2.7363  1.0000</r>
       <r>  -2.7311  1.0000</r>
       <r>  -2.5267  1.0000</r>
       <r>  -2.2802  1.0000</r>
       <r>  -2.2802  1.0000</r>
       <r>  -2.2791  1.0000</r>
       <r>  -2.1314  1.0000</r>
       <r>  -2.1214  1.0000</r>
       <r>  -1.9131  1.0000</r>
       <r>  -1.7588  1.0000</r>
       <r>  -1.7588  1.0000</r>
       <r>  -1.4770  1.0000</r>
       <r>  -1.3425  1.0000</r>
       <r>  -1.2881  1.0000</r>
       <r>  -1.2251  1.0000</r>
       <r>  -1.2251  1.0000</r>
       <r>  -0.0878  1.0000</r>
       <r>   4.3754  0.0000</r>
       <r>   4.3754  0.0000</r>
       <r>   5.7979  0.0000</r>
       <r>   5.7979  0.0000</r>
       <r>  10.0210  0.0000</r>
       <r>  10.0777  0.0000</r>
      </set>
      <set comment="kpoint 54">
       <r>  -3.0832  1.0000</r>
       <r>  -3.0832  1.0000</r>
       <r>  -2.8204  1.0000</r>
       <r>  -2.8204  1.0000</r>
       <r>  -2.7870  1.0000</r>
       <r>  -2.7870  1.0000</r>
       <r>  -2.5987  1.0000</r>
       <r>  -2.5987  1.0000</r>
       <r>  -2.3351  1.0000</r>
       <r>  -2.3351  1.0000</r>
       <r>  -2.2574  1.0000</r>
       <r>  -2.2574  1.0000</r>
       <r>  -2.0309  1.0000</r>
       <r>  -2.0309  1.0000</r>
       <r>  -1.7981  1.0000</r>
       <r>  -1.7981  1.0000</r>
       <r>  -1.3772  1.0000</r>
       <r>  -1.3772  1.0000</r>
       <r>  -1.2328  1.0000</r>
       <r>  -1.2328  1.0000</r>
       <r>  -0.8046  1.0000</r>
       <r>  -0.8046  1.0000</r>
       <r>   4.9458  0.0000</r>
       <r>   4.9458  0.0000</r>
       <r>   5.1580  0.0000</r>
       <r>   5.1580  0.0000</r>
       <r>  10.3013  0.0000</r>
       <r>  10.3013  0.0000</r>
      </set>
      <set comment="kpoint 55">
       <r>  -3.4839  1.0000</r>
       <r>  -3.1678  1.0000</r>
       <r>  -3.1585  1.0000</r>
       <r>  -3.1585  1.0000</r>
       <r>  -2.8637  1.0000</r>
       <r>  -2.8637  1.0000</r>
       <r>  -2.8242  1.0000</r>
       <r>  -2.3734  1.0000</r>
       <r>  -2.2649  1.0000</r>
       <r>  -2.2310  1.0000</r>
       <r>  -1.9841  1.0000</r>
       <r>  -1.9841  1.0000</r>
       <r>  -1.9599  1.0000</r>
       <r>  -1.7665  1.0000</r>
       <r>  -1.7295  1.0000</r>
       <r>  -1.7141  1.0000</r>
       <r>  -1.7141  1.0000</r>
       <r>  -1.5995  1.0000</r>
       <r>  -1.1952  1.0000</r>
       <r>  -1.1831  1.0000</r>
       <r>  -1.1831  1.0000</r>
       <r>   2.1660  0.0000</r>
       <r>   2.1660  0.0000</r>
       <r>   3.6418  0.0000</r>
       <r>   6.4711  0.0000</r>
       <r>   7.8751  0.0000</r>
       <r>   7.8751  0.0000</r>
       <r>   9.6883  0.0000</r>
      </set>
      <set comment="kpoint 56">
       <r>  -3.3216  1.0000</r>
       <r>  -3.1150  1.0000</r>
       <r>  -3.0922  1.0000</r>
       <r>  -3.0661  1.0000</r>
       <r>  -2.7393  1.0000</r>
       <r>  -2.7349  1.0000</r>
       <r>  -2.7073  1.0000</r>
       <r>  -2.3623  1.0000</r>
       <r>  -2.2361  1.0000</r>
       <r>  -2.1875  1.0000</r>
       <r>  -2.1764  1.0000</r>
       <r>  -2.1147  1.0000</r>
       <r>  -2.1032  1.0000</r>
       <r>  -1.8404  1.0000</r>
       <r>  -1.8081  1.0000</r>
       <r>  -1.7668  1.0000</r>
       <r>  -1.6943  1.0000</r>
       <r>  -1.4211  1.0000</r>
       <r>  -1.2328  1.0000</r>
       <r>  -1.2215  1.0000</r>
       <r>  -1.2209  1.0000</r>
       <r>   1.1574  1.0000</r>
       <r>   2.6633  0.0000</r>
       <r>   4.1177  0.0000</r>
       <r>   5.5545  0.0000</r>
       <r>   6.9694  0.0000</r>
       <r>   8.3811  0.0000</r>
       <r>   9.9978  0.0000</r>
      </set>
      <set comment="kpoint 57">
       <r>  -3.1884  1.0000</r>
       <r>  -3.0917  1.0000</r>
       <r>  -2.9858  1.0000</r>
       <r>  -2.9492  1.0000</r>
       <r>  -2.7112  1.0000</r>
       <r>  -2.6787  1.0000</r>
       <r>  -2.5822  1.0000</r>
       <r>  -2.3593  1.0000</r>
       <r>  -2.2784  1.0000</r>
       <r>  -2.2547  1.0000</r>
       <r>  -2.2338  1.0000</r>
       <r>  -2.1930  1.0000</r>
       <r>  -2.1653  1.0000</r>
       <r>  -1.9664  1.0000</r>
       <r>  -1.8691  1.0000</r>
       <r>  -1.8338  1.0000</r>
       <r>  -1.5250  1.0000</r>
       <r>  -1.2893  1.0000</r>
       <r>  -1.2654  1.0000</r>
       <r>  -1.2592  1.0000</r>
       <r>  -1.0689  1.0000</r>
       <r>   0.2644  1.0000</r>
       <r>   3.2425  0.0000</r>
       <r>   4.4823  0.0000</r>
       <r>   4.9281  0.0000</r>
       <r>   6.1507  0.0000</r>
       <r>   8.9895  0.0000</r>
       <r>  10.4076  0.0000</r>
      </set>
      <set comment="kpoint 58">
       <r>  -3.1103  1.0000</r>
       <r>  -3.1103  1.0000</r>
       <r>  -2.8860  1.0000</r>
       <r>  -2.8860  1.0000</r>
       <r>  -2.7434  1.0000</r>
       <r>  -2.7434  1.0000</r>
       <r>  -2.4222  1.0000</r>
       <r>  -2.4222  1.0000</r>
       <r>  -2.3195  1.0000</r>
       <r>  -2.3195  1.0000</r>
       <r>  -2.2235  1.0000</r>
       <r>  -2.2235  1.0000</r>
       <r>  -2.0783  1.0000</r>
       <r>  -2.0783  1.0000</r>
       <r>  -1.8857  1.0000</r>
       <r>  -1.8857  1.0000</r>
       <r>  -1.3889  1.0000</r>
       <r>  -1.3889  1.0000</r>
       <r>  -1.2762  1.0000</r>
       <r>  -1.2762  1.0000</r>
       <r>  -0.4895  1.0000</r>
       <r>  -0.4895  1.0000</r>
       <r>   3.8929  0.0000</r>
       <r>   3.8929  0.0000</r>
       <r>   5.4260  0.0000</r>
       <r>   5.4260  0.0000</r>
       <r>   9.6898  0.0000</r>
       <r>   9.6898  0.0000</r>
      </set>
      <set comment="kpoint 59">
       <r>  -3.2488  1.0000</r>
       <r>  -3.0616  1.0000</r>
       <r>  -3.0550  1.0000</r>
       <r>  -3.0550  1.0000</r>
       <r>  -2.6320  1.0000</r>
       <r>  -2.6320  1.0000</r>
       <r>  -2.6290  1.0000</r>
       <r>  -2.3525  1.0000</r>
       <r>  -2.2396  1.0000</r>
       <r>  -2.2362  1.0000</r>
       <r>  -2.2362  1.0000</r>
       <r>  -2.1093  1.0000</r>
       <r>  -2.0354  1.0000</r>
       <r>  -1.9138  1.0000</r>
       <r>  -1.8753  1.0000</r>
       <r>  -1.8753  1.0000</r>
       <r>  -1.7295  1.0000</r>
       <r>  -1.2796  1.0000</r>
       <r>  -1.2643  1.0000</r>
       <r>  -1.2643  1.0000</r>
       <r>  -1.1240  1.0000</r>
       <r>   1.6379  1.0000</r>
       <r>   1.6379  1.0000</r>
       <r>   4.3162  0.0000</r>
       <r>   4.8530  0.0000</r>
       <r>   7.4553  0.0000</r>
       <r>   7.4553  0.0000</r>
       <r>  10.3443  0.0000</r>
      </set>
      <set comment="kpoint 60">
       <r>  -3.1770  1.0000</r>
       <r>  -3.0711  1.0000</r>
       <r>  -3.0103  1.0000</r>
       <r>  -2.9886  1.0000</r>
       <r>  -2.6398  1.0000</r>
       <r>  -2.6241  1.0000</r>
       <r>  -2.5173  1.0000</r>
       <r>  -2.3820  1.0000</r>
       <r>  -2.2544  1.0000</r>
       <r>  -2.2193  1.0000</r>
       <r>  -2.2104  1.0000</r>
       <r>  -2.0964  1.0000</r>
       <r>  -2.0353  1.0000</r>
       <r>  -1.9825  1.0000</r>
       <r>  -1.9791  1.0000</r>
       <r>  -1.9200  1.0000</r>
       <r>  -1.6111  1.0000</r>
       <r>  -1.3410  1.0000</r>
       <r>  -1.3250  1.0000</r>
       <r>  -1.3158  1.0000</r>
       <r>  -0.6744  1.0000</r>
       <r>   0.7270  1.0000</r>
       <r>   2.2090  0.0000</r>
       <r>   3.6155  0.0000</r>
       <r>   5.2506  0.0000</r>
       <r>   6.6233  0.0000</r>
       <r>   8.0487  0.0000</r>
       <r>   9.5192  0.0000</r>
      </set>
      <set comment="kpoint 61">
       <r>  -3.1145  1.0000</r>
       <r>  -3.1145  1.0000</r>
       <r>  -2.9677  1.0000</r>
       <r>  -2.9677  1.0000</r>
       <r>  -2.6575  1.0000</r>
       <r>  -2.6575  1.0000</r>
       <r>  -2.4315  1.0000</r>
       <r>  -2.4315  1.0000</r>
       <r>  -2.2234  1.0000</r>
       <r>  -2.2234  1.0000</r>
       <r>  -2.1226  1.0000</r>
       <r>  -2.1226  1.0000</r>
       <r>  -2.0561  1.0000</r>
       <r>  -2.0561  1.0000</r>
       <r>  -1.9741  1.0000</r>
       <r>  -1.9741  1.0000</r>
       <r>  -1.4572  1.0000</r>
       <r>  -1.4572  1.0000</r>
       <r>  -1.3417  1.0000</r>
       <r>  -1.3417  1.0000</r>
       <r>  -0.0511  1.0000</r>
[...]
       <r>   1.1680  1.0000</r>
       <r>   1.1680  1.0000</r>
       <r>   1.1680  1.0000</r>
       <r>   7.1200  0.0000</r>
       <r>   7.1200  0.0000</r>
       <r>   7.1200  0.0000</r>
       <r>   7.1200  0.0000</r>
      </set>
      <set comment="kpoint 65">
       <r>  -3.4174  1.0000</r>
       <r>  -3.1447  1.0000</r>
       <r>  -3.1447  1.0000</r>
       <r>  -3.1447  1.0000</r>
       <r>  -2.7402  1.0000</r>
       <r>  -2.7402  1.0000</r>
       <r>  -2.7402  1.0000</r>
       <r>  -2.2846  1.0000</r>
       <r>  -2.2846  1.0000</r>
       <r>  -2.0805  1.0000</r>
       <r>  -2.0337  1.0000</r>
       <r>  -2.0337  1.0000</r>
       <r>  -2.0337  1.0000</r>
       <r>  -1.8544  1.0000</r>
       <r>  -1.8544  1.0000</r>
       <r>  -1.8544  1.0000</r>
       <r>  -1.6489  1.0000</r>
       <r>  -1.6489  1.0000</r>
       <r>  -1.1753  1.0000</r>
       <r>  -1.1753  1.0000</r>
       <r>  -1.1753  1.0000</r>
       <r>   2.5182  0.0000</r>
       <r>   2.5182  0.0000</r>
       <r>   2.5182  0.0000</r>
       <r>   6.8406  0.0000</r>
       <r>   6.8406  0.0000</r>
       <r>   6.8406  0.0000</r>
       <r>  11.2424  0.0000</r>
      </set>
      <set comment="kpoint 66">
       <r>  -3.3410  1.0000</r>
       <r>  -3.1360  1.0000</r>
       <r>  -3.1002  1.0000</r>
       <r>  -3.1002  1.0000</r>
       <r>  -2.6573  1.0000</r>
       <r>  -2.6573  1.0000</r>
       <r>  -2.6278  1.0000</r>
       <r>  -2.3106  1.0000</r>
       <r>  -2.2791  1.0000</r>
       <r>  -2.1061  1.0000</r>
       <r>  -2.1061  1.0000</r>
       <r>  -2.1020  1.0000</r>
       <r>  -1.9786  1.0000</r>
       <r>  -1.9367  1.0000</r>
       <r>  -1.9192  1.0000</r>
       <r>  -1.9192  1.0000</r>
       <r>  -1.5257  1.0000</r>
       <r>  -1.4775  1.0000</r>
       <r>  -1.2030  1.0000</r>
       <r>  -1.2030  1.0000</r>
       <r>  -1.1869  1.0000</r>
       <r>   1.4791  1.0000</r>
       <r>   2.9679  0.0000</r>
       <r>   2.9679  0.0000</r>
       <r>   5.9110  0.0000</r>
       <r>   5.9110  0.0000</r>
       <r>   7.3323  0.0000</r>
       <r>  10.2860  0.0000</r>
      </set>
      <set comment="kpoint 67">
       <r>  -3.2638  1.0000</r>
       <r>  -3.1525  1.0000</r>
       <r>  -3.0398  1.0000</r>
       <r>  -3.0398  1.0000</r>
       <r>  -2.6615  1.0000</r>
       <r>  -2.6615  1.0000</r>
       <r>  -2.5060  1.0000</r>
       <r>  -2.3489  1.0000</r>
       <r>  -2.2444  1.0000</r>
       <r>  -2.1357  1.0000</r>
       <r>  -2.1027  1.0000</r>
       <r>  -2.1027  1.0000</r>
       <r>  -2.0901  1.0000</r>
       <r>  -2.0146  1.0000</r>
       <r>  -1.9646  1.0000</r>
       <r>  -1.9646  1.0000</r>
       <r>  -1.4088  1.0000</r>
       <r>  -1.2408  1.0000</r>
       <r>  -1.2408  1.0000</r>
       <r>  -1.2323  1.0000</r>
       <r>  -0.9571  1.0000</r>
       <r>   0.5455  1.0000</r>
       <r>   3.4780  0.0000</r>
       <r>   3.4780  0.0000</r>
       <r>   5.1160  0.0000</r>
       <r>   5.1160  0.0000</r>
       <r>   7.9320  0.0000</r>
       <r>   9.4144  0.0000</r>
      </set>
      <set comment="kpoint 68">
       <r>  -3.1972  1.0000</r>
       <r>  -3.1972  1.0000</r>
       <r>  -3.0058  1.0000</r>
       <r>  -3.0058  1.0000</r>
       <r>  -2.6886  1.0000</r>
       <r>  -2.6886  1.0000</r>
       <r>  -2.4076  1.0000</r>
       <r>  -2.4076  1.0000</r>
       <r>  -2.1805  1.0000</r>
       <r>  -2.1805  1.0000</r>
       <r>  -2.1052  1.0000</r>
       <r>  -2.1052  1.0000</r>
       <r>  -2.0585  1.0000</r>
       <r>  -2.0585  1.0000</r>
       <r>  -2.0061  1.0000</r>
       <r>  -2.0061  1.0000</r>
       <r>  -1.3083  1.0000</r>
       <r>  -1.3083  1.0000</r>
       <r>  -1.2584  1.0000</r>
       <r>  -1.2584  1.0000</r>
       <r>  -0.2707  1.0000</r>
       <r>  -0.2707  1.0000</r>
       <r>   3.8303  0.0000</r>
       <r>   3.8303  0.0000</r>
       <r>   4.6691  0.0000</r>
       <r>   4.6691  0.0000</r>
       <r>   8.6285  0.0000</r>
       <r>   8.6285  0.0000</r>
      </set>
      <set comment="kpoint 69">
       <r>  -3.3325  1.0000</r>
       <r>  -3.1337  1.0000</r>
       <r>  -3.1337  1.0000</r>
       <r>  -3.1132  1.0000</r>
       <r>  -2.6131  1.0000</r>
       <r>  -2.5844  1.0000</r>
       <r>  -2.5844  1.0000</r>
       <r>  -2.3252  1.0000</r>
       <r>  -2.3069  1.0000</r>
       <r>  -2.1089  1.0000</r>
       <r>  -2.1089  1.0000</r>
       <r>  -2.0378  1.0000</r>
       <r>  -2.0139  1.0000</r>
       <r>  -2.0009  1.0000</r>
       <r>  -2.0009  1.0000</r>
       <r>  -1.6724  1.0000</r>
       <r>  -1.5869  1.0000</r>
       <r>  -1.2214  1.0000</r>
       <r>  -1.2042  1.0000</r>
       <r>  -1.2042  1.0000</r>
       <r>  -1.1573  1.0000</r>
       <r>   1.9079  0.0000</r>
       <r>   1.9079  0.0000</r>
       <r>   3.3252  0.0000</r>
       <r>   5.0158  0.0000</r>
       <r>   6.3896  0.0000</r>
       <r>   6.3896  0.0000</r>
       <r>   9.3219  0.0000</r>
      </set>
      <set comment="kpoint 70">
       <r>  -3.2988  1.0000</r>
       <r>  -3.1872  1.0000</r>
       <r>  -3.1202  1.0000</r>
       <r>  -3.1124  1.0000</r>
       <r>  -2.6098  1.0000</r>
       <r>  -2.6003  1.0000</r>
       <r>  -2.5034  1.0000</r>
       <r>  -2.3688  1.0000</r>
       <r>  -2.2923  1.0000</r>
       <r>  -2.1721  1.0000</r>
       <r>  -2.1236  1.0000</r>
       <r>  -2.1013  1.0000</r>
       <r>  -1.9708  1.0000</r>
       <r>  -1.9368  1.0000</r>
       <r>  -1.9296  1.0000</r>
       <r>  -1.7548  1.0000</r>
       <r>  -1.4399  1.0000</r>
       <r>  -1.2569  1.0000</r>
       <r>  -1.2462  1.0000</r>
       <r>  -1.2426  1.0000</r>
       <r>  -0.6032  1.0000</r>
       <r>   0.9526  1.0000</r>
       <r>   2.4291  0.0000</r>
       <r>   3.4660  0.0000</r>
       <r>   4.5490  0.0000</r>
       <r>   5.5648  0.0000</r>
       <r>   6.9776  0.0000</r>
       <r>   8.4480  0.0000</r>
      </set>
      <set comment="kpoint 71">
       <r>  -3.2468  1.0000</r>
       <r>  -3.2468  1.0000</r>
       <r>  -3.1112  1.0000</r>
       <r>  -3.1112  1.0000</r>
       <r>  -2.6157  1.0000</r>
       <r>  -2.6157  1.0000</r>
       <r>  -2.4293  1.0000</r>
       <r>  -2.4293  1.0000</r>
       <r>  -2.2442  1.0000</r>
       <r>  -2.2442  1.0000</r>
       <r>  -2.1233  1.0000</r>
       <r>  -2.1233  1.0000</r>
       <r>  -1.8961  1.0000</r>
       <r>  -1.8961  1.0000</r>
       <r>  -1.8744  1.0000</r>
       <r>  -1.8744  1.0000</r>
       <r>  -1.3203  1.0000</r>
       <r>  -1.3203  1.0000</r>
       <r>  -1.2728  1.0000</r>
       <r>  -1.2728  1.0000</r>
       <r>   0.1114  1.0000</r>
       <r>   0.1114  1.0000</r>
       <r>   3.0113  0.0000</r>
       <r>   3.0113  0.0000</r>
       <r>   4.8883  0.0000</r>
       <r>   4.8883  0.0000</r>
       <r>   7.6656  0.0000</r>
       <r>   7.6656  0.0000</r>
      </set>
      <set comment="kpoint 72">
       <r>  -3.2963  1.0000</r>
       <r>  -3.1994  1.0000</r>
       <r>  -3.1994  1.0000</r>
       <r>  -3.1629  1.0000</r>
       <r>  -2.5688  1.0000</r>
       <r>  -2.5241  1.0000</r>
       <r>  -2.5241  1.0000</r>
       <r>  -2.3962  1.0000</r>
       <r>  -2.3108  1.0000</r>
       <r>  -2.2111  1.0000</r>
       <r>  -2.2111  1.0000</r>
       <r>  -2.1819  1.0000</r>
       <r>  -1.8179  1.0000</r>
       <r>  -1.8179  1.0000</r>
       <r>  -1.8007  1.0000</r>
       <r>  -1.5945  1.0000</r>
       <r>  -1.4967  1.0000</r>
       <r>  -1.2986  1.0000</r>
       <r>  -1.2918  1.0000</r>
       <r>  -1.2918  1.0000</r>
       <r>  -0.0549  1.0000</r>
       <r>   1.4796  1.0000</r>
       <r>   1.4796  1.0000</r>
       <r>   2.8382  0.0000</r>
       <r>   4.8187  0.0000</r>
       <r>   6.1325  0.0000</r>
       <r>   6.1325  0.0000</r>
       <r>   7.5777  0.0000</r>
      </set>
      <set comment="kpoint 73">
       <r>  -3.2612  1.0000</r>
       <r>  -3.2612  1.0000</r>
       <r>  -3.1914  1.0000</r>
       <r>  -3.1914  1.0000</r>
       <r>  -2.5436  1.0000</r>
       <r>  -2.5436  1.0000</r>
       <r>  -2.4516  1.0000</r>
       <r>  -2.4516  1.0000</r>
       <r>  -2.2794  1.0000</r>
       <r>  -2.2794  1.0000</r>
       <r>  -2.2174  1.0000</r>
       <r>  -2.2174  1.0000</r>
       <r>  -1.7460  1.0000</r>
       <r>  -1.7460  1.0000</r>
       <r>  -1.6889  1.0000</r>
       <r>  -1.6889  1.0000</r>
       <r>  -1.3827  1.0000</r>
       <r>  -1.3827  1.0000</r>
       <r>  -1.3249  1.0000</r>
       <r>  -1.3249  1.0000</r>
       <r>   0.6467  1.0000</r>
       <r>   0.6467  1.0000</r>
       <r>   2.1174  0.0000</r>
       <r>   2.1174  0.0000</r>
       <r>   5.4043  0.0000</r>
       <r>   5.4043  0.0000</r>
       <r>   6.8052  0.0000</r>
       <r>   6.8052  0.0000</r>
      </set>
      <set comment="kpoint 74">
       <r>  -3.2422  1.0000</r>
       <r>  -3.2422  1.0000</r>
       <r>  -3.2422  1.0000</r>
       <r>  -3.2422  1.0000</r>
       <r>  -2.4861  1.0000</r>
       <r>  -2.4861  1.0000</r>
       <r>  -2.4861  1.0000</r>
       <r>  -2.4861  1.0000</r>
       <r>  -2.2733  1.0000</r>
       <r>  -2.2733  1.0000</r>
       <r>  -2.2733  1.0000</r>
       <r>  -2.2733  1.0000</r>
       <r>  -1.6392  1.0000</r>
       <r>  -1.6392  1.0000</r>
       <r>  -1.6392  1.0000</r>
       <r>  -1.6392  1.0000</r>
       <r>  -1.3951  1.0000</r>
       <r>  -1.3951  1.0000</r>
       <r>  -1.3951  1.0000</r>
       <r>  -1.3951  1.0000</r>
       <r>   1.3201  1.0000</r>
       <r>   1.3201  1.0000</r>
       <r>   1.3201  1.0000</r>
       <r>   1.3201  1.0000</r>
       <r>   6.0498  0.0000</r>
       <r>   6.0498  0.0000</r>
       <r>   6.0498  0.0000</r>
       <r>   6.0498  0.0000</r>
      </set>
      <set comment="kpoint 75">
       <r>  -3.3721  1.0000</r>
       <r>  -3.1893  1.0000</r>
       <r>  -3.1893  1.0000</r>
       <r>  -3.1893  1.0000</r>
       <r>  -2.5626  1.0000</r>
       <r>  -2.5626  1.0000</r>
       <r>  -2.5626  1.0000</r>
       <r>  -2.3425  1.0000</r>
       <r>  -2.3425  1.0000</r>
       <r>  -2.1522  1.0000</r>
       <r>  -2.1522  1.0000</r>
       <r>  -2.1522  1.0000</r>
       <r>  -1.9020  1.0000</r>
       <r>  -1.9020  1.0000</r>
       <r>  -1.9020  1.0000</r>
       <r>  -1.4540  1.0000</r>
       <r>  -1.4540  1.0000</r>
       <r>  -1.1947  1.0000</r>
       <r>  -1.1947  1.0000</r>
       <r>  -1.1947  1.0000</r>
       <r>  -0.9345  1.0000</r>
       <r>   2.2645  0.0000</r>
       <r>   2.2645  0.0000</r>
       <r>   2.2645  0.0000</r>
       <r>   5.4595  0.0000</r>
       <r>   5.4595  0.0000</r>
       <r>   5.4595  0.0000</r>
       <r>   8.3513  0.0000</r>
      </set>
      <set comment="kpoint 76">
       <r>  -3.3702  1.0000</r>
       <r>  -3.2685  1.0000</r>
       <r>  -3.2218  1.0000</r>
       <r>  -3.2218  1.0000</r>
       <r>  -2.5582  1.0000</r>
       <r>  -2.5582  1.0000</r>
       <r>  -2.4968  1.0000</r>
       <r>  -2.3798  1.0000</r>
       <r>  -2.3440  1.0000</r>
       <r>  -2.2457  1.0000</r>
       <r>  -2.2112  1.0000</r>
       <r>  -2.2112  1.0000</r>
       <r>  -1.7773  1.0000</r>
       <r>  -1.7658  1.0000</r>
       <r>  -1.7658  1.0000</r>
       <r>  -1.5235  1.0000</r>
       <r>  -1.3409  1.0000</r>
       <r>  -1.2201  1.0000</r>
       <r>  -1.2201  1.0000</r>
       <r>  -1.2061  1.0000</r>
       <r>  -0.3313  1.0000</r>
       <r>   1.2920  1.0000</r>
       <r>   2.6538  0.0000</r>
       <r>   2.6538  0.0000</r>
       <r>   4.7237  0.0000</r>
       <r>   4.7237  0.0000</r>
       <r>   6.0270  0.0000</r>
       <r>   7.4773  0.0000</r>
      </set>
      <set comment="kpoint 77">
       <r>  -3.3329  1.0000</r>
       <r>  -3.3329  1.0000</r>
       <r>  -3.2324  1.0000</r>
       <r>  -3.2324  1.0000</r>
       <r>  -2.5593  1.0000</r>
       <r>  -2.5593  1.0000</r>
       <r>  -2.4327  1.0000</r>
       <r>  -2.4327  1.0000</r>
       <r>  -2.3110  1.0000</r>
       <r>  -2.3110  1.0000</r>
       <r>  -2.2300  1.0000</r>
       <r>  -2.2300  1.0000</r>
       <r>  -1.7069  1.0000</r>
       <r>  -1.7069  1.0000</r>
       <r>  -1.6465  1.0000</r>
       <r>  -1.6465  1.0000</r>
       <r>  -1.2560  1.0000</r>
       <r>  -1.2560  1.0000</r>
       <r>  -1.2399  1.0000</r>
       <r>  -1.2399  1.0000</r>
       <r>   0.4234  1.0000</r>
       <r>   0.4234  1.0000</r>
       <r>   2.8703  0.0000</r>
       <r>   2.8703  0.0000</r>
       <r>   4.3913  0.0000</r>
       <r>   4.3913  0.0000</r>
       <r>   6.7016  0.0000</r>
       <r>   6.7016  0.0000</r>
      </set>
      <set comment="kpoint 78">
       <r>  -3.3937  1.0000</r>
       <r>  -3.3130  1.0000</r>
       <r>  -3.3130  1.0000</r>
       <r>  -3.2891  1.0000</r>
       <r>  -2.5231  1.0000</r>
       <r>  -2.4961  1.0000</r>
       <r>  -2.4961  1.0000</r>
       <r>  -2.3931  1.0000</r>
       <r>  -2.3754  1.0000</r>
       <r>  -2.2978  1.0000</r>
       <r>  -2.2978  1.0000</r>
       <r>  -2.2834  1.0000</r>
       <r>  -1.6099  1.0000</r>
       <r>  -1.6099  1.0000</r>
       <r>  -1.6082  1.0000</r>
       <r>  -1.3740  1.0000</r>
       <r>  -1.3630  1.0000</r>
       <r>  -1.2341  1.0000</r>
       <r>  -1.2239  1.0000</r>
       <r>  -1.2239  1.0000</r>
       <r>   0.1970  1.0000</r>
       <r>   1.7402  1.0000</r>
       <r>   1.7402  1.0000</r>
       <r>   2.6503  0.0000</r>
       <r>   4.3429  0.0000</r>
       <r>   5.2175  0.0000</r>
       <r>   5.2175  0.0000</r>
       <r>   6.6120  0.0000</r>
      </set>
      <set comment="kpoint 79">
       <r>  -3.3729  1.0000</r>
       <r>  -3.3729  1.0000</r>
       <r>  -3.3198  1.0000</r>
       <r>  -3.3198  1.0000</r>
       <r>  -2.5027  1.0000</r>
       <r>  -2.5027  1.0000</r>
       <r>  -2.4379  1.0000</r>
       <r>  -2.4379  1.0000</r>
       <r>  -2.3545  1.0000</r>
       <r>  -2.3545  1.0000</r>
       <r>  -2.3127  1.0000</r>
       <r>  -2.3127  1.0000</r>
       <r>  -1.5362  1.0000</r>
       <r>  -1.5362  1.0000</r>
       <r>  -1.4710  1.0000</r>
       <r>  -1.4710  1.0000</r>
       <r>  -1.2724  1.0000</r>
       <r>  -1.2724  1.0000</r>
       <r>  -1.2512  1.0000</r>
       <r>  -1.2512  1.0000</r>
       <r>   0.9062  1.0000</r>
       <r>   0.9062  1.0000</r>
       <r>   2.2513  0.0000</r>
       <r>   2.2513  0.0000</r>
       <r>   4.5990  0.0000</r>
       <r>   4.5990  0.0000</r>
       <r>   5.8561  0.0000</r>
       <r>   5.8561  0.0000</r>
      </set>
      <set comment="kpoint 80">
       <r>  -3.3679  1.0000</r>
       <r>  -3.3679  1.0000</r>
       <r>  -3.3679  1.0000</r>
       <r>  -3.3679  1.0000</r>
       <r>  -2.4577  1.0000</r>
       <r>  -2.4577  1.0000</r>
       <r>  -2.4577  1.0000</r>
       <r>  -2.4577  1.0000</r>
       <r>  -2.3586  1.0000</r>
       <r>  -2.3586  1.0000</r>
       <r>  -2.3586  1.0000</r>
       <r>  -2.3586  1.0000</r>
       <r>  -1.4153  1.0000</r>
       <r>  -1.4153  1.0000</r>
       <r>  -1.4153  1.0000</r>
       <r>  -1.4153  1.0000</r>
       <r>  -1.2971  1.0000</r>
       <r>  -1.2971  1.0000</r>
       <r>  -1.2971  1.0000</r>
       <r>  -1.2971  1.0000</r>
       <r>   1.5356  1.0000</r>
       <r>   1.5356  1.0000</r>
       <r>   1.5356  1.0000</r>
       <r>   1.5356  1.0000</r>
       <r>   5.1425  0.0000</r>
       <r>   5.1425  0.0000</r>
       <r>   5.1425  0.0000</r>
       <r>   5.1425  0.0000</r>
      </set>
      <set comment="kpoint 81">
       <r>  -3.4393  1.0000</r>
       <r>  -3.3827  1.0000</r>
       <r>  -3.3827  1.0000</r>
       <r>  -3.3827  1.0000</r>
       <r>  -2.4742  1.0000</r>
       <r>  -2.4742  1.0000</r>
       <r>  -2.4742  1.0000</r>
       <r>  -2.4054  1.0000</r>
       <r>  -2.4054  1.0000</r>
       <r>  -2.3577  1.0000</r>
       <r>  -2.3577  1.0000</r>
       <r>  -2.3577  1.0000</r>
       <r>  -1.4431  1.0000</r>
       <r>  -1.4431  1.0000</r>
       <r>  -1.4431  1.0000</r>
       <r>  -1.2804  1.0000</r>
       <r>  -1.2804  1.0000</r>
       <r>  -1.2078  1.0000</r>
       <r>  -1.2078  1.0000</r>
       <r>  -1.2078  1.0000</r>
       <r>   0.6590  1.0000</r>
       <r>   2.0217  0.0000</r>
       <r>   2.0217  0.0000</r>
       <r>   2.0217  0.0000</r>
       <r>   4.5329  0.0000</r>
       <r>   4.5329  0.0000</r>
       <r>   4.5329  0.0000</r>
       <r>   5.7678  0.0000</r>
      </set>
      <set comment="kpoint 82">
       <r>  -3.4345  1.0000</r>
       <r>  -3.4345  1.0000</r>
       <r>  -3.4061  1.0000</r>
       <r>  -3.4061  1.0000</r>
       <r>  -2.4651  1.0000</r>
       <r>  -2.4651  1.0000</r>
       <r>  -2.4331  1.0000</r>
       <r>  -2.4331  1.0000</r>
       <r>  -2.3994  1.0000</r>
       <r>  -2.3994  1.0000</r>
       <r>  -2.3797  1.0000</r>
       <r>  -2.3797  1.0000</r>
       <r>  -1.3674  1.0000</r>
       <r>  -1.3674  1.0000</r>
       <r>  -1.3234  1.0000</r>
       <r>  -1.3234  1.0000</r>
       <r>  -1.2235  1.0000</r>
       <r>  -1.2235  1.0000</r>
       <r>  -1.2200  1.0000</r>
       <r>  -1.2200  1.0000</r>
       <r>   1.2959  1.0000</r>
       <r>   1.2959  1.0000</r>
       <r>   2.1647  0.0000</r>
       <r>   2.1647  0.0000</r>
       <r>   4.2538  0.0000</r>
       <r>   4.2538  0.0000</r>
       <r>   5.0609  0.0000</r>
       <r>   5.0609  0.0000</r>
      </set>
      <set comment="kpoint 83">
       <r>  -3.4453  1.0000</r>
       <r>  -3.4453  1.0000</r>
       <r>  -3.4453  1.0000</r>
       <r>  -3.4453  1.0000</r>
       <r>  -2.4378  1.0000</r>
       <r>  -2.4378  1.0000</r>
       <r>  -2.4378  1.0000</r>
       <r>  -2.4378  1.0000</r>
       <r>  -2.4123  1.0000</r>
       <r>  -2.4123  1.0000</r>
       <r>  -2.4123  1.0000</r>
       <r>  -2.4123  1.0000</r>
       <r>  -1.2652  1.0000</r>
       <r>  -1.2652  1.0000</r>
       <r>  -1.2652  1.0000</r>
       <r>  -1.2652  1.0000</r>
       <r>  -1.2341  1.0000</r>
       <r>  -1.2341  1.0000</r>
       <r>  -1.2341  1.0000</r>
       <r>  -1.2341  1.0000</r>
       <r>   1.7704  1.0000</r>
       <r>   1.7704  1.0000</r>
       <r>   1.7704  1.0000</r>
       <r>   1.7704  1.0000</r>
       <r>   4.4765  0.0000</r>
       <r>   4.4765  0.0000</r>
       <r>   4.4765  0.0000</r>
       <r>   4.4765  0.0000</r>
      </set>
      <set comment="kpoint 84">
       <r>  -3.4713  1.0000</r>
       <r>  -3.4713  1.0000</r>
       <r>  -3.4713  1.0000</r>
       <r>  -3.4713  1.0000</r>
       <r>  -2.4306  1.0000</r>
       <r>  -2.4306  1.0000</r>
       <r>  -2.4306  1.0000</r>
       <r>  -2.4306  1.0000</r>
       <r>  -2.4306  1.0000</r>
       <r>  -2.4306  1.0000</r>
       <r>  -2.4306  1.0000</r>
       <r>  -2.4306  1.0000</r>
       <r>  -1.2125  1.0000</r>
       <r>  -1.2125  1.0000</r>
       <r>  -1.2125  1.0000</r>
       <r>  -1.2125  1.0000</r>
       <r>  -1.2125  1.0000</r>
       <r>  -1.2125  1.0000</r>
       <r>  -1.2125  1.0000</r>
       <r>  -1.2125  1.0000</r>
       <r>   1.8877  0.0000</r>
       <r>   1.8877  0.0000</r>
       <r>   1.8877  0.0000</r>
       <r>   1.8877  0.0000</r>
       <r>   4.2128  0.0000</r>
       <r>   4.2128  0.0000</r>
       <r>   4.2128  0.0000</r>
       <r>   4.2128  0.0000</r>
      </set>
     </set>
    </set>
   </array>
  </eigenvalues>
 </calculation>
 <structure name="finalpos" >
  <crystal>
   <varray name="basis" >
    <v>       4.41301827      0.00000000      0.00000000</v>
    <v>       0.00000000      4.41301827      0.00000000</v>
    <v>       0.00000000      0.00000000      4.41301827</v>
   </varray>
   <i name="volume">     85.94234032</i>
   <varray name="rec_basis" >
    <v>       0.22660228      0.00000000      0.00000000</v>
    <v>       0.00000000      0.22660228      0.00000000</v>
    <v>       0.00000000      0.00000000      0.22660228</v>
   </varray>
  </crystal>
  <varray name="positions" >
   <v>       0.00000000      0.00000000      0.00000000</v>
   <v>       0.50000000      0.50000000      0.00000000</v>
   <v>       0.50000000      0.00000000      0.50000000</v>
   <v>       0.00000000      0.50000000      0.50000000</v>
  </varray>
 </structure>
</modeling>
