   4   4   0   0
  0.1276167E+02  0.3709561E-09  0.3709561E-09  0.3709561E-09  0.5000000E-15
  1.000000000000000E-004
  CAR 
 unknown system                          
     25.45042027     -7.10072322  301      3.15075897      1.00000000
     -7.101  0.0000E+00  0.0000E+00
     -6.992  0.0000E+00  0.0000E+00
     -6.884  0.0000E+00  0.0000E+00
     -6.775  0.0000E+00  0.0000E+00
     -6.667  0.0000E+00  0.0000E+00
     -6.558  0.0000E+00  0.0000E+00
     -6.450  0.0000E+00  0.0000E+00
     -6.341  0.0000E+00  0.0000E+00
     -6.233  0.0000E+00  0.0000E+00
     -6.124  0.0000E+00  0.0000E+00
     -6.016  0.0000E+00  0.0000E+00
     -5.907  0.0000E+00  0.0000E+00
     -5.799  0.0000E+00  0.0000E+00
     -5.690  0.0000E+00  0.0000E+00
     -5.582  0.1686E-01  0.1829E-02
     -5.473  0.7281E-01  0.1181E-01
     -5.365  0.1267E+00  0.2720E-01
     -5.256  0.1145E+00  0.4874E-01
     -5.148  0.1412E+00  0.6813E-01
     -5.039  0.2301E+00  0.9948E-01
     -4.931  0.1806E+00  0.1265E+00
     -4.822  0.1845E+00  0.1538E+00
     -4.714  0.2123E+00  0.1951E+00
     -4.605  0.2761E+00  0.2263E+00
     -4.497  0.2628E+00  0.2668E+00
     -4.388  0.2246E+00  0.3043E+00
     -4.280  0.3700E+00  0.3557E+00
     -4.171  0.3318E+00  0.4002E+00
     -4.063  0.2618E+00  0.4406E+00
     -3.954  0.3893E+00  0.4935E+00
     -3.846  0.4733E+00  0.5477E+00
     -3.737  0.3229E+00  0.5974E+00
     -3.629  0.4470E+00  0.6586E+00
     -3.520  0.3205E+00  0.7155E+00
     -3.412  0.4269E+00  0.7826E+00
     -3.303  0.4368E+00  0.8392E+00
     -3.195  0.4136E+00  0.9105E+00
     -3.086  0.4349E+00  0.9840E+00
     -2.978  0.3592E+00  0.1042E+01
     -2.869  0.6296E+00  0.1143E+01
     -2.761  0.4109E+00  0.1213E+01
     -2.652  0.5753E+00  0.1296E+01
     -2.544  0.7929E+00  0.1402E+01
     -2.435  0.5795E+00  0.1483E+01
     -2.327  0.7681E+00  0.1587E+01
     -2.218  0.7039E+00  0.1696E+01
     -2.110  0.7178E+00  0.1810E+01
     -2.001  0.9827E+00  0.1955E+01
     -1.893  0.9636E+00  0.2078E+01
     -1.784  0.1180E+01  0.2242E+01
     -1.676  0.1211E+01  0.2422E+01
     -1.567  0.1839E+01  0.2666E+01
     -1.459  0.2231E+01  0.2945E+01
     -1.350  0.2581E+01  0.3313E+01
     -1.242  0.3562E+01  0.3794E+01
     -1.133  0.3696E+01  0.4358E+01
     -1.025  0.3835E+01  0.4907E+01
     -0.916  0.3775E+01  0.5509E+01
     -0.808  0.5220E+01  0.6310E+01
     -0.699  0.6797E+01  0.7294E+01
     -0.590  0.8159E+01  0.8447E+01
     -0.482  0.7101E+01  0.9516E+01
     -0.373  0.6716E+01  0.1052E+02
     -0.265  0.6719E+01  0.1155E+02
     -0.156  0.6698E+01  0.1257E+02
     -0.048  0.8869E+01  0.1376E+02
      0.061  0.9978E+01  0.1518E+02
      0.169  0.1029E+02  0.1673E+02
      0.278  0.1150E+02  0.1842E+02
      0.386  0.1315E+02  0.2037E+02
      0.495  0.1621E+02  0.2266E+02
      0.603  0.1098E+02  0.2442E+02
      0.712  0.9223E+01  0.2575E+02
      0.820  0.8361E+01  0.2700E+02
      0.929  0.1154E+02  0.2860E+02
      1.037  0.1283E+02  0.3044E+02
      1.146  0.1188E+02  0.3220E+02
      1.254  0.1056E+02  0.3378E+02
      1.363  0.1048E+02  0.3536E+02
      1.471  0.1314E+02  0.3726E+02
      1.580  0.2215E+02  0.4025E+02
      1.688  0.9832E+01  0.4182E+02
      1.797  0.9979E+00  0.4200E+02
      1.905  0.8908E+00  0.4220E+02
      2.014  0.1590E+01  0.4241E+02
      2.122  0.1079E+01  0.4256E+02
      2.231  0.9080E+00  0.4273E+02
      2.339  0.1413E+01  0.4291E+02
      2.448  0.9214E+00  0.4305E+02
      2.556  0.1309E+01  0.4322E+02
      2.665  0.9332E+00  0.4336E+02
      2.773  0.8908E+00  0.4349E+02
      2.882  0.1230E+01  0.4366E+02
      2.990  0.8715E+00  0.4379E+02
      3.099  0.1143E+01  0.4392E+02
      3.207  0.1116E+01  0.4408E+02
      3.316  0.7580E+00  0.4419E+02
      3.424  0.8132E+00  0.4432E+02
      3.533  0.1040E+01  0.4448E+02
      3.641  0.7010E+00  0.4458E+02
      3.750  0.6017E+00  0.4469E+02
      3.858  0.1252E+01  0.4484E+02
      3.967  0.8729E+00  0.4499E+02
      4.075  0.6355E+00  0.4508E+02
      4.184  0.4721E+00  0.4517E+02
      4.292  0.1194E+01  0.4533E+02
      4.401  0.9675E+00  0.4546E+02
      4.509  0.5970E+00  0.4555E+02
      4.618  0.6027E+00  0.4565E+02
      4.726  0.9862E+00  0.4578E+02
      4.835  0.1003E+01  0.4591E+02
      4.943  0.8618E+00  0.4603E+02
      5.052  0.5861E+00  0.4612E+02
      5.160  0.6801E+00  0.4621E+02
      5.269  0.9221E+00  0.4634E+02
      5.377  0.8881E+00  0.4645E+02
      5.486  0.6284E+00  0.4653E+02
      5.594  0.5050E+00  0.4663E+02
      5.703  0.7735E+00  0.4672E+02
      5.811  0.8499E+00  0.4682E+02
      5.920  0.6060E+00  0.4691E+02
      6.028  0.4735E+00  0.4699E+02
      6.137  0.5695E+00  0.4707E+02
      6.245  0.5059E+00  0.4714E+02
      6.354  0.4842E+00  0.4722E+02
      6.462  0.5091E+00  0.4731E+02
      6.571  0.6970E+00  0.4739E+02
      6.679  0.5211E+00  0.4747E+02
      6.788  0.1038E+01  0.4762E+02
      6.896  0.8305E+00  0.4774E+02
      7.005  0.8630E+00  0.4787E+02
      7.113  0.1013E+01  0.4801E+02
      7.222  0.7581E+00  0.4813E+02
      7.330  0.1009E+01  0.4826E+02
      7.439  0.9509E+00  0.4840E+02
      7.547  0.9176E+00  0.4854E+02
      7.656  0.7375E+00  0.4864E+02
      7.764  0.6863E+00  0.4876E+02
      7.873  0.9186E+00  0.4892E+02
      7.981  0.1128E+01  0.4905E+02
      8.090  0.8706E+00  0.4915E+02
      8.198  0.1022E+01  0.4928E+02
      8.307  0.8514E+00  0.4941E+02
      8.415  0.7843E+00  0.4952E+02
      8.524  0.7099E+00  0.4964E+02
      8.632  0.7527E+00  0.4974E+02
      8.741  0.9198E+00  0.4988E+02
      8.849  0.7774E+00  0.4998E+02
      8.958  0.8540E+00  0.5010E+02
      9.066  0.7236E+00  0.5020E+02
      9.175  0.5121E+00  0.5029E+02
      9.283  0.6650E+00  0.5041E+02
      9.392  0.8706E+00  0.5053E+02
      9.500  0.5011E+00  0.5062E+02
      9.609  0.7151E+00  0.5073E+02
      9.717  0.6202E+00  0.5082E+02
      9.826  0.8494E+00  0.5095E+02
      9.934  0.8971E+00  0.5106E+02
     10.043  0.9428E+00  0.5120E+02
     10.151  0.1022E+01  0.5134E+02
     10.260  0.1035E+01  0.5148E+02
     10.368  0.1019E+01  0.5163E+02
     10.477  0.1024E+01  0.5177E+02
     10.585  0.1048E+01  0.5193E+02
     10.694  0.9318E+00  0.5205E+02
     10.802  0.1067E+01  0.5223E+02
     10.911  0.8831E+00  0.5238E+02
     11.019  0.8623E+00  0.5254E+02
     11.128  0.1157E+01  0.5270E+02
     11.236  0.1159E+01  0.5285E+02
     11.345  0.7910E+00  0.5299E+02
     11.453  0.1085E+01  0.5315E+02
     11.562  0.1303E+01  0.5335E+02
     11.670  0.9267E+00  0.5348E+02
     11.779  0.8750E+00  0.5364E+02
     11.887  0.1048E+01  0.5378E+02
     11.996  0.1172E+01  0.5394E+02
     12.104  0.1086E+01  0.5409E+02
     12.213  0.1284E+01  0.5428E+02
     12.321  0.1419E+01  0.5447E+02
     12.430  0.1033E+01  0.5462E+02
     12.538  0.1003E+01  0.5477E+02
     12.647  0.8879E+00  0.5491E+02
     12.755  0.1212E+01  0.5509E+02
     12.864  0.1230E+01  0.5527E+02
     12.972  0.1287E+01  0.5543E+02
     13.081  0.9151E+00  0.5557E+02
     13.189  0.1367E+01  0.5576E+02
     13.298  0.1050E+01  0.5592E+02
     13.406  0.1075E+01  0.5609E+02
     13.515  0.1346E+01  0.5627E+02
     13.624  0.1475E+01  0.5646E+02
     13.732  0.9781E+00  0.5661E+02
     13.841  0.9232E+00  0.5676E+02
     13.949  0.1007E+01  0.5691E+02
     14.058  0.1336E+01  0.5711E+02
     14.166  0.1138E+01  0.5729E+02
     14.275  0.1367E+01  0.5748E+02
     14.383  0.8753E+00  0.5763E+02
     14.492  0.1440E+01  0.5782E+02
     14.600  0.1336E+01  0.5801E+02
     14.709  0.1146E+01  0.5819E+02
     14.817  0.9399E+00  0.5834E+02
     14.926  0.1395E+01  0.5852E+02
     15.034  0.1177E+01  0.5871E+02
     15.143  0.1192E+01  0.5890E+02
     15.251  0.1285E+01  0.5907E+02
     15.360  0.1245E+01  0.5928E+02
     15.468  0.1546E+01  0.5951E+02
     15.577  0.9851E+00  0.5964E+02
     15.685  0.1421E+01  0.5986E+02
     15.794  0.1079E+01  0.6003E+02
     15.902  0.1592E+01  0.6026E+02
     16.011  0.1161E+01  0.6043E+02
     16.119  0.1072E+01  0.6060E+02
     16.228  0.1398E+01  0.6077E+02
     16.336  0.1295E+01  0.6094E+02
     16.445  0.1196E+01  0.6114E+02
     16.553  0.1187E+01  0.6129E+02
     16.662  0.1188E+01  0.6145E+02
     16.770  0.8867E+00  0.6160E+02
     16.879  0.9529E+00  0.6174E+02
     16.987  0.8743E+00  0.6188E+02
     17.096  0.7500E+00  0.6198E+02
     17.204  0.6613E+00  0.6207E+02
     17.313  0.6545E+00  0.6218E+02
     17.421  0.8890E+00  0.6231E+02
     17.530  0.5117E+00  0.6239E+02
     17.638  0.4972E+00  0.6247E+02
     17.747  0.5263E+00  0.6256E+02
     17.855  0.5648E+00  0.6266E+02
     17.964  0.4737E+00  0.6272E+02
     18.072  0.4861E+00  0.6279E+02
     18.181  0.4835E+00  0.6286E+02
     18.289  0.2726E+00  0.6290E+02
     18.398  0.4835E+00  0.6298E+02
     18.506  0.2882E+00  0.6302E+02
     18.615  0.2414E+00  0.6308E+02
     18.723  0.6690E+00  0.6316E+02
     18.832  0.2873E+00  0.6320E+02
     18.940  0.3012E+00  0.6324E+02
     19.049  0.2417E+00  0.6327E+02
     19.157  0.4467E+00  0.6333E+02
     19.266  0.2633E+00  0.6336E+02
     19.374  0.2584E+00  0.6340E+02
     19.483  0.3660E+00  0.6345E+02
     19.591  0.1418E+00  0.6346E+02
     19.700  0.4003E+00  0.6351E+02
     19.808  0.1624E+00  0.6353E+02
     19.917  0.1924E+00  0.6357E+02
     20.025  0.9583E-01  0.6359E+02
     20.134  0.3095E+00  0.6363E+02
     20.242  0.1388E+00  0.6365E+02
     20.351  0.6400E-01  0.6366E+02
     20.459  0.1326E+00  0.6368E+02
     20.568  0.1923E+00  0.6371E+02
     20.676  0.1515E+00  0.6373E+02
     20.785  0.9595E-01  0.6375E+02
     20.893  0.2447E+00  0.6378E+02
     21.002  0.2356E-01  0.6379E+02
     21.110  0.6488E-01  0.6380E+02
     21.219  0.1279E+00  0.6382E+02
     21.327  0.2516E+00  0.6385E+02
     21.436  0.2005E-02  0.6385E+02
     21.544  0.3192E-01  0.6386E+02
     21.653  0.6400E-01  0.6388E+02
     21.761  0.9600E-01  0.6389E+02
     21.870  0.6400E-01  0.6389E+02
     21.978  0.1920E+00  0.6391E+02
     22.087  0.6400E-01  0.6392E+02
     22.195  0.3541E-01  0.6392E+02
     22.304  0.8533E-01  0.6394E+02
     22.412  0.1259E-08  0.6394E+02
     22.521  0.3200E-01  0.6395E+02
     22.629  0.7842E-01  0.6395E+02
     22.738  0.3200E-01  0.6396E+02
     22.846  0.6400E-01  0.6397E+02
     22.955  0.3200E-01  0.6397E+02
     23.063  0.2243E-05  0.6397E+02
     23.172  0.1201E-07  0.6398E+02
     23.280  0.9600E-01  0.6399E+02
     23.389  0.1958E-01  0.6399E+02
     23.497  0.0000E+00  0.6399E+02
     23.606  0.5012E-03  0.6399E+02
     23.714  0.3188E-01  0.6400E+02
     23.823  0.0000E+00  0.6400E+02
     23.931  0.6460E-10  0.6400E+02
     24.040  0.5333E-02  0.6400E+02
     24.148  0.0000E+00  0.6400E+02
     24.257  0.0000E+00  0.6400E+02
     24.365  0.0000E+00  0.6400E+02
     24.474  0.0000E+00  0.6400E+02
     24.582  0.0000E+00  0.6400E+02
     24.691  0.0000E+00  0.6400E+02
     24.799  0.0000E+00  0.6400E+02
     24.908  0.0000E+00  0.6400E+02
     25.016  0.0000E+00  0.6400E+02
     25.125  0.0000E+00  0.6400E+02
     25.233  0.0000E+00  0.6400E+02
     25.342  0.0000E+00  0.6400E+02
     25.450  0.0000E+00  0.6400E+02
