    4    4    1    1
  0.1276167E+02  0.3709561E-09  0.3709561E-09  0.3709561E-09  0.5000000E-15
  1.000000000000000E-004
  CAR 
 unknown system                          
   44  455   32
 
  0.0000000E+00  0.0000000E+00  0.0000000E+00  0.7233796E-04
   1       -5.6211
   2       -1.3064
   3       -1.3064
   4       -1.3064
   5       -0.9019
   6       -0.9019
   7       -0.9019
   8        0.3306
   9        0.3306
  10        0.3306
  11        1.0646
  12        1.0646
  13        1.5528
  14        1.5528
  15        1.5528
  16        1.6895
  17        1.6895
  18        1.6895
  19        1.6895
  20        1.6895
  21        1.6895
  22        4.7209
  23        4.7209
  24        4.7209
  25        9.7446
  26        9.7446
  27        9.7446
  28       15.7197
  29       15.7197
  30       15.7197
  31       15.7197
  32       15.7197
 
  0.4166667E-01  0.0000000E+00  0.0000000E+00  0.4340278E-03
   1       -5.6011
   2       -1.3067
   3       -1.2973
   4       -1.2973
   5       -0.8968
   6       -0.8966
   7       -0.8966
   8        0.3251
   9        0.3351
  10        0.3351
  11        1.0596
  12        1.0667
  13        1.5463
  14        1.5463
  15        1.5507
  16        1.6566
  17        1.6566
  18        1.6818
  19        1.6818
  20        1.6895
  21        1.6895
  22        4.5766
  23        4.7719
  24        4.7719
  25        9.7527
  26        9.7527
  27        9.9296
  28       15.5672
  29       15.5672
  30       15.6213
  31       15.6213
  32       15.7486
 
  0.8333333E-01  0.0000000E+00  0.0000000E+00  0.4340278E-03
   1       -5.5412
   2       -1.3085
   3       -1.2705
   4       -1.2705
   5       -0.8818
   6       -0.8806
   7       -0.8806
   8        0.3087
   9        0.3485
  10        0.3485
  11        1.0447
  12        1.0728
  13        1.5271
  14        1.5271
  15        1.5443
  16        1.5641
  17        1.5641
  18        1.6590
  19        1.6590
  20        1.6895
  21        1.6895
  22        4.1974
  23        4.9189
  24        4.9189
  25        9.7770
  26        9.7770
  27       10.4313
  28       15.1685
  29       15.1685
  30       15.3504
  31       15.3504
  32       15.8350
 
  0.1250000E+00  0.0000000E+00  0.0000000E+00  0.4340278E-03
   1       -5.4417
   2       -1.3146
   3       -1.2268
   4       -1.2268
   5       -0.8570
   6       -0.8540
   7       -0.8540
   8        0.2816
   9        0.3707
  10        0.3707
  11        1.0204
  12        1.0829
  13        1.4268
  14        1.4268
  15        1.4955
  16        1.4955
  17        1.5339
  18        1.6219
  19        1.6219
  20        1.6896
  21        1.6896
  22        3.6856
  23        5.1468
  24        5.1468
  25        9.8181
  26        9.8181
  27       11.1502
  28       14.6274
  29       14.6274
  30       14.9606
  31       14.9606
  32       15.9780
 
  0.1666667E+00  0.0000000E+00  0.0000000E+00  0.4340278E-03
   1       -5.3030
   2       -1.3304
   3       -1.1679
   4       -1.1679
   5       -0.8228
   6       -0.8166
   7       -0.8166
   8        0.2445
   9        0.4017
  10        0.4017
  11        0.9873
  12        1.0967
  13        1.2609
  14        1.2609
  15        1.4523
  16        1.4523
  17        1.5195
  18        1.5718
  19        1.5718
  20        1.6897
  21        1.6897
  22        3.1224
  23        5.4394
  24        5.4394
  25        9.8770
  26        9.8770
  27       12.0093
  28       14.0178
  29       14.0178
  30       14.5049
  31       14.5049
  32       16.1761
 
  0.2083333E+00  0.0000000E+00  0.0000000E+00  0.4340278E-03
   1       -5.1260
   2       -1.3645
   3       -1.0961
   4       -1.0961
   5       -0.7797
   6       -0.7682
   7       -0.7682
   8        0.1980
   9        0.4411
  10        0.4411
  11        0.9466
  12        1.0798
  13        1.0798
  14        1.1142
  15        1.3989
  16        1.3989
  17        1.5015
  18        1.5101
  19        1.5101
  20        1.6897
  21        1.6897
  22        2.5606
  23        5.7831
  24        5.7831
  25        9.9548
  26        9.9548
  27       12.9630
  28       13.3796
  29       13.3796
  30       14.0227
  31       14.0227
  32       16.4276
 
  0.2500000E+00  0.0000000E+00  0.0000000E+00  0.4340278E-03
   1       -4.9117
   2       -1.4292
   3       -1.0147
   4       -1.0147
   5       -0.7284
   6       -0.7086
   7       -0.7086
   8        0.1430
   9        0.4888
  10        0.4888
  11        0.8929
  12        0.8929
  13        0.8998
  14        1.1349
  15        1.3371
  16        1.3371
  17        1.4388
  18        1.4388
  19        1.4801
  20        1.6898
  21        1.6898
  22        2.0370
  23        6.1682
  24        6.1682
  25       10.0532
  26       10.0532
  27       12.7336
  28       12.7336
  29       13.5397
  30       13.5397
  31       13.9855
  32       16.7303
 
  0.2916667E+00  0.0000000E+00  0.0000000E+00  0.4340278E-03
   1       -4.6616
   2       -1.5407
   3       -0.9278
   4       -0.9278
   5       -0.6696
   6       -0.6377
   7       -0.6377
   8        0.0806
   9        0.5443
  10        0.5443
  11        0.7067
  12        0.7067
  13        0.8488
  14        1.1586
  15        1.2698
  16        1.2698
  17        1.3598
  18        1.3598
  19        1.4558
  20        1.5808
  21        1.6899
  22        1.6899
  23        6.5880
  24        6.5880
  25       10.1740
  26       10.1740
  27       12.0910
  28       12.0910
  29       13.0725
  30       13.0725
  31       15.0613
  32       17.0817
 
  0.3333333E+00  0.0000000E+00  0.0000000E+00  0.4340278E-03
   1       -4.3779
   2       -1.7150
   3       -0.8409
   4       -0.8409
   5       -0.6043
   6       -0.5552
   7       -0.5552
   8        0.0118
   9        0.5255
  10        0.5255
  11        0.6072
  12        0.6072
  13        0.7963
  14        1.1849
  15        1.2011
  16        1.2011
  17        1.2154
  18        1.2753
  19        1.2753
  20        1.4289
  21        1.6900
  22        1.6900
  23        7.0378
  24        7.0378
  25       10.3192
  26       10.3192
  27       11.4583
  28       11.4583
  29       12.6312
  30       12.6312
  31       16.1799
  32       17.4793
 
  0.3750000E+00  0.0000000E+00  0.0000000E+00  0.4340278E-03
   1       -4.0634
   2       -1.9597
   3       -0.7605
   4       -0.7605
   5       -0.5334
   6       -0.4610
   7       -0.4610
   8       -0.0619
   9        0.3521
  10        0.3521
  11        0.6770
  12        0.6770
  13        0.7461
  14        0.9526
  15        1.1364
  16        1.1364
  17        1.1871
  18        1.1871
  19        1.2133
  20        1.4001
  21        1.6901
  22        1.6901
  23        7.5144
  24        7.5144
  25       10.4908
  26       10.4908
  27       10.8393
  28       10.8393
  29       12.2220
  30       12.2220
  31       17.3328
  32       17.9207
 
  0.4166667E+00  0.0000000E+00  0.0000000E+00  0.4340278E-03
   1       -3.7224
   2       -2.2671
   3       -0.6943
   4       -0.6943
   5       -0.4583
   6       -0.3549
   7       -0.3549
   8       -0.1394
   9        0.1882
  10        0.1882
  11        0.7028
  12        0.7528
  13        0.7528
  14        0.7868
  15        1.0822
  16        1.0822
  17        1.0972
  18        1.0972
  19        1.2433
  20        1.3697
  21        1.6901
  22        1.6901
  23        8.0156
  24        8.0156
  25       10.2363
  26       10.2363
  27       10.6905
  28       10.6905
  29       11.8490
  30       11.8490
  31       18.4032
  32       18.4049
 
  0.4583333E+00  0.0000000E+00  0.0000000E+00  0.4340278E-03
   1       -3.3610
   2       -2.6174
   3       -0.6504
   4       -0.6504
   5       -0.3799
   6       -0.2368
   7       -0.2368
   8       -0.2191
   9        0.0350
  10        0.0350
  11        0.6735
  12        0.6992
  13        0.8338
  14        0.8338
  15        1.0074
  16        1.0074
  17        1.0458
  18        1.0458
  19        1.2745
  20        1.3382
  21        1.6901
  22        1.6901
  23        8.5397
  24        8.5397
  25        9.6512
  26        9.6512
  27       10.9171
  28       10.9171
  29       11.5170
  30       11.5170
  31       18.9246
  32       18.9246
 
  0.5000000E+00  0.0000000E+00  0.0000000E+00  0.2170139E-03
   1       -2.9882
   2       -2.9882
   3       -0.6349
   4       -0.6349
   5       -0.2998
   6       -0.2998
   7       -0.1068
   8       -0.1068
   9       -0.1068
  10       -0.1068
  11        0.6677
  12        0.6677
  13        0.9191
  14        0.9191
  15        0.9191
  16        0.9191
  17        1.0329
  18        1.0329
  19        1.3063
  20        1.3063
  21        1.6901
  22        1.6901
  23        9.0853
  24        9.0853
  25        9.0853
  26        9.0853
  27       11.1065
  28       11.1065
  29       11.2923
  30       11.2923
  31       19.4824
  32       19.4824
 
  0.4166667E-01  0.4166667E-01  0.0000000E+00  0.8680556E-03
   1       -5.5811
   2       -1.2976
   3       -1.2976
   4       -1.2884
   5       -0.8915
   6       -0.8915
   7       -0.8913
   8        0.3219
   9        0.3372
  10        0.3394
  11        1.0582
  12        1.0653
  13        1.5399
  14        1.5435
  15        1.5435
  16        1.6296
  17        1.6492
  18        1.6492
  19        1.6818
  20        1.6818
  21        1.6846
  22        4.6272
  23        4.6272
  24        4.8220
  25        9.7608
  26        9.9385
  27        9.9385
  28       15.2039
  29       15.5955
  30       15.5955
  31       15.6498
  32       15.6498
 
  0.8333333E-01  0.4166667E-01  0.0000000E+00  0.1736111E-02
   1       -5.5213
   2       -1.2992
   3       -1.2706
   4       -1.2617
   5       -0.8766
   6       -0.8757
   7       -0.8755
   8        0.3068
   9        0.3494
  10        0.3525
  11        1.0448
  12        1.0702
  13        1.5172
  14        1.5209
  15        1.5346
  16        1.5423
  17        1.5626
  18        1.6275
  19        1.6590
  20        1.6818
  21        1.6819
  22        4.2477
  23        4.7726
  24        4.9664
  25        9.7852
  26        9.9655
  27       10.4421
  28       14.6829
  29       15.1955
  30       15.3778
  31       15.6801
  32       15.7106
 
  0.1250000E+00  0.4166667E-01  0.0000000E+00  0.1736111E-02
   1       -5.4218
   2       -1.3050
   3       -1.2266
   4       -1.2183
   5       -0.8519
   6       -0.8492
   7       -0.8491
   8        0.2802
   9        0.3713
  10        0.3742
  11        1.0209
  12        1.0804
  13        1.4091
  14        1.4092
  15        1.4896
  16        1.5008
  17        1.5178
  18        1.5939
  19        1.6219
  20        1.6812
  21        1.6819
  22        3.7370
  23        4.9970
  24        5.1911
  25        9.8264
  26       10.0111
  27       11.1627
  28       14.0925
  29       14.6534
  30       14.9866
  31       15.4380
  32       15.8199
 
  0.1666667E+00  0.4166667E-01  0.0000000E+00  0.1736111E-02
   1       -5.2833
   2       -1.3204
   3       -1.1673
   4       -1.1598
   5       -0.8179
   6       -0.8120
   7       -0.8119
   8        0.2435
   9        0.4021
  10        0.4043
  11        0.9883
  12        1.0947
  13        1.2450
  14        1.2468
  15        1.4469
  16        1.4553
  17        1.4872
  18        1.5548
  19        1.5717
  20        1.6810
  21        1.6819
  22        3.1776
  23        5.2838
  24        5.4804
  25        9.8855
  26       10.0764
  27       12.0230
  28       13.4725
  29       14.0430
  30       14.5295
  31       15.0344
  32       16.0135
 
  0.2083333E+00  0.4166667E-01  0.0000000E+00  0.1736111E-02
   1       -5.1065
   2       -1.3539
   3       -1.0950
   4       -1.0884
   5       -0.7750
   6       -0.7640
   7       -0.7638
   8        0.1973
   9        0.4414
  10        0.4425
  11        0.9483
  12        1.0643
  13        1.0688
  14        1.1127
  15        1.3940
  16        1.4013
  17        1.4329
  18        1.5100
  19        1.5201
  20        1.6810
  21        1.6819
  22        2.6244
  23        5.6190
  24        5.8212
  25        9.9635
  26       10.1628
  27       12.8451
  28       12.9775
  29       13.4044
  30       14.0459
  31       14.5648
  32       16.2590
 
  0.2500000E+00  0.4166667E-01  0.0000000E+00  0.1736111E-02
   1       -4.8924
   2       -1.4179
   3       -1.0130
   4       -1.0074
   5       -0.7239
   6       -0.7052
   7       -0.7045
   8        0.1426
   9        0.4883
  10        0.4890
  11        0.8779
  12        0.8846
  13        0.9026
  14        1.1341
  15        1.3328
  16        1.3394
  17        1.3516
  18        1.4387
  19        1.4896
  20        1.6811
  21        1.6820
  22        2.1190
  23        5.9929
  24        6.2037
  25       10.0619
  26       10.2722
  27       12.2226
  28       12.7582
  29       13.5617
  30       14.0006
  31       14.0718
  32       16.5538
 
  0.2916667E+00  0.4166667E-01  0.0000000E+00  0.1736111E-02
   1       -4.6426
   2       -1.5286
   3       -0.9254
   4       -0.9209
   5       -0.6654
   6       -0.6352
   7       -0.6339
   8        0.0806
   9        0.5407
  10        0.5445
  11        0.6924
  12        0.7007
  13        0.8540
  14        1.1586
  15        1.2366
  16        1.2661
  17        1.2721
  18        1.3597
  19        1.4564
  20        1.6812
  21        1.6820
  22        1.7072
  23        6.3985
  24        6.6213
  25       10.1821
  26       10.4064
  27       11.6118
  28       12.1156
  29       13.0932
  30       13.5812
  31       15.0765
  32       16.8953
 
  0.3333333E+00  0.4166667E-01  0.0000000E+00  0.1736111E-02
   1       -4.3593
   2       -1.7020
   3       -0.8376
   4       -0.8341
   5       -0.6005
   6       -0.5542
   7       -0.5519
   8        0.0123
   9        0.5122
  10        0.5213
  11        0.5972
  12        0.6074
  13        0.8071
  14        1.0685
  15        1.1857
  16        1.1981
  17        1.2033
  18        1.2751
  19        1.3840
  20        1.4704
  21        1.6813
  22        1.6820
  23        6.8311
  24        7.0693
  25       10.3237
  26       10.5679
  27       11.0186
  28       11.4830
  29       12.6507
  30       13.1089
  31       16.1944
  32       17.2807
 
  0.3750000E+00  0.4166667E-01  0.0000000E+00  0.1736111E-02
   1       -4.0452
   2       -1.9458
   3       -0.7563
   4       -0.7535
   5       -0.5300
   6       -0.4619
   7       -0.4582
   8       -0.0610
   9        0.3398
  10        0.3494
  11        0.6476
  12        0.6770
  13        0.7751
  14        0.8817
  15        1.1341
  16        1.1383
  17        1.1870
  18        1.2151
  19        1.2458
  20        1.4150
  21        1.6815
  22        1.6820
  23        7.2873
  24        7.5444
  25       10.3785
  26       10.5546
  27       10.7590
  28       10.8643
  29       12.2404
  30       12.6649
  31       17.3407
  32       17.7067
 
  0.4166667E+00  0.4166667E-01  0.0000000E+00  0.1736111E-02
   1       -3.7047
   2       -2.2523
   3       -0.6891
   4       -0.6871
   5       -0.4552
   6       -0.3580
   7       -0.3527
   8       -0.1380
   9        0.1773
  10        0.1869
  11        0.6603
  12        0.7437
  13        0.7528
  14        0.7940
  15        1.0807
  16        1.0838
  17        1.0971
  18        1.1328
  19        1.2462
  20        1.3796
  21        1.6816
  22        1.6820
  23        7.7647
  24        8.0443
  25        9.8539
  26       10.2618
  27       10.7152
  28       10.9811
  29       11.8666
  30       12.2554
  31       18.1704
  32       18.2333
 
  0.4583333E+00  0.4166667E-01  0.0000000E+00  0.1736111E-02
   1       -3.3439
   2       -2.6018
   3       -0.6442
   4       -0.6431
   5       -0.3773
   6       -0.2423
   7       -0.2353
   8       -0.2173
   9        0.0256
  10        0.0348
  11        0.6449
  12        0.6678
  13        0.8338
  14        0.8600
  15        1.0073
  16        1.0336
  17        1.0451
  18        1.0467
  19        1.2787
  20        1.3456
  21        1.6817
  22        1.6819
  23        8.2615
  24        8.5673
  25        9.3078
  26        9.6773
  27       10.9442
  28       11.2283
  29       11.5392
  30       11.8843
  31       18.6683
  32       18.7571
 
  0.5000000E+00  0.4166667E-01  0.0000000E+00  0.8680556E-03
   1       -2.9719
   2       -2.9719
   3       -0.6280
   4       -0.6280
   5       -0.2976
   6       -0.2976
   7       -0.1144
   8       -0.1144
   9       -0.1061
  10       -0.1061
  11        0.6406
  12        0.6406
  13        0.9190
  14        0.9190
  15        0.9425
  16        0.9425
  17        1.0330
  18        1.0330
  19        1.3119
  20        1.3119
  21        1.6818
  22        1.6818
  23        8.7763
  24        8.7763
  25        9.1120
  26        9.1120
  27       11.2014
  28       11.2014
  29       11.5595
  30       11.5595
  31       19.1973
  32       19.2000
 
  0.8333333E-01  0.8333333E-01  0.0000000E+00  0.8680556E-03
   1       -5.4616
   2       -1.2717
   3       -1.2717
   4       -1.2355
   5       -0.8610
   6       -0.8610
   7       -0.8601
   8        0.2966
   9        0.3569
  10        0.3646
  11        1.0393
  12        1.0682
  13        1.4711
  14        1.4890
  15        1.4890
  16        1.5025
  17        1.5569
  18        1.5569
  19        1.6590
  20        1.6590
  21        1.6699
  22        4.3909
  23        4.3909
  24        5.1042
  25        9.8099
  26       10.4745
  27       10.4745
  28       14.0558
  29       15.2764
  30       15.2764
  31       15.4595
  32       15.4595
 
  0.1250000E+00  0.8333333E-01  0.0000000E+00  0.1736111E-02
   1       -5.3624
   2       -1.2766
   3       -1.2268
   4       -1.1930
   5       -0.8366
   6       -0.8348
   7       -0.8343
   8        0.2735
   9        0.3757
  10        0.3845
  11        1.0199
  12        1.0757
  13        1.3531
  14        1.3659
  15        1.4435
  16        1.4722
  17        1.5070
  18        1.5459
  19        1.6218
  20        1.6589
  21        1.6628
  22        3.8813
  23        4.6094
  24        5.3202
  25        9.8516
  26       10.5293
  27       11.2002
  28       13.4022
  29       14.7310
  30       15.0642
  31       15.4100
  32       15.5948
 
  0.1666667E+00  0.8333333E-01  0.0000000E+00  0.1736111E-02
   1       -5.2243
   2       -1.2908
   3       -1.1663
   4       -1.1356
   5       -0.8031
   6       -0.7982
   7       -0.7981
   8        0.2388
   9        0.4050
  10        0.4120
  11        0.9897
  12        1.0902
  13        1.2009
  14        1.2031
  15        1.3801
  16        1.4307
  17        1.4605
  18        1.5293
  19        1.5715
  20        1.6589
  21        1.6594
  22        3.3284
  23        4.8851
  24        5.6006
  25        9.9111
  26       10.6076
  27       12.0642
  28       12.7461
  29       14.1184
  30       14.6029
  31       15.5949
  32       15.6968
 
  0.2083333E+00  0.8333333E-01  0.0000000E+00  0.1736111E-02
   1       -5.0481
   2       -1.3226
   3       -1.0925
   4       -1.0656
   5       -0.7609
   6       -0.7516
   7       -0.7506
   8        0.1942
   9        0.4435
  10        0.4466
  11        0.9520
  12        1.0202
  13        1.0352
  14        1.1095
  15        1.2969
  16        1.3794
  17        1.4063
  18        1.5071
  19        1.5098
  20        1.6577
  21        1.6588
  22        2.7886
  23        5.2039
  24        5.9331
  25        9.9893
  26       10.7107
  27       12.1007
  28       13.0213
  29       13.4784
  30       14.1153
  31       15.3242
  32       15.8287
 
  0.2500000E+00  0.8333333E-01  0.0000000E+00  0.1736111E-02
   1       -4.8347
   2       -1.3845
   3       -1.0086
   4       -0.9860
   5       -0.7106
   6       -0.6947
   7       -0.6922
   8        0.1410
   9        0.4871
  10        0.4905
  11        0.8348
  12        0.8593
  13        0.9096
  14        1.1329
  15        1.1901
  16        1.3199
  17        1.3445
  18        1.4384
  19        1.4787
  20        1.6569
  21        1.6587
  22        2.3047
  23        5.5563
  24        6.3084
  25       10.0867
  26       10.8404
  27       11.4743
  28       12.8316
  29       13.6273
  30       14.0458
  31       14.8806
  32       16.1090
 
  0.2916667E+00  0.8333333E-01  0.0000000E+00  0.1736111E-02
   1       -4.5858
   2       -1.4927
   3       -0.9189
   4       -0.9005
   5       -0.6530
   6       -0.6276
   7       -0.6227
   8        0.0803
   9        0.5314
  10        0.5456
  11        0.6513
  12        0.6822
  13        0.8668
  14        1.0556
  15        1.1598
  16        1.2552
  17        1.2773
  18        1.3593
  19        1.4414
  20        1.6566
  21        1.6585
  22        1.9147
  23        5.9358
  24        6.7198
  25       10.1994
  26       10.8764
  27       10.9987
  28       12.1890
  29       13.1553
  30       14.4104
  31       15.1221
  32       16.4330
 
  0.3333333E+00  0.8333333E-01  0.0000000E+00  0.1736111E-02
   1       -4.3036
   2       -1.6635
   3       -0.8285
   4       -0.8140
   5       -0.5890
   6       -0.5507
   7       -0.5419
   8        0.0133
   9        0.4736
  10        0.5085
  11        0.5737
  12        0.6081
  13        0.8313
  14        0.9011
  15        1.1891
  16        1.1897
  17        1.2084
  18        1.2747
  19        1.3864
  20        1.6455
  21        1.6566
  22        1.6583
  23        6.3383
  24        7.1626
  25       10.1910
  26       10.4471
  27       11.1875
  28       11.5569
  29       12.7093
  30       13.9400
  31       16.2363
  32       16.7975
 
  0.3750000E+00  0.8333333E-01  0.0000000E+00  0.1736111E-02
   1       -3.9908
   2       -1.9046
   3       -0.7443
   4       -0.7330
   5       -0.5197
   6       -0.4642
   7       -0.4497
   8       -0.0586
   9        0.3045
  10        0.3414
  11        0.6014
  12        0.6775
  13        0.7567
  14        0.8190
  15        1.1271
  16        1.1430
  17        1.1866
  18        1.2224
  19        1.2969
  20        1.4977
  21        1.6567
  22        1.6581
  23        6.7612
  24        7.6333
  25        9.6894
  26       10.5615
  27       10.9390
  28       11.4085
  29       12.2958
  30       13.4849
  31       17.1995
  32       17.2991
 
  0.4166667E+00  0.8333333E-01  0.0000000E+00  0.1736111E-02
   1       -3.6519
   2       -2.2084
   3       -0.6741
   4       -0.6657
   5       -0.4461
   6       -0.3672
   7       -0.3460
   8       -0.1343
   9        0.1456
  10        0.1828
  11        0.6024
  12        0.6532
  13        0.7531
  14        0.8460
  15        1.0760
  16        1.0874
  17        1.0968
  18        1.1862
  19        1.2572
  20        1.4244
  21        1.6569
  22        1.6579
  23        7.2032
  24        8.1296
  25        9.1561
  26       10.3378
  27       10.7594
  28       11.6590
  29       11.9227
  30       13.0548
  31       17.6356
  32       17.8496
 
  0.4583333E+00  0.8333333E-01  0.0000000E+00  0.1736111E-02
   1       -3.2929
   2       -2.5553
   3       -0.6262
   4       -0.6215
   5       -0.3694
   6       -0.2584
   7       -0.2307
   8       -0.2122
   9       -0.0018
  10        0.0341
  11        0.5884
  12        0.5978
  13        0.8339
  14        0.9065
  15        1.0070
  16        1.0427
  17        1.0487
  18        1.0807
  19        1.2941
  20        1.3752
  21        1.6571
  22        1.6576
  23        7.6635
  24        8.6396
  25        8.6496
  26        9.7549
  27       10.9938
  28       11.5655
  29       11.9659
  30       12.6558
  31       18.1026
  32       18.3441
 
  0.5000000E+00  0.8333333E-01  0.0000000E+00  0.8680556E-03
   1       -2.9229
   2       -2.9229
   3       -0.6076
   4       -0.6076
   5       -0.2910
   6       -0.2910
   7       -0.1366
   8       -0.1366
   9       -0.1039
  10       -0.1039
  11        0.5811
  12        0.5811
  13        0.9189
  14        0.9189
  15        0.9868
  16        0.9868
  17        1.0330
  18        1.0330
  19        1.3331
  20        1.3331
  21        1.6574
  22        1.6574
  23        8.1421
  24        8.1421
  25        9.1917
  26        9.1917
  27       11.2629
  28       11.2629
  29       12.2915
  30       12.2915
  31       18.5974
  32       18.5974
 
  0.1250000E+00  0.1250000E+00  0.0000000E+00  0.8680556E-03
   1       -5.2638
   2       -1.2304
   3       -1.2304
   4       -1.1518
   5       -0.8111
   6       -0.8111
   7       -0.8097
   8        0.2564
   9        0.3893
  10        0.4015
  11        1.0097
  12        1.0769
  13        1.2570
  14        1.3042
  15        1.3042
  16        1.4434
  17        1.5064
  18        1.5064
  19        1.6216
  20        1.6216
  21        1.6455
  22        4.0970
  23        4.0970
  24        5.5246
  25        9.8939
  26       11.2634
  27       11.2634
  28       12.7070
  29       14.8592
  30       14.8592
  31       15.1927
  32       15.1927
 
  0.1666667E+00  0.1250000E+00  0.0000000E+00  0.1736111E-02
   1       -5.1264
   2       -1.2424
   3       -1.1678
   4       -1.0963
   5       -0.7785
   6       -0.7753
   7       -0.7751
   8        0.2269
   9        0.4143
  10        0.4247
  11        0.9862
  12        1.0889
  13        1.1280
  14        1.1344
  15        1.2250
  16        1.4041
  17        1.4619
  18        1.4975
  19        1.5712
  20        1.6214
  21        1.6338
  22        3.5461
  23        4.3640
  24        5.7925
  25        9.9537
  26       11.3531
  27       12.0246
  28       12.1335
  29       14.2429
  30       14.7245
  31       15.0365
  32       15.3707
 
  0.2083333E+00  0.1250000E+00  0.0000000E+00  0.1736111E-02
   1       -4.9511
   2       -1.2714
   3       -1.0914
   4       -1.0286
   5       -0.7373
   6       -0.7308
   7       -0.7290
   8        0.1863
   9        0.4499
  10        0.4535
  11        0.9525
  12        0.9533
  13        0.9776
  14        1.1092
  15        1.1271
  16        1.3552
  17        1.4089
  18        1.4798
  19        1.5093
  20        1.6212
  21        1.6267
  22        3.0120
  23        4.6683
  24        6.1132
  25       10.0306
  26       11.3652
  27       11.4707
  28       13.0945
  29       13.6007
  30       14.2303
  31       15.2606
  32       15.5967
 
  0.2500000E+00  0.1250000E+00  0.0000000E+00  0.1736111E-02
   1       -4.7390
   2       -1.3299
   3       -1.0044
   4       -0.9513
   5       -0.6883
   6       -0.6769
   7       -0.6720
   8        0.1363
   9        0.4861
  10        0.4951
  11        0.7684
  12        0.8161
  13        0.9161
  14        1.0097
  15        1.1355
  16        1.2985
  17        1.3480
  18        1.4378
  19        1.4528
  20        1.6208
  21        1.6225
  22        2.5338
  23        5.0013
  24        6.4779
  25       10.1162
  26       10.7431
  27       11.6174
  28       12.9529
  29       13.7362
  30       14.1214
  31       15.5291
  32       15.7101
 
  0.2916667E+00  0.1250000E+00  0.0000000E+00  0.1736111E-02
   1       -4.4916
   2       -1.4341
   3       -0.9108
   4       -0.8677
   5       -0.6323
   6       -0.6144
   7       -0.6043
   8        0.0784
   9        0.5192
  10        0.5489
  11        0.5878
  12        0.6507
  13        0.8764
  14        0.8803
  15        1.1665
  16        1.2367
  17        1.2816
  18        1.3588
  19        1.4150
  20        1.6201
  21        1.6204
  22        2.1403
  23        5.3578
  24        6.8802
  25       10.0207
  26       10.3526
  27       11.7947
  28       12.3103
  29       13.2583
  30       15.1973
  31       15.2919
  32       15.8393
 
  0.3333333E+00  0.1250000E+00  0.0000000E+00  0.1736111E-02
   1       -4.2112
   2       -1.6006
   3       -0.8162
   4       -0.7820
   5       -0.5700
   6       -0.5443
   7       -0.5256
   8        0.0141
   9        0.4142
  10        0.4868
  11        0.5460
  12        0.6104
  13        0.7413
  14        0.8553
  15        1.1738
  16        1.2016
  17        1.2131
  18        1.2742
  19        1.3628
  20        1.6188
  21        1.6200
  22        1.8465
  23        5.7348
  24        7.3150
  25        9.4914
  26       10.4493
  27       11.6788
  28       12.0038
  29       12.8069
  30       14.8467
  31       16.1884
  32       16.2829
 
  0.3750000E+00  0.1250000E+00  0.0000000E+00  0.1736111E-02
   1       -3.9006
   2       -1.8371
   3       -0.7270
   4       -0.7001
   5       -0.5025
   6       -0.4673
   7       -0.4359
   8       -0.0553
   9        0.2499
  10        0.3276
  11        0.5568
  12        0.6274
  13        0.6791
  14        0.8541
  15        1.1151
  16        1.1474
  17        1.1861
  18        1.2403
  19        1.2915
  20        1.6181
  21        1.6196
  22        1.6481
  23        6.1312
  24        7.7791
  25        8.9436
  26       10.6202
  27       11.0623
  28       12.2419
  29       12.3919
  30       14.4009
  31       16.5734
  32       16.8999
 
  0.4166667E+00  0.1250000E+00  0.0000000E+00  0.1736111E-02
   1       -3.5644
   2       -2.1363
   3       -0.6514
   4       -0.6310
   5       -0.4310
   6       -0.3820
   7       -0.3351
   8       -0.1284
   9        0.0965
  10        0.1758
  11        0.5476
  12        0.5521
  13        0.7541
  14        0.8844
  15        1.0673
  16        1.0906
  17        1.0964
  18        1.2023
  19        1.2825
  20        1.5231
  21        1.6179
  22        1.6191
  23        6.5467
  24        8.2696
  25        8.4176
  26       10.4631
  27       10.8265
  28       11.9995
  29       12.5271
  30       13.9696
  31       16.9915
  32       17.3409
 
  0.4583333E+00  0.1250000E+00  0.0000000E+00  0.1736111E-02
   1       -3.2085
   2       -2.4787
   3       -0.5980
   4       -0.5862
   5       -0.3565
   6       -0.2846
   7       -0.2232
   8       -0.2039
   9       -0.0447
  10        0.0327
  11        0.5170