 running on    8 nodes
 distr:  one band on    1 nodes,    8 groups
 vasp.4.6.28 25Jul05 complex 
 POSCAR found :  1 types and    4 ions
 LDA part: xc-table for Pade appr. of Perdew
 POSCAR, INCAR and KPOINTS ok, starting setup
 FFT: planning ...           1
 reading WAVECAR
 entering main loop
       N       E                     dE             d eps       ncg     rms          rms(c)
DAV:   1     0.332148889778E+03    0.33215E+03   -0.27208E+04 29840   0.280E+03
DAV:   2     0.662928338315E+01   -0.32552E+03   -0.30917E+03 29136   0.429E+02
DAV:   3    -0.178474488826E+02   -0.24477E+02   -0.23786E+02 32016   0.141E+02
DAV:   4    -0.181689363167E+02   -0.32149E+00   -0.32124E+00 32544   0.172E+01
DAV:   5    -0.181695377871E+02   -0.60147E-03   -0.60146E-03 32632   0.694E-01    0.138E+01
DAV:   6    -0.162848110593E+02    0.18847E+01   -0.25160E+01 31936   0.798E+01    0.696E+00
DAV:   7    -0.148426910311E+02    0.14421E+01   -0.49970E+00 33080   0.347E+01    0.103E+00
DAV:   8    -0.148135155519E+02    0.29175E-01   -0.47790E-02 31760   0.199E+00    0.709E-01
DAV:   9    -0.148038763096E+02    0.96392E-02   -0.19319E-02 33608   0.220E+00    0.410E-02
DAV:  10    -0.148039368577E+02   -0.60548E-04   -0.60998E-04 32264   0.255E-01    0.102E-02
DAV:  11    -0.148039371883E+02   -0.33060E-06   -0.60597E-06 33360   0.272E-02    0.399E-03
DAV:  12    -0.148039414260E+02   -0.42376E-05   -0.12443E-07 40752   0.424E-03    0.522E-04
DAV:  13    -0.148039419264E+02   -0.50044E-06   -0.25474E-08 26872   0.132E-03    0.216E-04
DAV:  14    -0.148039419458E+02   -0.19391E-07   -0.71838E-10 18712   0.368E-04    0.333E-05
DAV:  15    -0.148039419193E+02    0.26475E-07   -0.18281E-10 17824   0.105E-04    0.148E-05
DAV:  16    -0.148039419214E+02   -0.20736E-08   -0.26644E-11 17200   0.666E-05
   1 F= -.14803942E+02 E0= -.14803869E+02  d E =-.146806E-03
