   4   4   0   0
  0.2072461E+02  0.4360291E-09  0.4360291E-09  0.4360291E-09  0.5000000E-15
  1.000000000000000E-004
  CAR 
 unknown system                          
     15.97305429     -4.77922179  301      5.81001735      1.00000000
     -4.779  0.0000E+00  0.0000E+00
     -4.710  0.0000E+00  0.0000E+00
     -4.641  0.0000E+00  0.0000E+00
     -4.572  0.0000E+00  0.0000E+00
     -4.503  0.0000E+00  0.0000E+00
     -4.433  0.0000E+00  0.0000E+00
     -4.364  0.0000E+00  0.0000E+00
     -4.295  0.0000E+00  0.0000E+00
     -4.226  0.0000E+00  0.0000E+00
     -4.157  0.0000E+00  0.0000E+00
     -4.087  0.0000E+00  0.0000E+00
     -4.018  0.0000E+00  0.0000E+00
     -3.949  0.0000E+00  0.0000E+00
     -3.880  0.4019E-11  0.2780E-12
     -3.811  0.1673E-01  0.1157E-02
     -3.742  0.1057E+00  0.8472E-02
     -3.672  0.2739E+00  0.2742E-01
     -3.603  0.1549E+00  0.3813E-01
     -3.534  0.4020E+00  0.6600E-01
     -3.465  0.4012E+00  0.9375E-01
     -3.396  0.1785E+00  0.1061E+00
     -3.327  0.5240E+00  0.1423E+00
     -3.257  0.4094E+00  0.1707E+00
     -3.188  0.4669E+00  0.2030E+00
     -3.119  0.4577E+00  0.2346E+00
     -3.050  0.8031E+00  0.2905E+00
     -2.981  0.1657E-01  0.2917E+00
     -2.912  0.7984E+00  0.3469E+00
     -2.842  0.6907E+00  0.3947E+00
     -2.773  0.4108E+00  0.4231E+00
     -2.704  0.8585E+00  0.4825E+00
     -2.635  0.7354E+00  0.5333E+00
     -2.566  0.5944E-03  0.5336E+00
     -2.496  0.5098E+00  0.5689E+00
     -2.427  0.1505E+01  0.6730E+00
     -2.358  0.6285E+00  0.7164E+00
     -2.289  0.5266E-01  0.7201E+00
     -2.220  0.1702E+01  0.8378E+00
     -2.151  0.2536E+00  0.8553E+00
     -2.081  0.2044E+00  0.8695E+00
     -2.012  0.1084E+01  0.9444E+00
     -1.943  0.1295E+01  0.1034E+01
     -1.874  0.5020E+00  0.1071E+01
     -1.805  0.5277E+00  0.1107E+01
     -1.736  0.1078E+01  0.1182E+01
     -1.666  0.4013E+00  0.1209E+01
     -1.597  0.1622E+01  0.1322E+01
     -1.528  0.1026E+01  0.1393E+01
     -1.459  0.5604E+00  0.1431E+01
     -1.390  0.1206E+01  0.1515E+01
     -1.321  0.8015E+00  0.1571E+01
     -1.251  0.1292E+00  0.1580E+01
     -1.182  0.9038E+00  0.1642E+01
     -1.113  0.1476E+01  0.1745E+01
     -1.044  0.1064E+01  0.1818E+01
     -0.975  0.1273E+01  0.1906E+01
     -0.905  0.1606E+01  0.2017E+01
     -0.836  0.5078E+00  0.2052E+01
     -0.767  0.1095E+01  0.2128E+01
     -0.698  0.4070E+00  0.2157E+01
     -0.629  0.1199E+01  0.2240E+01
     -0.560  0.1179E+01  0.2321E+01
     -0.490  0.1606E+01  0.2434E+01
     -0.421  0.1312E-01  0.2435E+01
     -0.352  0.1549E+01  0.2542E+01
     -0.283  0.1750E+01  0.2663E+01
     -0.214  0.4657E+00  0.2695E+01
     -0.145  0.1986E+01  0.2833E+01
     -0.075  0.1162E+01  0.2913E+01
     -0.006  0.1116E-01  0.2914E+01
      0.063  0.1075E+01  0.2988E+01
      0.132  0.2318E+01  0.3149E+01
      0.201  0.9409E+00  0.3214E+01
      0.270  0.1249E+01  0.3301E+01
      0.340  0.1549E+01  0.3408E+01
      0.409  0.5206E-03  0.3409E+01
      0.478  0.9851E+00  0.3477E+01
      0.547  0.1891E+01  0.3608E+01
      0.616  0.1205E+01  0.3693E+01
      0.686  0.9236E+00  0.3757E+01
      0.755  0.2547E+01  0.3933E+01
      0.824  0.1422E+00  0.3943E+01
      0.893  0.7088E+00  0.3992E+01
      0.962  0.3909E+01  0.4263E+01
      1.031  0.9845E+00  0.4332E+01
      1.101  0.6432E-01  0.4337E+01
      1.170  0.2129E+01  0.4484E+01
      1.239  0.1701E+00  0.4499E+01
      1.308  0.7505E+00  0.4551E+01
      1.377  0.1874E+01  0.4680E+01
      1.446  0.1591E+01  0.4790E+01
      1.516  0.1118E+01  0.4868E+01
      1.585  0.2811E+01  0.5062E+01
      1.654  0.1877E+00  0.5075E+01
      1.723  0.1729E+01  0.5195E+01
      1.792  0.2003E+01  0.5333E+01
      1.862  0.1953E+01  0.5469E+01
      1.931  0.7327E+00  0.5519E+01
      2.000  0.1976E+01  0.5656E+01
      2.069  0.9051E+00  0.5719E+01
      2.138  0.3429E+00  0.5742E+01
      2.207  0.2585E+01  0.5921E+01
      2.277  0.1155E+01  0.6001E+01
      2.346  0.5866E+00  0.6042E+01
      2.415  0.3023E+01  0.6251E+01
      2.484  0.1206E+01  0.6335E+01
      2.553  0.1410E+01  0.6432E+01
      2.622  0.1474E+01  0.6534E+01
      2.692  0.8001E+00  0.6591E+01
      2.761  0.9272E+00  0.6656E+01
      2.830  0.4083E+01  0.6938E+01
      2.899  0.1839E+00  0.6953E+01
      2.968  0.7741E+00  0.7006E+01
      3.037  0.3299E+01  0.7234E+01
      3.107  0.2457E+01  0.7405E+01
      3.176  0.4838E+00  0.7439E+01
      3.245  0.1603E+01  0.7550E+01
      3.314  0.7817E+00  0.7604E+01
      3.383  0.1344E+01  0.7698E+01
      3.453  0.3121E+01  0.7914E+01
      3.522  0.1440E+01  0.8014E+01
      3.591  0.1761E+01  0.8136E+01
      3.660  0.1003E+01  0.8206E+01
      3.729  0.2157E+01  0.8355E+01
      3.798  0.8002E+00  0.8411E+01
      3.868  0.1656E+01  0.8526E+01
      3.937  0.2385E+01  0.8691E+01
      4.006  0.1824E+01  0.8817E+01
      4.075  0.1759E+01  0.8939E+01
      4.144  0.7797E+00  0.8993E+01
      4.213  0.1807E+01  0.9118E+01
      4.283  0.2482E+01  0.9290E+01
      4.352  0.2951E+01  0.9494E+01
      4.421  0.1177E+01  0.9576E+01
      4.490  0.8584E+00  0.9635E+01
      4.559  0.6859E+00  0.9682E+01
      4.628  0.1270E+01  0.9770E+01
      4.698  0.3402E+01  0.1001E+02
      4.767  0.2058E+01  0.1015E+02
      4.836  0.9456E+00  0.1021E+02
      4.905  0.2794E+01  0.1041E+02
      4.974  0.1081E+01  0.1048E+02
      5.044  0.1808E+01  0.1061E+02
      5.113  0.4932E+00  0.1064E+02
      5.182  0.2621E+01  0.1082E+02
      5.251  0.2161E+01  0.1097E+02
      5.320  0.3271E+01  0.1120E+02
      5.389  0.6194E+00  0.1124E+02
      5.459  0.1088E+01  0.1132E+02
      5.528  0.1850E+01  0.1145E+02
      5.597  0.2093E+01  0.1159E+02
      5.666  0.2772E+01  0.1178E+02
      5.735  0.2774E+01  0.1198E+02
      5.804  0.1812E+00  0.1199E+02
      5.874  0.2125E+01  0.1214E+02
      5.943  0.2639E+01  0.1232E+02
      6.012  0.1756E+01  0.1244E+02
      6.081  0.2041E+01  0.1258E+02
      6.150  0.2766E+01  0.1277E+02
      6.219  0.8029E+00  0.1283E+02
      6.289  0.9937E+00  0.1290E+02
      6.358  0.3014E+01  0.1311E+02
      6.427  0.6403E+00  0.1315E+02
      6.496  0.2395E+01  0.1332E+02
      6.565  0.2060E+01  0.1346E+02
      6.635  0.8681E+00  0.1352E+02
      6.704  0.2915E+01  0.1372E+02
      6.773  0.3100E+01  0.1394E+02
      6.842  0.1930E+01  0.1407E+02
      6.911  0.3130E+01  0.1429E+02
      6.980  0.1743E+01  0.1441E+02
      7.050  0.4504E+00  0.1444E+02
      7.119  0.2837E+01  0.1464E+02
      7.188  0.2950E+01  0.1484E+02
      7.257  0.2348E+01  0.1500E+02
      7.326  0.1244E+01  0.1509E+02
      7.395  0.1203E+01  0.1517E+02
      7.465  0.1558E+01  0.1528E+02
      7.534  0.2964E+01  0.1549E+02
      7.603  0.1900E+01  0.1562E+02
      7.672  0.9840E+00  0.1568E+02
      7.741  0.3779E+01  0.1595E+02
      7.810  0.2058E+01  0.1609E+02
      7.880  0.1600E+01  0.1620E+02
      7.949  0.1487E+01  0.1630E+02
      8.018  0.3227E+01  0.1653E+02
      8.087  0.2573E+01  0.1670E+02
      8.156  0.1880E+01  0.1683E+02
      8.226  0.4821E+00  0.1687E+02
      8.295  0.2334E+01  0.1703E+02
      8.364  0.2490E+01  0.1720E+02
      8.433  0.2755E+01  0.1739E+02
      8.502  0.4126E+01  0.1768E+02
      8.571  0.2016E+01  0.1782E+02
      8.641  0.2263E+01  0.1798E+02
      8.710  0.1852E+01  0.1811E+02
      8.779  0.1595E+01  0.1822E+02
      8.848  0.1408E+01  0.1831E+02
      8.917  0.3462E+01  0.1855E+02
      8.986  0.1438E+01  0.1865E+02
      9.056  0.2284E+01  0.1881E+02
      9.125  0.1456E+01  0.1891E+02
      9.194  0.3210E+01  0.1914E+02
      9.263  0.2927E+01  0.1934E+02
      9.332  0.3246E+01  0.1957E+02
      9.402  0.4558E+00  0.1960E+02
      9.471  0.3098E+01  0.1981E+02
      9.540  0.4166E+00  0.1984E+02
      9.609  0.3091E+01  0.2006E+02
      9.678  0.2660E+01  0.2024E+02
      9.747  0.2594E+01  0.2042E+02
      9.817  0.2771E+01  0.2061E+02
      9.886  0.2023E+01  0.2075E+02
      9.955  0.2588E+01  0.2093E+02
     10.024  0.2486E+01  0.2110E+02
     10.093  0.1998E+01  0.2124E+02
     10.162  0.3008E+01  0.2145E+02
     10.232  0.2323E+01  0.2161E+02
     10.301  0.1145E+01  0.2169E+02
     10.370  0.1552E+01  0.2180E+02
     10.439  0.2215E+01  0.2195E+02
     10.508  0.1855E+01  0.2208E+02
     10.577  0.8557E+00  0.2214E+02
     10.647  0.1792E+01  0.2226E+02
     10.716  0.5646E+00  0.2230E+02
     10.785  0.1898E+01  0.2243E+02
     10.854  0.1605E+01  0.2255E+02
     10.923  0.1416E+01  0.2264E+02
     10.993  0.1560E+01  0.2275E+02
     11.062  0.1269E+01  0.2284E+02
     11.131  0.1061E+01  0.2292E+02
     11.200  0.4622E-01  0.2292E+02
     11.269  0.9979E-01  0.2293E+02
     11.338  0.5410E+00  0.2296E+02
     11.408  0.1055E+01  0.2304E+02
     11.477  0.1193E+01  0.2312E+02
     11.546  0.1205E+01  0.2320E+02
     11.615  0.8030E+00  0.2326E+02
     11.684  0.1004E+00  0.2327E+02
     11.753  0.9355E+00  0.2333E+02
     11.823  0.3887E+00  0.2336E+02
     11.892  0.4015E+00  0.2339E+02
     11.961  0.4015E+00  0.2341E+02
     12.030  0.0000E+00  0.2341E+02
     12.099  0.2523E+00  0.2343E+02
     12.168  0.1414E+01  0.2353E+02
     12.238  0.4424E+00  0.2356E+02
     12.307  0.0000E+00  0.2356E+02
     12.376  0.8709E-12  0.2356E+02
     12.445  0.8008E+00  0.2362E+02
     12.514  0.0000E+00  0.2362E+02
     12.584  0.3827E+00  0.2364E+02
     12.653  0.4204E+00  0.2367E+02
     12.722  0.2239E+00  0.2369E+02
     12.791  0.3116E+00  0.2371E+02
     12.860  0.4961E+00  0.2374E+02
     12.929  0.4994E+00  0.2378E+02
     12.999  0.2092E+00  0.2379E+02
     13.068  0.0000E+00  0.2379E+02
     13.137  0.2645E-07  0.2379E+02
     13.206  0.4016E+00  0.2382E+02
     13.275  0.0000E+00  0.2382E+02
     13.344  0.0000E+00  0.2382E+02
     13.414  0.1689E-01  0.2382E+02
     13.483  0.1051E+01  0.2389E+02
     13.552  0.1366E+00  0.2390E+02
     13.621  0.0000E+00  0.2390E+02
     13.690  0.1360E-07  0.2390E+02
     13.759  0.4016E+00  0.2393E+02
     13.829  0.0000E+00  0.2393E+02
     13.898  0.0000E+00  0.2393E+02
     13.967  0.7215E-01  0.2394E+02
     14.036  0.4632E+00  0.2397E+02
     14.105  0.0000E+00  0.2397E+02
     14.175  0.0000E+00  0.2397E+02
     14.244  0.3622E-05  0.2397E+02
     14.313  0.4016E+00  0.2400E+02
     14.382  0.0000E+00  0.2400E+02
     14.451  0.0000E+00  0.2400E+02
     14.520  0.0000E+00  0.2400E+02
     14.590  0.0000E+00  0.2400E+02
     14.659  0.0000E+00  0.2400E+02
     14.728  0.0000E+00  0.2400E+02
     14.797  0.0000E+00  0.2400E+02
     14.866  0.0000E+00  0.2400E+02
     14.935  0.0000E+00  0.2400E+02
     15.005  0.1254E-04  0.2400E+02
     15.074  0.6691E-01  0.2400E+02
     15.143  0.0000E+00  0.2400E+02
     15.212  0.0000E+00  0.2400E+02
     15.281  0.0000E+00  0.2400E+02
     15.350  0.0000E+00  0.2400E+02
     15.420  0.0000E+00  0.2400E+02
     15.489  0.0000E+00  0.2400E+02
     15.558  0.0000E+00  0.2400E+02
     15.627  0.0000E+00  0.2400E+02
     15.696  0.0000E+00  0.2400E+02
     15.766  0.0000E+00  0.2400E+02
     15.835  0.0000E+00  0.2400E+02
     15.904  0.0000E+00  0.2400E+02
     15.973  0.0000E+00  0.2400E+02
