    4    4    1    1
  0.2072461E+02  0.4360291E-09  0.4360291E-09  0.4360291E-09  0.5000000E-15
  1.000000000000000E-004
  CAR 
 unknown system                          
   12   84   12
 
  0.0000000E+00  0.0000000E+00  0.0000000E+00  0.5787037E-03
   1       -3.8359
   2        3.4406
   3        3.4406
   4        3.4406
   5        4.1630
   6        4.1630
   7        4.1630
   8       10.4578
   9       10.4578
  10       10.4578
  11       10.4578
  12       10.4578
 
  0.8333333E-01  0.0000000E+00  0.0000000E+00  0.3472222E-02
   1       -3.7819
   2        2.5522
   3        3.4911
   4        3.4911
   5        4.2155
   6        4.2155
   7        5.1463
   8        9.5386
   9        9.5386
  10       10.0336
  11       10.0336
  12       10.5053
 
  0.1666667E+00  0.0000000E+00  0.0000000E+00  0.3472222E-02
   1       -3.6200
   2        1.4764
   3        3.6426
   4        3.6426
   5        4.3723
   6        4.3723
   7        6.5061
   8        8.4906
   9        8.4906
  10        9.2068
  11        9.2068
  12       10.6478
 
  0.2500000E+00  0.0000000E+00  0.0000000E+00  0.3472222E-02
   1       -3.3505
   2        0.4832
   3        3.8953
   4        3.8953
   5        4.6319
   6        4.6319
   7        7.5335
   8        7.5335
   9        7.9697
  10        8.3348
  11        8.3348
  12       10.8853
 
  0.3333333E+00  0.0000000E+00  0.0000000E+00  0.3472222E-02
   1       -2.9738
   2       -0.4133
   3        4.2490
   4        4.2490
   5        4.9901
   6        4.9901
   7        6.6751
   8        6.6751
   9        7.5150
  10        7.5150
  11        9.5171
  12       11.2178
 
  0.4166667E+00  0.0000000E+00  0.0000000E+00  0.3472222E-02
   1       -2.4907
   2       -1.2091
   3        4.7039
   4        4.7039
   5        5.4308
   6        5.4308
   7        5.9170
   8        5.9170
   9        6.7909
  10        6.7909
  11       11.1300
  12       11.6450
 
  0.5000000E+00  0.0000000E+00  0.0000000E+00  0.1736111E-02
   1       -1.9021
   2       -1.9021
   3        5.2599
   4        5.2599
   5        5.2599
   6        5.2599
   7        5.7786
   8        5.7786
   9        6.3478
  10        6.3478
  11       12.1668
  12       12.1668
 
  0.8333333E-01  0.8333333E-01  0.0000000E+00  0.6944444E-02
   1       -3.7279
   2        2.6038
   3        2.6038
   4        3.5416
   5        4.2677
   6        5.1975
   7        5.1975
   8        8.6840
   9        9.5884
  10        9.5884
  11       10.0822
  12       10.0822
 
  0.1666667E+00  0.8333333E-01  0.0000000E+00  0.1388889E-01
   1       -3.5661
   2        1.5285
   3        2.7586
   4        3.6932
   5        4.4237
   6        5.3506
   7        6.5562
   8        7.6630
   9        8.5408
  10        9.2569
  11        9.7378
  12       10.0608
 
  0.2500000E+00  0.8333333E-01  0.0000000E+00  0.1388889E-01
   1       -3.2966
   2        0.5357
   3        3.0162
   4        3.9458
   5        4.6808
   6        5.6039
   7        6.7173
   8        7.5839
   9        8.0180
  10        8.3868
  11        9.2281
  12        9.9866
 
  0.3333333E+00  0.8333333E-01  0.0000000E+00  0.1388889E-01
   1       -2.9201
   2       -0.3605
   3        3.3760
   4        4.2995
   5        5.0238
   6        5.8781
   7        5.9509
   8        6.7256
   9        7.5723
  10        8.4163
  11        9.5592
  12       10.3345
 
  0.4166667E+00  0.8333333E-01  0.0000000E+00  0.1388889E-01
   1       -2.4372
   2       -1.1560
   3        3.8367
   4        4.7544
   5        5.0191
   6        5.5801
   7        5.9675
   8        6.3333
   9        6.9006
  10        7.6819
  11       10.7807
  12       11.0618
 
  0.5000000E+00  0.8333333E-01  0.0000000E+00  0.6944444E-02
   1       -1.8488
   2       -1.8488
   3        4.3946
   4        4.3946
   5        5.3104
   6        5.3104
   7        6.0781
   8        6.0781
   9        7.0579
  10        7.0579
  11       11.3247
  12       11.3247
 
  0.1666667E+00  0.1666667E+00  0.0000000E+00  0.6944444E-02
   1       -3.4044
   2        1.6849
   3        1.6849
   4        3.8447
   5        4.5762
   6        6.6384
   7        6.7058
   8        6.7058
   9        8.6914
  10        8.6914
  11        9.4077
  12        9.4077
 
  0.2500000E+00  0.1666667E+00  0.0000000E+00  0.1388889E-01
   1       -3.1352
   2        0.6932
   3        1.9451
   4        4.0973
   5        4.8140
   6        5.7054
   7        6.9497
   8        7.7350
   9        8.1593
  10        8.5462
  11        8.9423
  12        9.6634
 
  0.3333333E+00  0.1666667E+00  0.0000000E+00  0.1388889E-01
   1       -2.7591
   2       -0.2020
   3        2.3086
   4        4.4511
   5        4.7216
   6        5.2964
   7        6.8769
   8        7.2384
   9        7.7868
  10        9.2932
  11        9.6306
  12        9.7044
 
  0.4166667E+00  0.1666667E+00  0.0000000E+00  0.1388889E-01
   1       -2.2766
   2       -0.9968
   3        2.7744
   4        4.0026
   5        4.9059
   6        5.7109
   7        6.1190
   8        6.8949
   9        7.8350
  10        8.9910
  11        9.7438
  12       10.3802
 
  0.5000000E+00  0.1666667E+00  0.0000000E+00  0.6944444E-02
   1       -1.6888
   2       -1.6888
   3        3.3407
   4        3.3407
   5        5.4619
   6        5.4619
   7        6.2626
   8        6.2626
   9        8.3580
  10        8.3580
  11       10.2933
  12       10.2933
 
  0.2500000E+00  0.2500000E+00  0.0000000E+00  0.6944444E-02
   1       -2.8665
   2        0.9553
   3        0.9553
   4        4.3500
   5        4.6198
   6        5.1978
   7        7.9867
   8        7.9867
   9        8.3439
  10        8.3439
  11        8.8619
  12        8.8619
 
  0.3333333E+00  0.2500000E+00  0.0000000E+00  0.1388889E-01
   1       -2.4910
   2        0.0617
   3        1.3216
   4        3.8002
   5        4.7037
   6        5.5100
   7        7.1290
   8        7.8996
   9        8.3389
  10        8.8331
  11        9.0725
  12       10.0277
 
  0.4166667E+00  0.2500000E+00  0.0000000E+00  0.1388889E-01
   1       -2.0094
   2       -0.7317
   3        1.7911
   4        3.0343
   5        5.1585
   6        5.9665
   7        6.3714
   8        7.1776
   9        8.7913
  10        9.2535
  11        9.5399
  12        9.9947
 
  0.5000000E+00  0.2500000E+00  0.0000000E+00  0.6944444E-02
   1       -1.4226
   2       -1.4226
   3        2.3627
   4        2.3627
   5        5.7144
   6        5.7144
   7        6.5258
   8        6.5258
   9        9.3434
  10        9.3434
  11        9.7826
  12        9.7826
 
  0.3333333E+00  0.3333333E+00  0.0000000E+00  0.6944444E-02
   1       -2.1164
   2        0.4301
   3        0.4301
   4        2.9314
   5        5.0574
   6        5.8655
   7        7.4819
   8        7.4819
   9        8.2769
  10        8.2769
  11        9.8947
  12       10.3468
 
  0.4166667E+00  0.3333333E+00  0.0000000E+00  0.1388889E-01
   1       -1.6359
   2       -0.3613
   3        0.9027
   4        2.1553
   5        5.5122
   6        6.3265
   7        6.7247
   8        7.5397
   9        7.9353
  10        8.7327
  11        9.1425
  12        9.9161
 
  0.5000000E+00  0.3333333E+00  0.0000000E+00  0.6944444E-02
   1       -1.0505
   2       -1.0505
   3        1.4783
   4        1.4783
   5        6.0680
   6        6.0680
   7        6.8864
   8        6.8864
   9        8.4890
  10        8.4890
  11        9.2796
  12        9.2796
 
  0.4166667E+00  0.4166667E+00  0.0000000E+00  0.6944444E-02
   1       -1.1569
   2        0.1138
   3        0.1138
   4        1.3737
   5        5.9668
   6        6.7872
   7        7.1787
   8        7.1787
   9        7.9963
  10        7.9963
  11        8.3882
  12        9.1894
 
  0.5000000E+00  0.4166667E+00  0.0000000E+00  0.6944444E-02
   1       -0.5733
   2       -0.5733
   3        0.6925
   4        0.6925
   5        6.5224
   6        6.5224
   7        7.3453
   8        7.3453
   9        7.7333
  10        7.7333
  11        8.5473
  12        8.5473
 
  0.5000000E+00  0.5000000E+00  0.0000000E+00  0.1736111E-02
   1        0.0081
   2        0.0081
   3        0.0081
   4        0.0081
   5        7.0776
   6        7.0776
   7        7.0776
   8        7.0776
   9        7.9002
  10        7.9002
  11        7.9002
  12        7.9002
 
  0.8333333E-01  0.8333333E-01  0.8333333E-01  0.4629630E-02
   1       -3.6740
   2        2.6554
   3        2.6554
   4        2.6554
   5        5.2485
   6        5.2485
   7        5.2485
   8        8.7344
   9        8.7344
  10        8.7344
  11       10.6002
  12       10.6002
 
  0.1666667E+00  0.8333333E-01  0.8333333E-01  0.1388889E-01
   1       -3.5122
   2        1.5806
   3        2.8101
   4        2.8101
   5        5.4006
   6        5.4006
   7        6.6058
   8        7.7144
   9        7.7144
  10        8.8858
  11       10.1098
  12       10.1098
 
  0.2500000E+00  0.8333333E-01  0.8333333E-01  0.1388889E-01
   1       -3.2428
   2        0.5882
   3        3.0674
   4        3.0674
   5        5.6487
   6        5.6487
   7        6.7726
   8        6.7726
   9        8.0634
  10        9.1408
  11        9.2784
  12        9.2784
 
  0.3333333E+00  0.8333333E-01  0.8333333E-01  0.1388889E-01
   1       -2.8664
   2       -0.3077
   3        3.4264
   4        3.4264
   5        5.8135
   6        5.8135
   7        6.1050
   8        6.1050
   9        8.4682
  10        8.4682
  11        9.4214
  12        9.6790
 
  0.4166667E+00  0.8333333E-01  0.8333333E-01  0.1388889E-01
   1       -2.3836
   2       -1.1029
   3        3.8841
   4        3.8841
   5        5.1255
   6        5.1255
   7        6.4815
   8        6.4815
   9        7.7397
  10        7.7397
  11        9.9171
  12       11.1073
 
  0.5000000E+00  0.8333333E-01  0.8333333E-01  0.6944444E-02
   1       -1.7954
   2       -1.7954
   3        4.3475
   4        4.3475
   5        4.5656
   6        4.5656
   7        6.8806
   8        6.8806
   9        7.2418
  10        7.2418
  11       10.4656
  12       10.4656
 
  0.1666667E+00  0.1666667E+00  0.8333333E-01  0.1388889E-01
   1       -3.3505
   2        1.7369
   3        1.7369
   4        2.9643
   5        5.5462
   6        6.6942
   7        6.7515
   8        6.7515
   9        7.8710
  10        7.8710
  11       10.2568
  12       10.2568
 
  0.2500000E+00  0.1666667E+00  0.8333333E-01  0.2777778E-01
   1       -3.0814
   2        0.7456
   3        1.9969
   4        3.2204
   5        5.6163
   6        5.9253
   7        6.8318
   8        7.0930
   9        8.0402
  10        8.2938
  11        9.4298
  12       10.4919
 
  0.3333333E+00  0.1666667E+00  0.8333333E-01  0.2777778E-01
   1       -2.7054
   2       -0.1493
   3        2.3599
   4        3.5751
   5        4.8427
   6        6.0396
   7        6.1961
   8        7.3709
   9        8.4520
  10        8.6280
  11        9.7545
  12        9.7723
 
  0.4166667E+00  0.1666667E+00  0.8333333E-01  0.2777778E-01
   1       -2.2232
   2       -0.9438
   3        2.8247
   4        3.9344
   5        4.1834
   6        5.2831
   7        6.6449
   8        7.6848
   9        8.0229
  10        8.9073
  11        9.0426
  12       10.1046
 
  0.5000000E+00  0.1666667E+00  0.8333333E-01  0.1388889E-01
   1       -1.6356
   2       -1.6356
   3        3.3869
   4        3.3869
   5        4.6262
   6        4.6262
   7        7.1891
   8        7.1891
   9        8.4151
  10        8.4151
  11        9.4580
  12        9.4580
 
  0.2500000E+00  0.2500000E+00  0.8333333E-01  0.1388889E-01
   1       -2.8128
   2        1.0076
   3        1.0076
   4        3.4719
   5        4.7445
   6        6.0965
   7        7.1522
   8        7.1522
   9        8.4749
  10        8.4749
  11        9.6873
  12        9.6873
 
  0.3333333E+00  0.2500000E+00  0.8333333E-01  0.2777778E-01
   1       -2.4375
   2        0.1143
   3        1.3735
   4        3.7258
   5        3.9860
   6        6.2990
   7        6.4471
   8        7.5106
   9        8.6835
  10        9.0141
  11        9.8608
  12        9.9162
 
  0.4166667E+00  0.2500000E+00  0.8333333E-01  0.2777778E-01
   1       -1.9560
   2       -0.6788
   3        1.8425
   4        3.0799
   5        4.3217
   6        5.5392
   7        6.9018
   8        7.9659
   9        8.0932
  10        9.1701
  11        9.3101
  12       10.4315
 
  0.5000000E+00  0.2500000E+00  0.8333333E-01  0.1388889E-01
   1       -1.3694
   2       -1.3694
   3        2.4130
   4        2.4130
   5        4.8782
   6        4.8782
   7        7.4538
   8        7.4538
   9        8.5193
  10        8.5193
  11        9.8339
  12        9.8339
 
  0.3333333E+00  0.3333333E+00  0.8333333E-01  0.1388889E-01
   1       -2.0630
   2        0.4825
   3        0.4825
   4        2.9769
   5        4.2198
   6        6.6560
   7        6.6560
   8        6.8024
   9        9.0730
  10        9.1799
  11        9.1799
  12       10.4025
 
  0.4166667E+00  0.3333333E+00  0.8333333E-01  0.2777778E-01
   1       -1.5827
   2       -0.3086
   3        0.9547
   4        2.2055
   5        4.6746
   6        5.8962
   7        7.1126
   8        7.2579
   9        8.3226
  10        8.4553
  11        9.6361
  12       10.8135
 
  0.5000000E+00  0.3333333E+00  0.8333333E-01  0.1388889E-01
   1       -0.9975
   2       -0.9975
   3        1.5297
   4        1.5297
   5        5.2350
   6        5.2350
   7        7.6685
   8        7.6685
   9        7.8106
  10        7.8106
  11       10.1800
  12       10.1800
 
  0.4166667E+00  0.4166667E+00  0.8333333E-01  0.1388889E-01
   1       -1.1039
   2        0.1662
   3        0.1662
   4        1.4252
   5        5.1333
   6        6.3541
   7        6.3541
   8        7.5689
   9        7.7128
  10        8.9079
  11        8.9079
  12       10.0915
 
  0.5000000E+00  0.4166667E+00  0.8333333E-01  0.1388889E-01
   1       -0.5205
   2       -0.5205
   3        0.7446
   4        0.7446
   5        5.6937
   6        5.6937
   7        6.9120
   8        6.9120
   9        8.2641
  10        8.2641
  11        9.4541
  12        9.4541
 
  0.5000000E+00  0.5000000E+00  0.8333333E-01  0.3472222E-02
   1        0.0606
   2        0.0606
   3        0.0606
   4        0.0606
   5        6.2531
   6        6.2531
   7        6.2531
   8        6.2531
   9        8.8131
  10        8.8131
  11        8.8131
  12        8.8131
 
  0.1666667E+00  0.1666667E+00  0.1666667E+00  0.4629630E-02
   1       -3.1890
   2        1.8927
   3        1.8927
   4        1.8927
   5        6.7377
   6        6.7377
   7        6.7377
   8        7.0095
   9        7.0095
  10        7.0095
  11       11.0270
  12       11.0270
 
  0.2500000E+00  0.1666667E+00  0.1666667E+00  0.1388889E-01
   1       -2.9203
   2        0.9027
   3        2.1519
   4        2.1519
   5        5.8596
   6        5.8596
   7        7.0705
   8        7.1854
   9        7.1854
  10        8.3889
  11       10.6386
  12       10.6390
 
  0.3333333E+00  0.1666667E+00  0.1666667E+00  0.1388889E-01
   1       -2.5446
   2        0.0088
   3        2.5133
   4        2.5133
   5        5.0023
   6        5.0023
   7        7.4301
   8        7.5310
   9        7.5310
  10        9.8366
  11        9.9053
  12        9.9074
 
  0.4166667E+00  0.1666667E+00  0.1666667E+00  0.1388889E-01
   1       -2.0629
   2       -0.7848
   3        2.9720
   4        2.9720
   5        4.2429
   6        4.2429
   7        7.8858
   8        7.9721
   9        7.9721
  10        9.0906
  11        9.2014
  12        9.2014
 
  0.5000000E+00  0.1666667E+00  0.1666667E+00  0.6944444E-02
   1       -1.4759
   2       -1.4759
   3        3.4136
   4        3.4136
   5        3.7009
   6        3.7009
   7        8.3812
   8        8.3812
   9        8.4396
  10        8.4396
  11        8.7020
  12        8.7020
 
  0.2500000E+00  0.2500000E+00  0.1666667E+00  0.1388889E-01
   1       -2.6519
   2        1.1641
   3        1.1641
   4        2.4092
   5        4.9045
   6        6.1209
   7        6.1209
   8        7.4341
   9        8.6325
  10        8.6325
  11        9.7435
  12       10.8837
 
  0.3333333E+00  0.2500000E+00  0.1666667E+00  0.2777778E-01
   1       -2.2770
   2        0.2719
   3        1.5291
   4        2.7639
   5        4.0438
   6        5.2595
   7        6.4789
   8        7.7850
   9        8.8995
  10        8.9699
  11       10.1612
  12       10.1618
 
  0.4166667E+00  0.2500000E+00  0.1666667E+00  0.2777778E-01
   1       -1.7961
   2       -0.5203
   3        1.9960
   4        3.0978
   5        3.4028
   6        4.4951
   7        6.9365
   8        8.1483
   9        8.2331
  10        9.2721
  11        9.5918
  12       10.5915
 
  0.5000000E+00  0.2500000E+00  0.1666667E+00  0.1388889E-01
   1       -1.2101
   2       -1.2101
   3        2.5595
   4        2.5595
   5        3.8354
   6        3.8354
   7        7.4934
   8        7.4934
   9        8.7700
  10        8.7700
  11        9.9916
  12        9.9916
 
  0.3333333E+00  0.3333333E+00  0.1666667E+00  0.1388889E-01
   1       -1.9029
   2        0.6395
   3        0.6395
   4        2.9922
   5        3.3028
   6        5.6178
   7        5.6178
   8        8.0502
   9        8.1372
  10       10.3427
  11       10.3427
  12       10.6654
 
  0.4166667E+00  0.3333333E+00  0.1666667E+00  0.2777778E-01
   1       -1.4232
   2       -0.1506
   3        1.1105
   4        2.3516
   5        3.6308
   6        4.8531
   7        6.0771
   8        7.2949
   9        8.5862
  10        9.7523
  11       10.8997
  12       10.9779
 
  0.5000000E+00  0.3333333E+00  0.1666667E+00  0.1388889E-01
   1       -0.8387
   2       -0.8387
   3        1.6832
   4        1.6832
   5        4.1886
   6        4.1886
   7        6.6366
   8        6.6366
   9        9.1283
  10        9.1283
  11       11.4404
  12       11.4414
 
  0.4166667E+00  0.4166667E+00  0.1666667E+00  0.1388889E-01
   1       -0.9450
   2        0.3234
   3        0.3234
   4        1.5786
   5        4.0862
   6        5.3136
   7        5.3136
   8        6.5361
   9        9.0348
  10       10.2044
  11       10.2044
  12       11.3663
 
  0.5000000E+00  0.4166667E+00  0.1666667E+00  0.1388889E-01
   1       -0.3624
   2       -0.3624
   3        0.9005
   4        0.9005
   5        4.6490
   6        4.6490
   7        5.8750
   8        5.8750
   9        9.5765
  10        9.5765
  11       10.7428
  12       10.7428
 
  0.5000000E+00  0.5000000E+00  0.1666667E+00  0.3472222E-02
   1        0.2178
   2        0.2178
   3        0.2178
   4        0.2178
   5        5.2118
   6        5.2118
   7        5.2118
   8        5.2118
   9       10.1165
  10       10.1165
  11       10.1165
  12       10.1165
 
  0.2500000E+00  0.2500000E+00  0.2500000E+00  0.4629630E-02
   1       -2.3841
   2        1.4244
   3        1.4244
   4        1.4244
   5        5.1621
   6        5.1621
   7        5.1621
   8        8.8051
   9        8.8825
  10        8.8825
  11        8.8825
  12       11.7372
 
  0.3333333E+00  0.2500000E+00  0.2500000E+00  0.1388889E-01
   1       -2.0098
   2        0.5342
   3        1.7869
   4        1.7869
   5        4.2960
   6        4.2960
   7        5.5207
   8        7.9552
   9        9.2275
  10        9.2275
  11       10.4126
  12       11.4632
 
  0.4166667E+00  0.2500000E+00  0.2500000E+00  0.1388889E-01
   1       -1.5298
   2       -0.2563
   3        2.2458
   4        2.2458
   5        3.5337
   6        3.5337
   7        5.9804
   8        7.1992
   9        9.6603
  10        9.6603
  11       10.8465
  12       10.8465
 
  0.5000000E+00  0.2500000E+00  0.2500000E+00  0.6944444E-02
   1       -0.9449
   2       -0.9449
   3        2.6747
   4        2.6747
   5        3.0036
   6        3.0036
   7        6.5403
   8        6.5403
   9       10.0543
  10       10.0543
  11       10.3774
  12       10.3774
 
  0.3333333E+00  0.3333333E+00  0.2500000E+00  0.1388889E-01
   1       -1.6365
   2        0.9004
   3        0.9004
   4        2.1410
   5        3.4324
   6        4.6545
   7        4.6545
   8        7.1002
   9        9.5751
  10       10.7430
  11       10.7430
  12       11.8095
 
  0.4166667E+00  0.3333333E+00  0.2500000E+00  0.2777778E-01
   1       -1.1577
   2        0.1123
   3        1.3686
   4        2.4621
   5        2.8026
   6        3.8869
   7        5.1157
   8        6.3402
   9       10.0141
  10       11.0154
  11       11.3447
  12       12.1225
 
  0.5000000E+00  0.3333333E+00  0.2500000E+00  0.1388889E-01
   1       -0.5743
   2       -0.5743
   3        1.9324
   4        1.9324
   5        3.2262
   6        3.2262
   7        5.6781
   8        5.6781
   9       10.5343
  10       10.5343
  11       11.7239
  12       11.7239
 
  0.4166667E+00  0.4166667E+00  0.2500000E+00  0.1388889E-01
   1       -0.6805
   2        0.5846
   3        0.5846
   4        1.8277
   5        3.1235
   6        4.3482
   7        4.3482
   8        5.5769
   9       10.4546
  10       11.5722
  11       11.5722
  12       12.7226
 
  0.5000000E+00  0.4166667E+00  0.2500000E+00  0.1388889E-01
   1       -0.0992
   2       -0.0992
   3        1.1586
   4        1.1586
   5        3.6817
   6        3.6817
   7        4.9122
   8        4.9122
   9       10.9800
  10       10.9800
  11       12.1027
  12       12.1027
 
  0.5000000E+00  0.5000000E+00  0.2500000E+00  0.3472222E-02
   1        0.4792
   2        0.4792
   3        0.4792
   4        0.4792
   5        4.2458
   6        4.2458
   7        4.2458
   8        4.2458
   9       11.5061
  10       11.5061
  11       11.5061
  12       11.5061
 
  0.3333333E+00  0.3333333E+00  0.3333333E+00  0.4629630E-02
   1       -1.2641
   2        1.2635
   3        1.2635
   4        1.2635
   5        3.7856
   6        3.7856
   7        3.7856
   8        6.2405
   9       11.0877
  10       11.0877
  11       11.0877
  12       12.7257
 
  0.4166667E+00  0.3333333E+00  0.3333333E+00  0.1388889E-01
   1       -0.7867
   2        0.4792
   3        1.7222
   4        1.7222
   5        3.0222
   6        3.0222
   7        4.2471
   8        5.4767
   9       11.5049
  10       11.5049
  11       12.5740
  12       12.5958
 
  0.5000000E+00  0.3333333E+00  0.3333333E+00  0.6944444E-02
   1       -0.2051
   2       -0.2051
   3        2.1422
   4        2.1422
   5        2.5005
   6        2.5005
   7        4.8115
   8        4.8115
   9       11.8646
  10       11.8646
  11       12.2003
  12       12.2003
 
  0.4166667E+00  0.4166667E+00  0.3333333E+00  0.1388889E-01
   1       -0.3110
   2        0.9481
   3        0.9481
   4        2.0353
   5        2.3996
   6        3.4778
   7        3.4778
   8        4.7097
   9       11.9364
  10       12.8581
  11       12.8581
  12       13.1742
 
  0.5000000E+00  0.4166667E+00  0.3333333E+00  0.1388889E-01
   1        0.2680
   2        0.2680
   3        1.5120
   4        1.5120
   5        2.8166
   6        2.8166
   7        4.0425
   8        4.0425
   9       12.4257
  10       12.4257
  11       13.4480
  12       13.4799
 
  0.5000000E+00  0.5000000E+00  0.3333333E+00  0.3472222E-02
   1        0.8427
   2        0.8427
   3        0.8427
   4        0.8427
   5        3.3750
   6        3.3750
   7        3.3750
   8        3.3750
   9       12.9298
  10       12.9298
  11       12.9298
  12       12.9298
 
  0.4166667E+00  0.4166667E+00  0.4166667E+00  0.4629630E-02
   1        0.1623
   2        1.4065
   3        1.4065
   4        1.4065
   5        2.7140
   6        2.7140
   7        2.7140
   8        3.9402
   9       13.4258
  10       13.4258
  11       13.4258
  12       13.9663
 
  0.5000000E+00  0.4166667E+00  0.4166667E+00  0.6944444E-02
   1        0.7372
   2        0.7372
   3        1.8211
   4        1.8211
   5        2.1975
   6        2.1975
   7        3.2724
   8        3.2724
   9       13.7285
  10       13.7285
  11       14.0106
  12       14.0107
 
  0.5000000E+00  0.5000000E+00  0.4166667E+00  0.3472222E-02
   1        1.3011
   2        1.3011
   3        1.3011
   4        1.3011
   5        2.6111
   6        2.6111
   7        2.6111
   8        2.6111
   9       14.2740
  10       14.2740
  11       14.2740
  12       14.2740
 
  0.5000000E+00  0.5000000E+00  0.5000000E+00  0.5787037E-03
   1        1.7138
   2        1.7138
   3        1.7138
   4        1.7138
   5        2.0964
   6        2.0964
   7        2.0964
   8        2.0964
   9       15.0298
  10       15.0298
  11       15.0298
  12       15.0298
