  32  32   0   0
  0.1238582E+02  0.7345560E-09  0.7345560E-09  0.7345560E-09  0.5000000E-15
  1.000000000000000E-004
  CAR 
 unknown system                          
     14.18057137     -6.54087819  301      3.38884647      1.00000000
     -6.541  0.0000E+00  0.0000E+00
     -6.472  0.0000E+00  0.0000E+00
     -6.403  0.0000E+00  0.0000E+00
     -6.334  0.0000E+00  0.0000E+00
     -6.265  0.0000E+00  0.0000E+00
     -6.196  0.0000E+00  0.0000E+00
     -6.126  0.0000E+00  0.0000E+00
     -6.057  0.0000E+00  0.0000E+00
     -5.988  0.0000E+00  0.0000E+00
     -5.919  0.0000E+00  0.0000E+00
     -5.850  0.0000E+00  0.0000E+00
     -5.781  0.0000E+00  0.0000E+00
     -5.712  0.0000E+00  0.0000E+00
     -5.643  0.2151E-10  0.1486E-11
     -5.574  0.8440E-01  0.5830E-02
     -5.505  0.5067E+00  0.4083E-01
     -5.436  0.1020E+01  0.1113E+00
     -5.367  0.7523E+00  0.1632E+00
     -5.298  0.1759E+01  0.2847E+00
     -5.229  0.2646E+01  0.4675E+00
     -5.159  0.1905E-06  0.4723E+00
     -5.090  0.1013E+01  0.5423E+00
     -5.021  0.2563E+01  0.7193E+00
     -4.952  0.2540E+01  0.8948E+00
     -4.883  0.2063E+01  0.1037E+01
     -4.814  0.2107E+01  0.1183E+01
     -4.745  0.4052E+01  0.1464E+01
     -4.676  0.2824E-02  0.1464E+01
     -4.607  0.1609E+01  0.1575E+01
     -4.538  0.5490E+01  0.1954E+01
     -4.469  0.2519E+01  0.2128E+01
     -4.400  0.2028E+01  0.2268E+01
     -4.331  0.4369E+01  0.2570E+01
     -4.262  0.1707E+01  0.2688E+01
     -4.192  0.2016E+01  0.2827E+01
     -4.123  0.2534E+01  0.3003E+01
     -4.054  0.6360E+01  0.3442E+01
     -3.985  0.2419E+01  0.3609E+01
     -3.916  0.6051E+01  0.4027E+01
     -3.847  0.4052E+01  0.4309E+01
     -3.778  0.1761E+00  0.4321E+01
     -3.709  0.4723E+01  0.4647E+01
     -3.640  0.4052E+01  0.4939E+01
     -3.571  0.5176E+01  0.5296E+01
     -3.502  0.2977E+01  0.5502E+01
     -3.433  0.6534E+01  0.5953E+01
     -3.364  0.9290E-01  0.5960E+01
     -3.295  0.9020E+01  0.6583E+01
     -3.225  0.5939E+01  0.6993E+01
     -3.156  0.2083E+01  0.7137E+01
     -3.087  0.7070E+01  0.7625E+01
     -3.018  0.4084E+01  0.7915E+01
     -2.949  0.6433E+00  0.7959E+01
     -2.880  0.8701E+01  0.8560E+01
     -2.811  0.6186E+01  0.8988E+01
     -2.742  0.2833E+01  0.9183E+01
     -2.673  0.1332E+02  0.1010E+02
     -2.604  0.5211E+01  0.1046E+02
     -2.535  0.3702E+01  0.1072E+02
     -2.466  0.4067E+01  0.1101E+02
     -2.397  0.8022E+01  0.1156E+02
     -2.328  0.6222E+01  0.1199E+02
     -2.258  0.6454E+01  0.1244E+02
     -2.189  0.1014E+02  0.1314E+02
     -2.120  0.8334E+01  0.1372E+02
     -2.051  0.1398E+02  0.1468E+02
     -1.982  0.4912E+00  0.1472E+02
     -1.913  0.1021E+02  0.1543E+02
     -1.844  0.9526E+01  0.1609E+02
     -1.775  0.1604E+02  0.1719E+02
     -1.706  0.1042E+02  0.1792E+02
     -1.637  0.9500E+01  0.1858E+02
     -1.568  0.1653E+02  0.1972E+02
     -1.499  0.7230E+01  0.2022E+02
     -1.430  0.3163E+02  0.2240E+02
     -1.361  0.1726E+02  0.2361E+02
     -1.291  0.3535E+02  0.2605E+02
     -1.222  0.2262E+02  0.2761E+02
     -1.153  0.3802E+02  0.3024E+02
     -1.084  0.4629E+02  0.3344E+02
     -1.015  0.3745E+02  0.3605E+02
     -0.946  0.3704E+02  0.3861E+02
     -0.877  0.4600E+02  0.4179E+02
     -0.808  0.4849E+02  0.4514E+02
     -0.739  0.5003E+02  0.4861E+02
     -0.670  0.6221E+02  0.5293E+02
     -0.601  0.7488E+02  0.5810E+02
     -0.532  0.7964E+02  0.6361E+02
     -0.463  0.8120E+02  0.6923E+02
     -0.394  0.7422E+02  0.7436E+02
     -0.324  0.7305E+02  0.7941E+02
     -0.255  0.6790E+02  0.8411E+02
     -0.186  0.7815E+02  0.8951E+02
     -0.117  0.7438E+02  0.9466E+02
     -0.048  0.6321E+02  0.9904E+02
      0.021  0.7858E+02  0.1045E+03
      0.090  0.8277E+02  0.1102E+03
      0.159  0.1069E+03  0.1176E+03
      0.228  0.9864E+02  0.1244E+03
      0.297  0.1211E+03  0.1328E+03
      0.366  0.1008E+03  0.1398E+03
      0.435  0.1241E+03  0.1484E+03
      0.504  0.1375E+03  0.1579E+03
      0.573  0.1568E+03  0.1688E+03
      0.643  0.1595E+03  0.1798E+03
      0.712  0.1331E+03  0.1891E+03
      0.781  0.1029E+03  0.1962E+03
      0.850  0.1062E+03  0.2036E+03
      0.919  0.8425E+02  0.2094E+03
      0.988  0.9115E+02  0.2157E+03
      1.057  0.1025E+03  0.2228E+03
      1.126  0.1169E+03  0.2309E+03
      1.195  0.1354E+03  0.2403E+03
      1.264  0.1348E+03  0.2497E+03
      1.333  0.1115E+03  0.2574E+03
      1.402  0.1019E+03  0.2645E+03
      1.471  0.1170E+03  0.2726E+03
      1.540  0.1185E+03  0.2808E+03
      1.610  0.1223E+03  0.2893E+03
      1.679  0.1238E+03  0.2979E+03
      1.748  0.2111E+03  0.3125E+03
      1.817  0.2150E+03  0.3273E+03
      1.886  0.8174E+02  0.3330E+03
      1.955  0.2591E+02  0.3348E+03
      2.024  0.2915E+02  0.3368E+03
      2.093  0.9405E+01  0.3375E+03
      2.162  0.1099E+02  0.3383E+03
      2.231  0.8861E+01  0.3389E+03
      2.300  0.1537E+02  0.3399E+03
      2.369  0.1530E+02  0.3410E+03
      2.438  0.1101E+02  0.3418E+03
      2.507  0.8375E+01  0.3424E+03
      2.577  0.9282E+01  0.3430E+03
      2.646  0.1478E+02  0.3440E+03
      2.715  0.1660E+02  0.3452E+03
      2.784  0.6771E+01  0.3456E+03
      2.853  0.9302E+01  0.3463E+03
      2.922  0.8323E+01  0.3469E+03
      2.991  0.4116E+01  0.3471E+03
      3.060  0.2137E+02  0.3486E+03
      3.129  0.2020E+02  0.3500E+03
      3.198  0.2970E+01  0.3502E+03
      3.267  0.9324E+01  0.3509E+03
      3.336  0.5961E+01  0.3513E+03
      3.405  0.1213E+02  0.3521E+03
      3.474  0.3518E+01  0.3524E+03
      3.544  0.1256E+02  0.3532E+03
      3.613  0.1250E+02  0.3541E+03
      3.682  0.1146E+02  0.3549E+03
      3.751  0.6529E+01  0.3553E+03
      3.820  0.7764E+01  0.3559E+03
      3.889  0.2112E+02  0.3573E+03
      3.958  0.2765E+01  0.3575E+03
      4.027  0.7059E+01  0.3580E+03
      4.096  0.6275E+01  0.3585E+03
      4.165  0.5877E+01  0.3589E+03
      4.234  0.3428E+01  0.3591E+03
      4.303  0.1406E+02  0.3601E+03
      4.372  0.1843E+02  0.3613E+03
      4.441  0.7709E+01  0.3619E+03
      4.511  0.3984E+01  0.3622E+03
      4.580  0.1186E+02  0.3630E+03
      4.649  0.6859E+01  0.3634E+03
      4.718  0.6140E+01  0.3639E+03
      4.787  0.1000E+02  0.3646E+03
      4.856  0.1010E+02  0.3653E+03
      4.925  0.4041E+01  0.3655E+03
      4.994  0.8350E+01  0.3661E+03
      5.063  0.7894E+01  0.3667E+03
      5.132  0.1337E+02  0.3676E+03
      5.201  0.2085E+01  0.3677E+03
      5.270  0.1513E+02  0.3688E+03
      5.339  0.1009E+02  0.3695E+03
      5.408  0.3970E+01  0.3698E+03
      5.478  0.3558E+01  0.3700E+03
      5.547  0.5940E+01  0.3704E+03
      5.616  0.1250E+02  0.3713E+03
      5.685  0.7406E+01  0.3718E+03
      5.754  0.5359E+01  0.3722E+03
      5.823  0.7181E+01  0.3727E+03
      5.892  0.2625E+01  0.3728E+03
      5.961  0.7543E+01  0.3734E+03
      6.030  0.1189E+02  0.3742E+03
      6.099  0.1060E+02  0.3749E+03
      6.168  0.3839E+00  0.3749E+03
      6.237  0.5883E+01  0.3753E+03
      6.306  0.3996E+01  0.3756E+03
      6.375  0.1019E+02  0.3763E+03
      6.445  0.4432E+01  0.3766E+03
      6.514  0.9656E+01  0.3773E+03
      6.583  0.2020E+01  0.3775E+03
      6.652  0.2610E+00  0.3775E+03
      6.721  0.5824E+01  0.3779E+03
      6.790  0.8102E+01  0.3784E+03
      6.859  0.6703E+01  0.3789E+03
      6.928  0.6731E+01  0.3794E+03
      6.997  0.2009E+01  0.3795E+03
      7.066  0.1119E+02  0.3803E+03
      7.135  0.1339E+02  0.3812E+03
      7.204  0.9802E+01  0.3819E+03
      7.273  0.6077E+01  0.3823E+03
      7.342  0.6280E+01  0.3828E+03
      7.412  0.8892E+01  0.3834E+03
      7.481  0.1080E+02  0.3841E+03
      7.550  0.9409E+01  0.3848E+03
      7.619  0.1076E+02  0.3855E+03
      7.688  0.8122E+01  0.3861E+03
      7.757  0.7127E+01  0.3866E+03
      7.826  0.8954E+01  0.3872E+03
      7.895  0.8653E+01  0.3878E+03
      7.964  0.1382E+02  0.3888E+03
      8.033  0.1495E+02  0.3898E+03
      8.102  0.2029E+01  0.3899E+03
      8.171  0.6525E+01  0.3904E+03
      8.240  0.9917E+01  0.3911E+03
      8.309  0.1141E+02  0.3919E+03
      8.379  0.1197E+02  0.3927E+03
      8.448  0.9754E+01  0.3934E+03
      8.517  0.7809E+01  0.3939E+03
      8.586  0.7931E+01  0.3944E+03
      8.655  0.7415E+01  0.3950E+03
      8.724  0.1708E+02  0.3961E+03
      8.793  0.3977E+01  0.3964E+03
      8.862  0.6041E+01  0.3968E+03
      8.931  0.1752E+01  0.3970E+03
      9.000  0.8928E+01  0.3976E+03
      9.069  0.1395E+02  0.3985E+03
      9.138  0.1162E+02  0.3994E+03
      9.207  0.8490E+01  0.3999E+03
      9.276  0.4417E+01  0.4003E+03
      9.346  0.8357E+01  0.4008E+03
      9.415  0.9113E+01  0.4015E+03
      9.484  0.9101E+01  0.4021E+03
      9.553  0.3460E+01  0.4023E+03
      9.622  0.7634E+01  0.4029E+03
      9.691  0.1026E+02  0.4036E+03
      9.760  0.9252E+01  0.4042E+03
      9.829  0.8142E+01  0.4048E+03
      9.898  0.9555E+01  0.4054E+03
      9.967  0.2864E+01  0.4057E+03
     10.036  0.8101E+01  0.4062E+03
     10.105  0.1013E+01  0.4063E+03
     10.174  0.7096E+01  0.4068E+03
     10.243  0.1336E+02  0.4077E+03
     10.313  0.9039E+01  0.4083E+03
     10.382  0.1094E+02  0.4091E+03
     10.451  0.1232E+02  0.4099E+03
     10.520  0.5885E+01  0.4103E+03
     10.589  0.6723E+01  0.4108E+03
     10.658  0.1269E+02  0.4117E+03
     10.727  0.9593E+01  0.4124E+03
     10.796  0.1022E+02  0.4131E+03
     10.865  0.1561E+02  0.4141E+03
     10.934  0.1041E+02  0.4149E+03
     11.003  0.8440E+01  0.4155E+03
     11.072  0.1183E+02  0.4163E+03
     11.141  0.1019E+02  0.4170E+03
     11.210  0.9093E+01  0.4176E+03
     11.280  0.1568E+02  0.4187E+03
     11.349  0.5715E+01  0.4191E+03
     11.418  0.1676E+02  0.4202E+03
     11.487  0.6654E+01  0.4207E+03
     11.556  0.5013E+01  0.4211E+03
     11.625  0.2006E+02  0.4224E+03
     11.694  0.1220E+02  0.4233E+03
     11.763  0.6061E+01  0.4237E+03
     11.832  0.7882E+01  0.4242E+03
     11.901  0.1130E+02  0.4250E+03
     11.970  0.1802E+02  0.4263E+03
     12.039  0.9497E+01  0.4269E+03
     12.108  0.4308E+01  0.4272E+03
     12.177  0.1451E+02  0.4282E+03
     12.247  0.1213E+02  0.4291E+03
     12.316  0.9655E+01  0.4297E+03
     12.385  0.5338E+01  0.4301E+03
     12.454  0.7503E+01  0.4306E+03
     12.523  0.6452E+01  0.4311E+03
     12.592  0.8219E+00  0.4311E+03
     12.661  0.6477E+01  0.4316E+03
     12.730  0.7480E+00  0.4316E+03
     12.799  0.2021E+01  0.4318E+03
     12.868  0.1351E+01  0.4319E+03
     12.937  0.0000E+00  0.4319E+03
     13.006  0.0000E+00  0.4319E+03
     13.075  0.0000E+00  0.4319E+03
     13.144  0.0000E+00  0.4319E+03
     13.214  0.4834E-03  0.4319E+03
     13.283  0.2026E+01  0.4320E+03
     13.352  0.0000E+00  0.4320E+03
     13.421  0.0000E+00  0.4320E+03
     13.490  0.0000E+00  0.4320E+03
     13.559  0.0000E+00  0.4320E+03
     13.628  0.0000E+00  0.4320E+03
     13.697  0.0000E+00  0.4320E+03
     13.766  0.0000E+00  0.4320E+03
     13.835  0.0000E+00  0.4320E+03
     13.904  0.0000E+00  0.4320E+03
     13.973  0.0000E+00  0.4320E+03
     14.042  0.0000E+00  0.4320E+03
     14.111  0.0000E+00  0.4320E+03
     14.181  0.0000E+00  0.4320E+03
