   32   32    1    1
  0.1238582E+02  0.7345560E-09  0.7345560E-09  0.7345560E-09  0.5000000E-15
  1.000000000000000E-004
  CAR 
 unknown system                          
  352   20  216
 
  0.0000000E+00  0.0000000E+00  0.0000000E+00  0.2915452E-02
   1       -5.5990
   2       -2.9171
   3       -2.9171
   4       -2.9171
   5       -2.9171
   6       -2.9171
   7       -2.9171
   8       -1.4392
   9       -1.4392
  10       -1.4392
  11       -1.4392
  12       -1.2307
  13       -1.2307
  14       -1.2307
  15       -1.0819
  16       -1.0819
  17       -1.0819
  18       -1.0819
  19       -1.0819
  20       -1.0819
  21       -1.0819
  22       -1.0819
  23       -1.0819
  24       -1.0819
  25       -1.0819
  26       -1.0819
  27       -0.8085
  28       -0.8085
  29       -0.8085
  30       -0.5341
  31       -0.5341
  32       -0.5341
  33       -0.5341
  34       -0.5341
  35       -0.5341
  36       -0.1786
  37       -0.1786
  38       -0.1786
  39       -0.1786
  40       -0.1786
  41       -0.1786
  42        0.0214
  43        0.0214
  44        0.0214
  45        0.0214
  46        0.0214
  47        0.0214
  48        0.0214
  49        0.0214
  50        0.0214
  51        0.0214
  52        0.0214
  53        0.0214
  54        0.0237
  55        0.0237
  56        0.0237
  57        0.0237
  58        0.0237
  59        0.0237
  60        0.0237
  61        0.0237
  62        0.0237
  63        0.0237
  64        0.0237
  65        0.0237
  66        0.2201
  67        0.2201
  68        0.2201
  69        0.2201
  70        0.2201
  71        0.2201
  72        0.2201
  73        0.2201
  74        0.2201
  75        0.2201
  76        0.2201
  77        0.2201
  78        0.4567
  79        0.4567
  80        0.4567
  81        0.4567
  82        0.4567
  83        0.4567
  84        0.4567
  85        0.4567
  86        0.4828
  87        0.4828
  88        0.4828
  89        0.8343
  90        0.8343
  91        0.8343
  92        0.8343
  93        0.8343
  94        0.8343
  95        0.9536
  96        0.9536
  97        0.9536
  98        0.9536
  99        0.9536
 100        0.9536
 101        0.9536
 102        0.9536
 103        0.9536
 104        0.9536
 105        0.9536
 106        0.9536
 107        1.0982
 108        1.0982
 109        1.0982
 110        1.0982
 111        1.0982
 112        1.0982
 113        1.0982
 114        1.0982
 115        1.0982
 116        1.0982
 117        1.0982
 118        1.0982
 119        1.2172
 120        1.2172
 121        1.2172
 122        1.2172
 123        1.2172
 124        1.2172
 125        1.2467
 126        1.2467
 127        1.2467
 128        1.2467
 129        1.2467
 130        1.2467
 131        1.2467
 132        1.2467
 133        1.2467
 134        1.2467
 135        1.2467
 136        1.2467
 137        1.2517
 138        1.2517
 139        1.5046
 140        1.5046
 141        1.5046
 142        1.5046
 143        1.5046
 144        1.5046
 145        1.7627
 146        1.7627
 147        1.7627
 148        1.7759
 149        1.7759
 150        1.7759
 151        1.7759
 152        1.7759
 153        1.7759
 154        1.7759
 155        1.7759
 156        1.9058
 157        1.9058
 158        1.9058
 159        1.9058
 160        1.9058
 161        1.9058
 162        1.9065
 163        1.9065
 164        1.9065
 165        1.9065
 166        1.9065
 167        1.9065
 168        2.5337
 169        2.5337
 170        2.5337
 171        2.5337
 172        3.0458
 173        3.0458
 174        3.0458
 175        3.0458
 176        3.0458
 177        3.0458
 178        3.0458
 179        3.0458
 180        3.0458
 181        3.0458
 182        3.0458
 183        3.0458
 184        4.9390
 185        4.9390
 186        4.9390
 187        6.9101
 188        6.9101
 189        6.9101
 190        6.9101
 191        9.4306
 192        9.4306
 193        9.4306
 194        9.4306
 195        9.4306
 196        9.4306
 197        9.4306
 198        9.4306
 199        9.4306
 200        9.4306
 201        9.4306
 202        9.4306
 203       10.1839
 204       10.1839
 205       10.1839
 206       11.4842
 207       11.4842
 208       11.4842
 209       11.4842
 210       11.4842
 211       11.4842
 212       11.7989
 213       11.7989
 214       11.7989
 215       11.7989
 216       11.7989
 
  0.1428571E+00  0.0000000E+00  0.0000000E+00  0.1749271E-01
   1       -5.5390
   2       -3.5594
   3       -2.8682
   4       -2.8682
   5       -2.8682
   6       -2.8682
   7       -2.2859
   8       -1.4416
   9       -1.4416
  10       -1.4416
  11       -1.4416
  12       -1.4262
  13       -1.4262
  14       -1.4262
  15       -1.4262
  16       -1.2316
  17       -1.2032
  18       -1.2032
  19       -1.1083
  20       -1.1083
  21       -1.1083
  22       -1.1083
  23       -0.7931
  24       -0.7922
  25       -0.7922
  26       -0.7768
  27       -0.7768
  28       -0.7768
  29       -0.7768
  30       -0.5800
  31       -0.5800
  32       -0.5130
  33       -0.5130
  34       -0.5130
  35       -0.5130
  36       -0.3214
  37       -0.2036
  38       -0.2036
  39       -0.1719
  40       -0.1719
  41       -0.1719
  42       -0.1719
  43       -0.0342
  44       -0.0056
  45       -0.0056
  46       -0.0056
  47       -0.0056
  48       -0.0014
  49       -0.0014
  50       -0.0014
  51       -0.0014
  52        0.0236
  53        0.0236
  54        0.0236
  55        0.0236
  56        0.0414
  57        0.0414
  58        0.0414
  59        0.0414
  60        0.0878
  61        0.0878
  62        0.0878
  63        0.0878
  64        0.0996
  65        0.0996
  66        0.0996
  67        0.0996
  68        0.2334
  69        0.2334
  70        0.2334
  71        0.2334
  72        0.2823
  73        0.2823
  74        0.3067
  75        0.3067
  76        0.3067
  77        0.3067
  78        0.4461
  79        0.4461
  80        0.4461
  81        0.4461
  82        0.4658
  83        0.4717
  84        0.4717
  85        0.4717
  86        0.4717
  87        0.4965
  88        0.4965
  89        0.7632
  90        0.7632
  91        0.7632
  92        0.7632
  93        0.8608
  94        0.8962
  95        0.8962
  96        0.8962
  97        0.8962
  98        0.9243
  99        0.9479
 100        0.9479
 101        0.9645
 102        0.9645
 103        0.9645
 104        0.9645
 105        1.0032
 106        1.0032
 107        1.0032
 108        1.0032
 109        1.0981
 110        1.0981
 111        1.0981
 112        1.0981
 113        1.1557
 114        1.1557
 115        1.1557
 116        1.1557
 117        1.1794
 118        1.1794
 119        1.1794
 120        1.1794
 121        1.2173
 122        1.2173
 123        1.2173
 124        1.2173
 125        1.2363
 126        1.2557
 127        1.2557
 128        1.2578
 129        1.2578
 130        1.2579
 131        1.3057
 132        1.3057
 133        1.3057
 134        1.3057
 135        1.3394
 136        1.3394
 137        1.3394
 138        1.3394
 139        1.4479
 140        1.5240
 141        1.5240
 142        1.5240
 143        1.5240
 144        1.5616
 145        1.6015
 146        1.6015
 147        1.6015
 148        1.6015
 149        1.7428
 150        1.7428
 151        1.7561
 152        1.7594
 153        1.7594
 154        1.7594
 155        1.7594
 156        1.8060
 157        1.8060
 158        1.8811
 159        1.8811
 160        1.8811
 161        1.8811
 162        1.8822
 163        1.8822
 164        1.9059
 165        1.9059
 166        1.9065
 167        1.9065
 168        2.6209
 169        2.6209
 170        2.6209
 171        2.6209
 172        2.6366
 173        2.6366
 174        2.6366
 175        2.6366
 176        3.0401
 177        3.0401
 178        3.0401
 179        3.0401
 180        3.6040
 181        3.6040
 182        3.6040
 183        3.6040
 184        4.5432
 185        5.0929
 186        5.0929
 187        7.0873
 188        7.0873
 189        7.0873
 190        7.0873
 191        8.4874
 192        8.4874
 193        8.6778
 194        8.6778
 195        8.6778
 196        8.6778
 197        9.5110
 198        9.5110
 199        9.5110
 200        9.5110
 201       10.2073
 202       10.2073
 203       10.4336
 204       10.4336
 205       10.7008
 206       11.1776
 207       11.1776
 208       11.6795
 209       11.6795
 210       11.6795
 211       11.6795
 212       11.8323
 213       11.8323
 214       11.8323
 215       11.8324
 216       12.0016
 
  0.2857143E+00  0.0000000E+00  0.0000000E+00  0.1749271E-01
   1       -5.3598
   2       -4.1506
   3       -2.7235
   4       -2.7235
   5       -2.7235
   6       -2.7235
   7       -1.8219
   8       -1.8219
   9       -1.8219
  10       -1.8219
  11       -1.7659
  12       -1.3881
  13       -1.3881
  14       -1.3881
  15       -1.3881
  16       -1.2426
  17       -1.1737
  18       -1.1737
  19       -1.1737
  20       -1.1737
  21       -1.1238
  22       -1.1238
  23       -0.7475
  24       -0.7432
  25       -0.7432
  26       -0.6988
  27       -0.6988
  28       -0.5400
  29       -0.5400
  30       -0.5400
  31       -0.5400
  32       -0.4557
  33       -0.4531
  34       -0.4531
  35       -0.4531
  36       -0.4531
  37       -0.3919
  38       -0.3919
  39       -0.1524
  40       -0.1524
  41       -0.1524
  42       -0.1524
  43       -0.0654
  44       -0.0654
  45       -0.0654
  46       -0.0654
  47       -0.0433
  48       -0.0433
  49       -0.0433
  50       -0.0433
  51       -0.0397
  52       -0.0397
  53       -0.0397
  54       -0.0397
  55        0.0298
  56        0.0298
  57        0.0298
  58        0.0298
  59        0.0477
  60        0.0477
  61        0.0477
  62        0.0477
  63        0.1044
  64        0.2573
  65        0.2573
  66        0.2573
  67        0.2573
  68        0.2795
  69        0.2795
  70        0.2795
  71        0.2795
  72        0.3716
  73        0.3716
  74        0.3716
  75        0.3716
  76        0.4156
  77        0.4156
  78        0.4156
  79        0.4156
  80        0.4159
  81        0.5157
  82        0.5157
  83        0.5157
  84        0.5157
  85        0.5375
  86        0.5375
  87        0.5768
  88        0.5768
  89        0.6425
  90        0.6425
  91        0.6425
  92        0.6425
  93        0.7881
  94        0.7881
  95        0.7881
  96        0.7881
  97        0.8128
  98        0.8128
  99        0.9390
 100        1.0293
 101        1.0293
 102        1.0293
 103        1.0293
 104        1.0811
 105        1.0811
 106        1.0811
 107        1.0811
 108        1.0985
 109        1.0985
 110        1.0985
 111        1.0985
 112        1.1365
 113        1.1365
 114        1.1365
 115        1.1365
 116        1.1913
 117        1.2072
 118        1.2072
 119        1.2072
 120        1.2072
 121        1.2132
 122        1.2132
 123        1.2132
 124        1.2132
 125        1.2309
 126        1.2511
 127        1.2511
 128        1.2511
 129        1.2511
 130        1.2765
 131        1.3537
 132        1.3537
 133        1.3942
 134        1.4182
 135        1.4182
 136        1.4182
 137        1.4182
 138        1.4188
 139        1.4188
 140        1.4535
 141        1.4535
 142        1.4535
 143        1.4535
 144        1.5547
 145        1.5547
 146        1.6123
 147        1.6123
 148        1.6123
 149        1.6123
 150        1.6159
 151        1.6844
 152        1.6844
 153        1.7109
 154        1.7109
 155        1.7109
 156        1.7109
 157        1.7369
 158        1.8094
 159        1.8094
 160        1.8094
 161        1.8094
 162        1.8139
 163        1.8139
 164        1.9060
 165        1.9060
 166        1.9064
 167        1.9064
 168        2.2879
 169        2.2879
 170        2.2879
 171        2.2879
 172        2.7955
 173        2.7955
 174        2.7955
 175        2.7955
 176        3.0210
 177        3.0210
 178        3.0210
 179        3.0210
 180        3.6622
 181        4.3279
 182        4.3279
 183        4.3279
 184        4.3279
 185        5.5065
 186        5.5065
 187        7.4604
 188        7.4604
 189        7.4604
 190        7.4604
 191        7.5957
 192        7.5957
 193        7.5957
 194        7.5957
 195        7.6102
 196        7.6102
 197        9.7479
 198        9.7479
 199        9.7479
 200        9.7479
 201       10.2793
 202       10.2793
 203       10.5500
 204       10.5500
 205       10.5500
 206       10.5500
 207       10.8461
 208       10.8461
 209       11.2702
 210       11.2702
 211       11.2702
 212       11.2702
 213       11.4899
 214       11.4899
 215       11.8310
 216       11.8310
 
  0.4285714E+00  0.0000000E+00  0.0000000E+00  0.1749271E-01
   1       -5.0643
   2       -4.6580
   3       -2.4905
   4       -2.4905
   5       -2.4905
   6       -2.4905
   7       -2.1825
   8       -2.1825
   9       -2.1825
  10       -2.1825
  11       -1.4414
  12       -1.3283
  13       -1.3283
  14       -1.3283
  15       -1.3283
  16       -1.2930
  17       -1.2532
  18       -1.2532
  19       -1.2532
  20       -1.2532
  21       -1.0010
  22       -1.0010
  23       -0.8510
  24       -0.8510
  25       -0.6737
  26       -0.6607
  27       -0.6607
  28       -0.5749
  29       -0.5440
  30       -0.5440
  31       -0.3772
  32       -0.3772
  33       -0.3772
  34       -0.3772
  35       -0.3708
  36       -0.3708
  37       -0.3708
  38       -0.3708
  39       -0.1616
  40       -0.1616
  41       -0.1616
  42       -0.1616
  43       -0.1537
  44       -0.1537
  45       -0.1537
  46       -0.1537
  47       -0.1220
  48       -0.1220
  49       -0.1220
  50       -0.1220
  51       -0.0841
  52       -0.0841
  53       -0.0841
  54       -0.0841
  55        0.0380
  56        0.0380
  57        0.0380
  58        0.0380
  59        0.0453
  60        0.0453
  61        0.0453
  62        0.0453
  63        0.2300
  64        0.3172
  65        0.3172
  66        0.3172
  67        0.3172
  68        0.3357
  69        0.3701
  70        0.3701
  71        0.3701
  72        0.3701
  73        0.4413
  74        0.4413
  75        0.4413
  76        0.4413
  77        0.5311
  78        0.5311
  79        0.5311
  80        0.5311
  81        0.5400
  82        0.5400
  83        0.5400
  84        0.5400
  85        0.5864
  86        0.5864
  87        0.5864
  88        0.5864
  89        0.6049
  90        0.6049
  91        0.6797
  92        0.6797
  93        0.6797
  94        0.6797
  95        0.6974
  96        0.6974
  97        0.8774
  98        0.8774
  99        0.8774
 100        0.8774
 101        0.8984
 102        0.8984
 103        1.0326
 104        1.1020
 105        1.1020
 106        1.1020
 107        1.1020
 108        1.1127
 109        1.1127
 110        1.1127
 111        1.1127
 112        1.1132
 113        1.1132
 114        1.1132
 115        1.1132
 116        1.1209
 117        1.1505
 118        1.1505
 119        1.1505
 120        1.1505
 121        1.1832
 122        1.1832
 123        1.1832
 124        1.1832
 125        1.1942
 126        1.1942
 127        1.1942
 128        1.1942
 129        1.2337
 130        1.2337
 131        1.3064
 132        1.3463
 133        1.4757
 134        1.4757
 135        1.5332
 136        1.5332
 137        1.5332
 138        1.5332
 139        1.5721
 140        1.5721
 141        1.5795
 142        1.5795
 143        1.5795
 144        1.5795
 145        1.5921
 146        1.5921
 147        1.6336
 148        1.6336
 149        1.6336
 150        1.6336
 151        1.6649
 152        1.7035
 153        1.7035
 154        1.7035
 155        1.7035
 156        1.7059
 157        1.7074
 158        1.7074
 159        1.7858
 160        1.7858
 161        1.7858
 162        1.7858
 163        1.8319
 164        1.9061
 165        1.9061
 166        1.9062
 167        1.9062
 168        2.0143
 169        2.0143
 170        2.0143
 171        2.0143
 172        2.6872
 173        2.9115
 174        2.9115
 175        2.9115
 176        2.9115
 177        2.9820
 178        2.9820
 179        2.9820
 180        2.9820
 181        5.2254
 182        5.2254
 183        5.2254
 184        5.2254
 185        6.0970
 186        6.0970
 187        6.2809
 188        6.2809
 189        6.2809
 190        6.2809
 191        6.8082
 192        6.8082
 193        8.3801
 194        8.3801
 195        8.3801
 196        8.3801
 197        9.3813
 198        9.3813
 199        9.3813
 200        9.3813
 201       10.1298
 202       10.1298
 203       10.1298
 204       10.1298
 205       10.4045
 206       10.4045
 207       10.5904
 208       10.5904
 209       10.6422
 210       10.6422
 211       10.6422
 212       10.6422
 213       12.0611
 214       12.0611
 215       12.0611
 216       12.0611
 
  0.1428571E+00  0.1428571E+00  0.0000000E+00  0.3498542E-01
   1       -5.4791
   2       -3.5071
   3       -3.5071
   4       -2.8202
   5       -2.8202
   6       -2.2411
   7       -2.2411
   8       -1.8969
   9       -1.4617
  10       -1.4617
  11       -1.4450
  12       -1.4450
  13       -1.4450
  14       -1.4450
  15       -1.3675
  16       -1.3675
  17       -1.2036
  18       -1.2036
  19       -1.1763
  20       -1.0295
  21       -1.0295
  22       -0.8241
  23       -0.8241
  24       -0.8241
  25       -0.8241
  26       -0.7770
  27       -0.7770
  28       -0.7764
  29       -0.5909
  30       -0.5634
  31       -0.5634
  32       -0.5578
  33       -0.5578
  34       -0.4916
  35       -0.4916
  36       -0.3125
  37       -0.3125
  38       -0.2151
  39       -0.2151
  40       -0.1973
  41       -0.1973
  42       -0.1646
  43       -0.1646
  44       -0.0540
  45       -0.0540
  46       -0.0368
  47       -0.0368
  48       -0.0299
  49       -0.0299
  50       -0.0001
  51        0.0139
  52        0.0449
  53        0.0449
  54        0.0449
  55        0.0449
  56        0.0569
  57        0.0569
  58        0.0935
  59        0.0935
  60        0.0935
  61        0.0935
  62        0.1137
  63        0.1347
  64        0.1347
  65        0.1347
  66        0.1347
  67        0.1778
  68        0.1778
  69        0.2509
  70        0.2509
  71        0.2793
  72        0.2793
  73        0.3164
  74        0.3164
  75        0.3164
  76        0.3164
  77        0.4105
  78        0.4134
  79        0.4134
  80        0.4507
  81        0.4507
  82        0.4563
  83        0.4823
  84        0.4823
  85        0.4971
  86        0.4971
  87        0.5031
  88        0.5093
  89        0.7192
  90        0.7192
  91        0.7801
  92        0.7801
  93        0.8242
  94        0.8242
  95        0.8949
  96        0.8949
  97        0.8949
  98        0.8949
  99        0.9347
 100        0.9481
 101        0.9481
 102        0.9499
 103        0.9499
 104        0.9499
 105        0.9499
 106        1.0225
 107        1.0225
 108        1.0237
 109        1.0446
 110        1.0446
 111        1.0506
 112        1.0506
 113        1.0851
 114        1.2142
 115        1.2142
 116        1.2320
 117        1.2442
 118        1.2442
 119        1.2516
 120        1.2516
 121        1.2538
 122        1.2538
 123        1.2538
 124        1.2538
 125        1.2541
 126        1.2574
 127        1.2574
 128        1.2594
 129        1.2594
 130        1.2979
 131        1.2979
 132        1.3309
 133        1.3309
 134        1.3915
 135        1.3915
 136        1.3915
 137        1.3915
 138        1.4023
 139        1.4023
 140        1.4031
 141        1.4591
 142        1.4591
 143        1.5216
 144        1.5216
 145        1.5329
 146        1.5329
 147        1.5955
 148        1.5955
 149        1.7235
 150        1.7237
 151        1.7237
 152        1.7296
 153        1.7678
 154        1.7678
 155        1.7700
 156        1.7700
 157        1.7912
 158        1.7912
 159        1.8593
 160        1.8593
 161        1.8807
 162        1.8807
 163        1.8814
 164        1.8814
 165        1.8822
 166        1.8822
 167        1.8907
 168        2.2799
 169        2.3745
 170        2.3745
 171        2.6109
 172        2.6109
 173        2.6109
 174        2.6109
 175        3.0336
 176        3.0336
 177        3.0872
 178        3.0872
 179        3.6066
 180        3.6066
 181        3.6066
 182        3.6066
 183        4.2497
 184        4.6946
 185        4.6946
 186        5.2387
 187        6.9439
 188        6.9439
 189        7.5381
 190        7.5381
 191        7.8346
 192        7.8346
 193        8.5726
 194        8.5726
 195        8.5865
 196        8.5865
 197        8.9254
 198        8.9254
 199        9.5714
 200        9.5714
 201       10.2310
 202       10.5105
 203       10.5105
 204       10.7307
 205       10.7307
 206       11.0695
 207       11.0695
 208       11.0695
 209       11.0695
 210       11.1584
 211       11.2495
 212       11.2495
 213       11.9280
 214       11.9280
 215       12.2824
 216       12.2824
 
  0.2857143E+00  0.1428571E+00  0.0000000E+00  0.6997085E-01
   1       -5.3005
   2       -4.0956
   3       -3.3517
   4       -2.6786
   5       -2.6786
   6       -2.3489
   7       -2.1095
   8       -1.8059
   9       -1.8059
  10       -1.7256
  11       -1.4770
  12       -1.4770
  13       -1.4544
  14       -1.4544
  15       -1.3274
  16       -1.2852
  17       -1.2852
  18       -1.2132
  19       -1.1227
  20       -1.0983
  21       -0.9336
  22       -0.9336
  23       -0.7321
  24       -0.7287
  25       -0.7285
  26       -0.7032
  27       -0.6873
  28       -0.6778
  29       -0.5991
  30       -0.5991
  31       -0.5194
  32       -0.4933
  33       -0.4631
  34       -0.4446
  35       -0.4307
  36       -0.4307
  37       -0.3917
  38       -0.3825
  39       -0.2858
  40       -0.2479
  41       -0.1790
  42       -0.1429
  43       -0.1429
  44       -0.1391
  45       -0.1391
  46       -0.1261
  47       -0.1141
  48       -0.0748
  49       -0.0341
  50       -0.0341
  51       -0.0181
  52       -0.0086
  53       -0.0086
  54        0.0195
  55        0.0565
  56        0.0872
  57        0.0872
  58        0.1064
  59        0.1295
  60        0.1295
  61        0.1529
  62        0.1529
  63        0.1657
  64        0.1740
  65        0.1960
  66        0.1960
  67        0.2595
  68        0.2693
  69        0.3012
  70        0.3012
  71        0.3432
  72        0.3432
  73        0.3609
  74        0.3609
  75        0.3781
  76        0.3781
  77        0.4110
  78        0.4381
  79        0.4381
  80        0.4790
  81        0.5193
  82        0.5193
  83        0.5387
  84        0.5401
  85        0.5470
  86        0.5508
  87        0.5508
  88        0.5666
  89        0.6243
  90        0.6243
  91        0.6563
  92        0.6797
  93        0.7676
  94        0.7807
  95        0.7807
  96        0.8133
  97        0.8432
  98        0.8432
  99        0.9306
 100        0.9306
 101        0.9499
 102        0.9665
 103        0.9839
 104        1.0182
 105        1.0182
 106        1.0184
 107        1.0295
 108        1.0320
 109        1.0320
 110        1.0863
 111        1.0866
 112        1.1235
 113        1.1235
 114        1.1298
 115        1.1377
 116        1.1802
 117        1.1802
 118        1.1925
 119        1.2008
 120        1.2008
 121        1.2369
 122        1.2442
 123        1.2442
 124        1.2569
 125        1.2632
 126        1.2703
 127        1.2739
 128        1.3217
 129        1.3217
 130        1.3456
 131        1.3592
 132        1.3629
 133        1.3816
 134        1.3816
 135        1.3993
 136        1.4184
 137        1.4323
 138        1.4901
 139        1.4941
 140        1.4941
 141        1.4962
 142        1.4962
 143        1.5034
 144        1.5073
 145        1.5118
 146        1.5350
 147        1.6025
 148        1.6025
 149        1.6550
 150        1.6669
 151        1.6926
 152        1.7099
 153        1.7189
 154        1.7189
 155        1.7447
 156        1.7447
 157        1.7548
 158        1.7581
 159        1.7984
 160        1.7984
 161        1.8093
 162        1.8101
 163        1.8137
 164        1.8803
 165        1.8817
 166        1.8822
 167        1.8825
 168        2.0172
 169        2.2767
 170        2.2767
 171        2.3719
 172        2.3719
 173        2.5802
 174        2.5802
 175        2.6677
 176        3.3545
 177        3.3545
 178        3.6098
 179        3.6098
 180        3.7255
 181        3.8192
 182        4.3410
 183        4.3410
 184        5.0454
 185        5.0940
 186        5.6356
 187        6.6896
 188        7.0439
 189        7.1730
 190        7.1730
 191        7.4853
 192        7.4853
 193        7.7021
 194        8.2323
 195        8.2323
 196        8.2997
 197        8.8228
 198        9.0237
 199        9.0237
 200        9.8169
 201        9.8169
 202       10.3035
 203       10.3994
 204       10.3994
 205       10.4069
 206       10.4885
 207       10.7379
 208       10.8222
 209       10.9433
 210       11.3761
 211       11.3815
 212       11.3815
 213       11.5354
 214       11.5646
 215       11.9905
 216       12.2145
 
  0.4285714E+00  0.1428571E+00  0.0000000E+00  0.6997085E-01
   1       -5.0060
   2       -4.6011
   3       -3.0987
   4       -2.7587
   5       -2.4512
   6       -2.4512
   7       -2.1524
   8       -2.1524
   9       -1.9002
  10       -1.6304
  11       -1.4766
  12       -1.4766
  13       -1.4668
  14       -1.4668
  15       -1.4055
  16       -1.2608
  17       -1.1812
  18       -1.1812
  19       -1.0604
  20       -1.0604
  21       -0.9975
  22       -0.9778
  23       -0.8440
  24       -0.8297
  25       -0.6594
  26       -0.6483
  27       -0.6473
  28       -0.5621
  29       -0.5359
  30       -0.5323
  31       -0.5075
  32       -0.4741
  33       -0.4266
  34       -0.4266
  35       -0.3943
  36       -0.3737
  37       -0.3547
  38       -0.3547
  39       -0.2977
  40       -0.2607
  41       -0.2425
  42       -0.2291
  43       -0.2291
  44       -0.1842
  45       -0.1717
  46       -0.1717
  47       -0.1503
  48       -0.1143
  49       -0.1080
  50       -0.1080
  51       -0.0619
  52       -0.0619
  53       -0.0022
  54       -0.0017
  55        0.0124
  56        0.0567
  57        0.1092
  58        0.1092
  59        0.1237
  60        0.1237
  61        0.2195
  62        0.2208
  63        0.2208
  64        0.2296
  65        0.2504
  66        0.2939
  67        0.2939
  68        0.3332
  69        0.3640
  70        0.3740
  71        0.3740
  72        0.4115
  73        0.4115
  74        0.4434
  75        0.4434
  76        0.4493
  77        0.4493
  78        0.4975
  79        0.5259
  80        0.5259
  81        0.5329
  82        0.5425
  83        0.5425
  84        0.5807
  85        0.5807
  86        0.5966
  87        0.6064
  88        0.6084
  89        0.6285
  90        0.6285
  91        0.6752
  92        0.6752
  93        0.6886
  94        0.6983
  95        0.7326
  96        0.7326
  97        0.7913
  98        0.7913
  99        0.8286
 100        0.8286
 101        0.8553
 102        0.8786
 103        0.9576
 104        0.9682
 105        0.9682
 106        0.9779
 107        0.9953
 108        0.9953
 109        1.0301
 110        1.0460
 111        1.0829
 112        1.1110
 113        1.1110
 114        1.1259
 115        1.1543
 116        1.1686
 117        1.1686
 118        1.1877
 119        1.2007
 120        1.2060
 121        1.2112
 122        1.2275
 123        1.2517
 124        1.2576
 125        1.2621
 126        1.2725
 127        1.2725
 128        1.3026
 129        1.3128
 130        1.3133
 131        1.3133
 132        1.3138
 133        1.3464
 134        1.4641
 135        1.4817
 136        1.5101
 137        1.5101
 138        1.5241
 139        1.5716
 140        1.5717
 141        1.5772
 142        1.5957
 143        1.5981
 144        1.5982
 145        1.5982
 146        1.6056
 147        1.6056
 148        1.6256
 149        1.6256
 150        1.6307
 151        1.6571
 152        1.6850
 153        1.6850
 154        1.7022
 155        1.7071
 156        1.7079
 157        1.7096
 158        1.7096
 159        1.7158
 160        1.7737
 161        1.7737
 162        1.8035
 163        1.8802
 164        1.8806
 165        1.8820
 166        1.8821
 167        2.0030
 168        2.0030
 169        2.0107
 170        2.1091
 171        2.3152
 172        2.4526
 173        2.4526
 174        2.5272
 175        2.5272
 176        2.8748
 177        3.5305
 178        3.5305
 179        3.5966
 180        3.5966
 181        4.5548
 182        5.2479
 183        5.2479
 184        5.5583
 185        5.6521
 186        5.9947
 187        6.2103
 188        6.3089
 189        6.3089
 190        6.3117
 191        6.9092
 192        7.0872
 193        7.7799
 194        7.7799
 195        8.6911
 196        8.6911
 197        9.1246
 198        9.1246
 199        9.2236
 200        9.3634
 201        9.3634
 202        9.7573
 203        9.8275
 204        9.8275
 205       10.1830
 206       10.1830
 207       10.4284
 208       10.6064
 209       10.9809
 210       11.1060
 211       11.2155
 212       11.5802
 213       11.5809
 214       11.6023
 215       11.8710
 216       12.6586
 
  0.2857143E+00  0.2857143E+00  0.0000000E+00  0.3498542E-01
   1       -5.1235
   2       -3.9320
   3       -3.9320
   4       -2.8539
   5       -2.5467
   6       -2.5467
   7       -1.7619
   8       -1.7619
   9       -1.7619
  10       -1.7619
  11       -1.6078
  12       -1.6078
  13       -1.5561
  14       -1.5561
  15       -1.1660
  16       -1.1660
  17       -1.1276
  18       -1.1276
  19       -1.0247
  20       -0.9346
  21       -0.9346
  22       -0.7310
  23       -0.7310
  24       -0.7310
  25       -0.7310
  26       -0.6857
  27       -0.6857
  28       -0.6843
  29       -0.6601
  30       -0.6601