 vasp.4.6.28 25Jul05 complex 
 executed on             LinuxIFC date 2016.01.16  20:44:49
 running on    8 nodes
 distr:  one band on    1 nodes,    8 groups


--------------------------------------------------------------------------------------------------------


 INCAR:
 POTCAR:   PAW_PBE Cu 05Jan2001                   
 POTCAR:   PAW_PBE Cu 05Jan2001                   
   VRHFIN =Cu: d10 p1                                                           
   LEXCH  = PE                                                                  
   EATOM  =  1390.9800 eV,  102.2341 Ry                                         
                                                                                
   TITEL  = PAW_PBE Cu 05Jan2001                                                
   LULTRA =        F    use ultrasoft PP ?                                      
   IUNSCR =        1    unscreen: 0-lin 1-nonlin 2-no                           
   RPACOR =    2.000    partial core radius                                     
   POMASS =   63.546; ZVAL   =   11.000    mass and valenz                      
   RCORE  =    2.300    outmost cutoff radius                                   
   RWIGS  =    2.480; RWIGS  =    1.312    wigner-seitz radius (au A)           
   ENMAX  =  273.214; ENMIN  =  204.910 eV                                      
   RCLOC  =    1.712    cutoff for local pot                                    
   LCOR   =        T    correct aug charges                                     
   LPAW   =        T    paw PP                                                  
   EAUG   =  516.456                                                            
   DEXC   =    -.008                                                            
   RMAX   =    2.789    core radius for proj-oper                               
   RAUG   =    1.300    factor for augmentation sphere                          
   RDEP   =    2.302    radius for radial grids                                 
   QCUT   =   -4.481; QGAM   =    8.962    optimization parameters              
                                                                                
   Description                                                                  
     l     E      TYP  RCUT    TYP  RCUT                                        
     2   .000     23  2.300                                                     
     2   .000     23  2.300                                                     
     0   .000     23  2.300                                                     
     0   .000     23  2.300                                                     
     1  -.200     23  2.300                                                     
     1   .000     23  2.300                                                     
     3   .000      7   .000                                                     
  local pseudopotential read in
  partial core-charges read in
  atomic valenz-charges read in
  non local Contribution for L=           2  read in
    real space projection operators read in
  non local Contribution for L=           2  read in
    real space projection operators read in
  non local Contribution for L=           0  read in
    real space projection operators read in
  non local Contribution for L=           0  read in
    real space projection operators read in
  non local Contribution for L=           1  read in
    real space projection operators read in
  non local Contribution for L=           1  read in
    real space projection operators read in
    PAW grid and wavefunctions read in
 
   number of l-projection  operators is LMAX  =           6
   number of lm-projection operators is LMMAX =          18
 

 ----------------------------------------------------------------------------- 
|                                                                             |
|  ADVICE TO THIS USER RUNNING 'VASP/VAMP'   (HEAR YOUR MASTER'S VOICE ...):  |
|                                                                             |
|      You have a (more or less) 'large supercell' and for larger cells       |
|      it might be more efficient to use real space projection operators      |
|      So try LREAL= Auto  in the INCAR   file.                               |
|      Mind: If you want to do an extremely accurate calculations keep the    |
|      reciprocal projection scheme          (i.e. LREAL=.FALSE.)             |
|                                                                             |
 ----------------------------------------------------------------------------- 

 PAW_PBE Cu 05Jan2001                   :
 energy of atom  1       EATOM=-1390.9800
 kinetic energy error for atom=    0.0032 (will be added to EATOM!!)
 
 EXHCAR: internal setup
 exchange correlation table for  LEXCH =        8
   RHO(1)=    0.500       N(1)  =     2000
   RHO(2)=  100.500       N(2)  =     4000
 
 POSCAR: Cu                                      
  positions in direct lattice
  No initial velocities read in
 


--------------------------------------------------------------------------------------------------------


 ion  position               nearest neighbor table
   1  0.000  0.000  0.000-   9 2.60  10 2.60  11 2.60  12 2.60  17 2.60  18 2.60  21 2.60  22 2.60
                            25 2.60  27 2.60  29 2.60  31 2.60
   2  0.500  0.000  0.000-   9 2.60  10 2.60  11 2.60  12 2.60  17 2.60  18 2.60  21 2.60  22 2.60
                            26 2.60  28 2.60  30 2.60  32 2.60
   3  0.000  0.500  0.000-   9 2.60  10 2.60  11 2.60  12 2.60  19 2.60  20 2.60  23 2.60  24 2.60
                            25 2.60  27 2.60  29 2.60  31 2.60
   4  0.500  0.500  0.000-   9 2.60  10 2.60  11 2.60  12 2.60  19 2.60  20 2.60  23 2.60  24 2.60
                            26 2.60  28 2.60  30 2.60  32 2.60
   5  0.000  0.000  0.500-  13 2.60  14 2.60  15 2.60  16 2.60  17 2.60  18 2.60  21 2.60  22 2.60
                            25 2.60  27 2.60  29 2.60  31 2.60
   6  0.500  0.000  0.500-  13 2.60  14 2.60  15 2.60  16 2.60  17 2.60  18 2.60  21 2.60  22 2.60
                            26 2.60  28 2.60  30 2.60  32 2.60
   7  0.000  0.500  0.500-  13 2.60  14 2.60  15 2.60  16 2.60  19 2.60  20 2.60  23 2.60  24 2.60
                            25 2.60  27 2.60  29 2.60  31 2.60
   8  0.500  0.500  0.500-  13 2.60  14 2.60  15 2.60  16 2.60  19 2.60  20 2.60  23 2.60  24 2.60
                            26 2.60  28 2.60  30 2.60  32 2.60
   9  0.250  0.250  0.000-   1 2.60   2 2.60   3 2.60   4 2.60  17 2.60  19 2.60  21 2.60  23 2.60
                            25 2.60  26 2.60  29 2.60  30 2.60
  10  0.750  0.250  0.000-   1 2.60   2 2.60   3 2.60   4 2.60  18 2.60  20 2.60  22 2.60  24 2.60
                            25 2.60  26 2.60  29 2.60  30 2.60
  11  0.250  0.750  0.000-   1 2.60   2 2.60   3 2.60   4 2.60  17 2.60  19 2.60  21 2.60  23 2.60
                            27 2.60  28 2.60  31 2.60  32 2.60
  12  0.750  0.750  0.000-   1 2.60   2 2.60   3 2.60   4 2.60  18 2.60  20 2.60  22 2.60  24 2.60
                            27 2.60  28 2.60  31 2.60  32 2.60
  13  0.250  0.250  0.500-   5 2.60   6 2.60   7 2.60   8 2.60  17 2.60  19 2.60  21 2.60  23 2.60
                            25 2.60  26 2.60  29 2.60  30 2.60
  14  0.750  0.250  0.500-   5 2.60   6 2.60   7 2.60   8 2.60  18 2.60  20 2.60  22 2.60  24 2.60
                            25 2.60  26 2.60  29 2.60  30 2.60
  15  0.250  0.750  0.500-   5 2.60   6 2.60   7 2.60   8 2.60  17 2.60  19 2.60  21 2.60  23 2.60
                            27 2.60  28 2.60  31 2.60  32 2.60
  16  0.750  0.750  0.500-   5 2.60   6 2.60   7 2.60   8 2.60  18 2.60  20 2.60  22 2.60  24 2.60
                            27 2.60  28 2.60  31 2.60  32 2.60
  17  0.250  0.000  0.250-   1 2.60   2 2.60   5 2.60   6 2.60   9 2.60  11 2.60  13 2.60  15 2.60
                            25 2.60  26 2.60  27 2.60  28 2.60
  18  0.750  0.000  0.250-   1 2.60   2 2.60   5 2.60   6 2.60  10 2.60  12 2.60  14 2.60  16 2.60
                            25 2.60  26 2.60  27 2.60  28 2.60
  19  0.250  0.500  0.250-   3 2.60   4 2.60   7 2.60   8 2.60   9 2.60  11 2.60  13 2.60  15 2.60
                            25 2.60  26 2.60  27 2.60  28 2.60
  20  0.750  0.500  0.250-   3 2.60   4 2.60   7 2.60   8 2.60  10 2.60  12 2.60  14 2.60  16 2.60
                            25 2.60  26 2.60  27 2.60  28 2.60
  21  0.250  0.000  0.750-   1 2.60   2 2.60   5 2.60   6 2.60   9 2.60  11 2.60  13 2.60  15 2.60
                            29 2.60  30 2.60  31 2.60  32 2.60
  22  0.750  0.000  0.750-   1 2.60   2 2.60   5 2.60   6 2.60  10 2.60  12 2.60  14 2.60  16 2.60
                            29 2.60  30 2.60  31 2.60  32 2.60
  23  0.250  0.500  0.750-   3 2.60   4 2.60   7 2.60   8 2.60   9 2.60  11 2.60  13 2.60  15 2.60
                            29 2.60  30 2.60  31 2.60  32 2.60
  24  0.750  0.500  0.750-   3 2.60   4 2.60   7 2.60   8 2.60  10 2.60  12 2.60  14 2.60  16 2.60
                            29 2.60  30 2.60  31 2.60  32 2.60
  25  0.000  0.250  0.250-   1 2.60   3 2.60   5 2.60   7 2.60   9 2.60  10 2.60  13 2.60  14 2.60
                            17 2.60  18 2.60  19 2.60  20 2.60
  26  0.500  0.250  0.250-   2 2.60   4 2.60   6 2.60   8 2.60   9 2.60  10 2.60  13 2.60  14 2.60
                            17 2.60  18 2.60  19 2.60  20 2.60
  27  0.000  0.750  0.250-   1 2.60   3 2.60   5 2.60   7 2.60  11 2.60  12 2.60  15 2.60  16 2.60
                            17 2.60  18 2.60  19 2.60  20 2.60
  28  0.500  0.750  0.250-   2 2.60   4 2.60   6 2.60   8 2.60  11 2.60  12 2.60  15 2.60  16 2.60
                            17 2.60  18 2.60  19 2.60  20 2.60
  29  0.000  0.250  0.750-   1 2.60   3 2.60   5 2.60   7 2.60   9 2.60  10 2.60  13 2.60  14 2.60
                            21 2.60  22 2.60  23 2.60  24 2.60
  30  0.500  0.250  0.750-   2 2.60   4 2.60   6 2.60   8 2.60   9 2.60  10 2.60  13 2.60  14 2.60
                            21 2.60  22 2.60  23 2.60  24 2.60
  31  0.000  0.750  0.750-   1 2.60   3 2.60   5 2.60   7 2.60  11 2.60  12 2.60  15 2.60  16 2.60
                            21 2.60  22 2.60  23 2.60  24 2.60
  32  0.500  0.750  0.750-   2 2.60   4 2.60   6 2.60   8 2.60  11 2.60  12 2.60  15 2.60  16 2.60
                            21 2.60  22 2.60  23 2.60  24 2.60
 
  LATTYP: Found a simple cubic cell.
 ALAT       =     7.3455599397
  
  Lattice vectors:
  
 A1 = (   7.3455599397,   0.0000000000,   0.0000000000)
 A2 = (   0.0000000000,   7.3455599397,   0.0000000000)
 A3 = (   0.0000000000,   0.0000000000,   7.3455599397)
 Subroutine PRICEL returns following result:
 
  LATTYP: Found a face centered cubic cell.
 ALAT       =     3.6727799699
  
  Lattice vectors:
  
 A1 = (   1.8363899849,   1.8363899849,  -0.0000000000)
 A2 = (   1.8363899849,   0.0000000000,  -1.8363899849)
 A3 = (   0.0000000000,   1.8363899849,  -1.8363899849)
 
  32 primitive cells build up your supercell.
 

Analysis of symmetry for initial positions (statically):

 Routine SETGRP: Setting up the symmetry group for a 
 simple cubic supercell.


 Subroutine GETGRP returns: Found 48 space group operations
 (whereof 48 operations were pure point group operations)
 out of a pool of 48 trial point group operations.


The static configuration has the point symmetry O_h .

Analysis of symmetry for dynamics (positions and initial velocities):

 Subroutine DYNSYM returns: Found 48 space group operations
 (whereof 48 operations were pure point group operations)
 out of a pool of 48 trial space group operations
 (whereof 48 operations were pure point group operations)
 and found also    32 'primitive' translations


The dynamic configuration has the point symmetry O_h .
 
 
 KPOINTS: Automatic mesh                          

Automatic generation of k-mesh.
 generate k-points for:   7   7   7
 
 Subroutine IBZKPT returns following result:
 ===========================================
 
 Found     20 irreducible k-points:
 
 Following reciprocal coordinates:
            Coordinates               Weight
  0.000000  0.000000  0.000000      1.000000
  0.142857  0.000000  0.000000      6.000000
  0.285714  0.000000  0.000000      6.000000
  0.428571  0.000000  0.000000      6.000000
  0.142857  0.142857  0.000000     12.000000
  0.285714  0.142857  0.000000     24.000000
  0.428571  0.142857  0.000000     24.000000
  0.285714  0.285714  0.000000     12.000000
  0.428571  0.285714  0.000000     24.000000
  0.428571  0.428571  0.000000     12.000000
  0.142857  0.142857  0.142857      8.000000
  0.285714  0.142857  0.142857     24.000000
  0.428571  0.142857  0.142857     24.000000
  0.285714  0.285714  0.142857     24.000000
  0.428571  0.285714  0.142857     48.000000
  0.428571  0.428571  0.142857     24.000000
  0.285714  0.285714  0.285714      8.000000
  0.428571  0.285714  0.285714     24.000000
  0.428571  0.428571  0.285714     24.000000
  0.428571  0.428571  0.428571      8.000000
 
 Following cartesian coordinates:
            Coordinates               Weight
  0.000000  0.000000  0.000000      1.000000
  0.019448  0.000000  0.000000      6.000000
  0.038896  0.000000  0.000000      6.000000
  0.058344  0.000000  0.000000      6.000000
  0.019448  0.019448  0.000000     12.000000
  0.038896  0.019448  0.000000     24.000000
  0.058344  0.019448  0.000000     24.000000
  0.038896  0.038896  0.000000     12.000000
  0.058344  0.038896  0.000000     24.000000
  0.058344  0.058344  0.000000     12.000000
  0.019448  0.019448  0.019448      8.000000
  0.038896  0.019448  0.019448     24.000000
  0.058344  0.019448  0.019448     24.000000
  0.038896  0.038896  0.019448     24.000000
  0.058344  0.038896  0.019448     48.000000
  0.058344  0.058344  0.019448     24.000000
  0.038896  0.038896  0.038896      8.000000
  0.058344  0.038896  0.038896     24.000000
  0.058344  0.058344  0.038896     24.000000
  0.058344  0.058344  0.058344      8.000000
 


--------------------------------------------------------------------------------------------------------




 Dimension of arrays:
   k-Points           NKPTS =     20   number of bands    NBANDS=    216
   number of dos      NEDOS =    301   number of ions     NIONS =     32
   non local maximal  LDIM  =      6   non local SUM 2l+1 LMDIM =     18
   total plane-waves  NPLWV = 157464
   max r-space proj   IRMAX =      1   max aug-charges    IRDMAX= 111735
   dimension x,y,z NGX =    54 NGY =   54 NGZ =   54
   dimension x,y,z NGXF=   108 NGYF=  108 NGZF=  108
   support grid    NGXF=   216 NGYF=  216 NGZF=  216
   ions per type =              32
 NGX,Y,Z   is equivalent  to a cutoff of  12.22, 12.22, 12.22 a.u.
 NGXF,Y,Z  is equivalent  to a cutoff of  24.44, 24.44, 24.44 a.u.


 I would recommend the setting:
   dimension x,y,z NGX =    54 NGY =   54 NGZ =   54
 SYSTEM =  unknown system                          
 POSCAR =  Cu                                      

 Startparameter for this run:
   NWRITE =      2    write-flag & timer
   PREC   = accura    medium, high low
   ISTART =      0    job   : 0-new  1-cont  2-samecut
   ICHARG =      2    charge: 1-file 2-atom 10-const
   ISPIN  =      1    spin polarized calculation?
   LNONCOLLINEAR =      F non collinear calculations
   LSORBIT =      F    spin-orbit coupling
   INIWAV =      1    electr: 0-lowe 1-rand  2-diag
   LASPH  =      F    aspherical Exc in radial PAW
   METAGGA=      F    non-selfconsistent MetaGGA calc.

 Electronic Relaxation 1
   ENCUT  =  500.0 eV  36.75 Ry    6.06 a.u.  13.39 13.39 13.39*2*pi/ulx,y,z
   ENINI  =  500.0     initial cutoff
   ENAUG  =  516.5 eV  augmentation charge cutoff
   NELM   =     60;   NELMIN=  2; NELMDL=  0     # of ELM steps 
   EDIFF  = 0.1E-07   stopping-criterion for ELM
   LREAL  =      F    real-space projection
   LCOMPAT=      F    compatible to vasp.4.4
   LREAL_COMPAT= F    compatible to vasp.4.5.1-3
   GGA_COMPAT  = T    GGA compatible to vasp.4.4-vasp.4.6
   LMAXPAW     = -100 max onsite density
   LMAXMIX     =    2 max onsite mixed and CHGCAR
   VOSKOWN=      0    Vosko Wilk Nusair interpolation
   ROPT   =    0.00000
 Ionic relaxation
   EDIFFG = 0.1E-06   stopping-criterion for IOM
   NSW    =      0    number of steps for IOM
   NBLOCK =      1;   KBLOCK =      1    inner block; outer block 
   IBRION =     -1    ionic relax: 0-MD 1-quasi-New 2-CG
   NFREE  =      0    steps in history (QN), initial steepest desc. (CG)
   ISIF   =      2    stress and relaxation
   IWAVPR =     10    prediction:  0-non 1-charg 2-wave 3-comb
   ISYM   =      2    0-nonsym 1-usesym 2-fastsym
   LCORR  =      T    Harris-Foulkes like correction to forces

   POTIM  =   0.50    time-step for ionic-motion
   TEIN   =    0.0    initial temperature
   TEBEG  =    0.0;   TEEND  =   0.0 temperature during run
   SMASS  =  -3.00    Nose mass-parameter (am)
   estimated Nose-frequenzy (Omega)   =  0.10E-29 period in steps =****** mass=  -0.123E-26a.u.
   NPACO  =    256;   APACO  = 16.0  distance and # of slots for P.C.
   PSTRESS=    0.0 pullay stress

  Mass of Ions in am
   POMASS =  63.55
  Ionic Valenz
   ZVAL   =  11.00
  Atomic Wigner-Seitz radii
   RWIGS  =  -1.00
   NELECT =     352.0000    total number of electrons
   NUPDOWN=      -1.0000    fix difference up-down

 DOS related values:
   EMIN   =  10.00;   EMAX   =-10.00  energy-range for DOS
   ISMEAR =     0;   SIGMA  =   0.01  broadening in eV -4-tet -1-fermi 0-gaus

 Electronic relaxation 2 (details)
   IALGO  =     38    algorithm
   LDIAG  =      T    sub-space diagonalisation
   IMIX   =      4    mixing-type and parameters
     AMIX     =   0.40;   BMIX     =  1.00
     AMIX_MAG =   1.60;   BMIX_MAG =  1.00
     AMIN     =   0.10
     WC   =   100.;   INIMIX=   1;  MIXPRE=   1

 Intra band minimization:
   WEIMIN = 0.0000     energy-eigenvalue tresh-hold
   EBREAK =  0.12E-10  absolut break condition
   DEPER  =   0.30     relativ break condition  

   TIME   =   0.10     timestep for ELM

  volume/ion in A,a.u.               =      12.39        83.58
  Fermi-wavevector in a.u.,eV,Ry     =   1.573611 33.691463  2.476253

 Second variation
   LSECVAR=     F    do a second variation
 
 Write flags
   LWAVE  =      F    write WAVECAR
   LCHARG =      F    write CHGCAR
   LVTOT  =      F    write LOCPOT, local potential
   LELF   =      F    write electronic localiz. function (ELF)
   LORBIT =      0    0 simple, 1 ext, 2 COOP (PROOUT)


 Dipole corrections
   IDIPOL =      0    1-x, 2-y, 3-z
   LDIPOL =      F    correct potential



--------------------------------------------------------------------------------------------------------


 Static calculation
 charge density will be updated during run
 non-spin polarized calculation
 Variant of blocked Davidson
 Davidson routine will perform the subspace rotation
 performe sub-space diagonalisation
    after iterative eigenvector-optimisation
 modified Broyden-mixing scheme, WC =      100.0
 initial mixing is a Kerker type mixing with AMIX =  0.4000 and BMIX =      1.0000
 Hartree-type preconditioning will be used
 using additional bands           40
 reciprocal scheme for non local part
 use partial core corrections
 calculate Harris-corrections to forces 
   (improved forces if not selfconsistent)
 use gradient corrections 
 use of overlap-Matrix (Vanderbilt PP)
 Gauss-broadening in eV      SIGMA  =   0.01


--------------------------------------------------------------------------------------------------------


  energy-cutoff  :      500.00
  volume of cell :      396.35
      direct lattice vectors                 reciprocal lattice vectors
     7.345559940  0.000000000  0.000000000     0.136136661  0.000000000  0.000000000
     0.000000000  7.345559940  0.000000000     0.000000000  0.136136661  0.000000000
     0.000000000  0.000000000  7.345559940     0.000000000  0.000000000  0.136136661

  length of vectors
     7.345559940  7.345559940  7.345559940     0.136136661  0.136136661  0.136136661


 
 k-points in units of 2pi/SCALE and weight: Automatic mesh                          
   0.00000000  0.00000000  0.00000000       0.003
   0.01944809  0.00000000  0.00000000       0.017
   0.03889619  0.00000000  0.00000000       0.017
   0.05834428  0.00000000  0.00000000       0.017
   0.01944809  0.01944809  0.00000000       0.035
   0.03889619  0.01944809  0.00000000       0.070
   0.05834428  0.01944809  0.00000000       0.070
   0.03889619  0.03889619  0.00000000       0.035
   0.05834428  0.03889619  0.00000000       0.070
   0.05834428  0.05834428  0.00000000       0.035
   0.01944809  0.01944809  0.01944809       0.023
   0.03889619  0.01944809  0.01944809       0.070
   0.05834428  0.01944809  0.01944809       0.070
   0.03889619  0.03889619  0.01944809       0.070
   0.05834428  0.03889619  0.01944809       0.140
   0.05834428  0.05834428  0.01944809       0.070
   0.03889619  0.03889619  0.03889619       0.023
   0.05834428  0.03889619  0.03889619       0.070
   0.05834428  0.05834428  0.03889619       0.070
   0.05834428  0.05834428  0.05834428       0.023
 
 k-points in reciprocal lattice and weights: Automatic mesh                          
   0.00000000  0.00000000  0.00000000       0.003
   0.14285714  0.00000000  0.00000000       0.017
   0.28571429  0.00000000  0.00000000       0.017
   0.42857143  0.00000000  0.00000000       0.017
   0.14285714  0.14285714  0.00000000       0.035
   0.28571429  0.14285714  0.00000000       0.070
   0.42857143  0.14285714  0.00000000       0.070
   0.28571429  0.28571429  0.00000000       0.035
   0.42857143  0.28571429  0.00000000       0.070
   0.42857143  0.42857143  0.00000000       0.035
   0.14285714  0.14285714  0.14285714       0.023
   0.28571429  0.14285714  0.14285714       0.070
   0.42857143  0.14285714  0.14285714       0.070
   0.28571429  0.28571429  0.14285714       0.070
   0.42857143  0.28571429  0.14285714       0.140
   0.42857143  0.42857143  0.14285714       0.070
   0.28571429  0.28571429  0.28571429       0.023
   0.42857143  0.28571429  0.28571429       0.070
   0.42857143  0.42857143  0.28571429       0.070
   0.42857143  0.42857143  0.42857143       0.023
 
 position of ions in fractional coordinates (direct lattice) 
   0.00000000  0.00000000  0.00000000
   0.50000000  0.00000000  0.00000000
   0.00000000  0.50000000  0.00000000
   0.50000000  0.50000000  0.00000000
   0.00000000  0.00000000  0.50000000
   0.50000000  0.00000000  0.50000000
   0.00000000  0.50000000  0.50000000
   0.50000000  0.50000000  0.50000000
   0.25000000  0.25000000  0.00000000
   0.75000000  0.25000000  0.00000000
   0.25000000  0.75000000  0.00000000
   0.75000000  0.75000000  0.00000000
   0.25000000  0.25000000  0.50000000
   0.75000000  0.25000000  0.50000000
   0.25000000  0.75000000  0.50000000
   0.75000000  0.75000000  0.50000000
   0.25000000  0.00000000  0.25000000
   0.75000000  0.00000000  0.25000000
   0.25000000  0.50000000  0.25000000
   0.75000000  0.50000000  0.25000000
   0.25000000  0.00000000  0.75000000
   0.75000000  0.00000000  0.75000000
   0.25000000  0.50000000  0.75000000
   0.75000000  0.50000000  0.75000000
   0.00000000  0.25000000  0.25000000
   0.50000000  0.25000000  0.25000000
   0.00000000  0.75000000  0.25000000
   0.50000000  0.75000000  0.25000000
   0.00000000  0.25000000  0.75000000
   0.50000000  0.25000000  0.75000000
   0.00000000  0.75000000  0.75000000
   0.50000000  0.75000000  0.75000000
 
 position of ions in cartesian coordinates  (Angst):
   0.00000000  0.00000000  0.00000000
   3.67277997  0.00000000  0.00000000
   0.00000000  3.67277997  0.00000000
   3.67277997  3.67277997  0.00000000
   0.00000000  0.00000000  3.67277997
   3.67277997  0.00000000  3.67277997
   0.00000000  3.67277997  3.67277997
   3.67277997  3.67277997  3.67277997
   1.83638998  1.83638998  0.00000000
   5.50916995  1.83638998  0.00000000
   1.83638998  5.50916995  0.00000000
   5.50916995  5.50916995  0.00000000
   1.83638998  1.83638998  3.67277997
   5.50916995  1.83638998  3.67277997
   1.83638998  5.50916995  3.67277997
   5.50916995  5.50916995  3.67277997
   1.83638998  0.00000000  1.83638998
   5.50916995  0.00000000  1.83638998
   1.83638998  3.67277997  1.83638998
   5.50916995  3.67277997  1.83638998
   1.83638998  0.00000000  5.50916995
   5.50916995  0.00000000  5.50916995
   1.83638998  3.67277997  5.50916995
   5.50916995  3.67277997  5.50916995
   0.00000000  1.83638998  1.83638998
   3.67277997  1.83638998  1.83638998
   0.00000000  5.50916995  1.83638998
   3.67277997  5.50916995  1.83638998
   0.00000000  1.83638998  5.50916995
   3.67277997  1.83638998  5.50916995
   0.00000000  5.50916995  5.50916995
   3.67277997  5.50916995  5.50916995
 


--------------------------------------------------------------------------------------------------------


 k-point  1 :  0.00000.00000.0000  plane waves:  10059
 k-point  2 :  0.14290.00000.0000  plane waves:  10075
 k-point  3 :  0.28570.00000.0000  plane waves:  10051
 k-point  4 :  0.42860.00000.0000  plane waves:  10050
 k-point  5 :  0.14290.14290.0000  plane waves:  10063
 k-point  6 :  0.28570.14290.0000  plane waves:  10065
 k-point  7 :  0.42860.14290.0000  plane waves:  10085
 k-point  8 :  0.28570.28570.0000  plane waves:  10089
 k-point  9 :  0.42860.28570.0000  plane waves:  10067
 k-point 10 :  0.42860.42860.0000  plane waves:  10053
 k-point 11 :  0.14290.14290.1429  plane waves:  10074
 k-point 12 :  0.28570.14290.1429  plane waves:  10068
 k-point 13 :  0.42860.14290.1429  plane waves:  10056
 k-point 14 :  0.28570.28570.1429  plane waves:  10065
 k-point 15 :  0.42860.28570.1429  plane waves:  10069
 k-point 16 :  0.42860.42860.1429  plane waves:  10048
 k-point 17 :  0.28570.28570.2857  plane waves:  10042
 k-point 18 :  0.42860.28570.2857  plane waves:  10052
 k-point 19 :  0.42860.42860.2857  plane waves:  10051
 k-point 20 :  0.42860.42860.4286  plane waves:  10021

 maximum and minimum number of plane-waves per node :  10089 10021

 maximum number of plane-waves:  10089
 maximal index in each direction: 
   IXMAX= 13   IYMAX= 13   IZMAX= 13
   IXMIN=-13   IYMIN=-13   IZMIN=-13

 NGX is ok and might be reduce to  54
 NGY is ok and might be reduce to  54
 NGZ is ok and might be reduce to  54

 parallel 3dFFT wavefunction:
    minimum data exchange during FFTs selected (reduces bandwidth)
 parallel 3dFFT charge:
    minimum data exchange during FFTs selected (reduces bandwidth)

 For storing wavefunctions  695.36 MBYTES are necessary
 For predicting wavefunctions   75.74 MBYTES are necessary
Broyden mixing: mesh for mixing (old mesh)
   NGX = 27   NGY = 27   NGZ = 27
  (NGX  =108   NGY  =108   NGZ  =108)
 gives a total of  19683 points
 initial charge density was supplied:
 charge density of overlapping atoms calculated
 number of electron  352.0000000 magnetization 
 keeping initial charge density in first step


--------------------------------------------------------------------------------------------------------


 Maximum index for augmentation-charges        13619 (set IRDMAX)


--------------------------------------------------------------------------------------------------------


 First call to EWALD:  gamma=   0.241
 Maximum number of real-space cells 3x 3x 3
 Maximum number of reciprocal cells 3x 3x 3

    FEWALD:  VPU time    0.01: CPU time    0.01


----------------------------------------- Iteration    1(   1)  ---------------------------------------


    POTLOK:  VPU time    0.12: CPU time    0.12
    SETDIJ:  VPU time    0.16: CPU time    0.16
    EDDAV :  VPU time   33.40: CPU time   33.41
    DOS   :  VPU time    0.00: CPU time   -0.00
    ------------------------------------------
      LOOP:  VPU time   33.69: CPU time   33.70

 eigenvalue-minimisations  :  8640
 total energy-change (2. order) : 0.3232383E+04  (-0.1456506E+05)
 number of electron  352.0000000 magnetization 
 augmentation part   352.0000000 magnetization 

 Free energy of the ion-electron system (eV)
  ---------------------------------------------------
  alpha Z        PSCENC =      3300.87172339
  Ewald energy   TEWEN  =    -34801.08958718
  -1/2 Hartree   DENC   =    -10732.96538175
  -V(xc)+E(xc)   XCENC  =      1400.69785593
  PAW double counting   =     34625.67335558   -39234.46421604
  entropy T*S    EENTRO =        -0.00029502
  eigenvalues    EBANDS =      4162.40108356
  atomic energy  EATOM  =     44511.25856501
  ---------------------------------------------------
  free energy    TOTEN  =      3232.38310347 eV

  energy without entropy =     3232.38339850  energy(sigma->0) =     3232.38325098


--------------------------------------------------------------------------------------------------------




----------------------------------------- Iteration    1(   2)  ---------------------------------------


    EDDAV :  VPU time   32.49: CPU time   32.48
    DOS   :  VPU time    0.00: CPU time   -0.00
    ------------------------------------------
      LOOP:  VPU time   32.50: CPU time   32.50

 eigenvalue-minimisations  :  8640
 total energy-change (2. order) :-0.2928023E+04  (-0.2809938E+04)
 number of electron  352.0000000 magnetization 
 augmentation part   352.0000000 magnetization 

 Free energy of the ion-electron system (eV)
  ---------------------------------------------------
  alpha Z        PSCENC =      3300.87172339
  Ewald energy   TEWEN  =    -34801.08958718
  -1/2 Hartree   DENC   =    -10732.96538175
  -V(xc)+E(xc)   XCENC  =      1400.69785593
  PAW double counting   =     34625.67335558   -39234.46421604
  entropy T*S    EENTRO =        -0.00052586
  eigenvalues    EBANDS =      1234.37787933
  atomic energy  EATOM  =     44511.25856501
  ---------------------------------------------------
  free energy    TOTEN  =       304.35966840 eV

  energy without entropy =      304.36019426  energy(sigma->0) =      304.35993133


--------------------------------------------------------------------------------------------------------




----------------------------------------- Iteration    1(   3)  ---------------------------------------


    EDDAV :  VPU time   28.94: CPU time   28.94
    DOS   :  VPU time    0.00: CPU time   -0.00
    ------------------------------------------
      LOOP:  VPU time   28.95: CPU time   28.96

 eigenvalue-minimisations  :  8640
 total energy-change (2. order) :-0.4275405E+03  (-0.3849434E+03)
 number of electron  352.0000000 magnetization 
 augmentation part   352.0000000 magnetization 

 Free energy of the ion-electron system (eV)
  ---------------------------------------------------
  alpha Z        PSCENC =      3300.87172339
  Ewald energy   TEWEN  =    -34801.08958718
  -1/2 Hartree   DENC   =    -10732.96538175
  -V(xc)+E(xc)   XCENC  =      1400.69785593
  PAW double counting   =     34625.67335558   -39234.46421604
  entropy T*S    EENTRO =        -0.00131252
  eigenvalues    EBANDS =       806.83813372
  atomic energy  EATOM  =     44511.25856501
  ---------------------------------------------------
  free energy    TOTEN  =      -123.18086387 eV

  energy without entropy =     -123.17955135  energy(sigma->0) =     -123.18020761


--------------------------------------------------------------------------------------------------------




----------------------------------------- Iteration    1(   4)  ---------------------------------------


    EDDAV :  VPU time   32.46: CPU time   32.47
    DOS   :  VPU time    0.00: CPU time   -0.00
    ------------------------------------------
      LOOP:  VPU time   32.48: CPU time   32.49

 eigenvalue-minimisations  :  9232
 total energy-change (2. order) :-0.2282341E+02  (-0.2233045E+02)
 number of electron  352.0000000 magnetization 
 augmentation part   352.0000000 magnetization 

 Free energy of the ion-electron system (eV)
  ---------------------------------------------------
  alpha Z        PSCENC =      3300.87172339
  Ewald energy   TEWEN  =    -34801.08958718
  -1/2 Hartree   DENC   =    -10732.96538175
  -V(xc)+E(xc)   XCENC  =      1400.69785593
  PAW double counting   =     34625.67335558   -39234.46421604
  entropy T*S    EENTRO =        -0.00127527
  eigenvalues    EBANDS =       784.01468464
  atomic energy  EATOM  =     44511.25856501
  ---------------------------------------------------
  free energy    TOTEN  =      -146.00427570 eV

  energy without entropy =     -146.00300043  energy(sigma->0) =     -146.00363806


--------------------------------------------------------------------------------------------------------




----------------------------------------- Iteration    1(   5)  ---------------------------------------


    EDDAV :  VPU time   36.22: CPU time   36.22
    DOS   :  VPU time    0.00: CPU time   -0.00
    CHARGE:  VPU time    1.45: CPU time    1.45
    MIXING:  VPU time    0.00: CPU time    0.00
    ------------------------------------------
      LOOP:  VPU time   37.70: CPU time   37.70

 eigenvalue-minimisations  :  9264
 total energy-change (2. order) :-0.1803664E+00  (-0.1800717E+00)
 number of electron  351.9999998 magnetization 
 augmentation part   214.3986429 magnetization 

 Broyden mixing:
  rms(total) = 0.39158E+01    rms(broyden)= 0.39157E+01
  rms(prec ) = 0.57727E+01
  weight for this iteration     100.00

 Free energy of the ion-electron system (eV)
  ---------------------------------------------------
  alpha Z        PSCENC =      3300.87172339
  Ewald energy   TEWEN  =    -34801.08958718
  -1/2 Hartree   DENC   =    -10732.96538175
  -V(xc)+E(xc)   XCENC  =      1400.69785593
  PAW double counting   =     34625.67335558   -39234.46421604
  entropy T*S    EENTRO =        -0.00126221
  eigenvalues    EBANDS =       783.83430515
  atomic energy  EATOM  =     44511.25856501
  ---------------------------------------------------
  free energy    TOTEN  =      -146.18464212 eV

  energy without entropy =     -146.18337991  energy(sigma->0) =     -146.18401101


--------------------------------------------------------------------------------------------------------




----------------------------------------- Iteration    1(   6)  ---------------------------------------


    POTLOK:  VPU time    0.11: CPU time    0.11
    SETDIJ:  VPU time    0.15: CPU time    0.15
    EDDAV :  VPU time   36.34: CPU time   36.35
    DOS   :  VPU time    0.00: CPU time   -0.00
    CHARGE:  VPU time    1.39: CPU time    1.40
    MIXING:  VPU time    0.00: CPU time    0.00
    ------------------------------------------
      LOOP:  VPU time   38.02: CPU time   38.03

 eigenvalue-minimisations  :  9320
 total energy-change (2. order) : 0.1642854E+02  (-0.2712606E+02)
 number of electron  351.9999998 magnetization 
 augmentation part   239.1862293 magnetization 

 Broyden mixing:
  rms(total) = 0.18635E+01    rms(broyden)= 0.18633E+01
  rms(prec ) = 0.25843E+01
  weight for this iteration     100.00

 eigenvalues of (default mixing * dielectric matrix)
  average eigenvalue GAMMA=   0.6791
  0.6791

 Free energy of the ion-electron system (eV)
  ---------------------------------------------------
  alpha Z        PSCENC =      3300.87172339
  Ewald energy   TEWEN  =    -34801.08958718
  -1/2 Hartree   DENC   =     -9931.35727563
  -V(xc)+E(xc)   XCENC  =      1360.27695036
  PAW double counting   =     33765.28913724   -38112.53625779
  entropy T*S    EENTRO =        -0.00094835
  eigenvalues    EBANDS =      -222.46840677
  atomic energy  EATOM  =     44511.25856501
  ---------------------------------------------------
  free energy    TOTEN  =      -129.75609972 eV

  energy without entropy =     -129.75515137  energy(sigma->0) =     -129.75562555


--------------------------------------------------------------------------------------------------------




----------------------------------------- Iteration    1(   7)  ---------------------------------------


    POTLOK:  VPU time    0.14: CPU time    0.14
    SETDIJ:  VPU time    0.15: CPU time    0.15
    EDDAV :  VPU time   37.11: CPU time   37.11
    DOS   :  VPU time    0.00: CPU time   -0.00
    CHARGE:  VPU time    1.39: CPU time    1.39
    MIXING:  VPU time    0.00: CPU time    0.00
    ------------------------------------------
      LOOP:  VPU time   38.81: CPU time   38.81

 eigenvalue-minimisations  :  9584
 total energy-change (2. order) : 0.1055850E+02  (-0.4825162E+01)
 number of electron  351.9999998 magnetization 
 augmentation part   230.1069284 magnetization 

 Broyden mixing:
  rms(total) = 0.27340E+00    rms(broyden)= 0.27333E+00
  rms(prec ) = 0.41591E+00
  weight for this iteration     100.00

 eigenvalues of (default mixing * dielectric matrix)
  average eigenvalue GAMMA=   1.2806
  1.9122  0.6490

 Free energy of the ion-electron system (eV)
  ---------------------------------------------------
  alpha Z        PSCENC =      3300.87172339
  Ewald energy   TEWEN  =    -34801.08958718
  -1/2 Hartree   DENC   =    -10160.35939899
  -V(xc)+E(xc)   XCENC  =      1372.33545007
  PAW double counting   =     34419.45045901   -38957.54686195
  entropy T*S    EENTRO =        -0.00102482
  eigenvalues    EBANDS =       195.88307240
  atomic energy  EATOM  =     44511.25856501
  ---------------------------------------------------
  free energy    TOTEN  =      -119.19760306 eV

  energy without entropy =     -119.19657824  energy(sigma->0) =     -119.19709065


--------------------------------------------------------------------------------------------------------




----------------------------------------- Iteration    1(   8)  ---------------------------------------


    POTLOK:  VPU time    0.11: CPU time    0.11
    SETDIJ:  VPU time    0.15: CPU time    0.15
    EDDAV :  VPU time   35.41: CPU time   35.42
    DOS   :  VPU time    0.00: CPU time   -0.00
    CHARGE:  VPU time    1.39: CPU time    1.39
    MIXING:  VPU time    0.00: CPU time    0.00
    ------------------------------------------
      LOOP:  VPU time   37.09: CPU time   37.10

 eigenvalue-minimisations  :  9032
 total energy-change (2. order) : 0.2101841E+00  (-0.7008286E-01)
 number of electron  351.9999998 magnetization 
 augmentation part   229.5902914 magnetization 

 Broyden mixing:
  rms(total) = 0.21816E+00    rms(broyden)= 0.21815E+00
  rms(prec ) = 0.32511E+00
  weight for this iteration     100.00

 eigenvalues of (default mixing * dielectric matrix)
  average eigenvalue GAMMA=   1.4051
  0.6807  0.9797  2.5549

 Free energy of the ion-electron system (eV)
  ---------------------------------------------------
  alpha Z        PSCENC =      3300.87172339
  Ewald energy   TEWEN  =    -34801.08958718
  -1/2 Hartree   DENC   =    -10087.30053752
  -V(xc)+E(xc)   XCENC  =      1369.08325824
  PAW double counting   =     34816.57464482   -39432.07651212
  entropy T*S    EENTRO =        -0.00084927
  eigenvalues    EBANDS =       203.69187573
  atomic energy  EATOM  =     44511.25856501
  ---------------------------------------------------
  free energy    TOTEN  =      -118.98741891 eV

  energy without entropy =     -118.98656964  energy(sigma->0) =     -118.98699428


--------------------------------------------------------------------------------------------------------




----------------------------------------- Iteration    1(   9)  ---------------------------------------


    POTLOK:  VPU time    0.12: CPU time    0.12
    SETDIJ:  VPU time    0.15: CPU time    0.15
    EDDAV :  VPU time   36.05: CPU time   36.04
    DOS   :  VPU time    0.00: CPU time   -0.00
    CHARGE:  VPU time    1.40: CPU time    1.40
    MIXING:  VPU time    0.00: CPU time    0.00
    ------------------------------------------
      LOOP:  VPU time   37.74: CPU time   37.74

 eigenvalue-minimisations  :  9232
 total energy-change (2. order) : 0.9212811E-01  (-0.2768524E-01)
 number of electron  351.9999998 magnetization 
 augmentation part   230.4352162 magnetization 

 Broyden mixing:
  rms(total) = 0.13938E-01    rms(broyden)= 0.13931E-01
  rms(prec ) = 0.19850E-01
  weight for this iteration     100.00

 eigenvalues of (default mixing * dielectric matrix)
  average eigenvalue GAMMA=   1.5438
  2.7310  0.6885  0.8834  1.8724

 Free energy of the ion-electron system (eV)
  ---------------------------------------------------
  alpha Z        PSCENC =      3300.87172339
  Ewald energy   TEWEN  =    -34801.08958718
  -1/2 Hartree   DENC   =    -10035.34833369
  -V(xc)+E(xc)   XCENC  =      1366.58667572
  PAW double counting   =     34908.75881687   -39535.68530424
  entropy T*S    EENTRO =        -0.00100084
  eigenvalues    EBANDS =       165.75315416
  atomic energy  EATOM  =     44511.25856501
  ---------------------------------------------------
  free energy    TOTEN  =      -118.89529080 eV

  energy without entropy =     -118.89428996  energy(sigma->0) =     -118.89479038


--------------------------------------------------------------------------------------------------------




----------------------------------------- Iteration    1(  10)  ---------------------------------------


    POTLOK:  VPU time    0.11: CPU time    0.11
    SETDIJ:  VPU time    0.15: CPU time    0.15
    EDDAV :  VPU time   35.54: CPU time   35.53
    DOS   :  VPU time    0.00: CPU time   -0.00
    CHARGE:  VPU time    1.40: CPU time    1.40
    MIXING:  VPU time    0.00: CPU time    0.00
    ------------------------------------------
      LOOP:  VPU time   37.22: CPU time   37.22

 eigenvalue-minimisations  :  9048
 total energy-change (2. order) :-0.6079304E-03  (-0.8524327E-03)
 number of electron  351.9999998 magnetization 
 augmentation part   230.3991313 magnetization 

 Broyden mixing:
  rms(total) = 0.42545E-02    rms(broyden)= 0.42543E-02
  rms(prec ) = 0.59160E-02
  weight for this iteration     100.00

 eigenvalues of (default mixing * dielectric matrix)
  average eigenvalue GAMMA=   1.5342
  2.5472  2.5472  0.6846  0.9461  0.9461

 Free energy of the ion-electron system (eV)
  ---------------------------------------------------
  alpha Z        PSCENC =      3300.87172339
  Ewald energy   TEWEN  =    -34801.08958718
  -1/2 Hartree   DENC   =    -10037.32747413
  -V(xc)+E(xc)   XCENC  =      1366.68503301
  PAW double counting   =     34918.89795786   -39545.74769723
  entropy T*S    EENTRO =        -0.00102427
  eigenvalues    EBANDS =       167.55660481
  atomic energy  EATOM  =     44511.25856501
  ---------------------------------------------------
  free energy    TOTEN  =      -118.89589873 eV

  energy without entropy =     -118.89487447  energy(sigma->0) =     -118.89538660


--------------------------------------------------------------------------------------------------------




----------------------------------------- Iteration    1(  11)  ---------------------------------------


    POTLOK:  VPU time    0.12: CPU time    0.12
    SETDIJ:  VPU time    0.15: CPU time    0.15
    EDDAV :  VPU time   36.31: CPU time   36.31
    DOS   :  VPU time    0.00: CPU time   -0.00
    CHARGE:  VPU time    1.40: CPU time    1.40
    MIXING:  VPU time    0.00: CPU time    0.00
    ------------------------------------------
      LOOP:  VPU time   38.00: CPU time   38.00

 eigenvalue-minimisations  :  9296
 total energy-change (2. order) : 0.5790810E-04  (-0.1411367E-04)
 number of electron  351.9999998 magnetization 
 augmentation part   230.3863576 magnetization 

 Broyden mixing:
  rms(total) = 0.11933E-02    rms(broyden)= 0.11932E-02
  rms(prec ) = 0.17704E-02
  weight for this iteration     100.00

 eigenvalues of (default mixing * dielectric matrix)
  average eigenvalue GAMMA=   1.4983
  2.6285  2.4303  0.6854  0.9246  1.1606  1.1606

 Free energy of the ion-electron system (eV)
  ---------------------------------------------------
  alpha Z        PSCENC =      3300.87172339
  Ewald energy   TEWEN  =    -34801.08958718
  -1/2 Hartree   DENC   =    -10038.82308295
  -V(xc)+E(xc)   XCENC  =      1366.75391070
  PAW double counting   =     34925.06739951   -39551.06123266
  entropy T*S    EENTRO =        -0.00102975
  eigenvalues    EBANDS =       168.12749311
  atomic energy  EATOM  =     44511.25856501
  ---------------------------------------------------
  free energy    TOTEN  =      -118.89584082 eV

  energy without entropy =     -118.89481108  energy(sigma->0) =     -118.89532595


--------------------------------------------------------------------------------------------------------




----------------------------------------- Iteration    1(  12)  ---------------------------------------


    POTLOK:  VPU time    0.11: CPU time    0.11
    SETDIJ:  VPU time    0.15: CPU time    0.15
    EDDAV :  VPU time   35.68: CPU time   35.68
    DOS   :  VPU time    0.00: CPU time   -0.00
    CHARGE:  VPU time    1.46: CPU time    1.46
    MIXING:  VPU time    0.00: CPU time    0.00
    ------------------------------------------
      LOOP:  VPU time   37.42: CPU time   37.43

 eigenvalue-minimisations  :  9024
 total energy-change (2. order) :-0.4182374E-04  (-0.7141427E-06)
 number of electron  351.9999998 magnetization 
 augmentation part   230.3894147 magnetization 

 Broyden mixing:
  rms(total) = 0.28653E-03    rms(broyden)= 0.28652E-03
  rms(prec ) = 0.44040E-03
  weight for this iteration     100.00

 eigenvalues of (default mixing * dielectric matrix)
  average eigenvalue GAMMA=   1.6566
  2.7200  2.6182  2.6182  0.6852  0.9454  1.0046  1.0046

 Free energy of the ion-electron system (eV)
  ---------------------------------------------------
  alpha Z        PSCENC =      3300.87172339
  Ewald energy   TEWEN  =    -34801.08958718
  -1/2 Hartree   DENC   =    -10038.29779984
  -V(xc)+E(xc)   XCENC  =      1366.72914640
  PAW double counting   =     34927.20992518   -39553.54815113
  entropy T*S    EENTRO =        -0.00102804
  eigenvalues    EBANDS =       167.97132356
  atomic energy  EATOM  =     44511.25856501
  ---------------------------------------------------
  free energy    TOTEN  =      -118.89588265 eV

  energy without entropy =     -118.89485461  energy(sigma->0) =     -118.89536863


--------------------------------------------------------------------------------------------------------




----------------------------------------- Iteration    1(  13)  ---------------------------------------


    POTLOK:  VPU time    0.12: CPU time    0.12
    SETDIJ:  VPU time    0.15: CPU time    0.15
    EDDAV :  VPU time   37.00: CPU time   37.00
    DOS   :  VPU time    0.00: CPU time   -0.00
    CHARGE:  VPU time    1.44: CPU time    1.44
    MIXING:  VPU time    0.00: CPU time    0.00
    ------------------------------------------
      LOOP:  VPU time   38.73: CPU time   38.73

 eigenvalue-minimisations  :  9480
 total energy-change (2. order) :-0.3693283E-05  (-0.5340354E-07)
 number of electron  351.9999998 magnetization 
 augmentation part   230.3883099 magnetization 

 Broyden mixing:
  rms(total) = 0.55357E-04    rms(broyden)= 0.55343E-04
  rms(prec ) = 0.66315E-04
  weight for this iteration     100.00

 eigenvalues of (default mixing * dielectric matrix)
  average eigenvalue GAMMA=   1.5834
  2.7082  2.5731  2.5731  0.6852  1.2167  0.9580  0.9764  0.9764

 Free energy of the ion-electron system (eV)
  ---------------------------------------------------
  alpha Z        PSCENC =      3300.87172339
  Ewald energy   TEWEN  =    -34801.08958718
  -1/2 Hartree   DENC   =    -10038.36520211
  -V(xc)+E(xc)   XCENC  =      1366.73192913
  PAW double counting   =     34927.56285311   -39553.89235501
  entropy T*S    EENTRO =        -0.00102868
  eigenvalues    EBANDS =       168.02721601
  atomic energy  EATOM  =     44511.25856501
  ---------------------------------------------------
  free energy    TOTEN  =      -118.89588634 eV

  energy without entropy =     -118.89485766  energy(sigma->0) =     -118.89537200


--------------------------------------------------------------------------------------------------------




----------------------------------------- Iteration    1(  14)  ---------------------------------------


    POTLOK:  VPU time    0.12: CPU time    0.12
    SETDIJ:  VPU time    0.15: CPU time    0.15
    EDDAV :  VPU time   29.96: CPU time   29.96
    DOS   :  VPU time    0.00: CPU time   -0.00
    CHARGE:  VPU time    1.38: CPU time    1.38
    MIXING:  VPU time    0.00: CPU time    0.00
    ------------------------------------------
      LOOP:  VPU time   31.64: CPU time   31.64

 eigenvalue-minimisations  :  7136
 total energy-change (2. order) : 0.2988672E-06  (-0.4089382E-08)
 number of electron  351.9999998 magnetization 
 augmentation part   230.3884813 magnetization 

 Broyden mixing:
  rms(total) = 0.11376E-04    rms(broyden)= 0.11375E-04
  rms(prec ) = 0.16172E-04
  weight for this iteration     100.00

 eigenvalues of (default mixing * dielectric matrix)
  average eigenvalue GAMMA=   1.6700
  2.7560  2.6244  2.6244  2.4231  0.6852  1.0203  1.0203  0.9381  0.9381

 Free energy of the ion-electron system (eV)
  ---------------------------------------------------
  alpha Z        PSCENC =      3300.87172339
  Ewald energy   TEWEN  =    -34801.08958718
  -1/2 Hartree   DENC   =    -10038.37929393
  -V(xc)+E(xc)   XCENC  =      1366.73243252
  PAW double counting   =     34927.59879006   -39553.91006793
  entropy T*S    EENTRO =        -0.00102859
  eigenvalues    EBANDS =       168.02258062
  atomic energy  EATOM  =     44511.25856501
  ---------------------------------------------------
  free energy    TOTEN  =      -118.89588604 eV

  energy without entropy =     -118.89485745  energy(sigma->0) =     -118.89537175


--------------------------------------------------------------------------------------------------------




----------------------------------------- Iteration    1(  15)  ---------------------------------------


    POTLOK:  VPU time    0.11: CPU time    0.11
    SETDIJ:  VPU time    0.15: CPU time    0.15
    EDDAV :  VPU time   23.06: CPU time   23.06
    DOS   :  VPU time    0.00: CPU time   -0.00
    CHARGE:  VPU time    1.38: CPU time    1.38
    MIXING:  VPU time    0.00: CPU time    0.00
    ------------------------------------------
      LOOP:  VPU time   24.73: CPU time   24.73

 eigenvalue-minimisations  :  4800
 total energy-change (2. order) : 0.2343659E-06  (-0.8969536E-10)
 number of electron  351.9999998 magnetization 
 augmentation part   230.3884909 magnetization 

 Broyden mixing:
  rms(total) = 0.68868E-05    rms(broyden)= 0.68867E-05
  rms(prec ) = 0.10302E-04
  weight for this iteration     100.00

 eigenvalues of (default mixing * dielectric matrix)
  average eigenvalue GAMMA=   1.6075
  2.8199  2.5501  2.5501  2.5244  0.6852  1.0904  0.9896  0.9896  0.9380  0.9380

 Free energy of the ion-electron system (eV)
  ---------------------------------------------------
  alpha Z        PSCENC =      3300.87172339
  Ewald energy   TEWEN  =    -34801.08958718
  -1/2 Hartree   DENC   =    -10038.37832059
  -V(xc)+E(xc)   XCENC  =      1366.73238929
  PAW double counting   =     34927.57456137   -39553.88627853
  entropy T*S    EENTRO =        -0.00102859
  eigenvalues    EBANDS =       168.02209002
  atomic energy  EATOM  =     44511.25856501
  ---------------------------------------------------
  free energy    TOTEN  =      -118.89588581 eV

  energy without entropy =     -118.89485722  energy(sigma->0) =     -118.89537151


--------------------------------------------------------------------------------------------------------




----------------------------------------- Iteration    1(  16)  ---------------------------------------


    POTLOK:  VPU time    0.11: CPU time    0.11
    SETDIJ:  VPU time    0.15: CPU time    0.15
    EDDAV :  VPU time   23.09: CPU time   23.09
    DOS   :  VPU time    0.00: CPU time   -0.00
    CHARGE:  VPU time    1.41: CPU time    1.41
    MIXING:  VPU time    0.00: CPU time    0.00
    ------------------------------------------
      LOOP:  VPU time   24.80: CPU time   24.80

 eigenvalue-minimisations  :  4800
 total energy-change (2. order) : 0.6754271E-07  (-0.1790653E-10)
 number of electron  351.9999998 magnetization 
 augmentation part   230.3885164 magnetization 

 Broyden mixing:
  rms(total) = 0.22708E-05    rms(broyden)= 0.22706E-05
  rms(prec ) = 0.31846E-05
  weight for this iteration     100.00

 eigenvalues of (default mixing * dielectric matrix)
  average eigenvalue GAMMA=   1.6387
  2.7468  2.5401  2.5401  2.2957  2.2957  0.6852  1.0368  1.0368  0.9484  0.9484
  0.9518

 Free energy of the ion-electron system (eV)
  ---------------------------------------------------
  alpha Z        PSCENC =      3300.87172339
  Ewald energy   TEWEN  =    -34801.08958718
  -1/2 Hartree   DENC   =    -10038.37598476
  -V(xc)+E(xc)   XCENC  =      1366.73228774
  PAW double counting   =     34927.56624199   -39553.87887491
  entropy T*S    EENTRO =        -0.00102857
  eigenvalues    EBANDS =       168.02077156
  atomic energy  EATOM  =     44511.25856501
  ---------------------------------------------------
  free energy    TOTEN  =      -118.89588574 eV

  energy without entropy =     -118.89485717  energy(sigma->0) =     -118.89537145


--------------------------------------------------------------------------------------------------------




----------------------------------------- Iteration    1(  17)  ---------------------------------------


    POTLOK:  VPU time    0.11: CPU time    0.11
    SETDIJ:  VPU time    0.15: CPU time    0.15
    EDDAV :  VPU time   23.17: CPU time   23.17
    DOS   :  VPU time    0.00: CPU time   -0.00
    ------------------------------------------
      LOOP:  VPU time   23.45: CPU time   23.45

 eigenvalue-minimisations  :  4824
 total energy-change (2. order) :-0.4227331E-08  (-0.5342619E-11)
 number of electron  351.9999998 magnetization 
 augmentation part   230.3885164 magnetization 

 Free energy of the ion-electron system (eV)
  ---------------------------------------------------
  alpha Z        PSCENC =      3300.87172339
  Ewald energy   TEWEN  =    -34801.08958718
  -1/2 Hartree   DENC   =    -10038.37606236
  -V(xc)+E(xc)   XCENC  =      1366.73229159
  PAW double counting   =     34927.56664053   -39553.87928029
  entropy T*S    EENTRO =        -0.00102857
  eigenvalues    EBANDS =       168.02085215
  atomic energy  EATOM  =     44511.25856501
  ---------------------------------------------------
  free energy    TOTEN  =      -118.89588574 eV

  energy without entropy =     -118.89485717  energy(sigma->0) =     -118.89537146


--------------------------------------------------------------------------------------------------------




 average (electrostatic) potential at core
  the test charge radii are     1.0053
  (the norm of the test charge is              1.0000)
       1 -40.2238       2 -40.2238       3 -40.2238       4 -40.2238       5 -40.2238
       6 -40.2238       7 -40.2238       8 -40.2238       9 -40.2238      10 -40.2238
      11 -40.2238      12 -40.2238      13 -40.2238      14 -40.2238      15 -40.2238
      16 -40.2238      17 -40.2238      18 -40.2238      19 -40.2238      20 -40.2238
      21 -40.2238      22 -40.2238      23 -40.2238      24 -40.2238      25 -40.2238
      26 -40.2238      27 -40.2238      28 -40.2238      29 -40.2238      30 -40.2238
      31 -40.2238      32 -40.2238
 
 
 
 E-fermi :   3.3888     XC(G=0): -12.5245     alpha+bet : -9.1833
   add alpha+bet to get absolut eigen values

 k-point   1 :       0.0000    0.0000    0.0000
  band No.  band energies     occupation 
      1      -5.5990      2.00000
      2      -2.9171      2.00000
      3      -2.9171      2.00000
      4      -2.9171      2.00000
      5      -2.9171      2.00000
      6      -2.9171      2.00000
      7      -2.9171      2.00000
      8      -1.4392      2.00000
      9      -1.4392      2.00000
     10      -1.4392      2.00000
     11      -1.4392      2.00000
     12      -1.2307      2.00000
     13      -1.2307      2.00000
     14      -1.2307      2.00000
     15      -1.0819      2.00000
     16      -1.0819      2.00000
     17      -1.0819      2.00000
     18      -1.0819      2.00000
     19      -1.0819      2.00000
     20      -1.0819      2.00000
     21      -1.0819      2.00000
     22      -1.0819      2.00000
     23      -1.0819      2.00000
     24      -1.0819      2.00000
     25      -1.0819      2.00000
     26      -1.0819      2.00000
     27      -0.8085      2.00000
     28      -0.8085      2.00000
     29      -0.8085      2.00000
     30      -0.5341      2.00000
     31      -0.5341      2.00000
     32      -0.5341      2.00000
     33      -0.5341      2.00000
     34      -0.5341      2.00000
     35      -0.5341      2.00000
     36      -0.1786      2.00000
     37      -0.1786      2.00000
     38      -0.1786      2.00000
     39      -0.1786      2.00000
     40      -0.1786      2.00000
     41      -0.1786      2.00000
     42       0.0214      2.00000
     43       0.0214      2.00000
     44       0.0214      2.00000
     45       0.0214      2.00000
     46       0.0214      2.00000
     47       0.0214      2.00000
     48       0.0214      2.00000
     49       0.0214      2.00000
     50       0.0214      2.00000
     51       0.0214      2.00000
     52       0.0214      2.00000
     53       0.0214      2.00000
     54       0.0237      2.00000
     55       0.0237      2.00000
     56       0.0237      2.00000
     57       0.0237      2.00000
     58       0.0237      2.00000
     59       0.0237      2.00000
     60       0.0237      2.00000
     61       0.0237      2.00000
     62       0.0237      2.00000
     63       0.0237      2.00000
     64       0.0237      2.00000
     65       0.0237      2.00000
     66       0.2201      2.00000
     67       0.2201      2.00000
     68       0.2201      2.00000
     69       0.2201      2.00000
     70       0.2201      2.00000
     71       0.2201      2.00000
     72       0.2201      2.00000
     73       0.2201      2.00000
     74       0.2201      2.00000
     75       0.2201      2.00000
     76       0.2201      2.00000
     77       0.2201      2.00000
     78       0.4567      2.00000
     79       0.4567      2.00000
     80       0.4567      2.00000
     81       0.4567      2.00000
     82       0.4567      2.00000
     83       0.4567      2.00000
     84       0.4567      2.00000
     85       0.4567      2.00000
     86       0.4828      2.00000
     87       0.4828      2.00000
     88       0.4828      2.00000
     89       0.8343      2.00000
     90       0.8343      2.00000
     91       0.8343      2.00000
     92       0.8343      2.00000
     93       0.8343      2.00000
     94       0.8343      2.00000
     95       0.9536      2.00000
     96       0.9536      2.00000
     97       0.9536      2.00000
     98       0.9536      2.00000
     99       0.9536      2.00000
    100       0.9536      2.00000
    101       0.9536      2.00000
    102       0.9536      2.00000
    103       0.9536      2.00000
    104       0.9536      2.00000
    105       0.9536      2.00000
    106       0.9536      2.00000
    107       1.0982      2.00000
    108       1.0982      2.00000
    109       1.0982      2.00000
    110       1.0982      2.00000
    111       1.0982      2.00000
    112       1.0982      2.00000
    113       1.0982      2.00000
    114       1.0982      2.00000
    115       1.0982      2.00000
    116       1.0982      2.00000
    117       1.0982      2.00000
    118       1.0982      2.00000
    119       1.2172      2.00000
    120       1.2172      2.00000
    121       1.2172      2.00000
    122       1.2172      2.00000
    123       1.2172      2.00000
    124       1.2172      2.00000
    125       1.2467      2.00000
    126       1.2467      2.00000
    127       1.2467      2.00000
    128       1.2467      2.00000
    129       1.2467      2.00000
    130       1.2467      2.00000
    131       1.2467      2.00000
    132       1.2467      2.00000
    133       1.2467      2.00000
    134       1.2467      2.00000
    135       1.2467      2.00000
    136       1.2467      2.00000
    137       1.2517      2.00000
    138       1.2517      2.00000
    139       1.5046      2.00000
    140       1.5046      2.00000
    141       1.5046      2.00000
    142       1.5046      2.00000
    143       1.5046      2.00000
    144       1.5046      2.00000
    145       1.7627      2.00000
    146       1.7627      2.00000
    147       1.7627      2.00000
    148       1.7759      2.00000
    149       1.7759      2.00000
    150       1.7759      2.00000
    151       1.7759      2.00000
    152       1.7759      2.00000
    153       1.7759      2.00000
    154       1.7759      2.00000
    155       1.7759      2.00000
    156       1.9058      2.00000
    157       1.9058      2.00000
    158       1.9058      2.00000
    159       1.9058      2.00000
    160       1.9058      2.00000
    161       1.9058      2.00000
    162       1.9065      2.00000
    163       1.9065      2.00000
    164       1.9065      2.00000
    165       1.9065      2.00000
    166       1.9065      2.00000
    167       1.9065      2.00000
    168       2.5337      2.00000
    169       2.5337      2.00000
    170       2.5337      2.00000
    171       2.5337      2.00000
    172       3.0458      2.00000
    173       3.0458      2.00000
    174       3.0458      2.00000
    175       3.0458      2.00000
    176       3.0458      2.00000
    177       3.0458      2.00000
    178       3.0458      2.00000
    179       3.0458      2.00000
    180       3.0458      2.00000
    181       3.0458      2.00000
    182       3.0458      2.00000
    183       3.0458      2.00000
    184       4.9390      0.00000
    185       4.9390      0.00000
    186       4.9390      0.00000
    187       6.9101      0.00000
    188       6.9101      0.00000
    189       6.9101      0.00000
    190       6.9101      0.00000
    191       9.4306      0.00000
    192       9.4306      0.00000
    193       9.4306      0.00000
    194       9.4306      0.00000
    195       9.4306      0.00000
    196       9.4306      0.00000
    197       9.4306      0.00000
    198       9.4306      0.00000
    199       9.4306      0.00000
    200       9.4306      0.00000
    201       9.4306      0.00000
    202       9.4306      0.00000
    203      10.1839      0.00000
    204      10.1839      0.00000
    205      10.1839      0.00000
    206      11.4842      0.00000
    207      11.4842      0.00000
    208      11.4842      0.00000
    209      11.4842      0.00000
    210      11.4842      0.00000
    211      11.4842      0.00000
    212      11.7989      0.00000
    213      11.7989      0.00000
    214      11.7989      0.00000
    215      11.7989      0.00000
    216      11.7989      0.00000

 k-point   2 :       0.1429    0.0000    0.0000
  band No.  band energies     occupation 
      1      -5.5390      2.00000
      2      -3.5594      2.00000
      3      -2.8682      2.00000
      4      -2.8682      2.00000
      5      -2.8682      2.00000
      6      -2.8682      2.00000
      7      -2.2859      2.00000
      8      -1.4416      2.00000
      9      -1.4416      2.00000
     10      -1.4416      2.00000
     11      -1.4416      2.00000
     12      -1.4262      2.00000
     13      -1.4262      2.00000
     14      -1.4262      2.00000
     15      -1.4262      2.00000
     16      -1.2316      2.00000
     17      -1.2032      2.00000
     18      -1.2032      2.00000
     19      -1.1083      2.00000
     20      -1.1083      2.00000
     21      -1.1083      2.00000
     22      -1.1083      2.00000
     23      -0.7931      2.00000
     24      -0.7922      2.00000
     25      -0.7922      2.00000
     26      -0.7768      2.00000
     27      -0.7768      2.00000
     28      -0.7768      2.00000
     29      -0.7768      2.00000
     30      -0.5800      2.00000
     31      -0.5800      2.00000
     32      -0.5130      2.00000
     33      -0.5130      2.00000
     34      -0.5130      2.00000
     35      -0.5130      2.00000
     36      -0.3214      2.00000
     37      -0.2036      2.00000
     38      -0.2036      2.00000
     39      -0.1719      2.00000
     40      -0.1719      2.00000
     41      -0.1719      2.00000
     42      -0.1719      2.00000
     43      -0.0342      2.00000
     44      -0.0056      2.00000
     45      -0.0056      2.00000
     46      -0.0056      2.00000
     47      -0.0056      2.00000
     48      -0.0014      2.00000
     49      -0.0014      2.00000
     50      -0.0014      2.00000
     51      -0.0014      2.00000
     52       0.0236      2.00000
     53       0.0236      2.00000
     54       0.0236      2.00000
     55       0.0236      2.00000
     56       0.0414      2.00000
     57       0.0414      2.00000
     58       0.0414      2.00000
     59       0.0414      2.00000
     60       0.0878      2.00000
     61       0.0878      2.00000
     62       0.0878      2.00000
     63       0.0878      2.00000
     64       0.0996      2.00000
     65       0.0996      2.00000
     66       0.0996      2.00000
     67       0.0996      2.00000
     68       0.2334      2.00000
     69       0.2334      2.00000
     70       0.2334      2.00000
     71       0.2334      2.00000
     72       0.2823      2.00000
     73       0.2823      2.00000
     74       0.3067      2.00000
     75       0.3067      2.00000
     76       0.3067      2.00000
     77       0.3067      2.00000
     78       0.4461      2.00000
     79       0.4461      2.00000
     80       0.4461      2.00000
     81       0.4461      2.00000
     82       0.4658      2.00000
     83       0.4717      2.00000
     84       0.4717      2.00000
     85       0.4717      2.00000
     86       0.4717      2.00000
     87       0.4965      2.00000
     88       0.4965      2.00000
     89       0.7632      2.00000
     90       0.7632      2.00000
     91       0.7632      2.00000
     92       0.7632      2.00000
     93       0.8608      2.00000
     94       0.8962      2.00000
     95       0.8962      2.00000
     96       0.8962      2.00000
     97       0.8962      2.00000
     98       0.9243      2.00000
     99       0.9479      2.00000
    100       0.9479      2.00000
    101       0.9645      2.00000
    102       0.9645      2.00000
    103       0.9645      2.00000
    104       0.9645      2.00000
    105       1.0032      2.00000
    106       1.0032      2.00000
    107       1.0032      2.00000
    108       1.0032      2.00000
    109       1.0981      2.00000
    110       1.0981      2.00000
    111       1.0981      2.00000
    112       1.0981      2.00000
    113       1.1557      2.00000
    114       1.1557      2.00000
    115       1.1557      2.00000
    116       1.1557      2.00000
    117       1.1794      2.00000
    118       1.1794      2.00000
    119       1.1794      2.00000
    120       1.1794      2.00000
    121       1.2173      2.00000
    122       1.2173      2.00000
    123       1.2173      2.00000
    124       1.2173      2.00000
    125       1.2363      2.00000
    126       1.2557      2.00000
    127       1.2557      2.00000
    128       1.2578      2.00000
    129       1.2578      2.00000
    130       1.2579      2.00000
    131       1.3057      2.00000
    132       1.3057      2.00000
    133       1.3057      2.00000
    134       1.3057      2.00000
    135       1.3394      2.00000
    136       1.3394      2.00000
    137       1.3394      2.00000
    138       1.3394      2.00000
    139       1.4479      2.00000
    140       1.5240      2.00000
    141       1.5240      2.00000
    142       1.5240      2.00000
    143       1.5240      2.00000
    144       1.5616      2.00000
    145       1.6015      2.00000
    146       1.6015      2.00000
    147       1.6015      2.00000
    148       1.6015      2.00000
    149       1.7428      2.00000
    150       1.7428      2.00000
    151       1.7561      2.00000
    152       1.7594      2.00000
    153       1.7594      2.00000
    154       1.7594      2.00000
    155       1.7594      2.00000
    156       1.8060      2.00000
    157       1.8060      2.00000
    158       1.8811      2.00000
    159       1.8811      2.00000
    160       1.8811      2.00000
    161       1.8811      2.00000
    162       1.8822      2.00000
    163       1.8822      2.00000
    164       1.9059      2.00000
    165       1.9059      2.00000
    166       1.9065      2.00000
    167       1.9065      2.00000
    168       2.6209      2.00000
    169       2.6209      2.00000
    170       2.6209      2.00000
    171       2.6209      2.00000
    172       2.6366      2.00000
    173       2.6366      2.00000
    174       2.6366      2.00000
    175       2.6366      2.00000
    176       3.0401      2.00000
    177       3.0401      2.00000
    178       3.0401      2.00000
    179       3.0401      2.00000
    180       3.6040      0.00000
    181       3.6040      0.00000
    182       3.6040      0.00000
    183       3.6040      0.00000
    184       4.5432      0.00000
    185       5.0929      0.00000
    186       5.0929      0.00000
    187       7.0873      0.00000
    188       7.0873      0.00000
    189       7.0873      0.00000
    190       7.0873      0.00000
    191       8.4874      0.00000
    192       8.4874      0.00000
    193       8.6778      0.00000
    194       8.6778      0.00000
    195       8.6778      0.00000
    196       8.6778      0.00000
    197       9.5110      0.00000
    198       9.5110      0.00000
    199       9.5110      0.00000
    200       9.5110      0.00000
    201      10.2073      0.00000
    202      10.2073      0.00000
    203      10.4336      0.00000
    204      10.4336      0.00000
    205      10.7008      0.00000
    206      11.1776      0.00000
    207      11.1776      0.00000
    208      11.6795      0.00000
    209      11.6795      0.00000
    210      11.6795      0.00000
    211      11.6795      0.00000
    212      11.8323      0.00000
    213      11.8323      0.00000
    214      11.8323      0.00000
    215      11.8324      0.00000
    216      12.0016      0.00000

 k-point   3 :       0.2857    0.0000    0.0000
  band No.  band energies     occupation 
      1      -5.3598      2.00000
      2      -4.1506      2.00000
      3      -2.7235      2.00000
      4      -2.7235      2.00000
      5      -2.7235      2.00000
      6      -2.7235      2.00000
      7      -1.8219      2.00000
      8      -1.8219      2.00000
      9      -1.8219      2.00000
     10      -1.8219      2.00000
     11      -1.7659      2.00000
     12      -1.3881      2.00000
     13      -1.3881      2.00000
     14      -1.3881      2.00000
     15      -1.3881      2.00000
     16      -1.2426      2.00000
     17      -1.1737      2.00000
     18      -1.1737      2.00000
     19      -1.1737      2.00000
     20      -1.1737      2.00000
     21      -1.1238      2.00000
     22      -1.1238      2.00000
     23      -0.7475      2.00000
     24      -0.7432      2.00000
     25      -0.7432      2.00000
     26      -0.6988      2.00000
     27      -0.6988      2.00000
     28      -0.5400      2.00000
     29      -0.5400      2.00000
     30      -0.5400      2.00000
     31      -0.5400      2.00000
     32      -0.4557      2.00000
     33      -0.4531      2.00000
     34      -0.4531      2.00000
     35      -0.4531      2.00000
     36      -0.4531      2.00000
     37      -0.3919      2.00000
     38      -0.3919      2.00000
     39      -0.1524      2.00000
     40      -0.1524      2.00000
     41      -0.1524      2.00000
     42      -0.1524      2.00000
     43      -0.0654      2.00000
     44      -0.0654      2.00000
     45      -0.0654      2.00000
     46      -0.0654      2.00000
     47      -0.0433      2.00000
     48      -0.0433      2.00000
     49      -0.0433      2.00000
     50      -0.0433      2.00000
     51      -0.0397      2.00000
     52      -0.0397      2.00000
     53      -0.0397      2.00000
     54      -0.0397      2.00000
     55       0.0298      2.00000
     56       0.0298      2.00000
     57       0.0298      2.00000
     58       0.0298      2.00000
     59       0.0477      2.00000
     60       0.0477      2.00000
     61       0.0477      2.00000
     62       0.0477      2.00000
     63       0.1044      2.00000
     64       0.2573      2.00000
     65       0.2573      2.00000
     66       0.2573      2.00000
     67       0.2573      2.00000
     68       0.2795      2.00000
     69       0.2795      2.00000
     70       0.2795      2.00000
     71       0.2795      2.00000
     72       0.3716      2.00000
     73       0.3716      2.00000
     74       0.3716      2.00000
     75       0.3716      2.00000
     76       0.4156      2.00000
     77       0.4156      2.00000
     78       0.4156      2.00000
     79       0.4156      2.00000
     80       0.4159      2.00000
     81       0.5157      2.00000
     82       0.5157      2.00000
     83       0.5157      2.00000
     84       0.5157      2.00000
     85       0.5375      2.00000
     86       0.5375      2.00000
     87       0.5768      2.00000
     88       0.5768      2.00000
     89       0.6425      2.00000
     90       0.6425      2.00000
     91       0.6425      2.00000
     92       0.6425      2.00000
     93       0.7881      2.00000
     94       0.7881      2.00000
     95       0.7881      2.00000
     96       0.7881      2.00000
     97       0.8128      2.00000
     98       0.8128      2.00000
     99       0.9390      2.00000
    100       1.0293      2.00000
    101       1.0293      2.00000
    102       1.0293      2.00000
    103       1.0293      2.00000
    104       1.0811      2.00000
    105       1.0811      2.00000
    106       1.0811      2.00000
    107       1.0811      2.00000
    108       1.0985      2.00000
    109       1.0985      2.00000
    110       1.0985      2.00000
    111       1.0985      2.00000
    112       1.1365      2.00000
    113       1.1365      2.00000
    114       1.1365      2.00000
    115       1.1365      2.00000
    116       1.1913      2.00000
    117       1.2072      2.00000
    118       1.2072      2.00000
    119       1.2072      2.00000
    120       1.2072      2.00000
    121       1.2132      2.00000
    122       1.2132      2.00000
    123       1.2132      2.00000
    124       1.2132      2.00000
    125       1.2309      2.00000
    126       1.2511      2.00000
    127       1.2511      2.00000
    128       1.2511      2.00000
    129       1.2511      2.00000
    130       1.2765      2.00000
    131       1.3537      2.00000
    132       1.3537      2.00000
    133       1.3942      2.00000
    134       1.4182      2.00000
    135       1.4182      2.00000
    136       1.4182      2.00000
    137       1.4182      2.00000
    138       1.4188      2.00000
    139       1.4188      2.00000
    140       1.4535      2.00000
    141       1.4535      2.00000
    142       1.4535      2.00000
    143       1.4535      2.00000
    144       1.5547      2.00000
    145       1.5547      2.00000
    146       1.6123      2.00000
    147       1.6123      2.00000
    148       1.6123      2.00000
    149       1.6123      2.00000
    150       1.6159      2.00000
    151       1.6844      2.00000
    152       1.6844      2.00000
    153       1.7109      2.00000
    154       1.7109      2.00000
    155       1.7109      2.00000
    156       1.7109      2.00000
    157       1.7369      2.00000
    158       1.8094      2.00000
    159       1.8094      2.00000
    160       1.8094      2.00000
    161       1.8094      2.00000
    162       1.8139      2.00000
    163       1.8139      2.00000
    164       1.9060      2.00000
    165       1.9060      2.00000
    166       1.9064      2.00000
    167       1.9064      2.00000
    168       2.2879      2.00000
    169       2.2879      2.00000
    170       2.2879      2.00000
    171       2.2879      2.00000
    172       2.7955      2.00000
    173       2.7955      2.00000
    174       2.7955      2.00000
    175       2.7955      2.00000
    176       3.0210      2.00000
    177       3.0210      2.00000
    178       3.0210      2.00000
    179       3.0210      2.00000
    180       3.6622      0.00000
    181       4.3279      0.00000
    182       4.3279      0.00000
    183       4.3279      0.00000
    184       4.3279      0.00000
    185       5.5065      0.00000
    186       5.5065      0.00000
    187       7.4604      0.00000
    188       7.4604      0.00000
    189       7.4604      0.00000
    190       7.4604      0.00000
    191       7.5957      0.00000
    192       7.5957      0.00000
    193       7.5957      0.00000
    194       7.5957      0.00000
    195       7.6102      0.00000
    196       7.6102      0.00000
    197       9.7479      0.00000
    198       9.7479      0.00000
    199       9.7479      0.00000
    200       9.7479      0.00000
    201      10.2793      0.00000
    202      10.2793      0.00000
    203      10.5500      0.00000
    204      10.5500      0.00000
    205      10.5500      0.00000
    206      10.5500      0.00000
    207      10.8461      0.00000
    208      10.8461      0.00000
    209      11.2702      0.00000
    210      11.2702      0.00000
    211      11.2702      0.00000
    212      11.2702      0.00000
    213      11.4899      0.00000
    214      11.4899      0.00000
    215      11.8310      0.00000
    216      11.8310      0.00000

 k-point   4 :       0.4286    0.0000    0.0000
  band No.  band energies     occupation 
      1      -5.0643      2.00000
      2      -4.6580      2.00000
      3      -2.4905      2.00000
      4      -2.4905      2.00000
      5      -2.4905      2.00000
      6      -2.4905      2.00000
      7      -2.1825      2.00000
      8      -2.1825      2.00000
      9      -2.1825      2.00000
     10      -2.1825      2.00000
     11      -1.4414      2.00000
     12      -1.3283      2.00000
     13      -1.3283      2.00000
     14      -1.3283      2.00000
     15      -1.3283      2.00000
     16      -1.2930      2.00000
     17      -1.2532      2.00000
     18      -1.2532      2.00000
     19      -1.2532      2.00000
     20      -1.2532      2.00000
     21      -1.0010      2.00000
     22      -1.0010      2.00000
     23      -0.8510      2.00000
     24      -0.8510      2.00000
     25      -0.6737      2.00000
     26      -0.6607      2.00000
     27      -0.6607      2.00000
     28      -0.5749      2.00000
     29      -0.5440      2.00000
     30      -0.5440      2.00000
     31      -0.3772      2.00000
     32      -0.3772      2.00000
     33      -0.3772      2.00000
     34      -0.3772      2.00000
     35      -0.3708      2.00000
     36      -0.3708      2.00000
     37      -0.3708      2.00000
     38      -0.3708      2.00000
     39      -0.1616      2.00000
     40      -0.1616      2.00000
     41      -0.1616      2.00000
     42      -0.1616      2.00000
     43      -0.1537      2.00000
     44      -0.1537      2.00000
     45      -0.1537      2.00000
     46      -0.1537      2.00000
     47      -0.1220      2.00000
     48      -0.1220      2.00000
     49      -0.1220      2.00000
     50      -0.1220      2.00000
     51      -0.0841      2.00000
     52      -0.0841      2.00000
     53      -0.0841      2.00000
     54      -0.0841      2.00000
     55       0.0380      2.00000
     56       0.0380      2.00000
     57       0.0380      2.00000
     58       0.0380      2.00000
     59       0.0453      2.00000
     60       0.0453      2.00000
     61       0.0453      2.00000
     62       0.0453      2.00000
     63       0.2300      2.00000
     64       0.3172      2.00000
[...]
     72       0.4624      2.00000
     73       0.4624      2.00000
     74       0.4921      2.00000
     75       0.4921      2.00000
     76       0.4921      2.00000
     77       0.5330      2.00000
     78       0.5330      2.00000
     79       0.5330      2.00000
     80       0.5330      2.00000
     81       0.5330      2.00000
     82       0.5330      2.00000
     83       0.5432      2.00000
     84       0.5432      2.00000
     85       0.5432      2.00000
     86       0.6066      2.00000
     87       0.6066      2.00000
     88       0.6219      2.00000
     89       0.6219      2.00000
     90       0.6219      2.00000
     91       0.6366      2.00000
     92       0.6366      2.00000
     93       0.6370      2.00000
     94       0.6370      2.00000
     95       0.6370      2.00000
     96       0.6371      2.00000
     97       0.6371      2.00000
     98       0.6371      2.00000
     99       0.6469      2.00000
    100       0.6469      2.00000
    101       0.6469      2.00000
    102       0.6781      2.00000
    103       0.6781      2.00000
    104       0.6781      2.00000
    105       0.9347      2.00000
    106       0.9347      2.00000
    107       0.9347      2.00000
    108       1.0375      2.00000
    109       1.0375      2.00000
    110       1.0375      2.00000
    111       1.0375      2.00000
    112       1.0375      2.00000
    113       1.0375      2.00000
    114       1.0499      2.00000
    115       1.0499      2.00000
    116       1.0499      2.00000
    117       1.1149      2.00000
    118       1.1149      2.00000
    119       1.1149      2.00000
    120       1.1520      2.00000
    121       1.1520      2.00000
    122       1.1520      2.00000
    123       1.1520      2.00000
    124       1.1520      2.00000
    125       1.1520      2.00000
    126       1.2327      2.00000
    127       1.2327      2.00000
    128       1.2327      2.00000
    129       1.2558      2.00000
    130       1.2558      2.00000
    131       1.2558      2.00000
    132       1.2682      2.00000
    133       1.2682      2.00000
    134       1.2892      2.00000
    135       1.2892      2.00000
    136       1.2892      2.00000
    137       1.3654      2.00000
    138       1.3654      2.00000
    139       1.3654      2.00000
    140       1.4085      2.00000
    141       1.4085      2.00000
    142       1.4316      2.00000
    143       1.4316      2.00000
    144       1.4316      2.00000
    145       1.7841      2.00000
    146       1.7841      2.00000
    147       1.7841      2.00000
    148       1.7980      2.00000
    149       1.7980      2.00000
    150       1.7980      2.00000
    151       1.7980      2.00000
    152       1.7980      2.00000
    153       1.7980      2.00000
    154       1.7994      2.00000
    155       1.7994      2.00000
    156       1.7994      2.00000
    157       1.7994      2.00000
    158       1.7994      2.00000
    159       1.7994      2.00000
    160       1.8043      2.00000
    161       1.8043      2.00000
    162       1.8043      2.00000
    163       1.8137      2.00000
    164       1.8137      2.00000
    165       1.8137      2.00000
    166       1.8225      2.00000
    167       1.8225      2.00000
    168       1.8225      2.00000
    169       3.4740      0.00000
    170       3.4740      0.00000
    171       3.4740      0.00000
    172       3.8379      0.00000
    173       3.8379      0.00000
    174       3.8379      0.00000
    175       3.8379      0.00000
    176       3.8379      0.00000
    177       3.8379      0.00000
    178       4.1262      0.00000
    179       4.1262      0.00000
    180       4.1262      0.00000
    181       4.4150      0.00000
    182       4.4150      0.00000
    183       4.4150      0.00000
    184       4.8381      0.00000
    185       4.8381      0.00000
    186       4.8381      0.00000
    187       4.8381      0.00000
    188       4.8381      0.00000
    189       4.8381      0.00000
    190       5.1765      0.00000
    191       5.1765      0.00000
    192       5.1765      0.00000
    193       8.6447      0.00000
    194       8.6447      0.00000
    195       8.6447      0.00000
    196       9.0749      0.00000
    197       9.0749      0.00000
    198       9.0749      0.00000
    199       9.6906      0.00000
    200       9.6906      0.00000
    201       9.6906      0.00000
    202       9.6906      0.00000
    203       9.6906      0.00000
    204       9.6906      0.00000
    205      10.1415      0.00000
    206      10.1415      0.00000
    207      10.1415      0.00000
    208      10.1415      0.00000
    209      10.1415      0.00000
    210      10.1415      0.00000
    211      10.7788      0.00000
    212      10.7788      0.00000
    213      10.7788      0.00000
    214      11.2377      0.00000
    215      11.2377      0.00000
    216      11.2377      0.00000


--------------------------------------------------------------------------------------------------------


 soft charge-density along one line, spin component           1
         0         1         2         3         4         5         6         7         8         9
 total charge-density along one line
 
 pseudopotential strength for first ion, spin component:           1
 -6.643   0.000  -0.000   0.000   0.000  -0.164  -0.000   0.000
  0.000  -6.643  -0.000   0.000  -0.000  -0.000  -0.164   0.000
 -0.000  -0.000  -6.626  -0.000   0.000   0.000   0.000  -0.172
  0.000   0.000  -0.000  -6.643   0.000  -0.000  -0.000   0.000
  0.000  -0.000   0.000   0.000  -6.626  -0.000   0.000  -0.000
 -0.164  -0.000   0.000  -0.000  -0.000   1.642   0.000  -0.000
 -0.000  -0.164   0.000  -0.000   0.000   0.000   1.642  -0.000
  0.000   0.000  -0.172   0.000  -0.000  -0.000  -0.000   1.645
 -0.000  -0.000   0.000  -0.164  -0.000   0.000   0.000  -0.000
 -0.000   0.000  -0.000  -0.000  -0.172   0.000  -0.000   0.000
 -0.000  -0.000  -0.000  -0.000   0.000  -0.000  -0.000  -0.000
  0.000   0.000   0.000   0.000  -0.000  -0.000  -0.000  -0.000
 -0.000  -0.000  -0.000   0.000  -0.000   0.000   0.000   0.000
  0.000   0.000  -0.000  -0.000  -0.000   0.000  -0.000   0.000
  0.000   0.000   0.000  -0.000  -0.000  -0.000   0.000  -0.000
  0.000   0.000   0.000  -0.000   0.000  -0.000  -0.000  -0.000
 -0.000  -0.000   0.000   0.000   0.000   0.000   0.000  -0.000
 -0.000  -0.000  -0.000   0.000   0.000   0.000   0.000   0.000
 total augmentation occupancy for first ion, spin component:           1
  1.898  -0.001  -0.004   0.000   0.001  -0.019   0.000   0.002  -0.000  -0.001   0.009   0.001  -0.000  -0.000   0.000  -0.000
 -0.001   1.907  -0.002  -0.001  -0.001   0.000  -0.028   0.002   0.001  -0.000   0.002  -0.001  -0.000  -0.000   0.000  -0.000
 -0.004  -0.002   1.922  -0.001   0.004   0.002   0.002  -0.068   0.001  -0.002   0.020   0.003   0.000  -0.000  -0.000   0.000
  0.000  -0.001  -0.001   1.906   0.002  -0.000   0.001   0.001  -0.023  -0.001   0.005   0.000  -0.000  -0.000   0.000  -0.000
  0.001  -0.001   0.004   0.002   1.905  -0.001  -0.000  -0.002  -0.001  -0.055  -0.008  -0.002  -0.000  -0.000  -0.000  -0.000
 -0.019   0.000   0.002  -0.000  -0.001   0.069  -0.000   0.000   0.000   0.000  -0.003   0.000  -0.000  -0.000   0.000  -0.000
  0.000  -0.028   0.002   0.001  -0.000  -0.000   0.076  -0.002  -0.000   0.002   0.002   0.001   0.000  -0.000  -0.000  -0.000
  0.002   0.002  -0.068   0.001  -0.002   0.000  -0.002   0.069  -0.001  -0.000  -0.011   0.000  -0.000  -0.000  -0.000   0.000
 -0.000   0.001   0.001  -0.023  -0.001   0.000  -0.000  -0.001   0.069  -0.000  -0.001   0.000  -0.000  -0.000  -0.000  -0.000
 -0.001  -0.000  -0.002  -0.001  -0.055   0.000   0.002  -0.000  -0.000   0.065   0.006   0.000  -0.000  -0.000   0.000  -0.000
  0.009   0.002   0.020   0.005  -0.008  -0.003   0.002  -0.011  -0.001   0.006   1.176  -0.336   0.000  -0.000   0.000   0.000
  0.001  -0.001   0.003   0.000  -0.002   0.000   0.001   0.000   0.000   0.000  -0.336   0.139  -0.000  -0.000   0.000  -0.000
 -0.000  -0.000   0.000  -0.000  -0.000  -0.000   0.000  -0.000  -0.000  -0.000   0.000  -0.000   0.176  -0.003   0.001  -0.012
 -0.000  -0.000  -0.000  -0.000  -0.000  -0.000  -0.000  -0.000  -0.000  -0.000  -0.000  -0.000  -0.003   0.180   0.000  -0.000
  0.000   0.000  -0.000   0.000  -0.000   0.000  -0.000  -0.000  -0.000   0.000   0.000   0.000   0.001   0.000   0.177  -0.000
 -0.000  -0.000   0.000  -0.000  -0.000  -0.000  -0.000   0.000  -0.000  -0.000   0.000  -0.000  -0.012  -0.000  -0.000   0.001
 -0.000  -0.000  -0.000   0.000   0.000  -0.000  -0.000   0.000   0.000   0.000   0.000   0.000  -0.000  -0.012  -0.000   0.000
  0.000   0.000  -0.000   0.000  -0.000   0.000   0.000  -0.000   0.000  -0.000  -0.000   0.000  -0.000  -0.000  -0.012   0.000


------------------------ aborting loop because EDIFF is reached ----------------------------------------




--------------------------------------------------------------------------------------------------------


    CHARGE:  VPU time    1.42: CPU time    1.42
    FORLOC:  VPU time    0.02: CPU time    0.02
    FORNL :  VPU time   17.09: CPU time   17.09
    STRESS:  VPU time   28.96: CPU time   28.96
    FORCOR:  VPU time    0.13: CPU time    0.13
    FORHAR:  VPU time    0.05: CPU time    0.05
    MIXING:  VPU time    0.00: CPU time    0.00


--------------------------------------------------------------------------------------------------------



  FREE ENERGIE OF THE ION-ELECTRON SYSTEM (eV)
  ---------------------------------------------------
  free  energy   TOTEN  =      -118.895886 eV

  energy  without entropy=     -118.894857  energy(sigma->0) =     -118.895371
 

  FORCE on cell =-STRESS in cart. coord.  units (eV/reduce length):
  Direction    X        Y        Z        XY       YZ       ZX
  --------------------------------------------------------------------------------------
  Alpha Z   3300.87   3300.87   3300.87
  Ewald   -11600.41 -11600.41 -11600.41      0.00      0.00      0.00
  Hartree   3346.13   3346.13   3346.13     -0.00     -0.00     -0.00
  E(xc)    -2002.52  -2002.52  -2002.52      0.00     -0.00     -0.00
  Local     3812.37   3812.37   3812.37     -0.00      0.00      0.00
  n-local  -1185.51  -1182.06  -1176.38      2.33     -0.35      1.10
  augment   1808.05   1808.05   1808.05     -0.00     -0.00     -0.00
  Kinetic   2504.03   2505.68   2512.29      0.63     -3.59     -0.34
  -------------------------------------------------------------------------------------
  Total       -9.50     -9.50     -9.50     -0.00     -0.00     -0.00
  in kB      -38.40    -38.40    -38.40     -0.00     -0.00     -0.00
  external pressure =      -38.40 kB  Pullay stress =        0.00 kB


 VOLUME and BASIS-vectors are now :
 -----------------------------------------------------------------------------
  energy-cutoff  :      500.00
  volume of cell :      396.35
      direct lattice vectors                 reciprocal lattice vectors
     7.345559940  0.000000000  0.000000000     0.136136661  0.000000000  0.000000000
     0.000000000  7.345559940  0.000000000     0.000000000  0.136136661  0.000000000
     0.000000000  0.000000000  7.345559940     0.000000000  0.000000000  0.136136661

  length of vectors
     7.345559940  7.345559940  7.345559940     0.136136661  0.136136661  0.136136661


 FORCES acting on ions
    electron-ion (+dipol)            ewald-force                    non-local-force                 convergence-correction
 -----------------------------------------------------------------------------------------------
   -.193E-12 -.196E-12 -.161E-12   0.614E-12 0.799E-13 0.542E-13   0.178E-25 -.549E-25 -.196E-25   0.152E-12 0.721E-13 -.143E-12
   0.969E-12 -.173E-12 0.415E-11   0.573E-12 0.915E-13 0.346E-13   -.800E-25 -.124E-24 0.112E-24   -.851E-13 0.990E-13 -.149E-12
   -.194E-12 0.963E-12 -.162E-12   0.625E-12 0.112E-12 -.622E-13   -.162E-24 0.646E-26 -.122E-24   0.156E-12 0.184E-14 -.214E-12
   0.974E-12 -.466E-11 0.315E-11   0.561E-12 0.790E-13 -.782E-13   0.496E-25 -.210E-25 0.283E-25   -.909E-13 0.194E-13 -.225E-12
   -.193E-12 -.196E-12 0.101E-11   0.617E-12 0.115E-12 -.506E-13   0.210E-25 -.816E-25 -.719E-25   0.147E-12 0.481E-13 -.759E-13
   0.970E-12 -.191E-12 -.506E-11   0.555E-12 0.148E-12 -.346E-13   0.364E-25 0.994E-25 0.113E-24   -.800E-13 0.716E-13 -.947E-13
   -.194E-12 0.964E-12 0.100E-11   0.625E-12 0.147E-12 -.471E-13   0.242E-25 0.155E-24 -.107E-24   0.150E-12 0.322E-13 -.133E-12
   0.974E-12 -.450E-11 -.467E-11   0.590E-12 0.790E-13 -.355E-13   -.177E-25 -.234E-25 -.331E-25   -.794E-13 0.494E-13 -.144E-12
   0.402E-12 -.242E-11 0.148E-11   -.231E-13 0.997E-13 0.835E-13   -.676E-25 0.183E-24 0.112E-24   -.254E-13 -.106E-12 -.178E-12
   0.153E-11 0.438E-12 -.712E-11   -.533E-14 0.953E-13 0.338E-13   -.668E-25 0.646E-25 0.127E-24   0.797E-13 -.111E-12 -.162E-12
   0.395E-12 0.435E-11 0.147E-11   -.346E-13 0.732E-13 0.711E-14   -.118E-24 0.202E-25 -.202E-25   -.147E-13 0.112E-12 -.140E-12
   0.153E-11 0.180E-10 -.594E-11   0.346E-13 0.142E-12 0.711E-14   0.113E-24 -.630E-25 -.212E-24   0.826E-13 0.983E-13 -.141E-12
   0.402E-12 0.318E-11 0.251E-11   -.693E-13 0.107E-12 -.941E-13   0.792E-25 -.137E-25 -.428E-25   -.318E-13 -.777E-13 -.114E-12
   0.153E-11 0.115E-10 -.253E-11   -.178E-14 0.669E-13 -.373E-13   -.258E-25 0.323E-26 0.537E-25   0.917E-13 -.761E-13 -.863E-13
   0.399E-12 -.119E-11 0.284E-11   -.346E-13 0.803E-13 -.711E-14   0.145E-25 0.743E-25 0.997E-26   -.300E-13 0.812E-13 -.760E-13
   0.153E-11 0.711E-11 -.350E-11   0.346E-13 0.113E-12 0.497E-13   0.162E-25 -.986E-25 -.775E-25   0.977E-13 0.667E-13 -.787E-13
   0.415E-12 -.211E-12 -.257E-11   -.160E-13 -.130E-12 -.606E-13   -.485E-26 0.226E-25 -.351E-25   -.386E-13 0.940E-13 -.402E-12
   0.151E-11 -.177E-12 -.102E-10   0.302E-13 -.888E-14 -.447E-13   -.123E-24 0.380E-25 0.108E-24   0.952E-13 0.122E-13 -.386E-12
   0.380E-12 0.853E-12 0.303E-11   -.231E-13 -.101E-12 -.642E-13   -.155E-24 -.171E-24 -.551E-25   -.152E-13 -.102E-13 -.425E-12
   0.155E-11 0.384E-11 0.112E-11   0.551E-13 -.101E-12 -.457E-13   -.279E-25 0.436E-25 0.171E-24   0.670E-13 0.508E-13 -.396E-12
   0.415E-12 -.216E-12 0.411E-11   -.346E-13 -.107E-12 0.456E-13   0.101E-24 -.194E-25 0.614E-25   -.424E-13 0.887E-13 0.185E-12
   0.151E-11 -.173E-12 0.125E-10   0.346E-13 -.506E-13 0.330E-13   0.703E-25 0.163E-24 -.432E-25   0.100E-12 0.202E-13 0.190E-12
   0.382E-12 0.123E-11 -.157E-11   -.346E-13 -.915E-13 0.490E-13   0.517E-25 0.108E-24 0.250E-25   -.185E-13 -.571E-14 0.113E-12
   0.155E-11 0.342E-11 0.103E-12   0.346E-13 -.148E-12 0.338E-13   0.632E-25 0.488E-25 -.492E-25   0.719E-13 0.439E-13 0.109E-12
   -.212E-12 0.412E-12 0.479E-12   -.585E-12 -.964E-13 -.812E-13   -.112E-24 0.242E-26 0.242E-24   0.185E-12 -.989E-13 -.438E-12
   0.993E-12 -.532E-11 -.984E-12   -.628E-12 -.160E-12 -.324E-13   0.808E-25 0.727E-25 0.118E-24   -.127E-12 -.755E-13 -.455E-12
   -.177E-12 0.151E-11 0.479E-12   -.571E-12 -.129E-12 -.488E-14   -.230E-25 0.106E-24 0.731E-25   0.126E-12 0.112E-12 -.385E-12
   0.959E-12 -.494E-11 -.458E-12   -.590E-12 -.722E-13 -.588E-14   0.100E-24 -.150E-24 -.725E-25   -.422E-13 0.942E-13 -.424E-12
   -.213E-12 0.411E-12 0.151E-11   -.567E-12 -.117E-12 0.103E-12   0.291E-25 0.233E-24 0.242E-26   0.175E-12 -.940E-13 0.133E-12
   0.994E-12 -.385E-11 -.169E-11   -.634E-12 -.174E-12 0.471E-13   -.303E-26 -.323E-26 0.569E-25   -.133E-12 -.697E-13 0.132E-12
   -.177E-12 0.151E-11 0.151E-11   -.561E-12 -.137E-12 0.160E-13   0.117E-24 -.557E-25 -.479E-25   0.125E-12 0.963E-13 0.127E-12
   0.961E-12 0.558E-11 0.978E-11   -.599E-12 -.805E-13 -.401E-13   -.238E-25 0.444E-25 -.945E-25   -.431E-13 0.887E-13 0.117E-12
 -----------------------------------------------------------------------------------------------
   0.216E-10 0.369E-10 0.569E-11   -.281E-13 -.762E-13 -.229E-12   -.252E-25 0.608E-24 0.310E-24   0.100E-11 0.728E-12 -.436E-11
 
 
 POSITION                                       TOTAL-FORCE (eV/Angst)
 -----------------------------------------------------------------------------------
      0.00000      0.00000      0.00000         0.000000      0.000000     -0.000000
      3.67278      0.00000      0.00000        -0.000000      0.000000     -0.000000
      0.00000      3.67278      0.00000         0.000000     -0.000000     -0.000000
      3.67278      3.67278      0.00000         0.000000      0.000000     -0.000000
      0.00000      0.00000      3.67278        -0.000000      0.000000      0.000000
      3.67278      0.00000      3.67278         0.000000     -0.000000     -0.000000
      0.00000      3.67278      3.67278        -0.000000     -0.000000      0.000000
      3.67278      3.67278      3.67278        -0.000000      0.000000     -0.000000
      1.83639      1.83639      0.00000         0.000000     -0.000000     -0.000000
      5.50917      1.83639      0.00000         0.000000      0.000000     -0.000000
      1.83639      5.50917      0.00000        -0.000000     -0.000000     -0.000000
      5.50917      5.50917      0.00000        -0.000000      0.000000     -0.000000
      1.83639      1.83639      3.67278         0.000000      0.000000      0.000000
      5.50917      1.83639      3.67278         0.000000     -0.000000      0.000000
      1.83639      5.50917      3.67278         0.000000      0.000000      0.000000
      5.50917      5.50917      3.67278        -0.000000     -0.000000      0.000000
      1.83639      0.00000      1.83639        -0.000000      0.000000     -0.000000
      5.50917      0.00000      1.83639        -0.000000     -0.000000      0.000000
      1.83639      3.67278      1.83639        -0.000000      0.000000     -0.000000
      5.50917      3.67278      1.83639         0.000000      0.000000     -0.000000
      1.83639      0.00000      5.50917        -0.000000      0.000000     -0.000000
      5.50917      0.00000      5.50917        -0.000000      0.000000     -0.000000
      1.83639      3.67278      5.50917         0.000000      0.000000     -0.000000
      5.50917      3.67278      5.50917         0.000000     -0.000000     -0.000000
      0.00000      1.83639      1.83639        -0.000000      0.000000      0.000000
      3.67278      1.83639      1.83639         0.000000      0.000000      0.000000
      0.00000      5.50917      1.83639         0.000000      0.000000      0.000000
      3.67278      5.50917      1.83639        -0.000000      0.000000      0.000000
      0.00000      1.83639      5.50917         0.000000     -0.000000     -0.000000
      3.67278      1.83639      5.50917        -0.000000     -0.000000     -0.000000
      0.00000      5.50917      5.50917         0.000000     -0.000000     -0.000000
      3.67278      5.50917      5.50917         0.000000      0.000000     -0.000000
 -----------------------------------------------------------------------------------
    total drift:                                0.000000      0.000000      0.000000


--------------------------------------------------------------------------------------------------------



 mean value of Nose-termostat <S>:     1.000 mean value of <T> :     0.000
 mean temperature <T/S>/<1/S>  :     0.000

     LOOP+:  VPU time  620.70: CPU time  620.74
  
  
 General timing and accounting informations for this job:
 ========================================================
  
                  Total CPU time used (sec):      631.786
                            User time (sec):      594.125
                          System time (sec):       37.661
                         Elapsed time (sec):      631.833
  
                   Maximum memory used (kb):     1187192.
                   Average memory used (kb):           0.
  
                          Minor page faults:       200339
                          Major page faults:            0
                 Voluntary context switches:          918
