 running on    8 nodes
 distr:  one band on    1 nodes,    8 groups
 vasp.4.6.28 25Jul05 complex 
 POSCAR found :  1 types and    4 ions
 LDA part: xc-table for Pade appr. of Perdew
 generate k-points for:  14  14  14
 POSCAR, INCAR and KPOINTS ok, starting setup
 FFT: planning ...           1
 reading WAVECAR
 WARNING: random wavefunctions but no delay for mixing, default for NELMDL
 entering main loop
       N       E                     dE             d eps       ncg     rms          rms(c)
DAV:   1     0.276876476322E+03    0.27688E+03   -0.20247E+04  7960   0.207E+03
DAV:   2     0.283836652346E+00   -0.27659E+03   -0.26190E+03  7720   0.353E+02
DAV:   3    -0.181354629457E+02   -0.18419E+02   -0.18039E+02  8608   0.114E+02
DAV:   4    -0.183365710641E+02   -0.20111E+00   -0.20101E+00  8368   0.136E+01
DAV:   5    -0.183369359324E+02   -0.36487E-03   -0.36487E-03  8664   0.535E-01    0.139E+01
DAV:   6    -0.161873354658E+02    0.21496E+01   -0.23768E+01  8368   0.783E+01    0.635E+00
DAV:   7    -0.149256429782E+02    0.12617E+01   -0.44572E+00  8680   0.330E+01    0.116E+00
DAV:   8    -0.148878254689E+02    0.37818E-01   -0.36248E-02  8272   0.155E+00    0.652E-01
DAV:   9    -0.148792637959E+02    0.85617E-02   -0.12832E-02  8936   0.183E+00    0.195E-02
DAV:  10    -0.148793463488E+02   -0.82553E-04   -0.54163E-04  8184   0.161E-01    0.127E-02
DAV:  11    -0.148793435712E+02    0.27776E-05   -0.19740E-05  9072   0.587E-02    0.646E-03
DAV:  12    -0.148793479457E+02   -0.43745E-05   -0.10031E-06  8768   0.172E-02    0.109E-03
DAV:  13    -0.148793483746E+02   -0.42884E-06   -0.33893E-08  7640   0.257E-03    0.526E-04
DAV:  14    -0.148793484942E+02   -0.11961E-06   -0.60172E-09  4808   0.128E-03    0.402E-05
DAV:  15    -0.148793484573E+02    0.36885E-07   -0.13249E-09  4544   0.263E-04    0.166E-05
DAV:  16    -0.148793484613E+02   -0.40027E-08   -0.80343E-11  4352   0.783E-05
   1 F= -.14879348E+02 E0= -.14879283E+02  d E =-.148793E+02
 curvature:   0.00 expect dE= 0.000E+00 dE for cont linesearch  0.000E+00
 trial: gam= 0.00000 g(F)=  0.568E-59 g(S)=  0.327E-08 ort = 0.000E+00 (trialstep = 0.100E+01)
 search vector abs. value=  0.337E-08
 reached required accuracy - stopping structural energy minimisation
