   4   4   0   0
  0.2134601E+02  0.4403442E-09  0.4403442E-09  0.4403442E-09  0.5000000E-15
  1.000000000000000E-004
  CAR 
 unknown system                          
     15.76364084     -4.85111499  301      5.53024226      1.00000000
     -4.851  0.0000E+00  0.0000E+00
     -4.782  0.0000E+00  0.0000E+00
     -4.714  0.0000E+00  0.0000E+00
     -4.645  0.0000E+00  0.0000E+00
     -4.576  0.0000E+00  0.0000E+00
     -4.508  0.0000E+00  0.0000E+00
     -4.439  0.0000E+00  0.0000E+00
     -4.370  0.0000E+00  0.0000E+00
     -4.301  0.0000E+00  0.0000E+00
     -4.233  0.0000E+00  0.0000E+00
     -4.164  0.0000E+00  0.0000E+00
     -4.095  0.0000E+00  0.0000E+00
     -4.027  0.0000E+00  0.0000E+00
     -3.958  0.1991E-12  0.1368E-13
     -3.889  0.2313E-01  0.1589E-02
     -3.820  0.1400E+00  0.1122E-01
     -3.752  0.2173E+00  0.2627E-01
     -3.683  0.2574E+00  0.4398E-01
     -3.614  0.3063E+00  0.6506E-01
     -3.546  0.3464E+00  0.8897E-01
     -3.477  0.3858E+00  0.1155E+00
     -3.408  0.4062E+00  0.1434E+00
     -3.339  0.4134E+00  0.1719E+00
     -3.271  0.5100E+00  0.2070E+00
     -3.202  0.4663E+00  0.2391E+00
     -3.133  0.5452E+00  0.2765E+00
     -3.065  0.4762E+00  0.3095E+00
     -2.996  0.6373E+00  0.3533E+00
     -2.927  0.5371E+00  0.3903E+00
     -2.858  0.6204E+00  0.4331E+00
     -2.790  0.6081E+00  0.4751E+00
     -2.721  0.6606E+00  0.5206E+00
     -2.652  0.6770E+00  0.5672E+00
     -2.583  0.6684E+00  0.6132E+00
     -2.515  0.7355E+00  0.6640E+00
     -2.446  0.7401E+00  0.7149E+00
     -2.377  0.7025E+00  0.7633E+00
     -2.309  0.7806E+00  0.8170E+00
     -2.240  0.7356E+00  0.8676E+00
     -2.171  0.8324E+00  0.9248E+00
     -2.102  0.8116E+00  0.9806E+00
     -2.034  0.7455E+00  0.1032E+01
     -1.965  0.8992E+00  0.1094E+01
     -1.896  0.8843E+00  0.1155E+01
     -1.828  0.8397E+00  0.1212E+01
     -1.759  0.8046E+00  0.1268E+01
     -1.690  0.1010E+01  0.1337E+01
     -1.621  0.8441E+00  0.1396E+01
     -1.553  0.9292E+00  0.1460E+01
     -1.484  0.9570E+00  0.1526E+01
     -1.415  0.9877E+00  0.1594E+01
     -1.347  0.8838E+00  0.1655E+01
     -1.278  0.1015E+01  0.1725E+01
     -1.209  0.1025E+01  0.1796E+01
     -1.140  0.9789E+00  0.1863E+01
     -1.072  0.9821E+00  0.1931E+01
     -1.003  0.1065E+01  0.2004E+01
     -0.934  0.1057E+01  0.2078E+01
     -0.866  0.1030E+01  0.2149E+01
     -0.797  0.1066E+01  0.2223E+01
     -0.728  0.1103E+01  0.2299E+01
     -0.659  0.1100E+01  0.2375E+01
     -0.591  0.1137E+01  0.2453E+01
     -0.522  0.1011E+01  0.2522E+01
     -0.453  0.1261E+01  0.2609E+01
     -0.385  0.1083E+01  0.2684E+01
     -0.316  0.1099E+01  0.2759E+01
     -0.247  0.1272E+01  0.2847E+01
     -0.178  0.1096E+01  0.2922E+01
     -0.110  0.1251E+01  0.3008E+01
     -0.041  0.1270E+01  0.3096E+01
      0.028  0.1110E+01  0.3172E+01
      0.096  0.1263E+01  0.3259E+01
      0.165  0.1269E+01  0.3347E+01
      0.234  0.1249E+01  0.3433E+01
      0.303  0.1137E+01  0.3511E+01
      0.371  0.1356E+01  0.3605E+01
      0.440  0.1346E+01  0.3697E+01
      0.509  0.1237E+01  0.3782E+01
      0.577  0.1308E+01  0.3872E+01
      0.646  0.1251E+01  0.3958E+01
      0.715  0.1326E+01  0.4050E+01
      0.784  0.1521E+01  0.4154E+01
      0.852  0.1277E+01  0.4242E+01
      0.921  0.1268E+01  0.4330E+01
      0.990  0.1369E+01  0.4424E+01
      1.058  0.1509E+01  0.4527E+01
      1.127  0.1406E+01  0.4624E+01
      1.196  0.1353E+01  0.4717E+01
      1.265  0.1379E+01  0.4812E+01
      1.333  0.1509E+01  0.4916E+01
      1.402  0.1458E+01  0.5016E+01
      1.471  0.1507E+01  0.5120E+01
      1.539  0.1576E+01  0.5229E+01
      1.608  0.1429E+01  0.5328E+01
      1.677  0.1478E+01  0.5430E+01
      1.746  0.1492E+01  0.5532E+01
      1.814  0.1591E+01  0.5642E+01
      1.883  0.1256E+01  0.5729E+01
      1.952  0.1383E+01  0.5824E+01
      2.020  0.1469E+01  0.5925E+01
      2.089  0.1420E+01  0.6024E+01
      2.158  0.1522E+01  0.6129E+01
      2.227  0.1497E+01  0.6232E+01
      2.295  0.1595E+01  0.6341E+01
      2.364  0.1402E+01  0.6438E+01
      2.433  0.1597E+01  0.6548E+01
      2.501  0.1675E+01  0.6663E+01
      2.570  0.1485E+01  0.6766E+01
      2.639  0.1585E+01  0.6875E+01
      2.708  0.1498E+01  0.6978E+01
      2.776  0.1663E+01  0.7092E+01
      2.845  0.1851E+01  0.7220E+01
      2.914  0.1306E+01  0.7310E+01
      2.982  0.1758E+01  0.7431E+01
      3.051  0.1640E+01  0.7544E+01
      3.120  0.1801E+01  0.7668E+01
      3.189  0.1683E+01  0.7784E+01
      3.257  0.1555E+01  0.7891E+01
      3.326  0.1964E+01  0.8027E+01
      3.395  0.1710E+01  0.8144E+01
      3.464  0.1743E+01  0.8264E+01
      3.532  0.1640E+01  0.8378E+01
      3.601  0.1747E+01  0.8498E+01
      3.670  0.1779E+01  0.8620E+01
      3.738  0.1554E+01  0.8727E+01
      3.807  0.1738E+01  0.8847E+01
      3.876  0.1732E+01  0.8966E+01
      3.945  0.1519E+01  0.9071E+01
      4.013  0.1782E+01  0.9193E+01
      4.082  0.1758E+01  0.9315E+01
      4.151  0.1640E+01  0.9428E+01
      4.219  0.1835E+01  0.9554E+01
      4.288  0.1804E+01  0.9679E+01
      4.357  0.1817E+01  0.9804E+01
      4.426  0.1719E+01  0.9922E+01
      4.494  0.1883E+01  0.1005E+02
      4.563  0.2042E+01  0.1019E+02
      4.632  0.1855E+01  0.1032E+02
      4.700  0.1884E+01  0.1045E+02
      4.769  0.1930E+01  0.1058E+02
      4.838  0.1633E+01  0.1070E+02
      4.907  0.1716E+01  0.1081E+02
      4.975  0.1962E+01  0.1095E+02
      5.044  0.1836E+01  0.1107E+02
      5.113  0.1867E+01  0.1120E+02
      5.181  0.1815E+01  0.1133E+02
      5.250  0.1796E+01  0.1145E+02
      5.319  0.1882E+01  0.1158E+02
      5.388  0.1827E+01  0.1171E+02
      5.456  0.2129E+01  0.1185E+02
      5.525  0.1918E+01  0.1199E+02
      5.594  0.1941E+01  0.1212E+02
      5.662  0.1944E+01  0.1225E+02
      5.731  0.1728E+01  0.1237E+02
      5.800  0.2333E+01  0.1253E+02
      5.869  0.1950E+01  0.1267E+02
      5.937  0.1865E+01  0.1280E+02
      6.006  0.1873E+01  0.1293E+02
      6.075  0.2210E+01  0.1308E+02
      6.143  0.1975E+01  0.1321E+02
      6.212  0.1971E+01  0.1335E+02
      6.281  0.1984E+01  0.1349E+02
      6.350  0.1946E+01  0.1362E+02
      6.418  0.2052E+01  0.1376E+02
      6.487  0.2040E+01  0.1390E+02
      6.556  0.2218E+01  0.1406E+02
      6.624  0.1989E+01  0.1419E+02
      6.693  0.1862E+01  0.1432E+02
      6.762  0.1961E+01  0.1446E+02
      6.831  0.2314E+01  0.1461E+02
      6.899  0.2310E+01  0.1477E+02
      6.968  0.2031E+01  0.1491E+02
      7.037  0.1947E+01  0.1505E+02
      7.105  0.2068E+01  0.1519E+02
      7.174  0.2011E+01  0.1533E+02
      7.243  0.2311E+01  0.1549E+02
      7.312  0.2277E+01  0.1564E+02
      7.380  0.2058E+01  0.1579E+02
      7.449  0.2280E+01  0.1594E+02
      7.518  0.2110E+01  0.1609E+02
      7.586  0.1930E+01  0.1622E+02
      7.655  0.2143E+01  0.1637E+02
      7.724  0.2338E+01  0.1653E+02
      7.793  0.2515E+01  0.1670E+02
      7.861  0.2157E+01  0.1685E+02
      7.930  0.2018E+01  0.1699E+02
      7.999  0.2108E+01  0.1714E+02
      8.067  0.2341E+01  0.1730E+02
      8.136  0.2287E+01  0.1746E+02
      8.205  0.2418E+01  0.1762E+02
      8.274  0.2210E+01  0.1777E+02
      8.342  0.2303E+01  0.1793E+02
      8.411  0.2082E+01  0.1808E+02
      8.480  0.2409E+01  0.1824E+02
      8.548  0.2315E+01  0.1840E+02
      8.617  0.2309E+01  0.1856E+02
      8.686  0.2291E+01  0.1872E+02
      8.755  0.2369E+01  0.1888E+02
      8.823  0.2402E+01  0.1905E+02
      8.892  0.2217E+01  0.1920E+02
      8.961  0.2663E+01  0.1938E+02
      9.029  0.2063E+01  0.1953E+02
      9.098  0.2496E+01  0.1970E+02
      9.167  0.2498E+01  0.1987E+02
      9.236  0.2367E+01  0.2003E+02
      9.304  0.2364E+01  0.2020E+02
      9.373  0.2442E+01  0.2036E+02
      9.442  0.2660E+01  0.2055E+02
      9.510  0.2466E+01  0.2072E+02
      9.579  0.2230E+01  0.2087E+02
      9.648  0.2780E+01  0.2106E+02
      9.717  0.2395E+01  0.2123E+02
      9.785  0.2633E+01  0.2141E+02
      9.854  0.2591E+01  0.2159E+02
      9.923  0.2518E+01  0.2176E+02
      9.992  0.2796E+01  0.2195E+02
     10.060  0.2644E+01  0.2213E+02
     10.129  0.2574E+01  0.2231E+02
     10.198  0.3053E+01  0.2252E+02
     10.266  0.2808E+01  0.2272E+02
     10.335  0.2830E+01  0.2291E+02
     10.404  0.2631E+01  0.2309E+02
     10.473  0.2828E+01  0.2329E+02
     10.541  0.2648E+01  0.2347E+02
     10.610  0.2696E+01  0.2365E+02
     10.679  0.2581E+01  0.2383E+02
     10.747  0.2474E+01  0.2400E+02
     10.816  0.2843E+01  0.2420E+02
     10.885  0.2399E+01  0.2436E+02
     10.954  0.2492E+01  0.2454E+02
     11.022  0.2586E+01  0.2471E+02
     11.091  0.2541E+01  0.2489E+02
     11.160  0.2400E+01  0.2506E+02
     11.228  0.2356E+01  0.2522E+02
     11.297  0.2341E+01  0.2538E+02
     11.366  0.2664E+01  0.2556E+02
     11.435  0.2356E+01  0.2573E+02
     11.503  0.2317E+01  0.2588E+02
     11.572  0.2482E+01  0.2606E+02
     11.641  0.2320E+01  0.2622E+02
     11.709  0.2489E+01  0.2639E+02
     11.778  0.2328E+01  0.2655E+02
     11.847  0.2134E+01  0.2669E+02
     11.916  0.2633E+01  0.2688E+02
     11.984  0.2613E+01  0.2706E+02
     12.053  0.2007E+01  0.2719E+02
     12.122  0.2677E+01  0.2738E+02
     12.190  0.2432E+01  0.2755E+02
     12.259  0.2331E+01  0.2771E+02
     12.328  0.2389E+01  0.2787E+02
     12.397  0.2404E+01  0.2804E+02
     12.465  0.2233E+01  0.2819E+02
     12.534  0.2612E+01  0.2837E+02
     12.603  0.2550E+01  0.2855E+02
     12.671  0.2247E+01  0.2870E+02
     12.740  0.2289E+01  0.2886E+02
     12.809  0.2358E+01  0.2902E+02
     12.878  0.2424E+01  0.2919E+02
     12.946  0.2346E+01  0.2935E+02
     13.015  0.2098E+01  0.2949E+02
     13.084  0.2472E+01  0.2966E+02
     13.152  0.2275E+01  0.2982E+02
     13.221  0.2541E+01  0.3000E+02
     13.290  0.1855E+01  0.3012E+02
     13.359  0.2026E+01  0.3026E+02
     13.427  0.2157E+01  0.3041E+02
     13.496  0.1521E+01  0.3052E+02
     13.565  0.2139E+01  0.3066E+02
     13.633  0.1740E+01  0.3078E+02
     13.702  0.1592E+01  0.3089E+02
     13.771  0.1185E+01  0.3098E+02
     13.840  0.1759E+01  0.3110E+02
     13.908  0.1402E+01  0.3119E+02
     13.977  0.1372E+01  0.3129E+02
     14.046  0.1197E+01  0.3137E+02
     14.114  0.1228E+01  0.3146E+02
     14.183  0.1008E+01  0.3152E+02
     14.252  0.1170E+01  0.3161E+02
     14.321  0.1210E+01  0.3169E+02
     14.389  0.1141E+01  0.3177E+02
     14.458  0.7803E+00  0.3182E+02
     14.527  0.8177E+00  0.3188E+02
     14.595  0.9175E+00  0.3194E+02
     14.664  0.4975E+00  0.3197E+02
     14.733  0.2108E+00  0.3199E+02
     14.802  0.1372E+00  0.3200E+02
     14.870  0.1497E-01  0.3200E+02
     14.939  0.0000E+00  0.3200E+02
     15.008  0.0000E+00  0.3200E+02
     15.076  0.0000E+00  0.3200E+02
     15.145  0.0000E+00  0.3200E+02
     15.214  0.0000E+00  0.3200E+02
     15.283  0.0000E+00  0.3200E+02
     15.351  0.0000E+00  0.3200E+02
     15.420  0.0000E+00  0.3200E+02
     15.489  0.0000E+00  0.3200E+02
     15.557  0.0000E+00  0.3200E+02
     15.626  0.0000E+00  0.3200E+02
     15.695  0.0000E+00  0.3200E+02
     15.764  0.0000E+00  0.3200E+02
