    4    4    1    1
  0.2134601E+02  0.4403442E-09  0.4403442E-09  0.4403442E-09  0.5000000E-15
  1.000000000000000E-004
  CAR 
 unknown system                          
   12 1330   16
 
  0.0000000E+00  0.0000000E+00  0.0000000E+00  0.2143347E-04
   1       -3.9141
   2        3.2539
   3        3.2539
   4        3.2539
   5        3.8871
   6        3.8871
   7        3.8871
   8       10.0927
   9       10.0927
  10       10.0927
  11       10.0927
  12       10.0927
  13       10.0927
  14       10.7424
  15       10.7424
  16       10.7424
 
  0.2777778E-01  0.0000000E+00  0.0000000E+00  0.1286008E-03
   1       -3.9082
   2        3.0600
   3        3.2594
   4        3.2594
   5        3.8928
   6        3.8928
   7        4.0914
   8        9.9099
   9        9.9099
  10       10.0382
  11       10.0382
  12       10.0979
  13       10.0979
  14       10.7482
  15       10.9360
  16       10.9360
 
  0.5555556E-01  0.0000000E+00  0.0000000E+00  0.1286008E-03
   1       -3.8906
   2        2.7177
   3        3.2760
   4        3.2760
   5        3.9098
   6        3.9098
   7        4.4647
   8        9.5812
   9        9.5812
  10        9.8886
  11        9.8886
  12       10.1135
  13       10.1135
  14       10.7655
  15       11.2973
  16       11.2973
 
  0.8333333E-01  0.0000000E+00  0.0000000E+00  0.1286008E-03
   1       -3.8612
   2        2.3556
   3        3.3035
   4        3.3035
   5        3.9380
   6        3.9380
   7        4.8782
   8        9.2316
   9        9.2316
  10        9.6736
  11        9.6736
  12       10.1394
  13       10.1394
  14       10.7945
  15       11.7011
  16       11.7011
 
  0.1111111E+00  0.0000000E+00  0.0000000E+00  0.1286008E-03
   1       -3.8200
   2        1.9951
   3        3.3421
   4        3.3421
   5        3.9776
   6        3.9776
   7        5.3108
   8        8.8833
   9        8.8833
  10        9.4197
  11        9.4197
  12       10.1757
  13       10.1757
  14       10.8350
  15       12.1253
  16       12.1253
 
  0.1388889E+00  0.0000000E+00  0.0000000E+00  0.1286008E-03
   1       -3.7671
   2        1.6413
   3        3.3918
   4        3.3918
   5        4.0283
   6        4.0283
   7        5.7570
   8        8.5418
   9        8.5418
  10        9.1451
  11        9.1451
  12       10.2224
  13       10.2224
  14       10.8871
  15       12.5643
  16       12.5643
 
  0.1666667E+00  0.0000000E+00  0.0000000E+00  0.1286008E-03
   1       -3.7025
   2        1.2963
   3        3.4524
   4        3.4524
   5        4.0901
   6        4.0901
   7        6.2149
   8        8.2092
   9        8.2092
  10        8.8609
  11        8.8609
  12       10.2795
  13       10.2795
  14       10.9507
  15       12.8348
  16       13.0160
 
  0.1944444E+00  0.0000000E+00  0.0000000E+00  0.1286008E-03
   1       -3.6261
   2        0.9610
   3        3.5241
   4        3.5241
   5        4.1630
   6        4.1630
   7        6.6832
   8        7.8863
   9        7.8863
  10        8.5740
  11        8.5740
  12       10.3470
  13       10.3470
  14       11.0259
  15       12.9070
  16       13.4795
 
  0.2222222E+00  0.0000000E+00  0.0000000E+00  0.1286008E-03
   1       -3.5381
   2        0.6358
   3        3.6068
   4        3.6068
   5        4.2468
   6        4.2468
   7        7.1614
   8        7.5737
   9        7.5737
  10        8.2886
  11        8.2886
  12       10.4248
  13       10.4248
  14       11.1125
  15       12.9904
  16       13.9542
 
  0.2500000E+00  0.0000000E+00  0.0000000E+00  0.1286008E-03
   1       -3.4383
   2        0.3211
   3        3.7005
   4        3.7005
   5        4.3412
   6        4.3412
   7        7.2715
   8        7.2715
   9        7.6489
  10        8.0076
  11        8.0076
  12       10.5130
  13       10.5130
  14       11.2107
  15       13.0849
  16       13.8591
 
  0.2777778E+00  0.0000000E+00  0.0000000E+00  0.1286008E-03
   1       -3.3269
   2        0.0170
   3        3.8053
   4        3.8053
   5        4.4460
   6        4.4460
   7        6.9801
   8        6.9801
   9        7.7331
  10        7.7331
  11        8.1452
  12       10.6116
  13       10.6116
  14       11.3203
  15       13.1907
  16       13.5873
 
  0.3055556E+00  0.0000000E+00  0.0000000E+00  0.1286008E-03
   1       -3.2038
   2       -0.2762
   3        3.9211
   4        3.9211
   5        4.5609
   6        4.5609
   7        6.6994
   8        6.6994
   9        7.4668
  10        7.4668
  11        8.6496
  12       10.7205
  13       10.7205
  14       11.4413
  15       13.3079
  16       13.3253
 
  0.3333333E+00  0.0000000E+00  0.0000000E+00  0.1286008E-03
   1       -3.0691
   2       -0.5585
   3        4.0479
   4        4.0479
   5        4.6850
   6        4.6850
   7        6.4296
   8        6.4296
   9        7.2101
  10        7.2101
  11        9.1616
  12       10.8398
  13       10.8398
  14       11.5737
  15       13.0732
  16       13.0732
 
  0.3611111E+00  0.0000000E+00  0.0000000E+00  0.1286008E-03
   1       -2.9228
   2       -0.8298
   3        4.1858
   4        4.1858
   5        4.8175
   6        4.8175
   7        6.1707
   8        6.1707
   9        6.9647
  10        6.9647
  11        9.6802
  12       10.9694
  13       10.9694
  14       11.7174
  15       12.8310
  16       12.8310
 
  0.3888889E+00  0.0000000E+00  0.0000000E+00  0.1286008E-03
   1       -2.7650
   2       -1.0900
   3        4.3347
   4        4.3347
   5        4.9563
   6        4.9563
   7        5.9227
   8        5.9227
   9        6.7330
  10        6.7330
  11       10.2043
  12       11.1093
  13       11.1093
  14       11.8724
  15       12.5990
  16       12.5990
 
  0.4166667E+00  0.0000000E+00  0.0000000E+00  0.1286008E-03
   1       -2.5955
   2       -1.3390
   3        4.4946
   4        4.4946
   5        5.0978
   6        5.0978
   7        5.6857
   8        5.6857
   9        6.5191
  10        6.5191
  11       10.7321
  12       11.2596
  13       11.2596
  14       12.0386
  15       12.3770
  16       12.3770
 
  0.4444444E+00  0.0000000E+00  0.0000000E+00  0.1286008E-03
   1       -2.4147
   2       -1.5768
   3        4.6656
   4        4.6656
   5        5.2335
   6        5.2335
   7        5.4596
   8        5.4596
   9        6.3314
  10        6.3314
  11       11.2614
  12       11.4202
  13       11.4202
  14       12.1652
  15       12.1652
  16       12.2159
 
  0.4722222E+00  0.0000000E+00  0.0000000E+00  0.1286008E-03
   1       -2.2223
   2       -1.8033
   3        4.8476
   4        4.8476
   5        5.2446
   6        5.2446
   7        5.3440
   8        5.3440
   9        6.1897
  10        6.1897
  11       11.5911
  12       11.5911
  13       11.7887
  14       11.9636
  15       11.9636
  16       12.4041
 
  0.5000000E+00  0.0000000E+00  0.0000000E+00  0.6430041E-04
   1       -2.0185
   2       -2.0185
   3        5.0406
   4        5.0406
   5        5.0406
   6        5.0406
   7        5.3902
   8        5.3902
   9        6.1330
  10        6.1330
  11       11.7722
  12       11.7722
  13       11.7722
  14       11.7722
  15       12.3087
  16       12.3087
 
  0.2777778E-01  0.2777778E-01  0.0000000E+00  0.2572016E-03
   1       -3.9023
   2        3.0655
   3        3.0655
   4        3.2650
   5        3.8985
   6        4.0970
   7        4.0970
   8        9.6986
   9        9.9152
  10        9.9152
  11       10.0434
  12       10.0434
  13       10.1031
  14       10.9417
  15       10.9417
  16       11.0345
 
  0.5555556E-01  0.2777778E-01  0.0000000E+00  0.5144033E-03
   1       -3.8847
   2        2.7232
   3        3.0822
   4        3.2815
   5        3.9154
   6        4.1139
   7        4.4702
   8        9.3799
   9        9.5866
  10        9.8939
  11        9.9311
  12       10.0296
  13       10.0590
  14       10.9587
  15       11.2999
  16       11.3029
 
  0.8333333E-01  0.2777778E-01  0.0000000E+00  0.5144033E-03
   1       -3.8553
   2        2.3612
   3        3.1100
   4        3.3091
   5        3.9437
   6        4.1419
   7        4.8837
   8        9.0420
   9        9.2371
  10        9.6789
  11        9.8399
  12        9.9576
  13       10.0850
  14       10.9871
  15       11.6559
  16       11.7066
 
  0.1111111E+00  0.2777778E-01  0.0000000E+00  0.5144033E-03
   1       -3.8141
   2        2.0007
   3        3.1489
   4        3.3477
   5        3.9832
   6        4.1811
   7        5.3163
   8        8.7022
   9        8.8888
  10        9.4251
  11        9.5935
  12        9.9948
  13       10.1215
  14       11.0268
  15       12.0549
  16       12.1308
 
  0.1388889E+00  0.2777778E-01  0.0000000E+00  0.5144033E-03
   1       -3.7612
   2        1.6470
   3        3.1989
   4        3.3973
   5        4.0339
   6        4.2314
   7        5.7625
   8        8.3666
   9        8.5473
  10        9.1506
  11        9.3204
  12       10.0425
  13       10.1684
  14       11.0779
  15       12.4787
  16       12.5698
 
  0.1666667E+00  0.2777778E-01  0.0000000E+00  0.5144033E-03
   1       -3.6966
   2        1.3020
   3        3.2599
   4        3.4579
   5        4.0957
   6        4.2928
   7        6.2202
   8        8.0383
   9        8.2146
  10        8.8665
  11        9.0358
  12       10.1008
  13       10.2257
  14       11.1403
  15       12.8978
  16       12.9200
 
  0.1944444E+00  0.2777778E-01  0.0000000E+00  0.5144033E-03
   1       -3.6202
   2        0.9667
   3        3.3321
   4        3.5296
   5        4.1684
   6        4.3652
   7        6.6885
   8        7.7186
   9        7.8918
  10        8.5796
  11        8.7479
  12       10.1696
  13       10.2935
  14       11.2140
  15       12.9698
  16       13.3757
 
  0.2222222E+00  0.2777778E-01  0.0000000E+00  0.5144033E-03
   1       -3.5322
   2        0.6415
   3        3.4153
   4        3.6123
   5        4.2521
   6        4.4484
   7        7.1666
   8        7.4085
   9        7.5792
  10        8.2942
  11        8.4614
  12       10.2491
  13       10.3716
  14       11.2991
  15       13.0528
  16       13.8439
 
  0.2500000E+00  0.2777778E-01  0.0000000E+00  0.5144033E-03
   1       -3.4324
   2        0.3268
   3        3.5095
   4        3.7060
   5        4.3463
   6        4.5422
   7        7.1084
   8        7.2770
   9        7.6540
  10        8.0134
  11        8.1794
  12       10.3390
  13       10.4602
  14       11.3955
  15       13.1470
  16       13.7310
 
  0.2777778E+00  0.2777778E-01  0.0000000E+00  0.5144033E-03
   1       -3.3210
   2        0.0228
   3        3.6148
   4        3.8108
   5        4.4509
   6        4.6464
   7        6.8188
   8        6.9856
   9        7.7391
  10        7.9039
  11        8.1501
  12       10.4396
  13       10.5593
  14       11.5031
  15       13.2523
  16       13.4574
 
  0.3055556E+00  0.2777778E-01  0.0000000E+00  0.5144033E-03
   1       -3.1979
   2       -0.2704
   3        3.7310
   4        3.9266
   5        4.5652
   6        4.7606
   7        6.5402
   8        6.7049
   9        7.4730
  10        7.6364
  11        8.6543
  12       10.5506
  13       10.6689
  14       11.6220
  15       13.1922
  16       13.2669
 
  0.3333333E+00  0.2777778E-01  0.0000000E+00  0.5144033E-03
   1       -3.0633
   2       -0.5527
   3        3.8582
   4        4.0534
   5        4.6885
   6        4.8840
   7        6.2730
   8        6.4351
   9        7.2167
  10        7.3782
  11        9.1659
  12       10.6721
  13       10.7891
  14       11.7521
  15       12.9376
  16       13.0153
 
  0.3611111E+00  0.2777778E-01  0.0000000E+00  0.5144033E-03
   1       -2.9170
   2       -0.8240
   3        3.9962
   4        4.1913
   5        4.8191
   6        5.0157
   7        6.0183
   8        6.1762
   9        6.9720
  10        7.1307
  11        9.6837
  12       10.8041
  13       10.9201
  14       11.8935
  15       12.6929
  16       12.7734
 
  0.3888889E+00  0.2777778E-01  0.0000000E+00  0.5144033E-03
   1       -2.7591
   2       -1.0842
   3        4.1449
   4        4.3402
   5        4.9533
   6        5.1534
   7        5.7786
   8        5.9282
   9        6.7416
  10        6.8956
  11       10.2060
  12       10.9465
  13       11.0625
  14       12.0459
  15       12.4581
  16       12.5413
 
  0.4166667E+00  0.2777778E-01  0.0000000E+00  0.5144033E-03
   1       -2.5897
   2       -1.3332
   3        4.3041
   4        4.5001
   5        5.0791
   6        5.2926
   7        5.5633
   8        5.6912
   9        6.5306
  10        6.6756
  11       10.7288
  12       11.0994
  13       11.2187
  14       12.2095
  15       12.2334
  16       12.3189
 
  0.4444444E+00  0.2777778E-01  0.0000000E+00  0.5144033E-03
   1       -2.4088
   2       -1.5710
   3        4.4733
   4        4.6711
   5        5.1359
   6        5.4227
   7        5.4279
   8        5.4652
   9        6.3503
  10        6.4764
  11       11.2271
  12       11.2626
  13       11.4115
  14       12.0188
  15       12.1063
  16       12.3840
 
  0.4722222E+00  0.2777778E-01  0.0000000E+00  0.5144033E-03
   1       -2.2165
   2       -1.7975
   3        4.6518
   4        4.8531
   5        5.0184
   6        5.2501
   7        5.4641
   8        5.5166
   9        6.2287
  10        6.3115
  11       11.4362
  12       11.5152
  13       11.8143
  14       11.8232
  15       11.9031
  16       12.5695
 
  0.5000000E+00  0.2777778E-01  0.0000000E+00  0.2572016E-03
   1       -2.0127
   2       -2.0127
   3        4.8368
   4        4.8368
   5        5.0461
   6        5.0461
   7        5.5294
   8        5.5294
   9        6.2133
  10        6.2133
  11       11.6201
  12       11.6201
  13       11.7082
  14       11.7082
  15       12.3337
  16       12.3337
 
  0.5555556E-01  0.5555556E-01  0.0000000E+00  0.2572016E-03
   1       -3.8670
   2        2.7400
   3        2.7400
   4        3.2980
   5        3.9324
   6        4.4869
   7        4.4869
   8        9.0589
   9        9.6027
  10        9.6027
  11        9.9096
  12        9.9096
  13       10.1341
  14       11.3197
  15       11.3197
  16       11.3687
 
  0.8333333E-01  0.5555556E-01  0.0000000E+00  0.5144033E-03
   1       -3.8376
   2        2.3781
   3        2.7680
   4        3.3256
   5        3.9606
   6        4.5147
   7        4.9003
   8        8.7216
   9        9.2533
  10        9.6296
  11        9.6949
  12        9.9359
  13       10.0692
  14       11.3476
  15       11.5788
  16       11.7233
 
  0.1111111E+00  0.5555556E-01  0.0000000E+00  0.5144033E-03
   1       -3.7965
   2        2.0176
   3        2.8072
   4        3.3642
   5        4.0000
   6        4.5536
   7        5.3328
   8        8.3833
   9        8.9051
  10        9.4413
  11        9.6673
  12        9.8810
  13        9.9728
  14       11.3868
  15       11.9013
  16       12.1474
 
  0.1388889E+00  0.5555556E-01  0.0000000E+00  0.5144033E-03
   1       -3.7436
   2        1.6639
   3        2.8575
   4        3.4138
   5        4.0505
   6        4.6035
   7        5.7788
   8        8.0495
   9        8.5637
  10        9.1669
  11        9.6337
  12        9.7158
  13       10.0201
  14       11.4371
  15       12.2847
  16       12.5863
 
  0.1666667E+00  0.5555556E-01  0.0000000E+00  0.5144033E-03
   1       -3.6790
   2        1.3190
   3        2.9190
   4        3.4745
   5        4.1122
   6        4.6644
   7        6.2364
   8        7.7228
   9        8.2311
  10        8.8830
  11        9.3614
  12        9.7750
  13       10.0780
  14       11.4986
  15       12.7023
  16       13.0444
 
  0.1944444E+00  0.5555556E-01  0.0000000E+00  0.5144033E-03
   1       -3.6026
   2        0.9837
   3        2.9916
   4        3.5461
   5        4.1847
   6        4.7362
   7        6.7045
   8        7.4046
   9        7.9082
  10        8.5964
  11        9.0798
  12        9.8449
  13       10.1465
  14       11.5712
  15       13.1424
  16       13.1445
 
  0.2222222E+00  0.5555556E-01  0.0000000E+00  0.5144033E-03
   1       -3.5146
   2        0.6586
   3        3.0753
   4        3.6288
   5        4.2679
   6        4.8186
   7        7.0958
   8        7.1823
   9        7.5956
  10        8.3113
  11        8.7967
  12        9.9255
  13       10.2255
  14       11.6550
  15       13.2267
  16       13.5996
 
  0.2500000E+00  0.5555556E-01  0.0000000E+00  0.5144033E-03
   1       -3.4148
   2        0.3440
   3        3.1701
   4        3.7226
   5        4.3616
   6        4.9116
   7        6.7971
   8        7.2935
   9        7.6694
  10        8.0309
  11        8.5166
  12       10.0169
  13       10.3152
  14       11.7500
  15       13.3200
  16       13.4552
 
  0.2777778E+00  0.5555556E-01  0.0000000E+00  0.5144033E-03
   1       -3.3034
   2        0.0400
   3        3.2760
   4        3.8273
   5        4.4652
   6        5.0147
   7        6.5093
   8        7.0021
   9        7.7571
  10        8.1649
  11        8.2420
  12       10.1190
  13       10.4157
  14       11.8560
  15       13.1783
  16       13.3714
 
  0.3055556E+00  0.5555556E-01  0.0000000E+00  0.5144033E-03
   1       -3.1804
   2       -0.2532
   3        3.3928
   4        3.9431
   5        4.5779
   6        5.1275
   7        6.2333
   8        6.7214
   9        7.4917
  10        7.9748
  11        8.6683
  12       10.2317
  13       10.5271
  14       11.9731
  15       12.9108
  16       13.1111
 
  0.3333333E+00  0.5555556E-01  0.0000000E+00  0.5144033E-03
   1       -3.0457
   2       -0.5355
   3        3.5205
   4        4.0700
   5        4.6979
   6        5.2491
   7        5.9707
   8        6.4516
   9        7.2367
  10        7.7162
  11        9.1784
  12       10.3551
  13       10.6500
  14       12.1013
  15       12.6531
  16       12.8605
 
  0.3611111E+00  0.5555556E-01  0.0000000E+00  0.5144033E-03
   1       -2.8994
   2       -0.8067
   3        3.6591
   4        4.2078
   5        4.8210
   6        5.3778
   7        5.7255
   8        6.1927
   9        6.9944
  10        7.4674
  11        9.6933
  12       10.4891
  13       10.7852
  14       12.2406
  15       12.4051
  16       12.6190
 
  0.3888889E+00  0.5555556E-01  0.0000000E+00  0.5144033E-03
   1       -2.7416
   2       -1.0669
   3        3.8084
   4        4.3567
   5        4.9332
   6        5.5101
   7        5.5109
   8        5.9447
   9        6.7688
  10        7.2295
  11       10.2090
  12       10.6337
  13       10.9360
  14       12.1672
  15       12.3868
  16       12.3908
 
  0.4166667E+00  0.5555556E-01  0.0000000E+00  0.5144033E-03
   1       -2.5722
   2       -1.3159
   3        3.9681
   4        4.5167
   5        4.9780
   6        5.3825
   7        5.6373
   8        5.7077
   9        6.5693
  10        7.0041
  11       10.7098
  12       10.7888
  13       11.1165
  14       11.9394
  15       12.1639
  16       12.5519
 
  0.4444444E+00  0.5555556E-01  0.0000000E+00  0.5144033E-03
   1       -2.3914
   2       -1.5536
   3        4.1379
   4        4.6876
   5        4.8731
   6        5.4198
   7        5.4817
   8        5.7357
   9        6.4199
  10        6.7940
  11       10.9545
  12       11.1109
  13       11.4094
  14       11.7218
  15       11.9501
  16       12.7239
 
  0.4722222E+00  0.5555556E-01  0.0000000E+00  0.5144033E-03
   1       -2.1990
   2       -1.7801
   3        4.3170
   4        4.6943
   5        4.8696
   6        5.2666
   7        5.5418
   8        5.7541
   9        6.3731
  10        6.6048
  11       11.1307
  12       11.3475
  13       11.5144
  14       11.7447
  15       11.8765
  16       12.8965
 
  0.5000000E+00  0.5555556E-01  0.0000000E+00  0.2572016E-03
   1       -1.9953
   2       -1.9953
   3        4.5039
   4        4.5039
   5        5.0626
   6        5.0626
   7        5.6712
   8        5.6712
   9        6.4515
  10        6.4515
  11       11.3174
  12       11.3174
  13       11.5460
  14       11.5460
  15       12.3871
  16       12.3871
 
  0.8333333E-01  0.8333333E-01  0.0000000E+00  0.2572016E-03
   1       -3.8082
   2        2.4062
   3        2.4062
   4        3.3532
   5        3.9886
   6        4.9279
   7        4.9279
   8        8.3830
   9        9.2805
  10        9.2805
  11        9.7215
  12        9.7215
  13       10.1858
  14       11.5903
  15       11.7510
  16       11.7510
 
  0.1111111E+00  0.8333333E-01  0.0000000E+00  0.5144033E-03
   1       -3.7671
   2        2.0458
   3        2.4456
   4        3.3918
   5        4.0279
   6        4.9665
   7        5.3602
   8        8.0439
   9        8.9323
  10        9.3184
  11        9.4682
  12        9.7587
  13       10.1311
  14       11.7667
  15       11.7899
  16       12.1750
 
  0.1388889E+00  0.8333333E-01  0.0000000E+00  0.5144033E-03
   1       -3.7142
   2        1.6922
   3        2.4961
   4        3.4414
   5        4.0783
   6        5.0161
   7        5.8060
   8        7.7097
   9        8.5910
  10        9.1942
  11        9.3672
  12        9.8067
  13        9.9511
  14       11.8398
  15       12.0739
  16       12.6138
 
  0.1666667E+00  0.8333333E-01  0.0000000E+00  0.5144033E-03
   1       -3.6496
   2        1.3474
   3        2.5579
   4        3.5020
   5        4.1396
   6        5.0765
   7        6.2633
   8        7.3828
   9        8.2584
  10        8.9107
  11        9.4269
  12        9.7109
  13        9.8653
  14       11.9008
  15       12.4528
  16       13.0654
 
  0.1944444E+00  0.8333333E-01  0.0000000E+00  0.5144033E-03
   1       -3.5733
   2        1.0122
   3        2.6308
   4        3.5737
   5        4.2116
   6        5.1476
   7        6.7310
   8        7.0647
   9        7.9356
  10        8.6244
  11        9.4457
  12        9.4973
  13        9.9347
  14       11.9729
  15       12.8713
  16       13.4024
 
  0.2222222E+00  0.8333333E-01  0.0000000E+00  0.5144033E-03
   1       -3.4853
   2        0.6871
   3        2.7149
   4        3.6564
   5        4.2942
   6        5.2293
   7        6.7563
   8        7.2084
   9        7.6230
  10        8.3399
  11        9.1720
  12        9.5786
  13       10.0150
  14       12.0560
  15       13.3150
  16       13.4821
 
  0.2500000E+00  0.8333333E-01  0.0000000E+00  0.5144033E-03
   1       -3.3855
   2        0.3726
   3        2.8102
   4        3.7501
   5        4.3867
   6        5.3212
   7        6.4586
   8        7.3210
   9        7.6947
  10        8.0601
  11        8.8974
  12        9.6706
  13       10.1062
  14       12.1502
  15       13.1371
  16       13.4182
 
  0.2777778E+00  0.8333333E-01  0.0000000E+00  0.5144033E-03
   1       -3.2741
   2        0.0686
   3        2.9165
   4        3.8549
   5        4.4883
   6        5.4229
   7        6.1728
   8        7.0296
   9        7.7873
  10        8.1893
  11        8.6264
  12        9.7734
  13       10.2087
  14       12.2554
  15       12.8579
  16       13.1520
 
  0.3055556E+00  0.8333333E-01  0.0000000E+00  0.5144033E-03
   1       -3.1511
   2       -0.2245
   3        3.0339
   4        3.9707
   5        4.5971
   6        5.5337
   7        5.9006
   8        6.7489
   9        7.5235
  10        8.3615
  11        8.6909
  12        9.8870
  13       10.3230
  14       12.3715
  15       12.5883
  16       12.8938
 
  0.3333333E+00  0.8333333E-01  0.0000000E+00  0.5144033E-03
   1       -3.0165
   2       -0.5067
   3        3.1622
   4        4.0975
   5        4.7086
   6        5.6468
   7        5.6520
   8        6.4791
   9        7.2712
  10        8.1042
  11        9.1979
  12       10.0114
  13       10.4502
  14       12.3283
  15       12.4987
  16       12.6440
 
  0.3611111E+00  0.8333333E-01  0.0000000E+00  0.5144033E-03
   1       -2.8702
   2       -0.7779
   3        3.3015
   4        4.2354
   5        4.8081
   6        5.4259
   7        5.7747
   8        6.2202
   9        7.0342
  10        7.8558
  11        9.7062
  12       10.1464
  13       10.5938
  14       12.0783
  15       12.4030
  16       12.6367
 
  0.3888889E+00  0.8333333E-01  0.0000000E+00  0.5144033E-03
   1       -2.7124
   2       -1.0380
   3        3.4515
   4        4.3843
   5        4.8411
   6        5.2919
   7        5.8940
   8        5.9722
   9        6.8209
  10        7.6173
  11       10.2034
  12       10.2922
  13       10.7651
  14       11.8384
  15       12.1709
  16       12.7856
 
  0.4166667E+00  0.8333333E-01  0.0000000E+00  0.5144033E-03
   1       -2.5431
   2       -1.2870
   3        3.6121
   4        4.5442
   5        4.7334
   6        5.3186
   7        5.7352
   8        5.9874
   9        6.6540
  10        7.3899
  11       10.4486
  12       10.6378
  13       11.0145
  14       11.6086
  15       11.9476
  16       12.9454
 
  0.4444444E+00  0.8333333E-01  0.0000000E+00  0.5144033E-03
   1       -2.3622
   2       -1.5247
   3        3.7831
   4        4.5494
   5        4.7152
   6        5.4404
   7        5.5092
   8        6.0014
   9        6.5880
  10        7.1750
  11       10.6156
  12       10.9228
  13       11.3892
  14       11.4268
  15       11.7331
  16       13.1158
 
  0.4722222E+00  0.8333333E-01  0.0000000E+00  0.5144033E-03
   1       -2.1699
   2       -1.7511
   3        3.9639
   4        4.3505
   5        4.8972
   6        5.2942
   7        5.5935
   8        5.9060
   9        6.6530
  10        6.9751
  11       10.7932
  12       11.1311
  13       11.1801
  14       11.5269
  15       11.9268
  16       12.9640
 
  0.5000000E+00  0.8333333E-01  0.0000000E+00  0.2572016E-03
   1       -1.9662
   2       -1.9662
   3        4.1537
   4        4.1537
   5        5.0902
   6        5.0902
   7        5.7554
   8        5.7554
   9        6.7961
  10        6.7961
  11       10.9814
  12       10.9814
  13       11.3275
  14       11.3275
  15       12.4460
  16       12.4460
 
  0.1111111E+00  0.1111111E+00  0.0000000E+00  0.2572016E-03
   1       -3.7260
   2        2.0853
   3        2.0853
   4        3.4304
   5        4.0669
   6        5.3985
   7        5.3985
   8        7.7038
   9        8.9705
  10        8.9705
  11        9.5060
  12        9.5060
  13       10.2583
  14       11.7531
  15       12.2136
  16       12.2136
 
  0.1388889E+00  0.1111111E+00  0.0000000E+00  0.5144033E-03
   1       -3.6731
   2        1.7318
   3        2.1361
   4        3.4800
   5        4.1169
   6        5.4476
   7        5.8440
   8        7.3689
   9        8.6292
  10        9.0195
  11        9.2325
  12        9.5545
  13       10.2142
  14       11.9189
  15       12.2633
  16       12.6523
 
  0.1666667E+00  0.1111111E+00  0.0000000E+00  0.5144033E-03
   1       -3.6085
   2        1.3871
   3        2.1981
   4        3.5406
   5        4.1777
   6        5.5075
   7        6.3009
   8        7.0417
   9        8.2967
  10        8.9495
  11        9.0793
  12        9.6140
  13       10.0443
  14       12.2238
  15       12.3240
  16       13.1037
 
  0.1944444E+00  0.1111111E+00  0.0000000E+00  0.5144033E-03
   1       -3.5322
   2        1.0520
   3        2.2713
   4        3.6123
   5        4.2490
   6        5.5779
   7        6.7236
   8        6.7680
   9        7.9740
  10        8.6639
  11        9.1501
  12        9.6845
  13        9.8136
  14       12.3957
  15       12.6054
  16       13.3982
 
  0.2222222E+00  0.1111111E+00  0.0000000E+00  0.5144033E-03
   1       -3.4442
   2        0.7271
   3        2.3557
   4        3.6950
   5        4.3302
   6        5.6586
   7        6.4159
   8        7.2446
   9        7.6614
  10        8.3802
  11        9.2317
  12        9.5579
  13        9.7661
  14       12.4784
  15       13.0292
  16       13.0994
 
  0.2500000E+00  0.1111111E+00  0.0000000E+00  0.5144033E-03
   1       -3.3445
   2        0.4126
   3        2.4513
   4        3.7887
   5        4.4206
   6        5.7491
   7        6.1198
   8        7.3594
   9        7.7298
  10        8.1015
  11        9.2938
  12        9.3241
  13        9.8592
  14       12.5721
  15       12.8093
  16       13.1651
 
  0.2777778E+00  0.1111111E+00  0.0000000E+00  0.5144033E-03
   1       -3.2331
   2        0.1087
   3        2.5581
   4        3.8935
   5        4.5181
   6        5.8376
   7        5.8489
   8        7.0680
   9        7.8303
  10        8.2226
  11        9.0292
  12        9.4274
  13        9.9644
  14       12.5285
  15       12.6767
  16       12.9003
 
  0.3055556E+00  0.1111111E+00  0.0000000E+00  0.5144033E-03
   1       -3.1102
   2       -0.1843
   3        2.6759
   4        4.0093
   5        4.6180
   6        5.5741
   7        5.9563
   8        6.7874
   9        7.5694
  10        8.7211
  11        8.7684
  12        9.5415
  13       10.0829
  14       12.2572
  15       12.6429
  16       12.7922
 
  0.3333333E+00  0.1111111E+00  0.0000000E+00  0.5144033E-03
   1       -2.9755
   2       -0.4665
   3        2.8048
   4        4.1361
   5        4.7052
   6        5.3444
   7        6.0686
   8        6.5176
   9        7.3226
  10        8.5139
  11        9.2216
  12        9.6664
  13       10.2179
  14       11.9957
  15       12.3937
  16       12.9186
 
  0.3611111E+00  0.1111111E+00  0.0000000E+00  0.5144033E-03
   1       -2.8293
   2       -0.7376
   3        2.9447
   4        4.2740
   5        4.7267
   6        5.2017
   7        6.1783
   8        6.2587
   9        7.0979
  10        8.2672
  11        9.7134
  12        9.8021
  13       10.3793
  14       11.7442
  15       12.1529
  16       13.0558
 
  0.3888889E+00  0.1111111E+00  0.0000000E+00  0.5144033E-03
   1       -2.6716
   2       -0.9976
   3        3.0954
   4        4.4229
   5        4.6119
   6        5.2160
   7        6.0108
   8        6.2639
   9        6.9176
  10        8.0295
  11        9.9486
  12       10.1578
  13       10.6052
  14       11.5029
  15       11.9207
  16       13.2038
 
  0.4166667E+00  0.1111111E+00  0.0000000E+00  0.5144033E-03
   1       -2.5023