       N       E                     dE             d eps       ncg     rms          rms(c)
DAV:   1     0.111309668694E+02    0.11131E+02   -0.58081E+03 42560   0.961E+02
DAV:   2    -0.133075021807E+02   -0.24438E+02   -0.22810E+02 54352   0.100E+02
DAV:   3    -0.142083132043E+02   -0.90081E+00   -0.89177E+00 57544   0.142E+01
DAV:   4    -0.142161659424E+02   -0.78527E-02   -0.78513E-02 50824   0.160E+00
DAV:   5    -0.142162728838E+02   -0.10694E-03   -0.10694E-03 58760   0.194E-01    0.163E+00
DAV:   6    -0.141705779918E+02    0.45695E-01   -0.10101E-02 50768   0.499E-01    0.101E+00
DAV:   7    -0.141384015146E+02    0.32176E-01   -0.29520E-02 48944   0.817E-01    0.492E-02
DAV:   8    -0.141383598707E+02    0.41644E-04   -0.19712E-04 55432   0.859E-02    0.135E-02
DAV:   9    -0.141383612765E+02   -0.14057E-05   -0.62913E-06 54696   0.116E-02    0.136E-03
DAV:  10    -0.141383598404E+02    0.14361E-05   -0.10734E-07 57216   0.185E-03    0.311E-04
DAV:  11    -0.141383597610E+02    0.79376E-07   -0.24894E-09 39888   0.253E-04    0.387E-05
DAV:  12    -0.141383597960E+02   -0.34958E-07   -0.52239E-10 33960   0.140E-04    0.109E-05
DAV:  13    -0.141383597933E+02    0.26464E-08   -0.98238E-11 29832   0.504E-05
   1 F= -.14138360E+02 E0= -.14138296E+02  d E =-.128444E-03
