 running on    4 nodes
 distr:  one band on    1 nodes,    4 groups
 vasp.4.6.28 25Jul05 complex 
 POSCAR found :  1 types and   32 ions

 ----------------------------------------------------------------------------- 
|                                                                             |
|  ADVICE TO THIS USER RUNNING 'VASP/VAMP'   (HEAR YOUR MASTER'S VOICE ...):  |
|                                                                             |
|      You have a (more or less) 'large supercell' and for larger cells       |
|      it might be more efficient to use real space projection operators      |
|      So try LREAL= Auto  in the INCAR   file.                               |
|      Mind: If you want to do an extremely accurate calculations keep the    |
|      reciprocal projection scheme          (i.e. LREAL=.FALSE.)             |
|                                                                             |
 ----------------------------------------------------------------------------- 

 LDA part: xc-table for Pade appr. of Perdew
 found WAVECAR, reading the header
  number of k-points has changed, file:  20 present:  40
  trying to continue reading WAVECAR, but it might fail
 POSCAR, INCAR and KPOINTS ok, starting setup
 FFT: planning ...           1
 reading WAVECAR
 the WAVECAR file was read sucessfully
 initial charge from wavefunction
 entering main loop
       N       E                     dE             d eps       ncg     rms          rms(c)
RMM:   1    -0.101652163857E+03   -0.10165E+03   -0.62332E+02 17644   0.425E+01BRMIX: very serious problems
 the old and the new charge density differ
 old charge density:   344.61178 new  352.00000
    0.828E+00
RMM:   2    -0.989721807461E+02    0.26800E+01   -0.13311E+01 17960   0.100E+01    0.129E+00
RMM:   3    -0.990105827792E+02   -0.38402E-01   -0.93133E-01 18854   0.194E+00    0.797E-01
RMM:   4    -0.990130970346E+02   -0.25143E-02   -0.35347E-02 18670   0.351E-01    0.241E-01
RMM:   5    -0.990135010342E+02   -0.40400E-03   -0.22645E-03 18864   0.977E-02    0.673E-02
RMM:   6    -0.990134108229E+02    0.90211E-04   -0.12175E-03 18260   0.994E-02    0.221E-02
RMM:   7    -0.990133977697E+02    0.13053E-04   -0.82215E-05 18054   0.222E-02    0.479E-03
RMM:   8    -0.990133962740E+02    0.14956E-05   -0.90792E-06 10394   0.918E-03
   1 F= -.99013396E+02 E0= -.99011126E+02  d E =-.681179E-02

 ----------------------------------------------------------------------------- 
|                                                                             |
|           W    W    AA    RRRRR   N    N  II  N    N   GGGG   !!!           |
|           W    W   A  A   R    R  NN   N  II  NN   N  G    G  !!!           |
|           W    W  A    A  R    R  N N  N  II  N N  N  G       !!!           |
|           W WW W  AAAAAA  RRRRR   N  N N  II  N  N N  G  GGG   !            |
|           WW  WW  A    A  R   R   N   NN  II  N   NN  G    G                |
|           W    W  A    A  R    R  N    N  II  N    N   GGGG   !!!           |
|                                                                             |
|      The partial DOS and the PROCAR file are not evaluated for NPAR/=1      |
|      please rerun with NPAR=1                                               |
|                                                                             |
 ----------------------------------------------------------------------------- 

