 vasp.4.6.28 25Jul05 complex 
 executed on             LinuxIFC date 2017.01.24  12:37:26
 running on    4 nodes
 distr:  one band on    1 nodes,    4 groups


--------------------------------------------------------------------------------------------------------


 INCAR:
 POTCAR:   PAW_PBE Au 06Sep2000                   
 POTCAR:   PAW_PBE Au 06Sep2000                   
   VRHFIN =Au: s1d10                                                            
   LEXCH  = PE                                                                  
   EATOM  =   926.0567 eV,   68.0632 Ry                                         
                                                                                
   TITEL  = PAW_PBE Au 06Sep2000                                                
   LULTRA =        F    use ultrasoft PP ?                                      
   IUNSCR =        1    unscreen: 0-lin 1-nonlin 2-no                           
   RPACOR =    2.330    partial core radius                                     
   POMASS =  196.966; ZVAL   =   11.000    mass and valenz                      
   RCORE  =    2.500    outmost cutoff radius                                   
   RWIGS  =    2.840; RWIGS  =    1.503    wigner-seitz radius (au A)           
   ENMAX  =  229.948; ENMIN  =  172.461 eV                                      
   RCLOC  =    1.964    cutoff for local pot                                    
   LCOR   =        T    correct aug charges                                     
   LPAW   =        T    paw PP                                                  
   EAUG   =  356.670                                                            
   DEXC   =    -.025                                                            
   RMAX   =    3.041    core radius for proj-oper                               
   RAUG   =    1.300    factor for augmentation sphere                          
   RDEP   =    2.598    radius for radial grids                                 
   QCUT   =   -4.111; QGAM   =    8.222    optimization parameters              
                                                                                
   Description                                                                  
     l     E      TYP  RCUT    TYP  RCUT                                        
     2   .000     23  2.500                                                     
     2   .000     23  2.500                                                     
     0   .000     23  2.500                                                     
     0   .000     23  2.500                                                     
     1  -.200     23  2.500                                                     
     1   .000     23  2.500                                                     
     3   .000      7   .000                                                     
  local pseudopotential read in
  partial core-charges read in
  atomic valenz-charges read in
  non local Contribution for L=           2  read in
    real space projection operators read in
  non local Contribution for L=           2  read in
    real space projection operators read in
  non local Contribution for L=           0  read in
    real space projection operators read in
  non local Contribution for L=           0  read in
    real space projection operators read in
  non local Contribution for L=           1  read in
    real space projection operators read in
  non local Contribution for L=           1  read in
    real space projection operators read in
    PAW grid and wavefunctions read in
 
   number of l-projection  operators is LMAX  =           6
   number of lm-projection operators is LMMAX =          18
 

 ----------------------------------------------------------------------------- 
|                                                                             |
|  ADVICE TO THIS USER RUNNING 'VASP/VAMP'   (HEAR YOUR MASTER'S VOICE ...):  |
|                                                                             |
|      You have a (more or less) 'large supercell' and for larger cells       |
|      it might be more efficient to use real space projection operators      |
|      So try LREAL= Auto  in the INCAR   file.                               |
|      Mind: If you want to do an extremely accurate calculations keep the    |
|      reciprocal projection scheme          (i.e. LREAL=.FALSE.)             |
|                                                                             |
 ----------------------------------------------------------------------------- 

 PAW_PBE Au 06Sep2000                   :
 energy of atom  1       EATOM= -926.0567
 kinetic energy error for atom=    0.0013 (will be added to EATOM!!)
 
 EXHCAR: internal setup
 exchange correlation table for  LEXCH =        8
   RHO(1)=    0.500       N(1)  =     2000
   RHO(2)=  100.500       N(2)  =     4000
 
 POSCAR: No title                                
  positions in direct lattice
  No initial velocities read in
 


--------------------------------------------------------------------------------------------------------


 ion  position               nearest neighbor table
   1  0.750  0.750  0.500-   3 3.12  14 3.12  19 3.12  20 3.12   5 3.12  26 3.12  11 3.12   6 3.12
                            18 3.12  29 3.12  10 3.12   8 3.12
   2  0.750  0.750  0.000-   8 3.12  10 3.12  22 3.12  27 3.12  11 3.12  18 3.12  12 3.12  26 3.12
                             5 3.12  32 3.12   3 3.12  20 3.12
   3  0.750  0.000  0.250-   1 3.12   5 3.12   9 3.12  28 3.12  19 3.12  12 3.12  18 3.12   6 3.12
                            27 3.12  13 3.12   4 3.12   2 3.12
   4  0.750  0.250  0.500-   6 3.12   8 3.12  10 3.12  29 3.12  13 3.12  31 3.12  21 3.12  28 3.12
                            14 3.12  19 3.12   3 3.12  20 3.12
   5  0.000  0.750  0.250-   3 3.12  12 3.12  14 3.12  25 3.12  15 3.12   1 3.12   7 3.12  10 3.12
                            16 3.12   2 3.12  22 3.12   6 3.12
   6  0.000  0.000  0.500-   4 3.12   7 3.12  11 3.12  13 3.12   8 3.12  16 3.12   1 3.12   3 3.12
                            17 3.12  23 3.12  21 3.12   5 3.12
   7  0.250  0.750  0.500-   6 3.12  16 3.12  29 3.12  30 3.12  11 3.12  18 3.12  19 3.12  26 3.12
                             5 3.12  14 3.12  25 3.12  23 3.12
   8  0.750  0.000  0.750-   2 3.12   4 3.12  11 3.12  31 3.12  27 3.12   6 3.12  21 3.12  26 3.12
                            12 3.12  19 3.12   9 3.12   1 3.12
   9  0.750  0.250  0.000-   3 3.12  12 3.12  20 3.12  32 3.12  28 3.12  21 3.12  27 3.12  13 3.12
                            31 3.12  22 3.12  10 3.12   8 3.12
  10  0.750  0.500  0.250-   2 3.12   4 3.12  13 3.12  18 3.12  22 3.12  29 3.12  14 3.12  28 3.12
                             5 3.12  32 3.12   9 3.12   1 3.12
  11  0.000  0.750  0.750-   6 3.12   8 3.12  22 3.12  30 3.12   7 3.12   2 3.12  20 3.12   1 3.12
                            23 3.12  15 3.12  14 3.12  12 3.12
  12  0.000  0.000  0.000-   5 3.12   9 3.12  15 3.12  21 3.12   3 3.12  23 3.12  16 3.12   2 3.12
                             8 3.12  24 3.12  13 3.12  11 3.12
  13  0.000  0.250  0.250-   6 3.12  10 3.12  16 3.12  22 3.12   4 3.12  24 3.12  17 3.12   3 3.12
                             9 3.12  25 3.12  14 3.12  12 3.12
  14  0.000  0.500  0.500-   1 3.12   5 3.12  17 3.12  21 3.12  20 3.12  25 3.12   7 3.12  10 3.12
                             4 3.12  30 3.12  13 3.12  11 3.12
  15  0.250  0.750  0.000-  12 3.12  23 3.12  25 3.12  32 3.12  26 3.12   5 3.12  18 3.12  22 3.12
                            27 3.12  11 3.12  30 3.12  16 3.12
  16  0.250  0.000  0.250-   7 3.12  13 3.12  18 3.12  24 3.12   6 3.12  27 3.12  19 3.12   5 3.12
                            12 3.12  28 3.12  17 3.12  15 3.12
  17  0.250  0.250  0.500-  14 3.12  19 3.12  23 3.12  25 3.12  21 3.12  28 3.12   6 3.12  13 3.12
                            29 3.12  31 3.12  30 3.12  16 3.12
  18  0.500  0.750  0.250-  10 3.12  16 3.12  27 3.12  29 3.12   2 3.12   7 3.12   1 3.12  25 3.12
                             3 3.12  15 3.12  19 3.12  32 3.12
  19  0.500  0.000  0.500-   1 3.12  17 3.12  26 3.12  28 3.12   3 3.12  23 3.12   4 3.12   7 3.12
                             8 3.12  16 3.12  18 3.12  31 3.12
  20  0.750  0.500  0.750-   1 3.12   9 3.12  21 3.12  26 3.12  14 3.12  32 3.12  11 3.12  29 3.12
                            31 3.12  22 3.12   4 3.12   2 3.12
  21  0.000  0.250  0.750-  12 3.12  14 3.12  20 3.12  23 3.12   9 3.12  17 3.12   4 3.12   8 3.12
                            24 3.12  30 3.12  22 3.12   6 3.12
  22  0.000  0.500  0.000-   2 3.12  11 3.12  13 3.12  24 3.12  10 3.12  30 3.12  20 3.12   9 3.12
                            25 3.12  15 3.12  21 3.12   5 3.12
  23  0.250  0.000  0.750-  15 3.12  17 3.12  21 3.12  26 3.12  12 3.12  19 3.12   6 3.12  11 3.12
                            27 3.12  31 3.12  24 3.12   7 3.12
  24  0.250  0.250  0.000-  16 3.12  22 3.12  27 3.12  30 3.12  13 3.12  31 3.12  28 3.12  12 3.12
                            21 3.12  32 3.12  25 3.12  23 3.12
  25  0.250  0.500  0.250-   5 3.12  15 3.12  17 3.12  28 3.12  14 3.12  32 3.12  22 3.12  13 3.12
                            29 3.12  18 3.12  24 3.12   7 3.12
  26  0.500  0.750  0.750-  19 3.12  20 3.12  23 3.12  32 3.12   1 3.12  15 3.12   8 3.12   2 3.12
                            30 3.12   7 3.12  27 3.12  29 3.12
  27  0.500  0.000  0.000-   2 3.12  18 3.12  24 3.12  31 3.12  16 3.12   8 3.12   9 3.12  23 3.12
                            15 3.12   3 3.12  28 3.12  26 3.12
  28  0.500  0.250  0.250-   3 3.12  19 3.12  25 3.12  32 3.12  17 3.12   9 3.12  10 3.12  24 3.12
                            16 3.12   4 3.12  29 3.12  27 3.12
  29  0.500  0.500  0.500-   4 3.12   7 3.12  18 3.12  31 3.12  30 3.12  10 3.12  20 3.12  25 3.12
                            17 3.12   1 3.12  26 3.12  28 3.12
  30  0.250  0.500  0.750-   7 3.12  11 3.12  24 3.12  31 3.12  29 3.12  22 3.12  26 3.12  14 3.12
                            21 3.12  32 3.12  17 3.12  15 3.12
  31  0.500  0.250  0.750-   8 3.12  27 3.12  29 3.12  30 3.12  24 3.12   4 3.12   9 3.12  17 3.12
                            20 3.12  23 3.12  19 3.12  32 3.12
  32  0.500  0.500  0.000-   9 3.12  15 3.12  26 3.12  28 3.12  20 3.12  25 3.12   2 3.12  10 3.12
                            24 3.12  30 3.12  18 3.12  31 3.12
 
  LATTYP: Found a simple cubic cell.
 ALAT       =     8.8330648300
  
  Lattice vectors:
  
 A1 = (   8.8330648300,   0.0000000000,   0.0000000000)
 A2 = (   0.0000001600,   8.8330648300,   0.0000000000)
 A3 = (   0.0000001600,   0.0000001600,   8.8330648300)
 Subroutine PRICEL returns following result:
 
  LATTYP: Found a face centered cubic cell.
 ALAT       =     4.4165324550
  
  Lattice vectors:
  
 A1 = (   2.2082662475,   2.2082662075,  -0.0000000000)
 A2 = (   2.2082661675,  -0.0000000400,  -2.2082662075)
 A3 = (   0.0000000000,   2.2082661675,  -2.2082662075)
 
  32 primitive cells build up your supercell.
 

Analysis of symmetry for initial positions (statically):

 Routine SETGRP: Setting up the symmetry group for a 
 simple cubic supercell.


 Subroutine GETGRP returns: Found 48 space group operations
 (whereof 48 operations were pure point group operations)
 out of a pool of 48 trial point group operations.


The static configuration has the point symmetry O_h .

Analysis of symmetry for dynamics (positions and initial velocities):

 Subroutine DYNSYM returns: Found 48 space group operations
 (whereof 48 operations were pure point group operations)
 out of a pool of 48 trial space group operations
 (whereof 48 operations were pure point group operations)
 and found also    32 'primitive' translations


The dynamic configuration has the point symmetry O_h .
 
 
 KPOINTS: Automatic mesh                          

Automatic generation of k-mesh.
 
 Subroutine IBZKPT returns following result:
 ===========================================
 
 Found     20 irreducible k-points:
 
 Following reciprocal coordinates:
            Coordinates               Weight
  0.062500  0.062500  0.062500      8.000000
  0.187500  0.062500  0.062500     24.000000
  0.312500  0.062500  0.062500     24.000000
  0.437500  0.062500  0.062500     24.000000
  0.187500  0.187500  0.062500     24.000000
  0.312500  0.187500  0.062500     48.000000
  0.437500  0.187500  0.062500     48.000000
  0.312500  0.312500  0.062500     24.000000
  0.437500  0.312500  0.062500     48.000000
  0.437500  0.437500  0.062500     24.000000
  0.187500  0.187500  0.187500      8.000000
  0.312500  0.187500  0.187500     24.000000
  0.437500  0.187500  0.187500     24.000000
  0.312500  0.312500  0.187500     24.000000
  0.437500  0.312500  0.187500     48.000000
  0.437500  0.437500  0.187500     24.000000
  0.312500  0.312500  0.312500      8.000000
  0.437500  0.312500  0.312500     24.000000
  0.437500  0.437500  0.312500     24.000000
  0.437500  0.437500  0.437500      8.000000
 
 Following cartesian coordinates:
            Coordinates               Weight
  0.007076  0.007076  0.007076      8.000000
  0.021227  0.007076  0.007076     24.000000
  0.035378  0.007076  0.007076     24.000000
  0.049530  0.007076  0.007076     24.000000
  0.021227  0.021227  0.007076     24.000000
  0.035378  0.021227  0.007076     48.000000
  0.049530  0.021227  0.007076     48.000000
  0.035378  0.035378  0.007076     24.000000
  0.049530  0.035378  0.007076     48.000000
  0.049530  0.049530  0.007076     24.000000
  0.021227  0.021227  0.021227      8.000000
  0.035378  0.021227  0.021227     24.000000
  0.049530  0.021227  0.021227     24.000000
  0.035378  0.035378  0.021227     24.000000
  0.049530  0.035378  0.021227     48.000000
  0.049530  0.049530  0.021227     24.000000
  0.035378  0.035378  0.035378      8.000000
  0.049530  0.035378  0.035378     24.000000
  0.049530  0.049530  0.035378     24.000000
  0.049530  0.049530  0.049530      8.000000
 


--------------------------------------------------------------------------------------------------------




 Dimension of arrays:
   k-Points           NKPTS =     20   number of bands    NBANDS=    212
   number of dos      NEDOS =    301   number of ions     NIONS =     32
   non local maximal  LDIM  =      6   non local SUM 2l+1 LMDIM =     18
   total plane-waves  NPLWV = 373248
   max r-space proj   IRMAX =      1   max aug-charges    IRDMAX= 265123
   dimension x,y,z NGX =    72 NGY =   72 NGZ =   72
   dimension x,y,z NGXF=   144 NGYF=  144 NGZF=  144
   support grid    NGXF=   288 NGYF=  288 NGZF=  288
   ions per type =              32
 NGX,Y,Z   is equivalent  to a cutoff of  13.55, 13.55, 13.55 a.u.
 NGXF,Y,Z  is equivalent  to a cutoff of  27.10, 27.10, 27.10 a.u.


 I would recommend the setting:
   dimension x,y,z NGX =    71 NGY =   71 NGZ =   71
 SYSTEM =  No title                                
 POSCAR =  No title                                

 Startparameter for this run:
   NWRITE =      2    write-flag & timer
   PREC   = accura    medium, high low
   ISTART =      0    job   : 0-new  1-cont  2-samecut
   ICHARG =      2    charge: 1-file 2-atom 10-const
   ISPIN  =      1    spin polarized calculation?
   LNONCOLLINEAR =      F non collinear calculations
   LSORBIT =      F    spin-orbit coupling
   INIWAV =      1    electr: 0-lowe 1-rand  2-diag
   LASPH  =      F    aspherical Exc in radial PAW
   METAGGA=      F    non-selfconsistent MetaGGA calc.

 Electronic Relaxation 1
   ENCUT  =  600.0 eV  44.10 Ry    6.64 a.u.  17.64 17.64 17.64*2*pi/ulx,y,z
   ENINI  =  600.0     initial cutoff
   ENAUG  =  356.7 eV  augmentation charge cutoff
   NELM   =     60;   NELMIN=  2; NELMDL=-12     # of ELM steps 
   EDIFF  = 0.1E-04   stopping-criterion for ELM
   LREAL  =      F    real-space projection
   LCOMPAT=      F    compatible to vasp.4.4
   LREAL_COMPAT= F    compatible to vasp.4.5.1-3
   GGA_COMPAT  = T    GGA compatible to vasp.4.4-vasp.4.6
   LMAXPAW     = -100 max onsite density
   LMAXMIX     =    2 max onsite mixed and CHGCAR
   VOSKOWN=      1    Vosko Wilk Nusair interpolation
   ROPT   =    0.00000
 Ionic relaxation
   EDIFFG = -.2E-01   stopping-criterion for IOM
   NSW    =    100    number of steps for IOM
   NBLOCK =      1;   KBLOCK =    100    inner block; outer block 
   IBRION =      2    ionic relax: 0-MD 1-quasi-New 2-CG
   NFREE  =      1    steps in history (QN), initial steepest desc. (CG)
   ISIF   =      2    stress and relaxation
   IWAVPR =     11    prediction:  0-non 1-charg 2-wave 3-comb
   ISYM   =      2    0-nonsym 1-usesym 2-fastsym
   LCORR  =      T    Harris-Foulkes like correction to forces

   POTIM  =   0.50    time-step for ionic-motion
   TEIN   =    0.0    initial temperature
   TEBEG  =    0.0;   TEEND  =   0.0 temperature during run
   SMASS  =  -3.00    Nose mass-parameter (am)
   estimated Nose-frequenzy (Omega)   =  0.10E-29 period in steps =****** mass=  -0.178E-26a.u.
   NPACO  =    256;   APACO  = 16.0  distance and # of slots for P.C.
   PSTRESS=    0.0 pullay stress

  Mass of Ions in am
   POMASS = 196.97
  Ionic Valenz
   ZVAL   =  11.00
  Atomic Wigner-Seitz radii
   RWIGS  =   1.34
   NELECT =     352.0000    total number of electrons
   NUPDOWN=      -1.0000    fix difference up-down

 DOS related values:
   EMIN   =  10.00;   EMAX   =-10.00  energy-range for DOS
   ISMEAR =     1;   SIGMA  =   0.20  broadening in eV -4-tet -1-fermi 0-gaus

 Electronic relaxation 2 (details)
   IALGO  =     48    algorithm
   LDIAG  =      T    sub-space diagonalisation
   IMIX   =      4    mixing-type and parameters
     AMIX     =   0.40;   BMIX     =  1.00
     AMIX_MAG =   1.60;   BMIX_MAG =  1.00
     AMIN     =   0.10
     WC   =   100.;   INIMIX=   1;  MIXPRE=   1

 Intra band minimization:
   WEIMIN = 0.0010     energy-eigenvalue tresh-hold
   EBREAK =  0.12E-07  absolut break condition
   DEPER  =   0.30     relativ break condition  

   TIME   =   0.10     timestep for ELM

  volume/ion in A,a.u.               =      21.54       145.34
  Fermi-wavevector in a.u.,eV,Ry     =   1.308612 23.299513  1.712466

 Second variation
   LSECVAR=     F    do a second variation
 
 Write flags
   LWAVE  =      T    write WAVECAR
   LCHARG =      F    write CHGCAR
   LVTOT  =      F    write LOCPOT, local potential
   LELF   =      F    write electronic localiz. function (ELF)
   LORBIT =      0    0 simple, 1 ext, 2 COOP (PROOUT)


 Dipole corrections
   IDIPOL =      0    1-x, 2-y, 3-z
   LDIPOL =      F    correct potential



--------------------------------------------------------------------------------------------------------


 conjugate gradient relaxation of ions
 charge density will be updated during run
 non-spin polarized calculation
 RMM-DIIS sequential band-by-band
 performe sub-space diagonalisation
    before iterative eigenvector-optimisation
 modified Broyden-mixing scheme, WC =      100.0
 initial mixing is a Kerker type mixing with AMIX =  0.4000 and BMIX =      1.0000
 Hartree-type preconditioning will be used
 using additional bands           36
 reciprocal scheme for non local part
 use partial core corrections
 calculate Harris-corrections to forces 
   (improved forces if not selfconsistent)
 use gradient corrections 
 use of overlap-Matrix (Vanderbilt PP)
 Methfessel and Paxton  Order N= 1 SIGMA  =   0.20


--------------------------------------------------------------------------------------------------------


  energy-cutoff  :      600.00
  volume of cell :      689.18
      direct lattice vectors                 reciprocal lattice vectors
     8.833064830  0.000000000  0.000000000     0.113210988 -0.000000002 -0.000000002
     0.000000160  8.833064830  0.000000000     0.000000000  0.113210988 -0.000000002
     0.000000160  0.000000160  8.833064830     0.000000000  0.000000000  0.113210988

  length of vectors
     8.833064830  8.833064830  8.833064830     0.113210988  0.113210988  0.113210988


 
 k-points in units of 2pi/SCALE and weight: Automatic mesh                          
   0.00707569  0.00707569  0.00707569       0.016
   0.02122706  0.00707569  0.00707569       0.047
   0.03537843  0.00707569  0.00707569       0.047
   0.04952981  0.00707569  0.00707569       0.047
   0.02122706  0.02122706  0.00707569       0.047
   0.03537843  0.02122706  0.00707569       0.094
   0.04952981  0.02122706  0.00707569       0.094
   0.03537843  0.03537843  0.00707569       0.047
   0.04952981  0.03537843  0.00707569       0.094
   0.04952981  0.04952981  0.00707568       0.047
   0.02122706  0.02122706  0.02122706       0.016
   0.03537843  0.02122706  0.02122706       0.047
   0.04952981  0.02122706  0.02122706       0.047
   0.03537843  0.03537843  0.02122706       0.047
   0.04952981  0.03537843  0.02122706       0.094
   0.04952981  0.04952981  0.02122706       0.047
   0.03537843  0.03537843  0.03537843       0.016
   0.04952981  0.03537843  0.03537843       0.047
   0.04952981  0.04952981  0.03537843       0.047
   0.04952981  0.04952981  0.04952981       0.016
 
 k-points in reciprocal lattice and weights: Automatic mesh                          
   0.06250000  0.06250000  0.06250000       0.016
   0.18750000  0.06250000  0.06250000       0.047
   0.31250000  0.06250000  0.06250000       0.047
   0.43750000  0.06250000  0.06250000       0.047
   0.18750000  0.18750000  0.06250000       0.047
   0.31250000  0.18750000  0.06250000       0.094
   0.43750000  0.18750000  0.06250000       0.094
   0.31250000  0.31250000  0.06250000       0.047
   0.43750000  0.31250000  0.06250000       0.094
   0.43750000  0.43750000  0.06250000       0.047
   0.18750000  0.18750000  0.18750000       0.016
   0.31250000  0.18750000  0.18750000       0.047
   0.43750000  0.18750000  0.18750000       0.047
   0.31250000  0.31250000  0.18750000       0.047
   0.43750000  0.31250000  0.18750000       0.094
   0.43750000  0.43750000  0.18750000       0.047
   0.31250000  0.31250000  0.31250000       0.016
   0.43750000  0.31250000  0.31250000       0.047
   0.43750000  0.43750000  0.31250000       0.047
   0.43750000  0.43750000  0.43750000       0.016
 
 position of ions in fractional coordinates (direct lattice) 
   0.75000000  0.75000000  0.50000000
   0.75000000  0.75000000  0.00000000
   0.75000000  0.00000000  0.25000000
   0.75000000  0.25000000  0.50000000
   0.00000000  0.75000000  0.25000000
   0.00000000  0.00000000  0.50000000
   0.25000000  0.75000000  0.50000000
   0.75000000  0.00000000  0.75000000
   0.75000000  0.25000000  0.00000000
   0.75000000  0.50000000  0.25000000
   0.00000000  0.75000000  0.75000000
   0.00000000  0.00000000  0.00000000
   0.00000000  0.25000000  0.25000000
   0.00000000  0.50000000  0.50000000
   0.25000000  0.75000000  0.00000000
   0.25000000  0.00000000  0.25000000
   0.25000000  0.25000000  0.50000000
   0.50000000  0.75000000  0.25000000
   0.50000000  0.00000000  0.50000000
   0.75000000  0.50000000  0.75000000
   0.00000000  0.25000000  0.75000000
   0.00000000  0.50000000  0.00000000
   0.25000000  0.00000000  0.75000000
   0.25000000  0.25000000  0.00000000
   0.25000000  0.50000000  0.25000000
   0.50000000  0.75000000  0.75000000
   0.50000000  0.00000000  0.00000000
   0.50000000  0.25000000  0.25000000
   0.50000000  0.50000000  0.50000000
   0.25000000  0.50000000  0.75000000
   0.50000000  0.25000000  0.75000000
   0.50000000  0.50000000  0.00000000
 
 position of ions in cartesian coordinates  (Angst):
   6.62479882  6.62479870  4.41653241
   6.62479874  6.62479862  0.00000000
   6.62479866  0.00000004  2.20826621
   6.62479874  2.20826629  4.41653241
   0.00000016  6.62479866  2.20826621
   0.00000008  0.00000008  4.41653241
   2.20826641  6.62479870  4.41653241
   6.62479874  0.00000012  6.62479862
   6.62479866  2.20826621  0.00000000
   6.62479874  4.41653245  2.20826621
   0.00000024  6.62479874  6.62479862
   0.00000000  0.00000000  0.00000000
   0.00000008  2.20826625  2.20826621
   0.00000016  4.41653250  4.41653241
   2.20826633  6.62479862  0.00000000
   2.20826625  0.00000004  2.20826621
   2.20826633  2.20826629  4.41653241
   4.41653257  6.62479866  2.20826621
   4.41653250  0.00000008  4.41653241
   6.62479882  4.41653253  6.62479862
   0.00000016  2.20826633  6.62479862
   0.00000008  4.41653241  0.00000000
   2.20826633  0.00000012  6.62479862
   2.20826625  2.20826621  0.00000000
   2.20826633  4.41653245  2.20826621
   4.41653266  6.62479874  6.62479862
   4.41653241  0.00000000  0.00000000
   4.41653249  2.20826625  2.20826621
   4.41653258  4.41653250  4.41653241
   2.20826641  4.41653253  6.62479862
   4.41653257  2.20826633  6.62479862
   4.41653250  4.41653241  0.00000000
 


--------------------------------------------------------------------------------------------------------


 k-point  1 :  0.06250.06250.0625  plane waves:  22995
 k-point  2 :  0.18750.06250.0625  plane waves:  23019
 k-point  3 :  0.31250.06250.0625  plane waves:  23010
 k-point  4 :  0.43750.06250.0625  plane waves:  23011
 k-point  5 :  0.18750.18750.0625  plane waves:  23005
 k-point  6 :  0.31250.18750.0625  plane waves:  22995
 k-point  7 :  0.43750.18750.0625  plane waves:  23009
 k-point  8 :  0.31250.31250.0625  plane waves:  23011
 k-point  9 :  0.43750.31250.0625  plane waves:  23007
 k-point 10 :  0.43750.43750.0625  plane waves:  23002
 k-point 11 :  0.18750.18750.1875  plane waves:  22988
 k-point 12 :  0.31250.18750.1875  plane waves:  23011
 k-point 13 :  0.43750.18750.1875  plane waves:  23005
 k-point 14 :  0.31250.31250.1875  plane waves:  22990
 k-point 15 :  0.43750.31250.1875  plane waves:  23002
 k-point 16 :  0.43750.43750.1875  plane waves:  22995
 k-point 17 :  0.31250.31250.3125  plane waves:  22967
 k-point 18 :  0.43750.31250.3125  plane waves:  22989
 k-point 19 :  0.43750.43750.3125  plane waves:  22962
 k-point 20 :  0.43750.43750.4375  plane waves:  22928

 maximum and minimum number of plane-waves per node :  23019 22928

 maximum number of plane-waves:  23019
 maximal index in each direction: 
   IXMAX= 17   IYMAX= 17   IZMAX= 17
   IXMIN=-18   IYMIN=-18   IZMIN=-18

 NGX is ok and might be reduce to  72
 NGY is ok and might be reduce to  72
 NGZ is ok and might be reduce to  72

 parallel 3dFFT wavefunction:
    minimum data exchange during FFTs selected (reduces bandwidth)
 parallel 3dFFT charge:
    minimum data exchange during FFTs selected (reduces bandwidth)

 For storing wavefunctions 1559.98 MBYTES are necessary
 For predicting wavefunctions  167.64 MBYTES are necessary
Broyden mixing: mesh for mixing (old mesh)
   NGX = 35   NGY = 35   NGZ = 35
  (NGX  =144   NGY  =144   NGZ  =144)
 gives a total of  42875 points
 initial charge density was supplied:
 charge density of overlapping atoms calculated
 number of electron  352.0000000 magnetization 
 keeping initial charge density in first step


--------------------------------------------------------------------------------------------------------


 Maximum index for augmentation-charges        64115 (set IRDMAX)


--------------------------------------------------------------------------------------------------------


 First call to EWALD:  gamma=   0.201
 Maximum number of real-space cells 3x 3x 3
 Maximum number of reciprocal cells 3x 3x 3

    FEWALD:  VPU time    0.01: CPU time    0.01


----------------------------------------- Iteration    1(   1)  ---------------------------------------


    POTLOK:  VPU time    1.64: CPU time    1.64
    SETDIJ:  VPU time    3.19: CPU time    3.19
    EDDIAG:  VPU time   66.44: CPU time   66.46
  RMM-DIIS:  VPU time  230.79: CPU time  230.85
    ORTHCH:  VPU time    8.83: CPU time    8.83
    DOS   :  VPU time    0.00: CPU time   -0.00
    ------------------------------------------
      LOOP:  VPU time  310.96: CPU time  311.04

 eigenvalue-minimisations  :  4240
 total energy-change (2. order) : 0.4451180E+04  (-0.1550368E+05)
 number of electron  352.0000000 magnetization 
 augmentation part   352.0000000 magnetization 

 Free energy of the ion-electron system (eV)
  ---------------------------------------------------
  alpha Z        PSCENC =      2782.67082173
  Ewald energy   TEWEN  =    -28940.52001762
  -1/2 Hartree   DENC   =     -4969.06806015
  -V(xc)+E(xc)   XCENC  =       468.58493030
  PAW double counting   =     23920.39735419   -23172.13309131
  entropy T*S    EENTRO =        -0.00307783
  eigenvalues    EBANDS =      4727.47746948
  atomic energy  EATOM  =     29633.77399530
  ---------------------------------------------------
  free energy    TOTEN  =      4451.18032410 eV

  energy without entropy =     4451.18340193  energy(sigma->0) =     4451.18135005


--------------------------------------------------------------------------------------------------------




----------------------------------------- Iteration    1(   2)  ---------------------------------------


    EDDIAG:  VPU time   73.93: CPU time   73.96
  RMM-DIIS:  VPU time  861.49: CPU time  862.15
    ORTHCH:  VPU time   24.06: CPU time   24.08
    DOS   :  VPU time    0.00: CPU time   -0.00
    ------------------------------------------
      LOOP:  VPU time  959.55: CPU time  960.28

 eigenvalue-minimisations  :  4240
 total energy-change (2. order) :-0.3446426E+04  (-0.3658988E+04)
 number of electron  352.0000000 magnetization 
 augmentation part   352.0000000 magnetization 

 Free energy of the ion-electron system (eV)
  ---------------------------------------------------
  alpha Z        PSCENC =      2782.67082173
  Ewald energy   TEWEN  =    -28940.52001762
  -1/2 Hartree   DENC   =     -4969.06806015
  -V(xc)+E(xc)   XCENC  =       468.58493030
  PAW double counting   =     23920.39735419   -23172.13309131
  entropy T*S    EENTRO =         0.00678707
  eigenvalues    EBANDS =      1281.04130924
  atomic energy  EATOM  =     29633.77399530
  ---------------------------------------------------
  free energy    TOTEN  =      1004.75402877 eV

  energy without entropy =     1004.74724169  energy(sigma->0) =     1004.75176641


--------------------------------------------------------------------------------------------------------




----------------------------------------- Iteration    1(   3)  ---------------------------------------


    EDDIAG:  VPU time  172.38: CPU time  172.51
  RMM-DIIS:  VPU time  852.62: CPU time  853.35
    ORTHCH:  VPU time   18.41: CPU time   18.45
    DOS   :  VPU time    0.00: CPU time   -0.00
    ------------------------------------------
      LOOP:  VPU time 1043.48: CPU time 1044.39

 eigenvalue-minimisations  :  4240
 total energy-change (2. order) :-0.7434643E+03  (-0.7918234E+03)
 number of electron  352.0000000 magnetization 
 augmentation part   352.0000000 magnetization 

 Free energy of the ion-electron system (eV)
  ---------------------------------------------------
  alpha Z        PSCENC =      2782.67082173
  Ewald energy   TEWEN  =    -28940.52001762
  -1/2 Hartree   DENC   =     -4969.06806015
  -V(xc)+E(xc)   XCENC  =       468.58493030
  PAW double counting   =     23920.39735419   -23172.13309131
  entropy T*S    EENTRO =         0.02214083
  eigenvalues    EBANDS =       537.56169472
  atomic energy  EATOM  =     29633.77399530
  ---------------------------------------------------
  free energy    TOTEN  =       261.28976799 eV

  energy without entropy =      261.26762717  energy(sigma->0) =      261.28238772


--------------------------------------------------------------------------------------------------------




----------------------------------------- Iteration    1(   4)  ---------------------------------------


    EDDIAG:  VPU time  135.00: CPU time  135.10
  RMM-DIIS:  VPU time  767.87: CPU time  768.41
    ORTHCH:  VPU time   16.54: CPU time   16.54
    DOS   :  VPU time    0.00: CPU time   -0.00
    ------------------------------------------
      LOOP:  VPU time  919.49: CPU time  920.16

 eigenvalue-minimisations  :  4240
 total energy-change (2. order) :-0.2286623E+03  (-0.1781458E+03)
 number of electron  352.0000000 magnetization 
 augmentation part   352.0000000 magnetization 

 Free energy of the ion-electron system (eV)
  ---------------------------------------------------
  alpha Z        PSCENC =      2782.67082173
  Ewald energy   TEWEN  =    -28940.52001762
  -1/2 Hartree   DENC   =     -4969.06806015
  -V(xc)+E(xc)   XCENC  =       468.58493030
  PAW double counting   =     23920.39735419   -23172.13309131
  entropy T*S    EENTRO =        -0.00932135
  eigenvalues    EBANDS =       308.93087832
  atomic energy  EATOM  =     29633.77399530
  ---------------------------------------------------
  free energy    TOTEN  =        32.62748942 eV

  energy without entropy =       32.63681077  energy(sigma->0) =       32.63059654


--------------------------------------------------------------------------------------------------------




----------------------------------------- Iteration    1(   5)  ---------------------------------------


    EDDIAG:  VPU time  134.78: CPU time  135.27
  RMM-DIIS:  VPU time  765.19: CPU time  768.10
    ORTHCH:  VPU time   16.65: CPU time   16.69
    DOS   :  VPU time    0.00: CPU time   -0.00
    ------------------------------------------
      LOOP:  VPU time  916.69: CPU time  920.18

 eigenvalue-minimisations  :  4240
 total energy-change (2. order) :-0.8626167E+02  (-0.5907353E+02)
 number of electron  352.0000000 magnetization 
 augmentation part   352.0000000 magnetization 

 Free energy of the ion-electron system (eV)
  ---------------------------------------------------
  alpha Z        PSCENC =      2782.67082173
  Ewald energy   TEWEN  =    -28940.52001762
  -1/2 Hartree   DENC   =     -4969.06806015
  -V(xc)+E(xc)   XCENC  =       468.58493030
  PAW double counting   =     23920.39735419   -23172.13309131
  entropy T*S    EENTRO =         0.00156461
  eigenvalues    EBANDS =       222.65832404
  atomic energy  EATOM  =     29633.77399530
  ---------------------------------------------------
  free energy    TOTEN  =       -53.63417891 eV

  energy without entropy =      -53.63574351  energy(sigma->0) =      -53.63470044


--------------------------------------------------------------------------------------------------------




----------------------------------------- Iteration    1(   6)  ---------------------------------------


    EDDIAG:  VPU time  134.81: CPU time  135.31
  RMM-DIIS:  VPU time  762.75: CPU time  764.64
    ORTHCH:  VPU time   16.65: CPU time   16.66
    DOS   :  VPU time    0.00: CPU time   -0.00
    ------------------------------------------
      LOOP:  VPU time  914.29: CPU time  916.68

 eigenvalue-minimisations  :  4240
 total energy-change (2. order) :-0.3038777E+02  (-0.2337326E+02)
 number of electron  352.0000000 magnetization 
 augmentation part   352.0000000 magnetization 

 Free energy of the ion-electron system (eV)
  ---------------------------------------------------
  alpha Z        PSCENC =      2782.67082173
  Ewald energy   TEWEN  =    -28940.52001762
  -1/2 Hartree   DENC   =     -4969.06806015
  -V(xc)+E(xc)   XCENC  =       468.58493030
  PAW double counting   =     23920.39735419   -23172.13309131
  entropy T*S    EENTRO =         0.00155019
  eigenvalues    EBANDS =       192.27057311
  atomic energy  EATOM  =     29633.77399530
  ---------------------------------------------------
  free energy    TOTEN  =       -84.02194426 eV

  energy without entropy =      -84.02349445  energy(sigma->0) =      -84.02246099


--------------------------------------------------------------------------------------------------------




----------------------------------------- Iteration    1(   7)  ---------------------------------------


    EDDIAG:  VPU time  135.25: CPU time  135.32
  RMM-DIIS:  VPU time  755.28: CPU time  755.64
    ORTHCH:  VPU time   19.76: CPU time   19.77
    DOS   :  VPU time    0.00: CPU time   -0.00
    ------------------------------------------
      LOOP:  VPU time  910.37: CPU time  910.81

 eigenvalue-minimisations  :  4240
 total energy-change (2. order) :-0.1376422E+02  (-0.1046372E+02)
 number of electron  352.0000000 magnetization 
 augmentation part   352.0000000 magnetization 

 Free energy of the ion-electron system (eV)
  ---------------------------------------------------
  alpha Z        PSCENC =      2782.67082173
  Ewald energy   TEWEN  =    -28940.52001762
  -1/2 Hartree   DENC   =     -4969.06806015
  -V(xc)+E(xc)   XCENC  =       468.58493030
  PAW double counting   =     23920.39735419   -23172.13309131
  entropy T*S    EENTRO =         0.01430824
  eigenvalues    EBANDS =       178.49359354
  atomic energy  EATOM  =     29633.77399530
  ---------------------------------------------------
  free energy    TOTEN  =       -97.78616577 eV

  energy without entropy =      -97.80047401  energy(sigma->0) =      -97.79093518


--------------------------------------------------------------------------------------------------------




----------------------------------------- Iteration    1(   8)  ---------------------------------------


    EDDIAG:  VPU time  131.46: CPU time  131.53
  RMM-DIIS:  VPU time  751.98: CPU time  752.33
    ORTHCH:  VPU time   19.88: CPU time   19.88
    DOS   :  VPU time   -0.00: CPU time   -0.00
    ------------------------------------------
      LOOP:  VPU time  903.40: CPU time  903.84

 eigenvalue-minimisations  :  4240
 total energy-change (2. order) :-0.4795671E+01  (-0.4241578E+01)
 number of electron  352.0000000 magnetization 
 augmentation part   352.0000000 magnetization 

 Free energy of the ion-electron system (eV)
  ---------------------------------------------------
  alpha Z        PSCENC =      2782.67082173
  Ewald energy   TEWEN  =    -28940.52001762
  -1/2 Hartree   DENC   =     -4969.06806015
  -V(xc)+E(xc)   XCENC  =       468.58493030
  PAW double counting   =     23920.39735419   -23172.13309131
  entropy T*S    EENTRO =         0.01158849
  eigenvalues    EBANDS =       173.70064263
  atomic energy  EATOM  =     29633.77399530
  ---------------------------------------------------
  free energy    TOTEN  =      -102.58183643 eV

  energy without entropy =     -102.59342493  energy(sigma->0) =     -102.58569926


--------------------------------------------------------------------------------------------------------




----------------------------------------- Iteration    1(   9)  ---------------------------------------


    EDDIAG:  VPU time  131.52: CPU time  131.73
  RMM-DIIS:  VPU time 1455.21: CPU time 1457.36
    ORTHCH:  VPU time   22.24: CPU time   22.28
    DOS   :  VPU time   -0.00: CPU time   -0.00
    ------------------------------------------
      LOOP:  VPU time 1609.06: CPU time 1611.45

 eigenvalue-minimisations  :  9010
 total energy-change (2. order) :-0.2925363E+01  (-0.2705371E+01)
 number of electron  352.0000000 magnetization 
 augmentation part   352.0000000 magnetization 

 Free energy of the ion-electron system (eV)
  ---------------------------------------------------
  alpha Z        PSCENC =      2782.67082173
  Ewald energy   TEWEN  =    -28940.52001762
  -1/2 Hartree   DENC   =     -4969.06806015
  -V(xc)+E(xc)   XCENC  =       468.58493030
  PAW double counting   =     23920.39735419   -23172.13309131
  entropy T*S    EENTRO =         0.01090615
  eigenvalues    EBANDS =       170.77596242
  atomic energy  EATOM  =     29633.77399530
  ---------------------------------------------------
  free energy    TOTEN  =      -105.50719898 eV

  energy without entropy =     -105.51810513  energy(sigma->0) =     -105.51083436


--------------------------------------------------------------------------------------------------------




----------------------------------------- Iteration    1(  10)  ---------------------------------------


    EDDIAG:  VPU time  160.81: CPU time  161.44
  RMM-DIIS:  VPU time 1975.07: CPU time 1982.14
    ORTHCH:  VPU time   23.72: CPU time   23.76
    DOS   :  VPU time    0.00: CPU time   -0.00
    ------------------------------------------
      LOOP:  VPU time 2159.70: CPU time 2167.45

 eigenvalue-minimisations  :  9892
 total energy-change (2. order) :-0.3276541E+00  (-0.3395736E+00)
 number of electron  352.0000000 magnetization 
 augmentation part   352.0000000 magnetization 

 Free energy of the ion-electron system (eV)
  ---------------------------------------------------
  alpha Z        PSCENC =      2782.67082173
  Ewald energy   TEWEN  =    -28940.52001762
  -1/2 Hartree   DENC   =     -4969.06806015
  -V(xc)+E(xc)   XCENC  =       468.58493030
  PAW double counting   =     23920.39735419   -23172.13309131
  entropy T*S    EENTRO =         0.01069966
  eigenvalues    EBANDS =       170.44851483
  atomic energy  EATOM  =     29633.77399530
  ---------------------------------------------------
  free energy    TOTEN  =      -105.83485306 eV

  energy without entropy =     -105.84555272  energy(sigma->0) =     -105.83841961


--------------------------------------------------------------------------------------------------------




----------------------------------------- Iteration    1(  11)  ---------------------------------------


    EDDIAG:  VPU time  156.35: CPU time  156.70
  RMM-DIIS:  VPU time 1795.79: CPU time 1799.34
    ORTHCH:  VPU time   23.68: CPU time   23.78
    DOS   :  VPU time    0.00: CPU time   -0.00
    ------------------------------------------
      LOOP:  VPU time 1975.91: CPU time 1979.92

 eigenvalue-minimisations  :  9212
 total energy-change (2. order) :-0.1198331E-01  (-0.9537131E-02)
 number of electron  352.0000000 magnetization 
 augmentation part   352.0000000 magnetization 

 Free energy of the ion-electron system (eV)
  ---------------------------------------------------
  alpha Z        PSCENC =      2782.67082173
  Ewald energy   TEWEN  =    -28940.52001762
  -1/2 Hartree   DENC   =     -4969.06806015
  -V(xc)+E(xc)   XCENC  =       468.58493030
  PAW double counting   =     23920.39735419   -23172.13309131
  entropy T*S    EENTRO =         0.01069779
  eigenvalues    EBANDS =       170.43653339
  atomic energy  EATOM  =     29633.77399530
  ---------------------------------------------------
  free energy    TOTEN  =      -105.84683637 eV

  energy without entropy =     -105.85753416  energy(sigma->0) =     -105.85040230


--------------------------------------------------------------------------------------------------------




----------------------------------------- Iteration    1(  12)  ---------------------------------------


    EDDIAG:  VPU time  149.12: CPU time  149.67
  RMM-DIIS:  VPU time 1491.61: CPU time 1494.81
    ORTHCH:  VPU time   20.05: CPU time   20.09
    DOS   :  VPU time    0.00: CPU time   -0.00
    CHARGE:  VPU time   69.80: CPU time   69.92
    MIXING:  VPU time    0.32: CPU time    0.32
    ------------------------------------------
      LOOP:  VPU time 1730.99: CPU time 1734.90

 eigenvalue-minimisations  :  9234
 total energy-change (2. order) :-0.2070175E-02  (-0.1963875E-02)
 number of electron  352.0000007 magnetization 
 augmentation part   125.2087075 magnetization 

 Broyden mixing:
  rms(total) = 0.14592E+01    rms(broyden)= 0.14592E+01
  rms(prec ) = 0.22263E+01
  weight for this iteration     100.00

 Free energy of the ion-electron system (eV)
  ---------------------------------------------------
  alpha Z        PSCENC =      2782.67082173
  Ewald energy   TEWEN  =    -28940.52001762
  -1/2 Hartree   DENC   =     -4969.06806015
  -V(xc)+E(xc)   XCENC  =       468.58493030
  PAW double counting   =     23920.39735419   -23172.13309131
  entropy T*S    EENTRO =         0.01069845
  eigenvalues    EBANDS =       170.43446255
  atomic energy  EATOM  =     29633.77399530
  ---------------------------------------------------
  free energy    TOTEN  =      -105.84890655 eV

  energy without entropy =     -105.85960500  energy(sigma->0) =     -105.85247270


--------------------------------------------------------------------------------------------------------




----------------------------------------- Iteration    1(  13)  ---------------------------------------


    POTLOK:  VPU time    2.81: CPU time    2.81
    SETDIJ:  VPU time    7.12: CPU time    7.14
    EDDIAG:  VPU time  131.99: CPU time  132.25
  RMM-DIIS:  VPU time 1343.79: CPU time 1347.05
    ORTHCH:  VPU time   19.97: CPU time   20.01
    DOS   :  VPU time    0.00: CPU time   -0.00
    CHARGE:  VPU time   69.17: CPU time   69.28
    MIXING:  VPU time    0.32: CPU time    0.32
    ------------------------------------------
      LOOP:  VPU time 1575.26: CPU time 1578.94

 eigenvalue-minimisations  :  8480
 total energy-change (2. order) : 0.6626997E+01  (-0.2150787E+01)
 number of electron  352.0000007 magnetization 
 augmentation part   129.6165000 magnetization 

 Broyden mixing:
  rms(total) = 0.36832E+00    rms(broyden)= 0.36832E+00
  rms(prec ) = 0.52534E+00
  weight for this iteration     100.00

 eigenvalues of (default mixing * dielectric matrix)
  average eigenvalue GAMMA=   1.1459
  1.1459

 Free energy of the ion-electron system (eV)
  ---------------------------------------------------
  alpha Z        PSCENC =      2782.67082173
  Ewald energy   TEWEN  =    -28940.52001762
  -1/2 Hartree   DENC   =     -4719.76237808
  -V(xc)+E(xc)   XCENC  =       457.48010599
  PAW double counting   =     23460.45860468   -22738.48350488
  entropy T*S    EENTRO =        -0.00470507
  eigenvalues    EBANDS =       -34.83483177
  atomic energy  EATOM  =     29633.77399530
  ---------------------------------------------------
  free energy    TOTEN  =       -99.22190970 eV

  energy without entropy =      -99.21720464  energy(sigma->0) =      -99.22034135


--------------------------------------------------------------------------------------------------------




----------------------------------------- Iteration    1(  14)  ---------------------------------------


    POTLOK:  VPU time    2.83: CPU time    2.91
    SETDIJ:  VPU time    7.15: CPU time    7.15
    EDDIAG:  VPU time  113.54: CPU time  113.58
  RMM-DIIS:  VPU time 1176.84: CPU time 1177.34
    ORTHCH:  VPU time   14.40: CPU time   14.40
    DOS   :  VPU time    0.00: CPU time   -0.00
    CHARGE:  VPU time   52.38: CPU time   52.39
    MIXING:  VPU time    0.19: CPU time    0.19
    ------------------------------------------
      LOOP:  VPU time 1367.41: CPU time 1368.06

 eigenvalue-minimisations  :  8482
 total energy-change (2. order) : 0.1693348E+00  (-0.1806227E+00)
 number of electron  352.0000007 magnetization 
 augmentation part   130.5433089 magnetization 

 Broyden mixing:
  rms(total) = 0.18137E+00    rms(broyden)= 0.18137E+00
  rms(prec ) = 0.20622E+00
  weight for this iteration     100.00

 eigenvalues of (default mixing * dielectric matrix)
  average eigenvalue GAMMA=   1.7227
  1.2278  2.2177

 Free energy of the ion-electron system (eV)
  ---------------------------------------------------
  alpha Z        PSCENC =      2782.67082173
  Ewald energy   TEWEN  =    -28940.52001762
  -1/2 Hartree   DENC   =     -4658.61533032
  -V(xc)+E(xc)   XCENC  =       454.57724357
  PAW double counting   =     23390.16957770   -22682.26014612
  entropy T*S    EENTRO =        -0.00697712
  eigenvalues    EBANDS =       -78.84174198
  atomic energy  EATOM  =     29633.77399530
  ---------------------------------------------------
  free energy    TOTEN  =       -99.05257487 eV

  energy without entropy =      -99.04559774  energy(sigma->0) =      -99.05024916


--------------------------------------------------------------------------------------------------------




----------------------------------------- Iteration    1(  15)  ---------------------------------------


    POTLOK:  VPU time    2.19: CPU time    2.20
    SETDIJ:  VPU time    5.16: CPU time    5.16
    EDDIAG:  VPU time  100.31: CPU time  100.35
  RMM-DIIS:  VPU time 1178.19: CPU time 1178.69
    ORTHCH:  VPU time   14.39: CPU time   14.40
    DOS   :  VPU time    0.00: CPU time   -0.00
    CHARGE:  VPU time   52.46: CPU time   52.48
    MIXING:  VPU time    0.19: CPU time    0.19
    ------------------------------------------
      LOOP:  VPU time 1352.97: CPU time 1353.55

 eigenvalue-minimisations  :  8484
 total energy-change (2. order) : 0.3793500E-01  (-0.9787520E-02)
 number of electron  352.0000007 magnetization 
 augmentation part   130.3867282 magnetization 

 Broyden mixing:
  rms(total) = 0.32532E-01    rms(broyden)= 0.32530E-01
  rms(prec ) = 0.50218E-01
  weight for this iteration     100.00

 eigenvalues of (default mixing * dielectric matrix)
  average eigenvalue GAMMA=   1.7589
  1.2384  1.2384  2.8001

 Free energy of the ion-electron system (eV)
  ---------------------------------------------------
  alpha Z        PSCENC =      2782.67082173
  Ewald energy   TEWEN  =    -28940.52001762
  -1/2 Hartree   DENC   =     -4649.68068287
  -V(xc)+E(xc)   XCENC  =       453.92111278
  PAW double counting   =     23463.81210992   -22767.10541860
  entropy T*S    EENTRO =        -0.00660233
  eigenvalues    EBANDS =       -75.87995818
  atomic energy  EATOM  =     29633.77399530
  ---------------------------------------------------
  free energy    TOTEN  =       -99.01463987 eV

  energy without entropy =      -99.00803754  energy(sigma->0) =      -99.01243909


--------------------------------------------------------------------------------------------------------




----------------------------------------- Iteration    1(  16)  ---------------------------------------


    POTLOK:  VPU time    2.18: CPU time    2.19
    SETDIJ:  VPU time    5.17: CPU time    5.17
    EDDIAG:  VPU time  100.23: CPU time  100.26
  RMM-DIIS:  VPU time 1179.42: CPU time 1179.92
    ORTHCH:  VPU time   14.37: CPU time   14.38
    DOS   :  VPU time   -0.00: CPU time   -0.00
    CHARGE:  VPU time   52.42: CPU time   52.43
    MIXING:  VPU time    0.19: CPU time    0.19
    ------------------------------------------
      LOOP:  VPU time 1354.06: CPU time 1354.65

 eigenvalue-minimisations  :  8495
 total energy-change (2. order) : 0.6009925E-03  (-0.2693010E-02)
 number of electron  352.0000007 magnetization 
 augmentation part   130.5281500 magnetization 

 Broyden mixing:
  rms(total) = 0.13093E-01    rms(broyden)= 0.13093E-01
  rms(prec ) = 0.18410E-01
  weight for this iteration     100.00

 eigenvalues of (default mixing * dielectric matrix)
  average eigenvalue GAMMA=   1.8631
  1.0787  1.0787  2.7019  2.5929

 Free energy of the ion-electron system (eV)
  ---------------------------------------------------
  alpha Z        PSCENC =      2782.67082173
  Ewald energy   TEWEN  =    -28940.52001762
  -1/2 Hartree   DENC   =     -4639.08656357
  -V(xc)+E(xc)   XCENC  =       453.40958356
  PAW double counting   =     23463.18640894   -22768.52248390
  entropy T*S    EENTRO =        -0.00689525
  eigenvalues    EBANDS =       -83.91888807
  atomic energy  EATOM  =     29633.77399530
  ---------------------------------------------------
  free energy    TOTEN  =       -99.01403888 eV

  energy without entropy =      -99.00714363  energy(sigma->0) =      -99.01174046


--------------------------------------------------------------------------------------------------------




----------------------------------------- Iteration    1(  17)  ---------------------------------------


    POTLOK:  VPU time    2.18: CPU time    2.19
    SETDIJ:  VPU time    5.16: CPU time    5.17
    EDDIAG:  VPU time  100.25: CPU time  100.29
  RMM-DIIS:  VPU time 1199.13: CPU time 1199.63
    ORTHCH:  VPU time   14.37: CPU time   14.37
    DOS   :  VPU time    0.00: CPU time   -0.00
    CHARGE:  VPU time   52.52: CPU time   52.54
    MIXING:  VPU time    0.20: CPU time    0.20
    ------------------------------------------
      LOOP:  VPU time 1373.90: CPU time 1374.48

 eigenvalue-minimisations  :  8673
 total energy-change (2. order) : 0.3561067E-03  (-0.9755456E-04)
 number of electron  352.0000007 magnetization 
 augmentation part   130.5224428 magnetization 

 Broyden mixing:
  rms(total) = 0.61353E-02    rms(broyden)= 0.61353E-02
  rms(prec ) = 0.87735E-02
  weight for this iteration     100.00

 eigenvalues of (default mixing * dielectric matrix)
  average eigenvalue GAMMA=   1.7291
  2.8796  2.3557  1.0947  1.1577  1.1577

 Free energy of the ion-electron system (eV)
  ---------------------------------------------------
  alpha Z        PSCENC =      2782.67082173
  Ewald energy   TEWEN  =    -28940.52001762
  -1/2 Hartree   DENC   =     -4641.36287273
  -V(xc)+E(xc)   XCENC  =       453.51015977
  PAW double counting   =     23471.30731256   -22775.47411618
  entropy T*S    EENTRO =        -0.00685391
  eigenvalues    EBANDS =       -82.91211170
  atomic energy  EATOM  =     29633.77399530
  ---------------------------------------------------
  free energy    TOTEN  =       -99.01368277 eV

  energy without entropy =      -99.00682886  energy(sigma->0) =      -99.01139813


--------------------------------------------------------------------------------------------------------




----------------------------------------- Iteration    1(  18)  ---------------------------------------


    POTLOK:  VPU time    2.19: CPU time    2.19
    SETDIJ:  VPU time    5.14: CPU time    5.15
    EDDIAG:  VPU time  100.03: CPU time  100.22
  RMM-DIIS:  VPU time 1184.46: CPU time 1187.51
    ORTHCH:  VPU time   14.35: CPU time   14.38
    DOS   :  VPU time    0.00: CPU time   -0.00
    CHARGE:  VPU time   52.41: CPU time   52.58
    MIXING:  VPU time    0.20: CPU time    0.20
    ------------------------------------------
      LOOP:  VPU time 1358.86: CPU time 1362.32

 eigenvalue-minimisations  :  8480
 total energy-change (2. order) : 0.1018221E-03  (-0.4950997E-04)
 number of electron  352.0000007 magnetization 
 augmentation part   130.5021988 magnetization 

 Broyden mixing:
  rms(total) = 0.38721E-03    rms(broyden)= 0.38704E-03
  rms(prec ) = 0.51705E-03
  weight for this iteration     100.00

 eigenvalues of (default mixing * dielectric matrix)
  average eigenvalue GAMMA=   1.9055
  2.9826  2.9580  2.3084  0.9745  1.1048  1.1048

 Free energy of the ion-electron system (eV)
  ---------------------------------------------------
  alpha Z        PSCENC =      2782.67082173
  Ewald energy   TEWEN  =    -28940.52001762
  -1/2 Hartree   DENC   =     -4642.37984176
  -V(xc)+E(xc)   XCENC  =       453.55291078
  PAW double counting   =     23473.61384119   -22777.75187190
  entropy T*S    EENTRO =        -0.00681372
  eigenvalues    EBANDS =       -81.96660495
  atomic energy  EATOM  =     29633.77399530
  ---------------------------------------------------
  free energy    TOTEN  =       -99.01358095 eV

  energy without entropy =      -99.00676723  energy(sigma->0) =      -99.01130971


--------------------------------------------------------------------------------------------------------




----------------------------------------- Iteration    1(  19)  ---------------------------------------


    POTLOK:  VPU time    2.18: CPU time    2.19
    SETDIJ:  VPU time    5.16: CPU time    5.17
    EDDIAG:  VPU time  100.14: CPU time  100.34
  RMM-DIIS:  VPU time  618.29: CPU time  619.72
    ORTHCH:  VPU time   23.64: CPU time   23.73
    DOS   :  VPU time    0.00: CPU time   -0.00
    ------------------------------------------
      LOOP:  VPU time  749.50: CPU time  751.25

 eigenvalue-minimisations  :  4781
 total energy-change (2. order) : 0.3697529E-05  (-0.9233877E-06)
 number of electron  352.0000007 magnetization 
 augmentation part   130.5021988 magnetization 

 Free energy of the ion-electron system (eV)
  ---------------------------------------------------
  alpha Z        PSCENC =      2782.67082173
  Ewald energy   TEWEN  =    -28940.52001762
  -1/2 Hartree   DENC   =     -4642.42878300
  -V(xc)+E(xc)   XCENC  =       453.55528483
  PAW double counting   =     23473.28564409   -22777.40472516
  entropy T*S    EENTRO =        -0.00681259
  eigenvalues    EBANDS =       -81.93898483
  atomic energy  EATOM  =     29633.77399530
  ---------------------------------------------------
  free energy    TOTEN  =       -99.01357725 eV

  energy without entropy =      -99.00676466  energy(sigma->0) =      -99.01130639


--------------------------------------------------------------------------------------------------------




 average (electrostatic) potential at core
  the test charge radii are     1.2098
  (the norm of the test charge is              1.0000)
       1 -47.4723       2 -47.4723       3 -47.4723       4 -47.4723       5 -47.4723
       6 -47.4723       7 -47.4723       8 -47.4723       9 -47.4723      10 -47.4723
      11 -47.4723      12 -47.4723      13 -47.4723      14 -47.4723      15 -47.4723
      16 -47.4723      17 -47.4723      18 -47.4723      19 -47.4723      20 -47.4723
      21 -47.4723      22 -47.4723      23 -47.4723      24 -47.4723      25 -47.4723
      26 -47.4723      27 -47.4723      28 -47.4723      29 -47.4723      30 -47.4723
      31 -47.4723      32 -47.4723
 
 
 
 E-fermi :   3.1047     XC(G=0): -11.3566     alpha+bet : -8.0579
   add alpha+bet to get absolut eigen values

 k-point   1 :       0.0625    0.0625    0.0625
  band No.  band energies     occupation 
      1      -4.5047      2.00000
      2      -2.6866      2.00000
      3      -2.6866      2.00000
      4      -2.6866      2.00000
      5      -2.3916      2.00000
      6      -2.3718      2.00000
      7      -2.3718      2.00000
      8      -2.3718      2.00000
      9      -2.3452      2.00000
     10      -2.3452      2.00000
     11      -2.3452      2.00000
     12      -2.1293      2.00000
     13      -2.1293      2.00000
     14      -2.1293      2.00000
     15      -1.9339      2.00000
     16      -1.9339      2.00000
     17      -1.9339      2.00000
     18      -1.6450      2.00000
     19      -1.6450      2.00000
     20      -1.6450      2.00000
     21      -1.4921      2.00000
     22      -1.4921      2.00000
     23      -1.4921      2.00000
     24      -1.4921      2.00000
     25      -1.4921      2.00000
     26      -1.4921      2.00000
     27      -1.4261      2.00000
     28      -1.4261      2.00000
     29      -1.4261      2.00000
     30      -1.3623      2.00000
     31      -1.3623      2.00000
     32      -1.3623      2.00000
     33      -1.3517      2.00000
     34      -1.3517      2.00000
     35      -1.3517      2.00000
     36      -1.3517      2.00000
     37      -1.3517      2.00000
     38      -1.3517      2.00000
     39      -1.2290      2.00000
     40      -1.2290      2.00000
     41      -1.2290      2.00000
     42      -0.9562      2.00000
     43      -0.9562      2.00000
     44      -0.9562      2.00000
     45      -0.9562      2.00000
     46      -0.9562      2.00000
     47      -0.9562      2.00000
     48      -0.8907      2.00000
     49      -0.8907      2.00000
     50      -0.8907      2.00000
     51      -0.8710      2.00000
     52      -0.8710      2.00000
     53      -0.8710      2.00000
     54      -0.8710      2.00000
     55      -0.8710      2.00000
     56      -0.8710      2.00000
     57      -0.8154      2.00000
     58      -0.8154      2.00000
     59      -0.8154      2.00000
     60      -0.6856      2.00000
     61      -0.6856      2.00000
     62      -0.6856      2.00000
     63      -0.6856      2.00000
     64      -0.6856      2.00000
     65      -0.6856      2.00000
     66      -0.6197      2.00000
     67      -0.6197      2.00000
     68      -0.6197      2.00000
     69      -0.6197      2.00000
     70      -0.6197      2.00000
     71      -0.6197      2.00000
     72      -0.6042      2.00000
     73      -0.6042      2.00000
     74      -0.6042      2.00000
     75      -0.5915      2.00000
     76      -0.5915      2.00000
     77      -0.5915      2.00000
     78      -0.5765      2.00000
     79      -0.5765      2.00000
     80      -0.5744      2.00000
     81      -0.5672      2.00000
     82      -0.5672      2.00000
     83      -0.5672      2.00000
     84      -0.5592      2.00000
     85      -0.5592      2.00000
     86      -0.5504      2.00000
     87      -0.5504      2.00000
     88      -0.5504      2.00000
     89      -0.1012      2.00000
     90      -0.1012      2.00000
     91      -0.1012      2.00000
     92      -0.0216      2.00000
     93      -0.0216      2.00000
     94      -0.0216      2.00000
     95       0.0261      2.00000
     96       0.0261      2.00000
     97       0.0261      2.00000
     98       0.0867      2.00000
     99       0.0867      2.00000
    100       0.0867      2.00000
    101       0.0867      2.00000
    102       0.0867      2.00000
    103       0.0867      2.00000
    104       0.0889      2.00000
    105       0.0889      2.00000
    106       0.0889      2.00000
    107       0.1676      2.00000
    108       0.1676      2.00000
    109       0.1676      2.00000
    110       0.2337      2.00000
    111       0.2337      2.00000
    112       0.2337      2.00000
    113       0.3511      2.00000
    114       0.3511      2.00000
    115       0.3511      2.00000
    116       0.3705      2.00000
    117       0.3705      2.00000
    118       0.3705      2.00000
    119       0.3979      2.00000
    120       0.3979      2.00000
    121       0.3979      2.00000
    122       0.3979      2.00000
    123       0.3979      2.00000
    124       0.3979      2.00000
    125       0.4265      2.00000
    126       0.4265      2.00000
    127       0.4330      2.00000
    128       0.4330      2.00000
    129       0.4330      2.00000
    130       0.4831      2.00000
    131       0.4831      2.00000
    132       0.4831      2.00000
    133       0.4831      2.00000
    134       0.4831      2.00000
    135       0.4831      2.00000
    136       0.5613      2.00000
    137       0.5613      2.00000
    138       0.5613      2.00000
    139       0.7682      2.00000
    140       0.7682      2.00000
    141       0.7682      2.00000
    142       0.8464      2.00000
    143       0.8464      2.00000
    144       0.8464      2.00000
    145       1.1446      2.00000
    146       1.1446      2.00000
    147       1.1446      2.00000
    148       1.1752      2.00000
    149       1.1752      2.00000
    150       1.1752      2.00000
    151       1.2068      2.00000
    152       1.2068      2.00000
    153       1.2234      2.00000
    154       1.2234      2.00000
    155       1.2234      2.00000
    156       1.3849      2.00000
    157       1.3849      2.00000
    158       1.3849      2.00000
    159       1.4175      2.00000
    160       1.4175      2.00000
    161       1.4175      2.00000
    162       1.4175      2.00000
    163       1.4175      2.00000
    164       1.4175      2.00000
    165       1.4205      2.00000
    166       1.4205      2.00000
    167       1.4205      2.00000
    168       2.2530      2.00000
    169       2.2530      2.00000
    170       2.2530      2.00000
    171       2.6317      2.00414
    172       2.6317      2.00414
    173       2.6317      2.00414
    174       2.6317      2.00414
    175       2.6317      2.00414
    176       2.6317      2.00414
    177       2.8053      2.05555
    178       3.0327      1.56783
    179       3.0327      1.56783
    180       3.0327      1.56783
    181       3.1823      0.39495
    182       3.1823      0.39495
    183       3.1823      0.39495
    184       4.6723     -0.00000
    185       4.6723     -0.00000
    186       4.6723     -0.00000
    187       5.1614     -0.00000
    188       5.1614     -0.00000
    189       5.1614     -0.00000
    190       5.4926     -0.00000
    191       6.6182     -0.00000
    192       6.6182     -0.00000
    193       6.6182     -0.00000
    194       6.6182     -0.00000
    195       6.6182     -0.00000
    196       6.6182     -0.00000
    197       7.3844     -0.00000
    198       7.3845     -0.00000
    199       7.3846     -0.00000
    200       8.4180     -0.00000
    201       8.4181     -0.00000
    202       8.4183     -0.00000
    203       8.4191     -0.00000
    204       8.4223     -0.00000
    205       8.4297     -0.00000
    206       9.1049      0.00000
    207       9.1072      0.00000
    208       9.1121      0.00000
    209       9.1399      0.00000
    210       9.2497      0.00000
    211       9.8148      0.00000
    212      10.1041      0.00000

 k-point   2 :       0.1875    0.0625    0.0625
  band No.  band energies     occupation 
      1      -4.4307      2.00000
      2      -3.0717      2.00000
      3      -2.6337      2.00000
      4      -2.6337      2.00000
      5      -2.3737      2.00000
      6      -2.3341      2.00000
      7      -2.3341      2.00000
      8      -2.3149      2.00000
      9      -2.2943      2.00000
     10      -2.2943      2.00000
     11      -2.1102      2.00000
     12      -2.1081      2.00000
     13      -2.0858      2.00000
     14      -2.0858      2.00000
     15      -1.9107      2.00000
     16      -1.8976      2.00000
     17      -1.8976      2.00000
     18      -1.8204      2.00000
     19      -1.8204      2.00000
     20      -1.7796      2.00000
     21      -1.6462      2.00000
     22      -1.6462      2.00000
     23      -1.5927      2.00000
     24      -1.5927      2.00000
     25      -1.5703      2.00000
     26      -1.4899      2.00000
     27      -1.4399      2.00000
     28      -1.4399      2.00000
     29      -1.3782      2.00000
     30      -1.3782      2.00000
     31      -1.3575      2.00000
     32      -1.3575      2.00000
     33      -1.3393      2.00000
     34      -1.3393      2.00000
     35      -1.3315      2.00000
     36      -1.3315      2.00000
     37      -1.3188      2.00000
     38      -1.3188      2.00000
     39      -1.2096      2.00000
     40      -1.2096      2.00000
     41      -1.1927      2.00000
     42      -1.1927      2.00000
     43      -1.0949      2.00000
     44      -0.9727      2.00000
     45      -0.9727      2.00000
     46      -0.9563      2.00000
     47      -0.9563      2.00000
     48      -0.9501      2.00000
     49      -0.9501      2.00000
     50      -0.9323      2.00000
     51      -0.9323      2.00000
     52      -0.8769      2.00000
     53      -0.8769      2.00000
     54      -0.8040      2.00000
     55      -0.7945      2.00000
     56      -0.7945      2.00000
     57      -0.7871      2.00000
     58      -0.7871      2.00000
     59      -0.7635      2.00000
     60      -0.7283      2.00000
     61      -0.7283      2.00000
     62      -0.7256      2.00000
     63      -0.7256      2.00000
     64      -0.6800      2.00000
     65      -0.6800      2.00000
     66      -0.6563      2.00000
     67      -0.6563      2.00000
     68      -0.6370      2.00000
     69      -0.6370      2.00000
     70      -0.6186      2.00000
     71      -0.6058      2.00000
     72      -0.6058      2.00000
     73      -0.6017      2.00000
     74      -0.5743      2.00000
     75      -0.5569      2.00000
     76      -0.5364      2.00000
     77      -0.5364      2.00000
     78      -0.5335      2.00000
     79      -0.5335      2.00000
     80      -0.5335      2.00000
     81      -0.5314      2.00000
     82      -0.5294      2.00000
     83      -0.4815      2.00000
     84      -0.4815      2.00000
     85      -0.4604      2.00000
     86      -0.4121      2.00000
     87      -0.3875      2.00000
     88      -0.3875      2.00000
     89      -0.2110      2.00000
     90      -0.2110      2.00000
     91      -0.1636      2.00000
     92      -0.1636      2.00000
     93      -0.1011      2.00000
     94      -0.0873      2.00000
     95      -0.0209      2.00000
     96      -0.0209      2.00000
     97      -0.0094      2.00000
     98      -0.0027      2.00000
     99       0.0438      2.00000
    100       0.0438      2.00000
    101       0.0827      2.00000
    102       0.1494      2.00000
    103       0.1494      2.00000
    104       0.1541      2.00000
    105       0.1541      2.00000
    106       0.1619      2.00000
    107       0.1619      2.00000
    108       0.1973      2.00000
    109       0.1973      2.00000
    110       0.2086      2.00000
    111       0.2984      2.00000
    112       0.2984      2.00000
    113       0.3319      2.00000
    114       0.3319      2.00000
    115       0.3346      2.00000
    116       0.3346      2.00000
    117       0.3956      2.00000
    118       0.4017      2.00000
    119       0.4017      2.00000
    120       0.4138      2.00000
    121       0.4138      2.00000
    122       0.4407      2.00000
    123       0.4411      2.00000
    124       0.4411      2.00000
    125       0.4851      2.00000
    126       0.4851      2.00000
    127       0.4974      2.00000
    128       0.5414      2.00000
    129       0.5445      2.00000
    130       0.5445      2.00000
    131       0.6023      2.00000
    132       0.6023      2.00000
    133       0.6261      2.00000
    134       0.6261      2.00000
    135       0.6640      2.00000
    136       0.6714      2.00000
    137       0.6731      2.00000
    138       0.6731      2.00000
    139       0.6930      2.00000
    140       0.8079      2.00000
    141       0.8079      2.00000
    142       0.9100      2.00000
    143       0.9100      2.00000
    144       0.9252      2.00000
    145       0.9787      2.00000
    146       0.9980      2.00000
    147       0.9980      2.00000
    148       1.1165      2.00000
    149       1.1279      2.00000
    150       1.1279      2.00000
    151       1.1528      2.00000
    152       1.1555      2.00000
    153       1.2015      2.00000
    154       1.2031      2.00000
    155       1.2031      2.00000
    156       1.2299      2.00000
    157       1.2299      2.00000
    158       1.3276      2.00000
    159       1.3601      2.00000
    160       1.3601      2.00000
    161       1.3609      2.00000
    162       1.3609      2.00000
    163       1.3715      2.00000
    164       1.4175      2.00000
    165       1.4175      2.00000
    166       1.4176      2.00000
    167       1.4176      2.00000
    168       1.9223      2.00000
    169       1.9223      2.00000
    170       2.2505      2.00000
    171       2.2718      2.00000
    172       2.2718      2.00000
    173       2.4903      2.00012
    174       2.6453      2.00547
    175       2.6453      2.00547
    176       3.0574      1.38781
    177       3.0574      1.38781
    178       3.0626      1.34771
    179       3.0747      1.25097
    180       3.0747      1.25097
    181       3.4279     -0.04465
    182       3.4883     -0.02064
    183       3.4883     -0.02064
    184       3.9833     -0.00000
    185       4.8859     -0.00000
    186       4.8859     -0.00000
    187       5.1710     -0.00000
    188       5.5195     -0.00000
    189       5.5195     -0.00000
    190       6.0192     -0.00000
    191       6.1773     -0.00000
    192       6.1773     -0.00000
    193       6.3292     -0.00000
    194       6.3292     -0.00000
    195       6.6091     -0.00000
    196       6.6091     -0.00000
    197       7.3487     -0.00000
    198       7.3494     -0.00000
    199       7.8486     -0.00000
    200       7.8495     -0.00000
    201       8.2147     -0.00000
    202       8.3634     -0.00000
    203       8.3725     -0.00000
    204       8.4737     -0.00000
    205       8.4934     -0.00000
    206       8.9637      0.00000
    207       9.2237      0.00000
    208       9.3233      0.00000
    209       9.4032      0.00000
    210       9.4432      0.00000
    211       9.4695      0.00000
    212       9.6823      0.00000

 k-point   3 :       0.3125    0.0625    0.0625
  band No.  band energies     occupation 
      1      -4.2840      2.00000
      2      -3.4483      2.00000
      3      -2.5310      2.00000
      4      -2.5310      2.00000
      5      -2.3183      2.00000
      6      -2.2591      2.00000
      7      -2.2591      2.00000
      8      -2.2219      2.00000
      9      -2.1962      2.00000
     10      -2.1962      2.00000
     11      -2.0700      2.00000
     12      -2.0129      2.00000
     13      -2.0129      2.00000
     14      -2.0043      2.00000
     15      -2.0016      2.00000
     16      -2.0016      2.00000
     17      -1.9472      2.00000
     18      -1.8649      2.00000
     19      -1.8324      2.00000
     20      -1.8324      2.00000
     21      -1.8249      2.00000
     22      -1.8249      2.00000
     23      -1.7572      2.00000
     24      -1.7333      2.00000
     25      -1.7333      2.00000
     26      -1.6074      2.00000
     27      -1.5815      2.00000
     28      -1.5815      2.00000
     29      -1.3980      2.00000
     30      -1.3980      2.00000
     31      -1.3369      2.00000
     32      -1.3369      2.00000
     33      -1.3022      2.00000
     34      -1.3022      2.00000
     35      -1.2939      2.00000
     36      -1.2939      2.00000
     37      -1.2552      2.00000
     38      -1.2552      2.00000
     39      -1.2353      2.00000
     40      -1.2353      2.00000
     41      -1.1722      2.00000
     42      -1.1722      2.00000
     43      -1.0464      2.00000
     44      -1.0464      2.00000
     45      -0.9907      2.00000
     46      -0.9907      2.00000
     47      -0.9886      2.00000
     48      -0.9886      2.00000
     49      -0.9658      2.00000
     50      -0.9658      2.00000
     51      -0.9654      2.00000
     52      -0.9315      2.00000
     53      -0.9315      2.00000
     54      -0.8368      2.00000
     55      -0.8368      2.00000
     56      -0.8083      2.00000
     57      -0.8083      2.00000
     58      -0.7922      2.00000
     59      -0.7922      2.00000
     60      -0.7771      2.00000
     61      -0.7354      2.00000
     62      -0.7354      2.00000
     63      -0.6765      2.00000
     64      -0.6725      2.00000
     65      -0.6725      2.00000
     66      -0.6618      2.00000
     67      -0.6618      2.00000
     68      -0.6593      2.00000
     69      -0.6553      2.00000
     70      -0.6511      2.00000
     71      -0.6511      2.00000
     72      -0.6296      2.00000
     73      -0.6296      2.00000
     74      -0.5842      2.00000
     75      -0.5286      2.00000
     76      -0.5286      2.00000
     77      -0.5091      2.00000
     78      -0.4788      2.00000
     79      -0.4788      2.00000
     80      -0.4776      2.00000
     81      -0.4761      2.00000
     82      -0.4644      2.00000
     83      -0.3319      2.00000
     84      -0.3319      2.00000
     85      -0.3293      2.00000
     86      -0.3293      2.00000
     87      -0.2409      2.00000
     88      -0.2409      2.00000
     89      -0.2183      2.00000
     90      -0.2171      2.00000
     91      -0.1683      2.00000
     92      -0.1552      2.00000
     93      -0.1384      2.00000
     94      -0.1377      2.00000
     95      -0.1247      2.00000
     96      -0.1247      2.00000
     97      -0.0644      2.00000
     98      -0.0644      2.00000
     99       0.0736      2.00000
    100       0.0969      2.00000
    101       0.0969      2.00000
    102       0.1465      2.00000
    103       0.1465      2.00000
    104       0.2275      2.00000
    105       0.2275      2.00000
    106       0.2576      2.00000
    107       0.2576      2.00000
    108       0.2775      2.00000
    109       0.2775      2.00000
    110       0.3084      2.00000
    111       0.3084      2.00000
    112       0.3205      2.00000
    113       0.3205      2.00000
    114       0.3362      2.00000
    115       0.3860      2.00000
    116       0.3860      2.00000
    117       0.4010      2.00000
    118       0.4010      2.00000
    119       0.4304      2.00000
    120       0.4304      2.00000
    121       0.4383      2.00000
    122       0.4383      2.00000
    123       0.4685      2.00000
    124       0.5512      2.00000
    125       0.5741      2.00000
    126       0.5741      2.00000
    127       0.6233      2.00000
    128       0.6268      2.00000
    129       0.6268      2.00000
    130       0.6530      2.00000
    131       0.7297      2.00000
    132       0.7434      2.00000
    133       0.7527      2.00000
    134       0.7527      2.00000
    135       0.7557      2.00000
    136       0.7557      2.00000
    137       0.7870      2.00000
    138       0.7870      2.00000
    139       0.7999      2.00000
    140       0.8108      2.00000
    141       0.8108      2.00000
    142       0.8575      2.00000
    143       0.9234      2.00000
    144       0.9234      2.00000
    145       0.9423      2.00000
    146       0.9424      2.00000
    147       1.0035      2.00000
    148       1.0064      2.00000
    149       1.0590      2.00000
    150       1.0590      2.00000
    151       1.0645      2.00000
    152       1.0883      2.00000
    153       1.0883      2.00000
    154       1.1130      2.00000
    155       1.1358      2.00000
    156       1.1358      2.00000
    157       1.1430      2.00000
    158       1.2168      2.00000
    159       1.2546      2.00000
    160       1.2546      2.00000
    161       1.2555      2.00000
    162       1.2555      2.00000
    163       1.2824      2.00000
    164       1.4172      2.00000
    165       1.4172      2.00000
    166       1.4174      2.00000
    167       1.4174      2.00000
    168       1.6260      2.00000
    169       1.6260      2.00000
    170       1.9409      2.00000
    171       1.9409      2.00000
    172       2.2470      2.00000
    173       2.3221      2.00000
    174       2.6746      2.00954
    175       2.6746      2.00954
    176       2.9125      2.04116
    177       2.9125      2.04116
    178       3.1230      0.84545
[...]
    111       0.1936      2.00000
    112       0.1936      2.00000
    113       0.1936      2.00000
    114       0.2047      2.00000
    115       0.2047      2.00000
    116       0.2047      2.00000
    117       0.2803      2.00000
    118       0.2803      2.00000
    119       0.2803      2.00000
    120       0.3308      2.00000
    121       0.3308      2.00000
    122       0.3308      2.00000
    123       0.3308      2.00000
    124       0.3308      2.00000
    125       0.3308      2.00000
    126       0.4213      2.00000
    127       0.4213      2.00000
    128       0.4213      2.00000
    129       0.4675      2.00000
    130       0.4675      2.00000
    131       0.4675      2.00000
    132       0.4771      2.00000
    133       0.4771      2.00000
    134       0.5105      2.00000
    135       0.5105      2.00000
    136       0.5105      2.00000
    137       0.6008      2.00000
    138       0.6008      2.00000
    139       0.6008      2.00000
    140       0.6582      2.00000
    141       0.6582      2.00000
    142       0.6843      2.00000
    143       0.6843      2.00000
    144       0.6843      2.00000
    145       1.2437      2.00000
    146       1.2437      2.00000
    147       1.2437      2.00000
    148       1.2634      2.00000
    149       1.2634      2.00000
    150       1.2634      2.00000
    151       1.2634      2.00000
    152       1.2634      2.00000
    153       1.2634      2.00000
    154       1.2638      2.00000
    155       1.2638      2.00000
    156       1.2638      2.00000
    157       1.2638      2.00000
    158       1.2638      2.00000
    159       1.2638      2.00000
    160       1.2673      2.00000
    161       1.2673      2.00000
    162       1.2673      2.00000
    163       1.2816      2.00000
    164       1.2816      2.00000
    165       1.2816      2.00000
    166       1.2924      2.00000
    167       1.2924      2.00000
    168       1.2924      2.00000
    169       3.1772      0.42900
    170       3.1772      0.42900
    171       3.1772      0.42900
    172       3.4977     -0.01788
    173       3.4977     -0.01788
    174       3.4977     -0.01788
    175       3.4977     -0.01788
    176       3.4977     -0.01788
    177       3.4977     -0.01788
    178       3.7926     -0.00001
    179       3.7926     -0.00001
    180       3.7926     -0.00001
    181       3.9228     -0.00000
    182       3.9228     -0.00000
    183       3.9228     -0.00000
    184       4.2574     -0.00000
    185       4.2574     -0.00000
    186       4.2574     -0.00000
    187       4.2574     -0.00000
    188       4.2574     -0.00000
    189       4.2574     -0.00000
    190       4.5729     -0.00000
    191       4.5729     -0.00000
    192       4.5729     -0.00000
    193       6.9637     -0.00000
    194       6.9638     -0.00000
    195       6.9645     -0.00000
    196       7.3212     -0.00000
    197       7.3225     -0.00000
    198       7.3263     -0.00000
    199       7.6607     -0.00000
    200       7.6607     -0.00000
    201       7.6614     -0.00000
    202       7.6650     -0.00000
    203       7.6690     -0.00000
    204       7.6869     -0.00000
    205       8.0647     -0.00000
    206       8.0647     -0.00000
    207       8.0753     -0.00000
    208       8.0958     -0.00000
    209       8.1376     -0.00000
    210       8.2548     -0.00000
    211       8.5105     -0.00000
    212       8.6901      0.00000


--------------------------------------------------------------------------------------------------------


 soft charge-density along one line, spin component           1
         0         1         2         3         4         5         6         7         8         9
 total charge-density along one line
 
 pseudopotential strength for first ion, spin component:           1
-10.642   0.000  -0.000   0.000  -0.000   0.017  -0.000   0.000
  0.000 -10.642   0.000   0.000  -0.000  -0.000   0.017  -0.000
 -0.000   0.000 -10.630   0.000  -0.000   0.000  -0.000   0.015
  0.000   0.000   0.000 -10.642   0.000  -0.000  -0.000  -0.000
 -0.000  -0.000  -0.000   0.000 -10.630   0.000   0.000   0.000
  0.017  -0.000   0.000  -0.000   0.000   0.268   0.000  -0.000
 -0.000   0.017  -0.000  -0.000   0.000   0.000   0.268   0.000
  0.000  -0.000   0.015  -0.000   0.000  -0.000   0.000   0.268
 -0.000  -0.000  -0.000   0.017  -0.000   0.000   0.000   0.000
  0.000   0.000   0.000  -0.000   0.015  -0.000  -0.000  -0.000
 -0.000  -0.000  -0.000  -0.000  -0.000   0.000   0.000  -0.000
  0.000   0.000   0.000   0.000   0.000  -0.000  -0.000  -0.000
 -0.000  -0.000  -0.000  -0.000  -0.000   0.000   0.000   0.000
 -0.000   0.000  -0.000  -0.000   0.000   0.000  -0.000   0.000
  0.000  -0.000   0.000  -0.000  -0.000  -0.000   0.000  -0.000
  0.000   0.000   0.000   0.000   0.000  -0.000  -0.000  -0.000
  0.000  -0.000   0.000   0.000  -0.000  -0.000   0.000  -0.000
 -0.000   0.000  -0.000   0.000   0.000   0.000  -0.000   0.000
 total augmentation occupancy for first ion, spin component:           1
  1.907  -0.001  -0.003   0.001   0.001  -0.072   0.001   0.000  -0.000  -0.001   0.006   0.000  -0.000   0.000  -0.000  -0.000
 -0.001   1.924  -0.003  -0.001  -0.002   0.001  -0.086   0.003   0.001  -0.000   0.001  -0.002  -0.000   0.000   0.000  -0.000
 -0.003  -0.003   1.965  -0.001   0.004   0.000   0.003  -0.113   0.001  -0.002   0.020   0.004   0.000  -0.000  -0.000   0.000
  0.001  -0.001  -0.001   1.918   0.003  -0.000   0.001   0.001  -0.077  -0.001   0.005   0.000   0.000   0.000  -0.000   0.000
  0.001  -0.002   0.004   0.003   1.947  -0.001  -0.000  -0.002  -0.001  -0.100  -0.008  -0.002  -0.000  -0.000   0.000  -0.000
 -0.072   0.001   0.000  -0.000  -0.001   0.103  -0.001   0.001   0.000   0.000  -0.002   0.001   0.000  -0.000   0.000   0.000
  0.001  -0.086   0.003   0.001  -0.000  -0.001   0.113  -0.003  -0.000   0.002   0.003   0.002   0.000  -0.000  -0.000   0.000
  0.000   0.003  -0.113   0.001  -0.002   0.001  -0.003   0.086  -0.002   0.000  -0.011  -0.001  -0.000   0.000   0.000  -0.000
 -0.000   0.001   0.001  -0.077  -0.001   0.000  -0.000  -0.002   0.103  -0.000  -0.002   0.001  -0.000   0.000   0.000  -0.000
 -0.001  -0.000  -0.002  -0.001  -0.100   0.000   0.002   0.000  -0.000   0.080   0.005   0.001   0.000   0.000  -0.000   0.000
  0.006   0.001   0.020   0.005  -0.008  -0.002   0.003  -0.011  -0.002   0.005   0.982  -0.256   0.000  -0.000  -0.000   0.000
  0.000  -0.002   0.004   0.000  -0.002   0.001   0.002  -0.001   0.001   0.001  -0.256   0.137   0.000  -0.000  -0.000  -0.000
 -0.000  -0.000   0.000   0.000  -0.000   0.000   0.000  -0.000  -0.000   0.000   0.000   0.000   0.093  -0.001   0.003  -0.007
  0.000   0.000  -0.000   0.000  -0.000  -0.000  -0.000   0.000   0.000   0.000  -0.000  -0.000  -0.001   0.096   0.001  -0.000
 -0.000   0.000  -0.000  -0.000   0.000   0.000  -0.000   0.000   0.000  -0.000  -0.000  -0.000   0.003   0.001   0.095  -0.000
 -0.000  -0.000   0.000   0.000  -0.000   0.000   0.000  -0.000  -0.000   0.000   0.000  -0.000  -0.007  -0.000  -0.000   0.001
  0.000  -0.000  -0.000   0.000  -0.000  -0.000  -0.000  -0.000  -0.000   0.000   0.000   0.000  -0.000  -0.007  -0.000   0.000
 -0.000   0.000  -0.000  -0.000   0.000   0.000  -0.000   0.000   0.000  -0.000  -0.000  -0.000  -0.000  -0.000  -0.007   0.000


------------------------ aborting loop because EDIFF is reached ----------------------------------------




--------------------------------------------------------------------------------------------------------


    CHARGE:  VPU time   82.62: CPU time   82.97
    FORLOC:  VPU time    0.56: CPU time    0.56
    FORNL :  VPU time  378.28: CPU time  379.64
    STRESS:  VPU time 2337.12: CPU time 2345.07
    FORCOR:  VPU time    2.39: CPU time    2.39
    FORHAR:  VPU time    0.85: CPU time    0.85
    MIXING:  VPU time    0.06: CPU time    0.06


--------------------------------------------------------------------------------------------------------



  FREE ENERGIE OF THE ION-ELECTRON SYSTEM (eV)
  ---------------------------------------------------
  free  energy   TOTEN  =       -99.013577 eV

  energy  without entropy=      -99.006765  energy(sigma->0) =      -99.011306
 

  FORCE on cell =-STRESS in cart. coord.  units (eV/reduce length):
  Direction    X        Y        Z        XY       YZ       ZX
  --------------------------------------------------------------------------------------
  Alpha Z   2782.67   2782.67   2782.67
  Ewald    -9646.88  -9646.88  -9646.88     -0.00     -0.00     -0.00
  Hartree   1547.47   1547.47   1547.47     -0.00     -0.00     -0.00
  E(xc)    -1572.83  -1572.83  -1572.83     -0.00     -0.00     -0.00
  Local     2272.99   2272.99   2272.99      0.00      0.00      0.00
  n-local  -1707.29  -1701.74  -1689.78      4.47      0.27      3.25
  augment   1377.23   1377.23   1377.23     -0.00     -0.00     -0.00
  Kinetic   4871.87   4878.12   4888.74      1.57     -2.58      0.25
  -------------------------------------------------------------------------------------
  Total      -59.38    -59.38    -59.38     -0.00     -0.00     -0.00
  in kB     -138.04   -138.04   -138.04     -0.00     -0.00     -0.00
  external pressure =     -138.04 kB  Pullay stress =        0.00 kB


 VOLUME and BASIS-vectors are now :
 -----------------------------------------------------------------------------
  energy-cutoff  :      600.00
  volume of cell :      689.18
      direct lattice vectors                 reciprocal lattice vectors
     8.833064830  0.000000000  0.000000000     0.113210988 -0.000000002 -0.000000002
     0.000000160  8.833064830  0.000000000     0.000000000  0.113210988 -0.000000002
     0.000000160  0.000000160  8.833064830     0.000000000  0.000000000  0.113210988

  length of vectors
     8.833064830  8.833064830  8.833064830     0.113210988  0.113210988  0.113210988


 FORCES acting on ions
    electron-ion (+dipol)            ewald-force                    non-local-force                 convergence-correction
 -----------------------------------------------------------------------------------------------
   0.641E-12 0.335E-11 -.390E-11   -.188E-12 -.351E-13 -.178E-12   -.593E-22 0.432E-22 0.662E-23   -.624E-13 -.595E-12 0.100E-12
   0.641E-12 -.973E-11 0.979E-12   -.139E-12 0.364E-13 -.153E-12   -.171E-22 0.306E-22 -.414E-23   0.109E-12 -.648E-12 -.218E-12
   0.647E-12 -.974E-13 0.892E-11   -.208E-12 -.179E-13 -.506E-13   0.827E-22 -.456E-22 0.203E-22   0.285E-12 0.248E-12 0.843E-12
   0.641E-12 -.533E-11 -.323E-11   0.213E-13 0.813E-13 -.611E-13   0.420E-22 0.801E-23 0.517E-25   0.173E-13 0.606E-12 0.483E-13
   -.857E-13 0.655E-12 0.168E-12   -.962E-14 0.129E-13 -.262E-13   0.620E-22 -.110E-21 0.165E-23   -.621E-13 -.624E-12 0.721E-12
   -.796E-13 -.711E-13 0.393E-12   -.585E-13 0.893E-13 -.660E-13   -.128E-21 -.465E-23 0.827E-23   0.565E-13 0.202E-12 0.139E-12
   0.142E-12 0.138E-11 0.200E-12   0.320E-13 -.813E-13 -.524E-13   0.184E-22 -.151E-24 0.463E-22   0.123E-12 -.483E-12 0.297E-12
   0.647E-12 -.798E-13 -.869E-11   -.138E-12 0.233E-13 -.253E-13   -.401E-22 0.517E-22 -.186E-22   -.656E-13 0.247E-12 -.782E-12
   0.642E-12 0.786E-11 0.961E-12   -.959E-13 0.799E-14 -.268E-13   0.311E-22 -.701E-23 0.000E+00   0.111E-12 0.698E-12 -.216E-12
   0.634E-12 -.430E-11 -.426E-11   0.355E-14 -.232E-13 -.178E-14   0.875E-22 0.685E-23 0.116E-22   0.343E-13 -.350E-12 0.728E-12
   -.857E-13 0.654E-12 0.622E-12   -.864E-13 -.941E-13 -.226E-13   -.133E-22 0.738E-22 -.121E-22   0.128E-12 -.482E-12 -.730E-12
   -.851E-13 -.650E-13 -.736E-13   -.629E-14 0.927E-14 0.262E-13   0.410E-22 0.918E-23 0.744E-23   0.475E-14 0.242E-12 -.264E-12
   -.787E-13 0.153E-12 0.163E-12   -.561E-13 0.373E-13 -.577E-14   0.443E-22 -.584E-22 -.248E-22   -.126E-12 0.593E-12 0.679E-12
   -.793E-13 0.390E-12 0.393E-12   0.130E-12 0.657E-13 -.545E-13   -.287E-22 -.306E-22 -.236E-22   -.789E-13 -.266E-12 0.389E-14
   0.142E-12 -.199E-11 -.132E-12   -.604E-13 0.622E-14 -.598E-13   0.291E-22 0.110E-22 -.174E-22   -.477E-13 -.670E-12 -.402E-12
   0.137E-12 -.622E-13 0.703E-12   0.493E-13 0.158E-14 -.102E-13   -.203E-22 -.714E-22 0.250E-22   -.226E-12 0.209E-12 0.868E-12
   0.142E-12 -.144E-11 0.200E-12   -.146E-12 0.311E-14 -.959E-13   0.487E-22 0.247E-22 0.306E-22   0.438E-13 0.452E-12 0.220E-12
   0.394E-12 0.146E-11 -.255E-11   0.101E-12 -.122E-12 0.115E-13   -.688E-22 -.465E-22 -.203E-22   0.274E-13 -.838E-12 0.883E-12
   0.388E-12 -.799E-13 0.144E-11   0.772E-13 0.773E-14 0.174E-13   0.556E-22 0.158E-22 0.364E-22   -.869E-13 0.138E-12 0.476E-12
   0.634E-12 -.497E-11 0.439E-11   0.311E-13 0.386E-13 0.338E-13   -.910E-22 0.307E-23 -.910E-23   -.717E-13 -.295E-12 -.749E-12
   -.790E-13 0.153E-12 0.629E-12   -.280E-13 -.413E-13 0.653E-13   -.194E-22 0.768E-22 0.203E-22   0.270E-13 0.432E-12 -.675E-12
   -.854E-13 0.385E-12 -.742E-13   -.293E-13 0.270E-13 -.120E-13   0.282E-22 0.202E-23 0.240E-22   -.118E-13 -.321E-12 -.100E-12
   0.136E-12 -.689E-13 -.203E-11   0.977E-14 -.753E-13 0.293E-13   0.343E-23 0.714E-22 -.620E-24   0.125E-12 0.154E-12 -.859E-12
   0.143E-12 0.177E-11 -.276E-12   -.462E-13 0.346E-13 0.813E-14   -.601E-22 -.330E-22 0.153E-22   -.494E-13 0.646E-12 -.349E-12
   0.148E-12 0.381E-12 -.250E-11   -.311E-13 0.730E-13 0.373E-13   0.108E-23 -.398E-22 0.682E-22   0.306E-13 -.255E-12 0.649E-12
   0.394E-12 -.521E-11 -.684E-12   0.322E-13 -.222E-13 -.382E-13   -.372E-22 0.162E-22 -.128E-22   -.165E-12 -.467E-12 -.909E-12
   0.394E-12 -.326E-13 0.633E-11   0.164E-12 -.602E-14 0.240E-13   0.115E-22 -.191E-22 0.331E-23   -.350E-13 0.256E-12 -.628E-12
   0.388E-12 -.637E-12 0.387E-11   0.149E-12 -.488E-13 0.240E-13   -.291E-22 -.624E-22 0.178E-22   0.980E-13 0.890E-12 0.772E-12
   0.388E-12 -.276E-11 0.179E-11   0.145E-12 -.791E-13 0.217E-13   -.342E-22 0.219E-22 0.165E-22   0.511E-13 -.181E-12 0.931E-13
   0.148E-12 0.388E-12 0.115E-11   0.107E-13 0.227E-13 0.101E-12   -.147E-23 0.251E-22 0.182E-22   0.136E-12 -.178E-12 -.697E-12
   0.388E-12 -.539E-12 -.576E-12   0.180E-12 0.506E-13 0.595E-13   -.578E-22 0.872E-22 -.124E-22   -.549E-13 0.467E-12 -.769E-12
   0.394E-12 0.356E-11 -.475E-12   0.690E-13 -.806E-14 0.970E-13   -.562E-22 0.250E-22 0.182E-22   -.148E-13 -.315E-12 -.220E-12
 -----------------------------------------------------------------------------------------------
   0.873E-11 -.149E-10 0.387E-11   -.122E-12 -.254E-13 -.383E-12   -.176E-21 0.752E-22 0.240E-21   0.251E-12 -.490E-12 -.105E-11
 
 
 POSITION                                       TOTAL-FORCE (eV/Angst)
 -----------------------------------------------------------------------------------
      6.62480      6.62480      4.41653        -0.000000     -0.000000      0.000000
      6.62480      6.62480      0.00000        -0.000000     -0.000000      0.000000
      6.62480      0.00000      2.20827         0.000000     -0.000000      0.000000
      6.62480      2.20827      4.41653        -0.000000      0.000000     -0.000000
      0.00000      6.62480      2.20827        -0.000000     -0.000000      0.000000
      0.00000      0.00000      4.41653        -0.000000     -0.000000      0.000000
      2.20827      6.62480      4.41653         0.000000      0.000000     -0.000000
      6.62480      0.00000      6.62480        -0.000000     -0.000000     -0.000000
      6.62480      2.20827      0.00000        -0.000000      0.000000     -0.000000
      6.62480      4.41653      2.20827        -0.000000      0.000000     -0.000000
      0.00000      6.62480      6.62480        -0.000000     -0.000000      0.000000
      0.00000      0.00000      0.00000        -0.000000      0.000000      0.000000
      0.00000      2.20827      2.20827        -0.000000      0.000000     -0.000000
      0.00000      4.41653      4.41653         0.000000      0.000000     -0.000000
      2.20827      6.62480      0.00000        -0.000000      0.000000      0.000000
      2.20827      0.00000      2.20827        -0.000000     -0.000000      0.000000
      2.20827      2.20827      4.41653        -0.000000      0.000000      0.000000
      4.41653      6.62480      2.20827         0.000000     -0.000000     -0.000000
      4.41653      0.00000      4.41653         0.000000     -0.000000     -0.000000
      6.62480      4.41653      6.62480         0.000000     -0.000000      0.000000
      0.00000      2.20827      6.62480        -0.000000     -0.000000     -0.000000
      0.00000      4.41653      0.00000        -0.000000      0.000000     -0.000000
      2.20827      0.00000      6.62480         0.000000      0.000000      0.000000
      2.20827      2.20827      0.00000         0.000000      0.000000     -0.000000
      2.20827      4.41653      2.20827         0.000000     -0.000000     -0.000000
      4.41653      6.62480      6.62480        -0.000000      0.000000      0.000000
      4.41653      0.00000      0.00000         0.000000     -0.000000     -0.000000
      4.41653      2.20827      2.20827        -0.000000      0.000000     -0.000000
      4.41653      4.41653      4.41653        -0.000000      0.000000      0.000000
      2.20827      4.41653      6.62480        -0.000000     -0.000000      0.000000
      4.41653      2.20827      6.62480        -0.000000      0.000000     -0.000000
      4.41653      4.41653      0.00000         0.000000      0.000000      0.000000
 -----------------------------------------------------------------------------------
    total drift:                                0.000000     -0.000000      0.000000


--------------------------------------------------------------------------------------------------------




--------------------------------------------------------------------------------------------------------


  
 reached required accuracy - stopping structural energy minimisation
 writing wavefunctions
     LOOP+:  VPU time26304.06: CPU time26358.71

 ----------------------------------------------------------------------------- 
|                                                                             |
|           W    W    AA    RRRRR   N    N  II  N    N   GGGG   !!!           |
|           W    W   A  A   R    R  NN   N  II  NN   N  G    G  !!!           |
|           W    W  A    A  R    R  N N  N  II  N N  N  G       !!!           |
|           W WW W  AAAAAA  RRRRR   N  N N  II  N  N N  G  GGG   !            |
|           WW  WW  A    A  R   R   N   NN  II  N   NN  G    G                |
|           W    W  A    A  R    R  N    N  II  N    N   GGGG   !!!           |
|                                                                             |
|      The partial DOS and the PROCAR file are not evaluated for NPAR/=1      |
|      please rerun with NPAR=1                                               |
|                                                                             |
 ----------------------------------------------------------------------------- 

  
  
 General timing and accounting informations for this job:
 ========================================================
  
                  Total CPU time used (sec):    26387.203
                            User time (sec):    22230.382
                          System time (sec):     4156.820
                         Elapsed time (sec):    26441.870
  
                   Maximum memory used (kb):     2222504.
                   Average memory used (kb):           0.
  
                          Minor page faults:       438999
                          Major page faults:            0
                 Voluntary context switches:        15016
