    4    4  200    1
  0.1816762E+02  0.4173041E-09  0.4173041E-09  0.4173041E-09  0.5000000E-15
  1.000000000000000E-004
  CAR 
 unknown system                          
   44   84   28
 
  0.0000000E+00  0.0000000E+00  0.0000000E+00  0.5787037E-03
   1       -4.2408
   2       -1.5820
   3       -1.5820
   4       -1.5820
   5       -1.3071
   6       -1.3071
   7       -1.3071
   8        0.5446
   9        0.5446
  10        0.5446
  11        1.9015
  12        1.9015
  13        2.9340
  14        2.9340
  15        2.9340
  16        3.2609
  17        3.2609
  18        3.2609
  19        3.2609
  20        3.2609
  21        3.2609
  22        6.1596
  23        6.1596
  24        6.1596
  25       10.2759
  26       10.2759
  27       10.2759
  28       14.9566
 
  0.8333333E-01  0.0000000E+00  0.0000000E+00  0.3472222E-02
   1       -4.1640
   2       -1.5565
   3       -1.5319
   4       -1.5319
   5       -1.2800
   6       -1.2660
   7       -1.2660
   8        0.5073
   9        0.5778
  10        0.5778
  11        1.8618
  12        1.9178
  13        2.8777
  14        2.8777
  15        2.9149
  16        3.0174
  17        3.0174
  18        3.1919
  19        3.1919
  20        3.2610
  21        3.2610
  22        5.5683
  23        6.4583
  24        6.4583
  25       10.2132
  26       10.2132
  27       11.0011
  28       14.8128
 
  0.1666667E+00  0.0000000E+00  0.0000000E+00  0.3472222E-02
   1       -3.9363
   2       -1.4889
   3       -1.3871
   4       -1.3871
   5       -1.1999
   6       -1.1431
   7       -1.1431
   8        0.3994
   9        0.6768
  10        0.6768
  11        1.7484
  12        1.9659
  13        2.4726
  14        2.4726
  15        2.7141
  16        2.7141
  17        2.8595
  18        2.9979
  19        2.9979
  20        3.2613
  21        3.2613
  22        4.4035
  23        7.1669
  24        7.1669
  25       10.0459
  26       10.0459
  27       12.5736
  28       14.4005
 
  0.2500000E+00  0.0000000E+00  0.0000000E+00  0.3472222E-02
   1       -3.5667
   2       -1.4097
   3       -1.1652
   4       -1.1652
   5       -1.0702
   6       -0.9388
   7       -0.9388
   8        0.2320
   9        0.8396
  10        0.8396
  11        1.5780
  12        1.8455
  13        1.8455
  14        2.0431
  15        2.4621
  16        2.4621
  17        2.7108
  18        2.7108
  19        2.7723
  20        3.2065
  21        3.2618
  22        3.2618
  23        8.0613
  24        8.0613
  25        9.8285
  26        9.8285
  27       13.7665
  28       13.7665
 
  0.3333333E+00  0.0000000E+00  0.0000000E+00  0.3472222E-02
   1       -3.0750
   2       -1.3865
   3       -0.9033
   4       -0.9033
   5       -0.8969
   6       -0.6542
   7       -0.6542
   8        0.0214
   9        1.0623
  10        1.0623
  11        1.2282
  12        1.2282
  13        1.3833
  14        2.1450
  15        2.1651
  16        2.1651
  17        2.1841
  18        2.3696
  19        2.3696
  20        2.6603
  21        3.2621
  22        3.2621
  23        9.0403
  24        9.0403
  25        9.6248
  26        9.6248
  27       12.9668
  28       12.9668
 
  0.4166667E+00  0.0000000E+00  0.0000000E+00  0.3472222E-02
   1       -2.5030
   2       -1.5366
   3       -0.6885
   4       -0.6708
   5       -0.6708
   6       -0.2911
   7       -0.2911
   8       -0.2141
   9        0.6568
  10        0.6568
  11        1.2224
  12        1.3387
  13        1.3387
  14        1.4882
  15        1.9037
  16        1.9037
  17        2.0097
  18        2.0097
  19        2.2657
  20        2.5323
  21        3.2624
  22        3.2624
  23        9.4845
  24        9.4845
  25       10.0549
  26       10.0549
  27       12.0533
  28       12.0533
 
  0.5000000E+00  0.0000000E+00  0.0000000E+00  0.1736111E-02
   1       -1.9400
   2       -1.9400
   3       -0.5722
   4       -0.5722
   5       -0.4562
   6       -0.4562
   7        0.1475
   8        0.1475
   9        0.1475
  10        0.1475
  11        1.2021
  12        1.2021
  13        1.6593
  14        1.6593
  15        1.6593
  16        1.6593
  17        1.7939
  18        1.7939
  19        2.3977
  20        2.3977
  21        3.2625
  22        3.2625
  23        9.4350
  24        9.4350
  25       11.0703
  26       11.0703
  27       11.0703
  28       11.0703
 
  0.8333333E-01  0.8333333E-01  0.0000000E+00  0.6944444E-02
   1       -4.0880
   2       -1.5060
   3       -1.5060
   4       -1.4886
   5       -1.2395
   6       -1.2395
   7       -1.2204
   8        0.4917
   9        0.5903
  10        0.6082
  11        1.8513
  12        1.9087
  13        2.8138
  14        2.8138
  15        2.8247
  16        2.8518
  17        2.9801
  18        2.9801
  19        3.1919
  20        3.1919
  21        3.2155
  22        5.8646
  23        5.8646
  24        6.7251
  25       10.1410
  26       10.9421
  27       10.9421
  28       14.2543
 
  0.1666667E+00  0.8333333E-01  0.0000000E+00  0.1388889E-01
   1       -3.8627
   2       -1.4369
   3       -1.3625
   4       -1.3596
   5       -1.1610
   6       -1.1181
   7       -1.0849
   8        0.3971
   9        0.6789
  10        0.6978
  11        1.7533
  12        1.9528
  13        2.3311
  14        2.3811
  15        2.5997
  16        2.6699
  17        2.7491
  18        2.8942
  19        2.9973
  20        3.1915
  21        3.1916
  22        4.7450
  23        6.5245
  24        7.3850
  25        9.9451
  26       10.7938
  27       12.4759
  28       13.6518
 
  0.2500000E+00  0.8333333E-01  0.0000000E+00  0.1388889E-01
   1       -3.4972
   2       -1.3553
   3       -1.1647
   4       -1.1350
   5       -1.0339
   6       -0.9166
   7       -0.8675
   8        0.2368
   9        0.8392
  10        0.8396
  11        1.5978
  12        1.7167
  13        1.7959
  14        2.0391
  15        2.2244
  16        2.4302
  17        2.4971
  18        2.7097
  19        2.7665
  20        3.1863
  21        3.1911
  22        3.6834
  23        7.2882
  24        8.2450
  25        9.6794
  26       10.6378
  27       13.0703
  28       13.9074
 
  0.3333333E+00  0.8333333E-01  0.0000000E+00  0.1388889E-01
   1       -3.0108
   2       -1.3298
   3       -0.9141
   4       -0.8687
   5       -0.8642
   6       -0.6362
   7       -0.5881
   8        0.0325
   9        1.0009
  10        1.0610
  11        1.1175
  12        1.2041
  13        1.4531
  14        1.7103
  15        2.1466
  16        2.1555
  17        2.2023
  18        2.3680
  19        2.5427
  20        2.9557
  21        3.1857
  22        3.1903
  23        8.0083
  24        9.2023
  25        9.4051
  26       10.5961
  27       12.4879
  28       13.1041
 
  0.4166667E+00  0.8333333E-01  0.0000000E+00  0.1388889E-01
   1       -2.4445
   2       -1.4802
   3       -0.6620
   4       -0.6602
   5       -0.6313
   6       -0.2789
   7       -0.2695
   8       -0.1969
   9        0.5730
  10        0.6494
  11        1.0486
  12        1.2416
  13        1.3370
  14        1.5030
  15        1.9003
  16        1.9353
  17        2.0078
  18        2.1553
  19        2.2955
  20        2.6398
  21        3.1866
  22        3.1892
  23        8.5597
  24        9.1555
  25       10.2033
  26       10.7987
  27       11.8762
  28       12.1902
 
  0.5000000E+00  0.8333333E-01  0.0000000E+00  0.6944444E-02
   1       -1.8847
   2       -1.8847
   3       -0.5366
   4       -0.5366
   5       -0.4332
   6       -0.4332
   7        0.1069
   8        0.1069
   9        0.1515
  10        0.1515
  11        1.0404
  12        1.0404
  13        1.6573
  14        1.6573
  15        1.7809
  16        1.7809
  17        1.8092
  18        1.8092
  19        2.4545
  20        2.4545
  21        3.1879
  22        3.1879
  23        8.9068
  24        8.9068
  25       11.2107
  26       11.2107
  27       11.2704
  28       11.2704
 
  0.1666667E+00  0.1666667E+00  0.0000000E+00  0.6944444E-02
   1       -3.6448
   2       -1.2859
   3       -1.2859
   4       -1.2801
   5       -1.0444
   6       -1.0444
   7       -0.9249
   8        0.3539
   9        0.7246
  10        0.7584
  11        1.7193
  12        1.9678
  13        2.0225
  14        2.0225
  15        2.0869
  16        2.5393
  17        2.7441
  18        2.7441
  19        2.9956
  20        2.9956
  21        3.0817
  22        5.4039
  23        5.4039
  24        7.9576
  25        9.6625
  26       12.2163
  27       12.2163
  28       12.9554
 
  0.2500000E+00  0.1666667E+00  0.0000000E+00  0.1388889E-01
   1       -3.2915
   2       -1.1968
   3       -1.1297
   4       -1.0526
   5       -0.9253
   6       -0.8512
   7       -0.6926
   8        0.2336
   9        0.8460
  10        0.8574
  11        1.4172
  12        1.6110
  13        1.6173
  14        1.6350
  15        2.0697
  16        2.3330
  17        2.5210
  18        2.6479
  19        2.7065
  20        2.9930
  21        3.0203
  22        4.3621
  23        6.1135
  24        8.7461
  25        9.2601
  26       11.8925
  27       12.4240
  28       13.7030
 
  0.3333333E+00  0.1666667E+00  0.0000000E+00  0.1388889E-01
   1       -2.8218
   2       -1.1644
   3       -0.9118
   4       -0.7721
   5       -0.7667
   6       -0.5833
   7       -0.4286
   8        0.0571
   9        0.8535
  10        0.9106
  11        1.0669
  12        1.1257
  13        1.1832
  14        1.5265
  15        2.0859
  16        2.2313
  17        2.2473
  18        2.3638
  19        2.4499
  20        2.9898
  21        2.9949
  22        3.5596
  23        6.7897
  24        8.8152
  25        9.6539
  26       11.6249
  27       12.0244
  28       13.4982
 
  0.4166667E+00  0.1666667E+00  0.0000000E+00  0.1388889E-01
   1       -2.2736
   2       -1.3170
   3       -0.6454
   4       -0.5767
   5       -0.5168
   6       -0.2439
   7       -0.1935
   8       -0.1497
   9        0.3642
  10        0.6237
  11        0.8685
  12        0.8691
  13        1.3370
  14        1.6052
  15        1.8784
  16        1.9824
  17        2.0037
  18        2.1585
  19        2.4367
  20        2.9860
  21        2.9866
  22        3.0306
  23        7.3909
  24        8.3690
  25       10.6225
  26       11.4988
  27       11.7273
  28       12.5821
 
  0.5000000E+00  0.1666667E+00  0.0000000E+00  0.6944444E-02
   1       -1.7249
   2       -1.7249
   3       -0.4397
   4       -0.4397
   5       -0.3665
   6       -0.3665
   7        0.0097
   8        0.0097
   9        0.1616
  10        0.1616
  11        0.7941
  12        0.7941
  13        1.6544
  14        1.6544
  15        1.8293
  16        1.8293
  17        1.8455
  18        1.8455
  19        2.6897
  20        2.6897
  21        2.9847
  22        2.9847
  23        7.9081
  24        7.9081
  25       11.5404
  26       11.5404
  27       11.6107
  28       11.6107
 
  0.2500000E+00  0.2500000E+00  0.0000000E+00  0.6944444E-02
   1       -2.9592
   2       -1.0324
   3       -0.9492
   4       -0.9492
   5       -0.7461
   6       -0.7461
   7       -0.4608
   8        0.1837
   9        0.8615
  10        0.9392
  11        1.0485
  12        1.0485
  13        1.3525
  14        1.5532
  15        2.1727
  16        2.2056
  17        2.4561
  18        2.4561
  19        2.7021
  20        2.7021
  21        2.8675
  22        5.0435
  23        5.0435
  24        8.6751
  25        9.4661
  26       12.0264
  27       13.0515
  28       13.0515
 
  0.3333333E+00  0.2500000E+00  0.0000000E+00  0.1388889E-01
   1       -2.5188
   2       -0.9052
   3       -0.8660
   4       -0.6436
   5       -0.6070
   6       -0.4993
   7       -0.2208
   8        0.0709
   9        0.5377
  10        0.7056
  11        0.8501
  12        0.9790
  13        1.1085
  14        1.4913
  15        1.9736
  16        2.2134
  17        2.2826
  18        2.3593
  19        2.4341
  20        2.6979
  21        2.7720
  22        4.1799
  23        5.6971
  24        8.0528
  25       10.3212
  26       11.8112
  27       12.4748
  28       14.0740
 
  0.4166667E+00  0.2500000E+00  0.0000000E+00  0.1388889E-01
   1       -2.0047
   2       -1.0680
   3       -0.6307
   4       -0.4426
   5       -0.3446
   6       -0.1904
   7       -0.0864
   8       -0.0553
   9        0.1029
  10        0.5376
  11        0.5704
  12        0.7476
  13        1.3550
  14        1.5528
  15        1.8112
  16        1.9662
  17        2.0018
  18        2.0248
  19        2.6966
  20        2.7234
  21        2.7255
  22        3.5428
  23        6.3098
  24        7.4581
  25       11.2532
  26       11.7388
  27       12.0544
  28       13.1826
 
  0.5000000E+00  0.2500000E+00  0.0000000E+00  0.6944444E-02
   1       -1.4809
   2       -1.4809
   3       -0.3438
   4       -0.3438
   5       -0.2641
   6       -0.2641
   7       -0.0565
   8       -0.0565
   9        0.1714
  10        0.1714
  11        0.5966
  12        0.5966
  13        1.6594
  14        1.6594
  15        1.7535
  16        1.7535
  17        1.8007
  18        1.8007
  19        2.7026
  20        2.7026
  21        3.0818
  22        3.0818
  23        6.8879
  24        6.8879
  25       11.8128
  26       11.8128
  27       12.2193
  28       12.2193
 
  0.3333333E+00  0.3333333E+00  0.0000000E+00  0.6944444E-02
   1       -2.1220
   2       -0.7664
   3       -0.5837
   4       -0.5837
   5       -0.3906
   6       -0.3906
   7       -0.0111
   8        0.0453
   9        0.2912
  10        0.2912
  11        0.7572
  12        0.7998
  13        1.2202
  14        1.4103
  15        1.8184
  16        2.0679
  17        2.0679
  18        2.3584
  19        2.3584
  20        2.5864
  21        2.7376
  22        4.7906
  23        4.7906
  24        7.2931
  25       11.1326
  26       11.7739
  27       13.2522
  28       13.2522
 
  0.4166667E+00  0.3333333E+00  0.0000000E+00  0.1388889E-01
   1       -1.6636
   2       -0.7825
   3       -0.6091
   4       -0.2865
   5       -0.2665
   6       -0.1263
   7       -0.0296
   8       -0.0207
   9        0.1178
  10        0.2950
  11        0.4763
  12        0.6825
  13        1.4169
  14        1.4236
  15        1.6846
  16        1.8336
  17        1.8444
  18        2.0109
  19        2.3677
  20        2.4646
  21        3.1064
  22        4.0849
  23        5.3867
  24        6.6046
  25       11.8856
  26       12.0325
  27       12.6099
  28       13.9361
 
  0.5000000E+00  0.3333333E+00  0.0000000E+00  0.6944444E-02
   1       -1.1916
   2       -1.1916
   3       -0.3973
   4       -0.3973
   5       -0.1403
   6       -0.1403
   7        0.0621
   8        0.0621
   9        0.1707
  10        0.1707
  11        0.4820
  12        0.4820
  13        1.5871
  14        1.5871
  15        1.6865
  16        1.6865
  17        1.6880
  18        1.6880
  19        2.3979
  20        2.3979
  21        3.5430
  22        3.5430
  23        5.9810
  24        5.9810
  25       12.1577
  26       12.1577
  27       12.9790
  28       12.9790
 
  0.4166667E+00  0.4166667E+00  0.0000000E+00  0.6944444E-02
   1       -1.2871
   2       -0.5704
   3       -0.5704
   4       -0.5704
   5       -0.0632
   6       -0.0632
   7       -0.0029
   8        0.2041
   9        0.2041
  10        0.2550
  11        0.3326
  12        0.6139
  13        1.3412
  14        1.5426
  15        1.5490
  16        1.6349
  17        1.6349
  18        2.0440
  19        2.0440
  20        2.2572
  21        3.5439
  22        4.6405
  23        4.6405
  24        5.8635
  25       12.1727
  26       12.9081
  27       13.2407
  28       13.2407
 
  0.5000000E+00  0.4166667E+00  0.0000000E+00  0.6944444E-02
   1       -0.9142
   2       -0.9142
   3       -0.5296
   4       -0.5296
   5       -0.0167
   6       -0.0167
   7        0.1454
   8        0.1454
   9        0.2617
  10        0.2617
  11        0.4477
  12        0.4477
  13        1.4251
  14        1.4251
  15        1.5085
  16        1.5085
  17        1.7620
  18        1.7620
  19        2.1197
  20        2.1197
  21        4.0430
  22        4.0430
  23        5.2221
  24        5.2221
  25       12.6190
  26       12.6190
  27       13.8388
  28       13.8388
 
  0.5000000E+00  0.5000000E+00  0.0000000E+00  0.1736111E-02
   1       -0.6945
   2       -0.6945
   3       -0.6945
   4       -0.6945
   5        0.0834
   6        0.0834
   7        0.0834
   8        0.0834
   9        0.4076
  10        0.4076
  11        0.4076
  12        0.4076
  13        1.3806
  14        1.3806
  15        1.3806
  16        1.3806
  17        1.9030
  18        1.9030
  19        1.9030
  20        1.9030
  21        4.5909
  22        4.5909
  23        4.5909
  24        4.5909
  25       13.2208
  26       13.2208
  27       13.2208
  28       13.2208
 
  0.8333333E-01  0.8333333E-01  0.8333333E-01  0.4629630E-02
   1       -4.0130
   2       -1.4627
   3       -1.4627
   4       -1.4627
   5       -1.1939
   6       -1.1939
   7       -1.1939
   8        0.4790
   9        0.6184
  10        0.6184
  11        1.8720
  12        1.8720
  13        2.7579
  14        2.7579
  15        2.7579
  16        2.7772
  17        2.7772
  18        2.7772
  19        3.1818
  20        3.1818
  21        3.1818
  22        6.1196
  23        6.1196
  24        6.1196
  25       10.8680
  26       10.8680
  27       10.8680
  28       14.4277
 
  0.1666667E+00  0.8333333E-01  0.8333333E-01  0.1388889E-01
   1       -3.7905
   2       -1.3938
   3       -1.3369
   4       -1.3369
   5       -1.1157
   6       -1.0587
   7       -1.0587
   8        0.3967
   9        0.6942
  10        0.7023
  11        1.7688
  12        1.9329
  13        2.2609
  14        2.2609
  15        2.4838
  16        2.6359
  17        2.6483
  18        2.6483
  19        3.0914
  20        3.1601
  21        3.1601
  22        5.0061
  23        6.7205
  24        6.7205
  25       10.6721
  26       10.6721
  27       12.3364
  28       13.8708
 
  0.2500000E+00  0.8333333E-01  0.8333333E-01  0.1388889E-01
   1       -3.4297
   2       -1.3120
   3       -1.1392
   4       -1.1392
   5       -0.9894
   6       -0.8420
   7       -0.8420
   8        0.2449
   9        0.8335
  10        0.8404
  11        1.6261
  12        1.6777
  13        1.6777
  14        2.0305
  15        2.0519
  16        2.4129
  17        2.4341
  18        2.4341
  19        2.9639
  20        3.1423
  21        3.1423
  22        3.9428
  23        7.4408
  24        7.4408
  25       10.4324
  26       10.4324
  27       13.3674
  28       13.3674
 
  0.3333333E+00  0.8333333E-01  0.8333333E-01  0.1388889E-01
   1       -2.9500
   2       -1.2857
   3       -0.8873
   4       -0.8873
   5       -0.8220
   6       -0.5660
   7       -0.5660
   8        0.0483
   9        0.9724
  10        1.0300
  11        1.1032
  12        1.1032
  13        1.5259
  14        1.5326
  15        2.1352
  16        2.1589
  17        2.1648
  18        2.1648
  19        2.8129
  20        3.0930
  21        3.1321
  22        3.1321
  23        8.1183
  24        8.1183
  25       10.2621
  26       10.2621
  27       12.9011
  28       12.9011
 
  0.4166667E+00  0.8333333E-01  0.8333333E-01  0.1388889E-01
   1       -2.3913
   2       -1.4353
   3       -0.6282
   4       -0.6282
   5       -0.6229
   6       -0.2640
   7       -0.2640
   8       -0.1735
   9        0.5839
  10        0.5839
  11        0.9797
  12        1.1100
  13        1.2654
  14        1.6463
  15        1.8347
  16        1.9178
  17        1.9178
  18        2.3107
  19        2.4600
  20        2.6475
  21        3.1271
  22        3.1271
  23        8.5849
  24        8.5849
  25       10.2569
  26       10.2569
  27       12.4863
  28       12.4863
 
  0.5000000E+00  0.8333333E-01  0.8333333E-01  0.6944444E-02
   1       -1.8377
   2       -1.8377
   3       -0.5012
   4       -0.5012
   5       -0.4025
   6       -0.4025
   7       -0.0107
   8       -0.0107
   9        0.2390
  10        0.2390
  11        0.9499
  12        0.9499
  13        1.5382
  14        1.5382
  15        1.8112
  16        1.8112
  17        1.9841
  18        1.9841
  19        2.4768
  20        2.4768
  21        3.1257
  22        3.1257
  23        8.7366
  24        8.7366
  25       10.3182
  26       10.3182
  27       12.2915
  28       12.2915
 
  0.1666667E+00  0.1666667E+00  0.8333333E-01  0.1388889E-01
   1       -3.5766
   2       -1.2687
   3       -1.2687
   4       -1.2582
   5       -0.9810
   6       -0.9810
   7       -0.8967
   8        0.3614
   9        0.7343
  10        0.7551
  11        1.7561
  12        1.9384
  13        1.9638
  14        1.9638
  15        1.9897
  16        2.4600
  17        2.5290
  18        2.5290
  19        3.0808
  20        3.0808
  21        3.0969
  22        5.5838
  23        5.5838
  24        7.2153
  25       10.3369
  26       11.9586
  27       11.9586
  28       13.2985
 
  0.2500000E+00  0.1666667E+00  0.8333333E-01  0.2777778E-01
   1       -3.2304
   2       -1.1878
   3       -1.1123
   4       -1.0726
   5       -0.8558
   6       -0.7650
   7       -0.6637
   8        0.2529
   9        0.8371
  10        0.8475
  11        1.3926
  12        1.5426
  13        1.5579
  14        1.6626
  15        2.0490
  16        2.2715
  17        2.3036
  18        2.3767
  19        2.9621
  20        3.0328
  21        3.0347
  22        4.5095
  23        6.2508
  24        7.8323
  25        9.8999
  26       11.4638
  27       12.9513
  28       13.2006
 
  0.3333333E+00  0.1666667E+00  0.8333333E-01  0.2777778E-01
   1       -2.7711
   2       -1.1611
   3       -0.8986
   4       -0.8197
   5       -0.6939
   6       -0.4958
   7       -0.4048
   8        0.0880
   9        0.8603
  10        0.8972
  11        1.0127
  12        1.0531
  13        1.1264
  14        1.6219
  15        2.0227
  16        2.0545
  17        2.1576
  18        2.2170
  19        2.7856
  20        2.9903
  21        2.9925
  22        3.6309
  23        6.9052
  24        8.3421
  25        9.5776
  26       10.9763
  27       12.7967
  28       13.8842
 
  0.4166667E+00  0.1666667E+00  0.8333333E-01  0.2777778E-01
   1       -2.2367
   2       -1.3095
   3       -0.6316
   4       -0.5408
   5       -0.5095
   6       -0.2467
   7       -0.2026
   8       -0.1067
   9        0.4310
  10        0.6080
  11        0.8243
  12        0.8453
  13        1.2167
  14        1.7318
  15        1.7803
  16        1.8571
  17        1.9272
  18        2.4212
  19        2.5044
  20        2.9671
  21        2.9693
  22        3.0178
  23        7.4947
  24        8.3585
  25        9.7143
  26       10.5417
  27       12.8298
  28       13.4629
 
  0.5000000E+00  0.1666667E+00  0.8333333E-01  0.1388889E-01
   1       -1.7040
   2       -1.7040
   3       -0.4056
   4       -0.4056
   5       -0.3109
   6       -0.3109
   7       -0.1642
   8       -0.1642
   9        0.3208
  10        0.3208
  11        0.7622
  12        0.7622
  13        1.4581
  14        1.4581
  15        1.7962
  16        1.7962
  17        2.1166
  18        2.1166
  19        2.6651
  20        2.6651
  21        2.9610
  22        2.9610
  23        7.9930
  24        7.9930
  25       10.1259
  26       10.1259
  27       13.0671
  28       13.0671
 
  0.2500000E+00  0.2500000E+00  0.8333333E-01  0.1388889E-01
   1       -2.9093
   2       -1.0241
   3       -0.9965
   4       -0.9965
   5       -0.6388
   6       -0.6388
   7       -0.4328
   8        0.2205
   9        0.8522
  10        0.9029
  11        1.0355
  12        1.0355
  13        1.2873
  14        1.6316
  15        2.0777
  16        2.1810
  17        2.2002
  18        2.2002
  19        2.8862
  20        2.8862
  21        2.9197
  22        5.1493
  23        5.1493
  24        8.2552
  25        9.3323
  26       12.3937
  27       12.3937
  28       12.8163
 
  0.3333333E+00  0.2500000E+00  0.8333333E-01  0.2777778E-01
   1       -2.4862
   2       -0.9769
   3       -0.8691
   4       -0.7534
   5       -0.4794
   6       -0.3687
   7       -0.2047
   8        0.1273
   9        0.5712
  10        0.7017
  11        0.8416
  12        0.9508
  13        1.0210
  14        1.6203
  15        1.8905
  16        1.9398
  17        2.0454
  18        2.4095
  19        2.6855
  20        2.8068
  21        2.8234
  22        4.2318
  23        5.7864
  24        8.1198
  25        9.3802
  26       11.6529
  27       12.8959
  28       13.2938
 
  0.4166667E+00  0.2500000E+00  0.8333333E-01  0.2777778E-01
   1       -1.9968
   2       -1.1296
   3       -0.6502
   4       -0.4794
   5       -0.3171
   6       -0.1829
   7       -0.0861
   8       -0.0087
   9        0.2797
  10        0.5342
  11        0.6282
  12        0.7396
  13        1.1858
  14        1.6581
  15        1.7412
  16        1.7692
  17        1.8575
  18        2.4027
  19        2.6985
  20        2.7556
  21        2.7620
  22        3.5410
  23        6.3974
  24        7.5660
  25        9.8904
  26       11.0113
  27       13.1782
  28       14.2104
 
  0.5000000E+00  0.2500000E+00  0.8333333E-01  0.1388889E-01
   1       -1.5064
   2       -1.5064
   3       -0.3914
   4       -0.3914
   5       -0.1925
   6       -0.1925
   7       -0.1616
   8       -0.1616
   9        0.3889
  10        0.3889
  11        0.5898
  12        0.5898
  13        1.3993
  14        1.3993
  15        1.7220
  16        1.7220
  17        2.0652
  18        2.0652
  19        2.7402
  20        2.7402
  21        3.0563
  22        3.0563
  23        6.9845
  24        6.9845
  25       10.4405
  26       10.4405
  27       13.6544
  28       13.6544
 
  0.3333333E+00  0.3333333E+00  0.8333333E-01  0.1388889E-01
   1       -2.1172
   2       -0.7915
   3       -0.7630
   4       -0.7630
   5       -0.1963
   6       -0.1963
   7       -0.0218
   8        0.1336
   9        0.3376
  10        0.3376
  11        0.7969
  12        0.7974
  13        1.0632
  14        1.6029
  15        1.7149
  16        1.8292
  17        1.8292
  18        2.5800
  19        2.5800
  20        2.6686
  21        2.7100
  22        4.8357
  23        4.8357
  24        7.4035
  25        9.8054
  26       12.3906
  27       12.3906
  28       13.1735
 
  0.4166667E+00  0.3333333E+00  0.8333333E-01  0.2777778E-01
   1       -1.6986
   2       -0.9390
   3       -0.6704
   4       -0.5730
   5       -0.0531
   6       -0.0089
   7        0.0461
   8        0.0941
   9        0.2072
  10        0.3091
  11        0.6353
  12        0.6851
  13        1.1575
  14        1.5704
  15        1.5813
  16        1.6872
  17        1.7187
  18        2.2945
  19        2.5091
  20        2.5524
  21        3.0781
  22        4.0870
  23        5.4347
  24        6.6897
  25       10.3541
  26       11.6147
  27       13.2021
  28       13.6328
 
  0.5000000E+00  0.3333333E+00  0.8333333E-01  0.1388889E-01
   1       -1.2809
   2       -1.2809
   3       -0.5464
   4       -0.5464
   5       -0.0231
   6       -0.0231
   7        0.0269
   8        0.0269
   9        0.4522
  10        0.4522
  11        0.4867
  12        0.4867
  13        1.3319
  14        1.3319
  15        1.5714
  16        1.5714
  17        1.9793
  18        1.9793
  19        2.4972
  20        2.4972
  21        3.5211
  22        3.5211
  23        6.0423
  24        6.0423
  25       10.9486
  26       10.9486
  27       14.0785
  28       14.0785
 
  0.4166667E+00  0.4166667E+00  0.8333333E-01  0.1388889E-01
   1       -1.3769
   2       -0.7882
   3       -0.7882
   4       -0.6843
   5        0.1245
   6        0.1545
   7        0.1545
   8        0.1635
   9        0.2755
  10        0.2755
  11        0.6234
  12        0.6355
  13        1.1505
  14        1.4287
  15        1.4614
  16        1.4614
  17        1.7658
  18        2.2309
  19        2.2309
  20        2.3687
  21        3.5178
  22        4.6495
  23        4.6495
  24        5.9138
  25       10.9209
  26       12.3247
  27       12.3247
  28       14.0244
 
  0.5000000E+00  0.4166667E+00  0.8333333E-01  0.1388889E-01
   1       -1.0653
   2       -1.0653
   3       -0.7097
   4       -0.7097
   5        0.1341
   6        0.1341
   7        0.1808
   8        0.1808
   9        0.4893
  10        0.4893
  11        0.5172
  12        0.5172
  13        1.2549
  14        1.2549
  15        1.3813
  16        1.3813
  17        1.9565
  18        1.9565
  19        2.2523
  20        2.2523
  21        4.0271
  22        4.0271
  23        5.2461
  24        5.2461
  25       11.5713
  26       11.5713
  27       13.1290
  28       13.1290
 
  0.5000000E+00  0.5000000E+00  0.8333333E-01  0.3472222E-02
   1       -0.8775
   2       -0.8775
   3       -0.8775
   4       -0.8775
   5        0.2097
   6        0.2097
   7        0.2097
   8        0.2097
   9        0.5479
  10        0.5479
  11        0.5479
  12        0.5479
  13        1.2452
  14        1.2452
  15        1.2452
  16        1.2452
  17        2.0519
  18        2.0519
  19        2.0519
  20        2.0519
  21        4.5887
  22        4.5887
  23        4.5887
  24        4.5887
  25       12.2960
  26       12.2960
  27       12.2960
  28       12.2960
 
  0.1666667E+00  0.1666667E+00  0.1666667E+00  0.4629630E-02
   1       -3.3751
   2       -1.2019
   3       -1.2019
   4       -1.2019
   5       -0.8121
   6       -0.8121
   7       -0.8121
   8        0.3587
   9        0.7674
  10        0.7674
  11        1.7197
  12        1.7197
  13        1.7197
  14        1.8605
  15        1.8605
  16        2.2666
  17        2.2666
  18        2.2666
  19        3.1048
  20        3.1048
  21        3.1048
  22        6.0368
  23        6.0368
  24        6.0368
  25       11.3239
  26       11.3239
  27       11.3239
  28       14.2939
 
  0.2500000E+00  0.1666667E+00  0.1666667E+00  0.1388889E-01