 running on    8 nodes
 distr:  one band on    1 nodes,    8 groups
 vasp.4.6.28 25Jul05 complex 
 POSCAR found :  1 types and   32 ions

 ----------------------------------------------------------------------------- 
|                                                                             |
|  ADVICE TO THIS USER RUNNING 'VASP/VAMP'   (HEAR YOUR MASTER'S VOICE ...):  |
|                                                                             |
|      You have a (more or less) 'large supercell' and for larger cells       |
|      it might be more efficient to use real space projection operators      |
|      So try LREAL= Auto  in the INCAR   file.                               |
|      Mind: If you want to do an extremely accurate calculations keep the    |
|      reciprocal projection scheme          (i.e. LREAL=.FALSE.)             |
|                                                                             |
 ----------------------------------------------------------------------------- 

 LDA part: xc-table for Pade appr. of Perdew
 generate k-points for:   7   7   7
 POSCAR, INCAR and KPOINTS ok, starting setup
 FFT: planning ...           2
 reading WAVECAR
 entering main loop
       N       E                     dE             d eps       ncg     rms          rms(c)
DAV:   1     0.326389682953E+04    0.32639E+04   -0.14511E+05 43208   0.245E+03
DAV:   2     0.314336176196E+03   -0.29496E+04   -0.28285E+04 43200   0.545E+02
DAV:   3    -0.122795951772E+03   -0.43713E+03   -0.39509E+03 43200   0.214E+02
DAV:   4    -0.146510315610E+03   -0.23714E+02   -0.23207E+02 45928   0.603E+01
DAV:   5    -0.146700001591E+03   -0.18969E+00   -0.18938E+00 46112   0.563E+00    0.394E+01
DAV:   6    -0.129225935716E+03    0.17474E+02   -0.26424E+02 46472   0.927E+01    0.178E+01
DAV:   7    -0.119372127208E+03    0.98538E+01   -0.45781E+01 48232   0.390E+01    0.292E+00
DAV:   8    -0.119123867834E+03    0.24826E+00   -0.60434E-01 44896   0.269E+00    0.209E+00
DAV:   9    -0.119037788912E+03    0.86079E-01   -0.22661E-01 46984   0.271E+00    0.109E-01
DAV:  10    -0.119038707165E+03   -0.91825E-03   -0.88783E-03 48024   0.596E-01    0.121E-01
DAV:  11    -0.119038609288E+03    0.97878E-04   -0.10565E-03 45648   0.251E-01    0.234E-02
DAV:  12    -0.119038609985E+03   -0.69701E-06   -0.20531E-04 47312   0.114E-01    0.180E-02
DAV:  13    -0.119038609129E+03    0.85527E-06   -0.64132E-05 45656   0.832E-02    0.857E-03
DAV:  14    -0.119038612929E+03   -0.37998E-05   -0.34916E-06 45112   0.117E-02    0.471E-03
DAV:  15    -0.119038613686E+03   -0.75678E-06   -0.72927E-07 46752   0.773E-03    0.344E-03
DAV:  16    -0.119038614903E+03   -0.12172E-05   -0.56508E-07 48608   0.621E-03    0.140E-03
DAV:  17    -0.119038618695E+03   -0.37917E-05   -0.18116E-07 46616   0.277E-03    0.552E-04
DAV:  18    -0.119038619438E+03   -0.74287E-06   -0.46382E-08 41456   0.246E-03    0.293E-04
DAV:  19    -0.119038620723E+03   -0.12846E-05   -0.70008E-09 24024   0.726E-04    0.113E-04
DAV:  20    -0.119038620811E+03   -0.88388E-07   -0.19531E-09 24024   0.541E-04    0.138E-04
DAV:  21    -0.119038620819E+03   -0.81054E-08   -0.93043E-11 24016   0.370E-04
   1 F= -.11903862E+03 E0= -.11903810E+03  d E =-.119039E+03
 curvature:   0.00 expect dE= 0.000E+00 dE for cont linesearch  0.000E+00
 trial: gam= 0.00000 g(F)=  0.998E-08 g(S)=  0.512E-07 ort = 0.000E+00 (trialstep = 0.100E+01)
 search vector abs. value=  0.613E-07
 bond charge predicted
       N       E                     dE             d eps       ncg     rms          rms(c)
DAV:   1    -0.119038622553E+03   -0.11904E+03   -0.15026E-05 47176   0.185E-02    0.820E-03
DAV:   2    -0.119038620718E+03    0.18349E-05   -0.83573E-06 46512   0.164E-02    0.288E-03
DAV:   3    -0.119038620759E+03   -0.40527E-07   -0.14824E-06 45608   0.716E-03    0.151E-03
DAV:   4    -0.119038620624E+03    0.13530E-06   -0.11806E-08 25008   0.162E-03    0.291E-04
DAV:   5    -0.119038620629E+03   -0.49913E-08   -0.95172E-09 23848   0.132E-03
   2 F= -.11903862E+03 E0= -.11903810E+03  d E =0.190390E-06
 trial-energy change:    0.000000  1 .order   -0.000000   -0.000000   -0.000000
 step:   1.8604(harm=  1.8604)  dis= 0.00001  next Energy=  -119.038621 (dE=-0.569E-07)
 bond charge predicted
       N       E                     dE             d eps       ncg     rms          rms(c)
DAV:   1    -0.119038621938E+03   -0.11904E+03   -0.10954E-05 46944   0.159E-02    0.701E-03
DAV:   2    -0.119038620479E+03    0.14584E-05   -0.60787E-06 46400   0.140E-02    0.246E-03
DAV:   3    -0.119038620560E+03   -0.80596E-07   -0.10805E-06 45456   0.615E-03    0.130E-03
DAV:   4    -0.119038620469E+03    0.90957E-07   -0.24007E-08 25736   0.265E-03    0.464E-04
DAV:   5    -0.119038620466E+03    0.34488E-08   -0.95725E-09 23488   0.190E-03
   3 F= -.11903862E+03 E0= -.11903810E+03  d E =0.353342E-06
 curvature:  -0.93 expect dE=-0.858E-07 dE for cont linesearch -0.409E-08
 trial: gam= 0.00000 g(F)=  0.181E-08 g(S)=  0.903E-07 ort =-0.164E-07 (trialstep = 0.779E+00)
 search vector abs. value=  0.922E-07
 bond charge predicted
       N       E                     dE             d eps       ncg     rms          rms(c)
DAV:   1    -0.119038621095E+03   -0.11904E+03   -0.12716E-05 46456   0.176E-02    0.783E-03
DAV:   2    -0.119038621407E+03   -0.31207E-06   -0.74930E-06 46144   0.157E-02    0.283E-03
DAV:   3    -0.119038620774E+03    0.63292E-06   -0.13157E-06 45608   0.686E-03    0.145E-03
DAV:   4    -0.119038620836E+03   -0.62522E-07   -0.60155E-08 41744   0.412E-03    0.673E-04
DAV:   5    -0.119038620836E+03    0.56025E-09   -0.17600E-08 23232   0.279E-03
   4 F= -.11903862E+03 E0= -.11903810E+03  d E =-.370230E-06
 ZBRENT: can't locate minimum, use default step
 trial-energy change:   -0.000000  1 .order   -0.000000   -0.000000   -0.000000
 step:   3.1157(harm=  3.1157)  dis= 0.00001  next Energy=  -119.038622 (dE=-0.146E-05)
 bond charge predicted
       N       E                     dE             d eps       ncg     rms          rms(c)
DAV:   1    -0.119038628680E+03   -0.11904E+03   -0.11213E-04 46344   0.526E-02    0.235E-02
DAV:   2    -0.119038625271E+03    0.34089E-05   -0.67048E-05 46112   0.469E-02    0.845E-03
DAV:   3    -0.119038621578E+03    0.36938E-05   -0.11889E-05 45576   0.203E-02    0.441E-03
DAV:   4    -0.119038621452E+03    0.12604E-06   -0.25122E-07 55144   0.726E-03    0.118E-03
DAV:   5    -0.119038621414E+03    0.37413E-07   -0.98308E-08 46704   0.523E-03    0.249E-04
DAV:   6    -0.119038621346E+03    0.68379E-07   -0.31030E-08 31648   0.127E-03    0.201E-04
DAV:   7    -0.119038621310E+03    0.35623E-07   -0.10819E-08 22968   0.978E-04    0.149E-04
DAV:   8    -0.119038621224E+03    0.85791E-07   -0.17466E-09 22968   0.529E-04    0.568E-05
DAV:   9    -0.119038621220E+03    0.46130E-08    0.28610E-10 22968   0.261E-04
   5 F= -.11903862E+03 E0= -.11903810E+03  d E =-.754095E-06
 curvature:  -1.54 expect dE=-0.320E-06 dE for cont linesearch -0.115E-07
 trial: gam= 0.00000 g(F)=  0.271E-08 g(S)=  0.205E-06 ort =-0.262E-07 (trialstep = 0.553E+00)
 search vector abs. value=  0.208E-06
 bond charge predicted
       N       E                     dE             d eps       ncg     rms          rms(c)
DAV:   1    -0.119038623184E+03   -0.11904E+03   -0.14441E-05 46416   0.189E-02    0.851E-03
DAV:   2    -0.119038621243E+03    0.19401E-05   -0.87605E-06 46216   0.170E-02    0.302E-03
DAV:   3    -0.119038621270E+03   -0.27081E-07   -0.15660E-06 45496   0.737E-03    0.162E-03
DAV:   4    -0.119038621118E+03    0.15229E-06   -0.18030E-08 26608   0.210E-03    0.363E-04
DAV:   5    -0.119038621122E+03   -0.38199E-08   -0.11869E-08 23408   0.159E-03
   6 F= -.11903862E+03 E0= -.11903810E+03  d E =0.977889E-07
 ZBRENT: can't locate minimum, use default step
 trial-energy change:    0.000000  1 .order   -0.000000   -0.000000   -0.000000
 step:   2.2128(harm=  2.2128)  dis= 0.00001  next Energy=  -119.038622 (dE=-0.883E-06)
 bond charge predicted
       N       E                     dE             d eps       ncg     rms          rms(c)
DAV:   1    -0.119038634083E+03   -0.11904E+03   -0.12904E-04 46320   0.567E-02    0.254E-02
DAV:   2    -0.119038623299E+03    0.10784E-04   -0.78303E-05 46192   0.507E-02    0.907E-03
DAV:   3    -0.119038621321E+03    0.19776E-05   -0.13959E-05 45432   0.220E-02    0.480E-03
DAV:   4    -0.119038620578E+03    0.74274E-06   -0.19617E-07 63480   0.499E-03    0.789E-04
DAV:   5    -0.119038620599E+03   -0.20998E-07   -0.66575E-08 45040   0.369E-03    0.275E-04
DAV:   6    -0.119038620685E+03   -0.85558E-07   -0.28057E-08 31736   0.101E-03    0.150E-04
DAV:   7    -0.119038620720E+03   -0.34634E-07   -0.42295E-09 22920   0.781E-04    0.966E-05
DAV:   8    -0.119038620813E+03   -0.93562E-07   -0.59173E-10 22896   0.329E-04    0.693E-05
DAV:   9    -0.119038620805E+03    0.80545E-08    0.84721E-10 22896   0.136E-04
   7 F= -.11903862E+03 E0= -.11903810E+03  d E =0.414759E-06
 curvature:  -1.67 expect dE=-0.119E-05 dE for cont linesearch -0.158E-06
 ZBRENT: interpolating
 opt :   1.6883  next Energy=  -119.038621 (dE= 0.378E-06)
 bond charge predicted
       N       E                     dE             d eps       ncg     rms          rms(c)
DAV:   1    -0.119038621375E+03   -0.11904E+03   -0.12989E-05 46336   0.180E-02    0.799E-03
DAV:   2    -0.119038621664E+03   -0.28848E-06   -0.78036E-06 46216   0.160E-02    0.289E-03
DAV:   3    -0.119038621005E+03    0.65870E-06   -0.13788E-06 45424   0.690E-03    0.148E-03
DAV:   4    -0.119038621055E+03   -0.50262E-07   -0.92952E-09 25512   0.114E-03    0.165E-04
DAV:   5    -0.119038621047E+03    0.81272E-08   -0.93209E-09 23096   0.103E-03
   8 F= -.11903862E+03 E0= -.11903810E+03  d E =0.172498E-06
 curvature:  -0.39 expect dE=-0.358E-06 dE for cont linesearch -0.765E-07
 trial: gam= 0.00000 g(F)=  0.270E-08 g(S)=  0.917E-06 ort =-0.202E-06 (trialstep = 0.176E+00)
 search vector abs. value=  0.920E-06
 bond charge predicted
       N       E                     dE             d eps       ncg     rms          rms(c)
DAV:   1    -0.119038621348E+03   -0.11904E+03   -0.78142E-06 45048   0.146E-02    0.651E-03
DAV:   2    -0.119038621689E+03   -0.34139E-06   -0.51999E-06 46008   0.131E-02    0.227E-03
DAV:   3    -0.119038621193E+03    0.49664E-06   -0.92088E-07 45328   0.569E-03    0.113E-03
DAV:   4    -0.119038621226E+03   -0.33702E-07   -0.23874E-08 24656   0.275E-03    0.453E-04
DAV:   5    -0.119038621224E+03    0.20082E-08   -0.74220E-09 22856   0.192E-03
   9 F= -.11903862E+03 E0= -.11903810E+03  d E =-.177119E-06
 ZBRENT: can't locate minimum, use default step
 trial-energy change:   -0.000000  1 .order   -0.000000   -0.000000   -0.000000
 step:   0.7045(harm=  0.8856)  dis= 0.00000  next Energy=  -119.038621 (dE=-0.407E-06)
 bond charge predicted
       N       E                     dE             d eps       ncg     rms          rms(c)
DAV:   1    -0.119038626439E+03   -0.11904E+03   -0.71095E-05 44960   0.441E-02    0.197E-02
DAV:   2    -0.119038624434E+03    0.20047E-05   -0.47488E-05 45936   0.397E-02    0.679E-03
DAV:   3    -0.119038621711E+03    0.27228E-05   -0.84390E-06 45296   0.171E-02    0.341E-03
DAV:   4    -0.119038621689E+03    0.22141E-07   -0.85697E-08 54104   0.372E-03    0.534E-04
DAV:   5    -0.119038621661E+03    0.27692E-07   -0.26378E-08 29912   0.273E-03    0.110E-04
DAV:   6    -0.119038621590E+03    0.71013E-07   -0.12475E-08 22688   0.629E-04    0.160E-04
DAV:   7    -0.119038621566E+03    0.24564E-07   -0.22532E-09 22680   0.533E-04    0.123E-04
DAV:   8    -0.119038621483E+03    0.82837E-07   -0.57574E-11 22680   0.241E-04    0.343E-05
DAV:   9    -0.119038621488E+03   -0.55734E-08    0.90006E-10 22680   0.137E-04
  10 F= -.11903862E+03 E0= -.11903810E+03  d E =-.441076E-06
 curvature:  -0.41 expect dE=-0.160E-06 dE for cont linesearch -0.231E-07
 trial: gam= 0.00000 g(F)=  0.114E-08 g(S)=  0.385E-06 ort =-0.227E-06 (trialstep = 0.282E+00)
 search vector abs. value=  0.386E-06
 bond charge predicted
       N       E                     dE             d eps       ncg     rms          rms(c)
DAV:   1    -0.119038622514E+03   -0.11904E+03   -0.63281E-06 46712   0.123E-02    0.554E-03
DAV:   2    -0.119038621453E+03    0.10606E-05   -0.36679E-06 46408   0.110E-02    0.200E-03
DAV:   3    -0.119038621549E+03   -0.95730E-07   -0.65768E-07 45440   0.477E-03    0.110E-03
DAV:   4    -0.119038621459E+03    0.89654E-07   -0.43741E-09 23328   0.871E-04    0.163E-04
DAV:   5    -0.119038621464E+03   -0.51587E-08   -0.51238E-09 22672   0.752E-04
  11 F= -.11903862E+03 E0= -.11903810E+03  d E =0.239525E-07
 ZBRENT: can't locate minimum, use default step
 trial-energy change:    0.000000  1 .order   -0.000000   -0.000000   -0.000000
 step:   1.1271(harm=  1.1271)  dis= 0.00000  next Energy=  -119.038622 (dE=-0.560E-06)
 bond charge predicted
       N       E                     dE             d eps       ncg     rms          rms(c)
DAV:   1    -0.119038627517E+03   -0.11904E+03   -0.56447E-05 46672   0.367E-02    0.165E-02
DAV:   2    -0.119038622270E+03    0.52465E-05   -0.32564E-05 46392   0.327E-02    0.600E-03
DAV:   3    -0.119038621690E+03    0.58034E-06   -0.58173E-06 45448   0.142E-02    0.325E-03
DAV:   4    -0.119038621295E+03    0.39506E-06   -0.83581E-08 58072   0.288E-03    0.444E-04
DAV:   5    -0.119038621313E+03   -0.17957E-07   -0.29345E-08 37392   0.217E-03    0.208E-04
DAV:   6    -0.119038621366E+03   -0.52845E-07   -0.14250E-08 22656   0.729E-04    0.887E-05
DAV:   7    -0.119038621400E+03   -0.33790E-07   -0.10155E-09 22680   0.427E-04    0.721E-05
DAV:   8    -0.119038621444E+03   -0.44180E-07    0.29688E-10 22672   0.320E-04    0.817E-05
DAV:   9    -0.119038621444E+03   -0.26921E-09    0.91854E-10 22680   0.201E-04
  12 F= -.11903862E+03 E0= -.11903810E+03  d E =0.443688E-07
 curvature:  -0.88 expect dE=-0.304E-06 dE for cont linesearch -0.397E-07
 trial: gam= 0.00000 g(F)=  0.850E-09 g(S)=  0.345E-06 ort = 0.132E-06 (trialstep = 0.451E+00)
 search vector abs. value=  0.346E-06
 reached required accuracy - stopping structural energy minimisation
