   32   32   60    1
  0.1202017E+02  0.7272414E-09  0.7272613E-09  0.7272629E-09  0.5000000E-15
  1.000000000000000E-004
  CAR 
 unknown system                          
  352  100  216
 
  0.0000000E+00  0.0000000E+00  0.0000000E+00  0.2915452E-02
   1       -5.5734
   2       -2.8418
   3       -2.8418
   4       -2.8417
   5       -2.8417
   6       -2.8411
   7       -2.8411
   8       -1.3528
   9       -1.3528
  10       -1.3528
  11       -1.3528
  12       -1.1511
  13       -1.1511
  14       -1.1510
  15       -0.9759
  16       -0.9759
  17       -0.9759
  18       -0.9759
  19       -0.9756
  20       -0.9756
  21       -0.9756
  22       -0.9756
  23       -0.9756
  24       -0.9756
  25       -0.9756
  26       -0.9756
  27       -0.7101
  28       -0.7101
  29       -0.7101
  30       -0.4283
  31       -0.4283
  32       -0.4282
  33       -0.4282
  34       -0.4280
  35       -0.4280
  36       -0.0510
  37       -0.0510
  38       -0.0510
  39       -0.0510
  40       -0.0507
  41       -0.0507
  42        0.1563
  43        0.1563
  44        0.1563
  45        0.1563
  46        0.1564
  47        0.1564
  48        0.1564
  49        0.1564
  50        0.1566
  51        0.1566
  52        0.1566
  53        0.1566
  54        0.1593
  55        0.1593
  56        0.1593
  57        0.1593
  58        0.1593
  59        0.1593
  60        0.1593
  61        0.1593
  62        0.1596
  63        0.1596
  64        0.1596
  65        0.1596
  66        0.3635
  67        0.3635
  68        0.3635
  69        0.3635
  70        0.3635
  71        0.3635
  72        0.3635
  73        0.3635
  74        0.3636
  75        0.3636
  76        0.3636
  77        0.3636
  78        0.6148
  79        0.6148
  80        0.6148
  81        0.6148
  82        0.6154
  83        0.6154
  84        0.6154
  85        0.6154
  86        0.6431
  87        0.6432
  88        0.6438
  89        1.0095
  90        1.0095
  91        1.0095
  92        1.0095
  93        1.0100
  94        1.0100
  95        1.1347
  96        1.1347
  97        1.1347
  98        1.1347
  99        1.1348
 100        1.1348
 101        1.1348
 102        1.1348
 103        1.1348
 104        1.1348
 105        1.1348
 106        1.1348
 107        1.2870
 108        1.2870
 109        1.2870
 110        1.2870
 111        1.2871
 112        1.2871
 113        1.2872
 114        1.2872
 115        1.2873
 116        1.2873
 117        1.2873
 118        1.2873
 119        1.4113
 120        1.4113
 121        1.4113
 122        1.4113
 123        1.4114
 124        1.4114
 125        1.4429
 126        1.4429
 127        1.4429
 128        1.4429
 129        1.4431
 130        1.4431
 131        1.4431
 132        1.4431
 133        1.4431
 134        1.4431
 135        1.4431
 136        1.4431
 137        1.4486
 138        1.4492
 139        1.7135
 140        1.7135
 141        1.7136
 142        1.7136
 143        1.7137
 144        1.7137
 145        1.9839
 146        1.9839
 147        1.9840
 148        1.9977
 149        1.9977
 150        1.9977
 151        1.9977
 152        1.9979
 153        1.9979
 154        1.9979
 155        1.9979
 156        2.1338
 157        2.1338
 158        2.1340
 159        2.1340
 160        2.1341
 161        2.1342
 162        2.1345
 163        2.1345
 164        2.1348
 165        2.1348
 166        2.1348
 167        2.1348
 168        2.6966
 169        2.6966
 170        2.6966
 171        2.6966
 172        3.3070
 173        3.3070
 174        3.3070
 175        3.3070
 176        3.3075
 177        3.3075
 178        3.3075
 179        3.3075
 180        3.3075
 181        3.3075
 182        3.3075
 183        3.3075
 184        5.1650
 185        5.1653
 186        5.1678
 187        7.3044
 188        7.3044
 189        7.3044
 190        7.3044
 191        9.7883
 192        9.7883
 193        9.7884
 194        9.7884
 195        9.7893
 196        9.7893
 197        9.7896
 198        9.7896
 199        9.7907
 200        9.7907
 201        9.7908
 202        9.7908
 203       10.6366
 204       10.6370
 205       10.6400
 206       11.8747
 207       11.8747
 208       11.8757
 209       11.8757
 210       11.8758
 211       11.8758
 212       12.3211
 213       12.3211
 214       12.3222
 215       12.3223
 216       12.3224
 
  0.1428571E+00 -0.1323489E-22  0.0000000E+00  0.5830904E-02
   1       -5.5120
   2       -3.4932
   3       -2.7919
   4       -2.7919
   5       -2.7918
   6       -2.7918
   7       -2.2030
   8       -1.3410
   9       -1.3410
  10       -1.3410
  11       -1.3410
  12       -1.3390
  13       -1.3390
  14       -1.3390
  15       -1.3390
  16       -1.1514
  17       -1.1226
  18       -1.1226
  19       -1.0038
  20       -1.0038
  21       -1.0038
  22       -1.0038
  23       -0.6940
  24       -0.6931
  25       -0.6931
  26       -0.6653
  27       -0.6653
  28       -0.6653
  29       -0.6653
  30       -0.4757
  31       -0.4757
  32       -0.4063
  33       -0.4063
  34       -0.4063
  35       -0.4063
  36       -0.2004
  37       -0.0784
  38       -0.0784
  39       -0.0440
  40       -0.0440
  41       -0.0440
  42       -0.0440
  43        0.1007
  44        0.1289
  45        0.1289
  46        0.1289
  47        0.1289
  48        0.1331
  49        0.1331
  50        0.1331
  51        0.1331
  52        0.1587
  53        0.1587
  54        0.1587
  55        0.1587
  56        0.1777
  57        0.1777
  58        0.1777
  59        0.1777
  60        0.2256
  61        0.2256
  62        0.2256
  63        0.2256
  64        0.2368
  65        0.2368
  66        0.2368
  67        0.2368
  68        0.3779
  69        0.3779
  70        0.3779
  71        0.3779
  72        0.4287
  73        0.4287
  74        0.4550
  75        0.4550
  76        0.4550
  77        0.4550
  78        0.6040
  79        0.6040
  80        0.6040
  81        0.6040
  82        0.6259
  83        0.6304
  84        0.6304
  85        0.6304
  86        0.6304
  87        0.6574
  88        0.6575
  89        0.9353
  90        0.9353
  91        0.9353
  92        0.9353
  93        1.0381
  94        1.0747
  95        1.0747
  96        1.0747
  97        1.0747
  98        1.1030
  99        1.1296
 100        1.1296
 101        1.1462
 102        1.1462
 103        1.1462
 104        1.1462
 105        1.1866
 106        1.1866
 107        1.1866
 108        1.1866
 109        1.2872
 110        1.2872
 111        1.2872
 112        1.2872
 113        1.3470
 114        1.3470
 115        1.3470
 116        1.3470
 117        1.3727
 118        1.3727
 119        1.3727
 120        1.3727
 121        1.4114
 122        1.4114
 123        1.4114
 124        1.4114
 125        1.4329
 126        1.4517
 127        1.4517
 128        1.4541
 129        1.4541
 130        1.4552
 131        1.5047
 132        1.5047
 133        1.5047
 134        1.5047
 135        1.5403
 136        1.5403
 137        1.5403
 138        1.5403
 139        1.6541
 140        1.7339
 141        1.7339
 142        1.7339
 143        1.7339
 144        1.7732
 145        1.8029
 146        1.8029
 147        1.8029
 148        1.8029
 149        1.9630
 150        1.9630
 151        1.9771
 152        1.9806
 153        1.9806
 154        1.9806
 155        1.9806
 156        2.0277
 157        2.0278
 158        2.1081
 159        2.1081
 160        2.1081
 161        2.1081
 162        2.1092
 163        2.1093
 164        2.1338
 165        2.1339
 166        2.1345
 167        2.1345
 168        2.8227
 169        2.8227
 170        2.8227
 171        2.8227
 172        2.8715
 173        2.8715
 174        2.8716
 175        2.8716
 176        3.3000
 177        3.3000
 178        3.3000
 179        3.3000
 180        3.8775
 181        3.8775
 182        3.8775
 183        3.8776
 184        4.7732
 185        5.3264
 186        5.3267
 187        7.4805
 188        7.4805
 189        7.4805
 190        7.4805
 191        8.8244
 192        8.8247
 193        9.0331
 194        9.0331
 195        9.0332
 196        9.0333
 197        9.8708
 198        9.8708
 199        9.8710
 200        9.8710
 201       10.6597
 202       10.6601
 203       10.8137
 204       10.8140
 205       11.1572
 206       11.6090
 207       11.6094
 208       12.1202
 209       12.1202
 210       12.1206
 211       12.1206
 212       12.2661
 213       12.2661
 214       12.2661
 215       12.2661
 216       12.4194
 
  0.2857143E+00 -0.1323489E-22  0.0000000E+00  0.5830904E-02
   1       -5.3290
   2       -4.0951
   3       -2.6446
   4       -2.6446
   5       -2.6445
   6       -2.6445
   7       -1.7274
   8       -1.7274
   9       -1.7273
  10       -1.7273
  11       -1.6808
  12       -1.2989
  13       -1.2989
  14       -1.2989
  15       -1.2989
  16       -1.1613
  17       -1.0729
  18       -1.0729
  19       -1.0729
  20       -1.0729
  21       -1.0402
  22       -1.0401
  23       -0.6463
  24       -0.6418
  25       -0.6418
  26       -0.5990
  27       -0.5990
  28       -0.4239
  29       -0.4239
  30       -0.4239
  31       -0.4239
  32       -0.3437
  33       -0.3437
  34       -0.3436
  35       -0.3436
  36       -0.3410
  37       -0.2750
  38       -0.2749
  39       -0.0238
  40       -0.0238
  41       -0.0237
  42       -0.0237
  43        0.0670
  44        0.0670
  45        0.0670
  46        0.0670
  47        0.0897
  48        0.0897
  49        0.0897
  50        0.0897
  51        0.0910
  52        0.0910
  53        0.0910
  54        0.0910
  55        0.1652
  56        0.1652
  57        0.1652
  58        0.1652
  59        0.1841
  60        0.1841
  61        0.1841
  62        0.1841
  63        0.2462
  64        0.3985
  65        0.3985
  66        0.3985
  67        0.3985
  68        0.4285
  69        0.4285
  70        0.4285
  71        0.4285
  72        0.5239
  73        0.5239
  74        0.5239
  75        0.5239
  76        0.5715
  77        0.5715
  78        0.5715
  79        0.5715
  80        0.5734
  81        0.6765
  82        0.6765
  83        0.6765
  84        0.6765
  85        0.7002
  86        0.7003
  87        0.7361
  88        0.7361
  89        0.8089
  90        0.8089
  91        0.8089
  92        0.8089
  93        0.9617
  94        0.9617
  95        0.9617
  96        0.9617
  97        0.9882
  98        0.9883
  99        1.1204
 100        1.2140
 101        1.2140
 102        1.2140
 103        1.2140
 104        1.2681
 105        1.2681
 106        1.2681
 107        1.2681
 108        1.2876
 109        1.2876
 110        1.2876
 111        1.2876
 112        1.3276
 113        1.3276
 114        1.3276
 115        1.3276
 116        1.3857
 117        1.4006
 118        1.4006
 119        1.4007
 120        1.4007
 121        1.4069
 122        1.4069
 123        1.4069
 124        1.4069
 125        1.4187
 126        1.4299
 127        1.4299
 128        1.4299
 129        1.4299
 130        1.4746
 131        1.5543
 132        1.5543
 133        1.5979
 134        1.6226
 135        1.6226
 136        1.6226
 137        1.6226
 138        1.6228
 139        1.6228
 140        1.6598
 141        1.6598
 142        1.6598
 143        1.6598
 144        1.7614
 145        1.7614
 146        1.8259
 147        1.8259
 148        1.8259
 149        1.8259
 150        1.8301
 151        1.9016
 152        1.9016
 153        1.9296
 154        1.9296
 155        1.9296
 156        1.9296
 157        1.9569
 158        2.0328
 159        2.0328
 160        2.0328
 161        2.0328
 162        2.0374
 163        2.0374
 164        2.1339
 165        2.1340
 166        2.1344
 167        2.1344
 168        2.5279
 169        2.5279
 170        2.5280
 171        2.5280
 172        3.0098
 173        3.0098
 174        3.0098
 175        3.0098
 176        3.2766
 177        3.2766
 178        3.2766
 179        3.2766
 180        3.8879
 181        4.6146
 182        4.6146
 183        4.6147
 184        4.6147
 185        5.7574
 186        5.7577
 187        7.7991
 188        7.7991
 189        7.7992
 190        7.7992
 191        7.9255
 192        7.9258
 193        7.9881
 194        7.9881
 195        7.9881
 196        7.9881
 197       10.1139
 198       10.1139
 199       10.1140
 200       10.1140
 201       10.7306
 202       10.7310
 203       10.9684
 204       10.9684
 205       10.9685
 206       10.9685
 207       11.2885
 208       11.2889
 209       11.6723
 210       11.6723
 211       11.6725
 212       11.6725
 213       11.8912
 214       11.8915
 215       12.2898
 216       12.2900
 
  0.4285714E+00 -0.1323489E-22  0.0000000E+00  0.5830904E-02
   1       -5.0272
   2       -4.6124
   3       -2.4072
   4       -2.4072
   5       -2.4072
   6       -2.4072
   7       -2.0939
   8       -2.0939
   9       -2.0938
  10       -2.0938
  11       -1.3571
  12       -1.2360
  13       -1.2360
  14       -1.2360
  15       -1.2360
  16       -1.2101
  17       -1.1568
  18       -1.1568
  19       -1.1568
  20       -1.1568
  21       -0.9128
  22       -0.9128
  23       -0.7570
  24       -0.7570
  25       -0.5691
  26       -0.5557
  27       -0.5557
  28       -0.4658
  29       -0.4337
  30       -0.4337
  31       -0.2593
  32       -0.2593
  33       -0.2592
  34       -0.2592
  35       -0.2576
  36       -0.2576
  37       -0.2576
  38       -0.2576
  39       -0.0349
  40       -0.0349
  41       -0.0348
  42       -0.0348
  43       -0.0239
  44       -0.0239
  45       -0.0239
  46       -0.0239
  47        0.0079
  48        0.0079
  49        0.0079
  50        0.0079
  51        0.0474
  52        0.0474
  53        0.0474
  54        0.0474
  55        0.1738
  56        0.1738
  57        0.1738
  58        0.1738
  59        0.1814
  60        0.1814
  61        0.1815
  62        0.1815
  63        0.3780
  64        0.4664
  65        0.4664
  66        0.4664
  67        0.4664
  68        0.4892
  69        0.5230
  70        0.5230
  71        0.5230
  72        0.5230
  73        0.5975
  74        0.5975
  75        0.5975
  76        0.5975
  77        0.6920
  78        0.6920
  79        0.6920
  80        0.6920
  81        0.6926
  82        0.6926
  83        0.6926
  84        0.6926
  85        0.7505
  86        0.7505
  87        0.7505
  88        0.7505
  89        0.7707
  90        0.7708
  91        0.8481
  92        0.8481
  93        0.8481
  94        0.8481
  95        0.8675
  96        0.8675
  97        1.0410
  98        1.0410
  99        1.0410
 100        1.0410
 101        1.0723
 102        1.0723
 103        1.2188
 104        1.2913
 105        1.2913
 106        1.2913
 107        1.2913
 108        1.3019
 109        1.3019
 110        1.3019
 111        1.3019
 112        1.3026
 113        1.3026
 114        1.3026
 115        1.3026
 116        1.3117
 117        1.3408
 118        1.3408
 119        1.3408
 120        1.3408
 121        1.3754
 122        1.3754
 123        1.3754
 124        1.3754
 125        1.3868
 126        1.3868
 127        1.3868
 128        1.3868
 129        1.4237
 130        1.4237
 131        1.5059
 132        1.5477
 133        1.6823
 134        1.6823
 135        1.7431
 136        1.7431
 137        1.7432
 138        1.7432
 139        1.7836
 140        1.7837
 141        1.7917
 142        1.7917
 143        1.7917
 144        1.7917
 145        1.8046
 146        1.8046
 147        1.8485
 148        1.8485
 149        1.8485
 150        1.8485
 151        1.8815
 152        1.9217
 153        1.9217
 154        1.9218
 155        1.9218
 156        1.9244
 157        1.9255
 158        1.9256
 159        2.0066
 160        2.0066
 161        2.0066
 162        2.0066
 163        2.0327
 164        2.1341
 165        2.1341
 166        2.1342
 167        2.1342
 168        2.2443
 169        2.2443
 170        2.2443
 171        2.2443
 172        2.9017
 173        3.1459
 174        3.1459
 175        3.1459
 176        3.1459
 177        3.2296
 178        3.2296
 179        3.2296
 180        3.2296
 181        5.5275
 182        5.5275
 183        5.5276
 184        5.5276
 185        6.3688
 186        6.3691
 187        6.6007
 188        6.6007
 189        6.6008
 190        6.6008
 191        7.1017
 192        7.1020
 193        8.7758
 194        8.7758
 195        8.7758
 196        8.7758
 197        9.7860
 198        9.7860
 199        9.7860
 200        9.7860
 201       10.5054
 202       10.5054
 203       10.5056
 204       10.5056
 205       10.8541
 206       10.8545
 207       11.0300
 208       11.0300
 209       11.0302
 210       11.0302
 211       11.0373
 212       11.0377
 213       12.5260
 214       12.5260
 215       12.5263
 216       12.5263
 
  0.0000000E+00  0.1428571E+00  0.0000000E+00  0.5830904E-02
   1       -5.5121
   2       -3.4937
   3       -2.7919
   4       -2.7919
   5       -2.7912
   6       -2.7912
   7       -2.2037
   8       -1.3413
   9       -1.3413
  10       -1.3409
  11       -1.3409
  12       -1.3390
  13       -1.3390
  14       -1.3390
  15       -1.3390
  16       -1.1515
  17       -1.1226
  18       -1.1225
  19       -1.0036
  20       -1.0036
  21       -1.0036
  22       -1.0036
  23       -0.6940
  24       -0.6931
  25       -0.6931
  26       -0.6656
  27       -0.6656
  28       -0.6653
  29       -0.6653
  30       -0.4759
  31       -0.4759
  32       -0.4063
  33       -0.4063
  34       -0.4060
  35       -0.4060
  36       -0.2006
  37       -0.0784
  38       -0.0782
  39       -0.0440
  40       -0.0440
  41       -0.0437
  42       -0.0437
  43        0.1004
  44        0.1290
  45        0.1290
  46        0.1292
  47        0.1292
  48        0.1329
  49        0.1329
  50        0.1329
  51        0.1329
  52        0.1587
  53        0.1587
  54        0.1590
  55        0.1590
  56        0.1776
  57        0.1776
  58        0.1780
  59        0.1780
  60        0.2254
  61        0.2254
  62        0.2254
  63        0.2254
  64        0.2367
  65        0.2367
  66        0.2368
  67        0.2368
  68        0.3778
  69        0.3778
  70        0.3778
  71        0.3778
  72        0.4287
  73        0.4290
  74        0.4551
  75        0.4551
  76        0.4551
  77        0.4551
  78        0.6036
  79        0.6036
  80        0.6036
  81        0.6036
  82        0.6253
  83        0.6308
  84        0.6308
  85        0.6308
  86        0.6308
  87        0.6574
  88        0.6581
  89        0.9354
  90        0.9354
  91        0.9357
  92        0.9357
  93        1.0377
  94        1.0748
  95        1.0748
  96        1.0748
  97        1.0748
  98        1.1024
  99        1.1297
 100        1.1300
 101        1.1461
 102        1.1461
 103        1.1462
 104        1.1462
 105        1.1865
 106        1.1865
 107        1.1866
 108        1.1866
 109        1.2869
 110        1.2869
 111        1.2870
 112        1.2870
 113        1.3469
 114        1.3469
 115        1.3471
 116        1.3471
 117        1.3725
 118        1.3725
 119        1.3726
 120        1.3726
 121        1.4114
 122        1.4114
 123        1.4114
 124        1.4114
 125        1.4326
 126        1.4517
 127        1.4517
 128        1.4542
 129        1.4543
 130        1.4556
 131        1.5048
 132        1.5048
 133        1.5048
 134        1.5048
 135        1.5401
 136        1.5401
 137        1.5403
 138        1.5403
 139        1.6543
 140        1.7337
 141        1.7337
 142        1.7339
 143        1.7339
 144        1.7733
 145        1.8030
 146        1.8030
 147        1.8030
 148        1.8030
 149        1.9630
 150        1.9630
 151        1.9771
 152        1.9804
 153        1.9804
 154        1.9804
 155        1.9804
 156        2.0275
 157        2.0277
 158        2.1079
 159        2.1079
 160        2.1081
 161        2.1081
 162        2.1091
 163        2.1094
 164        2.1340
 165        2.1342
 166        2.1347
 167        2.1348
 168        2.8228
 169        2.8228
 170        2.8228
 171        2.8228
 172        2.8712
 173        2.8712
 174        2.8716
 175        2.8716
 176        3.3005
 177        3.3005
 178        3.3005
 179        3.3005
 180        3.8767
 181        3.8767
 182        3.8775
 183        3.8775
 184        4.7708
 185        5.3263
 186        5.3291
 187        7.4805
 188        7.4805
 189        7.4805
 190        7.4805
 191        8.8236
 192        8.8261
 193        9.0310
 194        9.0310
 195        9.0320
 196        9.0320
 197        9.8718
 198        9.8718
 199        9.8732
 200        9.8732
 201       10.6597
 202       10.6632
 203       10.8125
 204       10.8151
 205       11.1540
 206       11.6088
 207       11.6120
 208       12.1207
 209       12.1207
 210       12.1234
 211       12.1234
 212       12.2646
 213       12.2646
 214       12.2646
 215       12.2646
 216       12.4196
 
  0.1428571E+00  0.1428571E+00  0.0000000E+00  0.5830904E-02
   1       -5.4509
   2       -3.4403
   3       -3.4399
   4       -2.7430
   5       -2.7430
   6       -2.1579
   7       -2.1573
   8       -1.8028
   9       -1.3747
  10       -1.3747
  11       -1.3457
  12       -1.3457
  13       -1.3454
  14       -1.3454
  15       -1.2789
  16       -1.2789
  17       -1.1226
  18       -1.1225
  19       -1.0947
  20       -0.9228
  21       -0.9227
  22       -0.7148
  23       -0.7148
  24       -0.7145
  25       -0.7145
  26       -0.6772
  27       -0.6772
  28       -0.6765
  29       -0.4756
  30       -0.4585
  31       -0.4583
  32       -0.4527
  33       -0.4525
  34       -0.3840
  35       -0.3840
  36       -0.1912
  37       -0.1910
  38       -0.0903
  39       -0.0900
  40       -0.0718
  41       -0.0718
  42       -0.0364
  43       -0.0364
  44        0.0783
  45        0.0783
  46        0.0961
  47        0.0962
  48        0.1048
  49        0.1052
  50        0.1312
  51        0.1496
  52        0.1811
  53        0.1811
  54        0.1813
  55        0.1813
  56        0.1937
  57        0.1937
  58        0.2289
  59        0.2289
  60        0.2289
  61        0.2289
  62        0.2529
  63        0.2760
  64        0.2760
  65        0.2763
  66        0.2763
  67        0.3200
  68        0.3201
  69        0.3962
  70        0.3965
  71        0.4255
  72        0.4255
  73        0.4654
  74        0.4654
  75        0.4656
  76        0.4656
  77        0.5642
  78        0.5693
  79        0.5693
  80        0.6084
  81        0.6084
  82        0.6155
  83        0.6420
  84        0.6420
  85        0.6571
  86        0.6571
  87        0.6647
  88        0.6707
  89        0.8893
  90        0.8893
  91        0.9534
  92        0.9537
  93        0.9985
  94        0.9989
  95        1.0733
  96        1.0733
  97        1.0735
  98        1.0735
  99        1.1153
 100        1.1298
 101        1.1302
 102        1.1308
 103        1.1308
 104        1.1309
 105        1.1309
 106        1.2076
 107        1.2076
 108        1.2082
 109        1.2297
 110        1.2297
 111        1.2373
 112        1.2373
 113        1.2738
 114        1.4080
 115        1.4080
 116        1.4283
 117        1.4394
 118        1.4394
 119        1.4473
 120        1.4474
 121        1.4502
 122        1.4502
 123        1.4503
 124        1.4503
 125        1.4513
 126        1.4537
 127        1.4540
 128        1.4554
 129        1.4554
 130        1.4966
 131        1.4967
 132        1.5297
 133        1.5298
 134        1.5912
 135        1.5912
 136        1.5946
 137        1.5946
 138        1.5947
 139        1.5947
 140        1.6070
 141        1.6658
 142        1.6659
 143        1.7161
 144        1.7161
 145        1.7433
 146        1.7433
 147        1.8085
 148        1.8086
 149        1.9427
 150        1.9427
 151        1.9427
 152        1.9462
 153        1.9892
 154        1.9892
 155        1.9917
 156        1.9917
 157        2.0123
 158        2.0123
 159        2.0852
 160        2.0852
 161        2.1074
 162        2.1077
 163        2.1082
 164        2.1084
 165        2.1090
 166        2.1092
 167        2.1181
 168        2.5201
 169        2.5679
 170        2.5679
 171        2.8601
 172        2.8601
 173        2.8605
 174        2.8605
 175        3.2323
 176        3.2323
 177        3.3492
 178        3.3493
 179        3.8778
 180        3.8778
 181        3.8785
 182        3.8785
 183        4.5353
 184        4.9300
 185        4.9322
 186        5.4787
 187        7.3377
 188        7.3377
 189        7.9309
 190        7.9309
 191        8.1700
 192        8.1713
 193        8.9112
 194        8.9120
 195        8.9274
 196        8.9274
 197        9.3005
 198        9.3005
 199        9.9422
 200        9.9433
 201       10.6829
 202       10.8914
 203       10.8926
 204       11.1835
 205       11.1867
 206       11.4869
 207       11.4869
 208       11.4886
 209       11.4886
 210       11.5589
 211       11.7026
 212       11.7029
 213       12.3425
 214       12.3447
 215       12.7867
 216       12.7867
 
  0.2857143E+00  0.1428571E+00  0.0000000E+00  0.5830904E-02
   1       -5.2684
   2       -4.0390
   3       -3.2820
   4       -2.5989
   5       -2.5989
   6       -2.2619
   7       -2.0237
   8       -1.7117
   9       -1.7117
  10       -1.6395
  11       -1.3888
  12       -1.3888
  13       -1.3576
  14       -1.3576
  15       -1.2264
  16       -1.1939
  17       -1.1939
  18       -1.1308
  19       -1.0386
  20       -1.0137
  21       -0.8285
  22       -0.8285
  23       -0.6302
  24       -0.6266
  25       -0.6265
  26       -0.5917
  27       -0.5869
  28       -0.5769
  29       -0.4848
  30       -0.4848
  31       -0.4122
  32       -0.3852
  33       -0.3449
  34       -0.3294
  35       -0.3203
  36       -0.3203
  37       -0.2748
  38       -0.2652
  39       -0.1634
  40       -0.1241
  41       -0.0526
  42       -0.0139
  43       -0.0139
  44       -0.0098
  45       -0.0098
  46       -0.0013
  47        0.0156
  48        0.0564
  49        0.0957
  50        0.0957
  51        0.1171
  52        0.1257
  53        0.1257
  54        0.1557
  55        0.1937
  56        0.2253
  57        0.2253
  58        0.2481
  59        0.2698
  60        0.2698
  61        0.2915
  62        0.2915
  63        0.3084
  64        0.3157
  65        0.3369
  66        0.3369
  67        0.4065
  68        0.4151
  69        0.4480
  70        0.4480
  71        0.4945
  72        0.4945
  73        0.5135
  74        0.5135
  75        0.5309
  76        0.5309
  77        0.5680
  78        0.5951
  79        0.5951
  80        0.6367
  81        0.6805
  82        0.6805
  83        0.6966
  84        0.7032
  85        0.7102
  86        0.7132
  87        0.7132
  88        0.7255
  89        0.7898
  90        0.7898
  91        0.8231
  92        0.8480
  93        0.9407
  94        0.9539
  95        0.9539
  96        0.9888
  97        1.0192
  98        1.0192
  99        1.1111
 100        1.1111
 101        1.1321
 102        1.1486
 103        1.1675
 104        1.2034
 105        1.2034
 106        1.2040
 107        1.2117
 108        1.2167
 109        1.2167
 110        1.2737
 111        1.2747
 112        1.2986
 113        1.2986
 114        1.3188
 115        1.3270
 116        1.3545
 117        1.3545
 118        1.3869
 119        1.3939
 120        1.3939
 121        1.4318
 122        1.4399
 123        1.4399
 124        1.4535
 125        1.4592
 126        1.4681
 127        1.4715
 128        1.5203
 129        1.5203
 130        1.5459
 131        1.5600
 132        1.5631
 133        1.5841
 134        1.5841
 135        1.6031
 136        1.6224
 137        1.6374
 138        1.6982
 139        1.7021
 140        1.7021
 141        1.7044
 142        1.7044
 143        1.7071
 144        1.7121
 145        1.7210
 146        1.7424
 147        1.8158
 148        1.8158
 149        1.8696
 150        1.8832
 151        1.9098
 152        1.9259
 153        1.9377
 154        1.9377
 155        1.9651
 156        1.9651
 157        1.9738
 158        1.9782
 159        2.0213
 160        2.0213
 161        2.0328
 162        2.0335
 163        2.0373
 164        2.1071
 165        2.1085
 166        2.1090
 167        2.1095
 168        2.2478
 169        2.5158
 170        2.5158
 171        2.5870
 172        2.5870
 173        2.8261
 174        2.8261
 175        2.9184
 176        3.5734
 177        3.5734
 178        3.8759
 179        3.8759
 180        4.0004
 181        4.0534
 182        4.6260
 183        4.6260
 184        5.3447
 185        5.3470
 186        5.8915
 187        7.0128
 188        7.3592
 189        7.5651
 190        7.5651
 191        7.8199
 192        7.8199
 193        8.0201
 194        8.6283
 195        8.6283
 196        8.6532
 197        9.1682
 198        9.3958
 199        9.3958
 200       10.2229
 201       10.2229
 202       10.7540
 203       10.7909
 204       10.8028
 205       10.8028
 206       10.8671
 207       11.1245
 208       11.2741
 209       11.4105
 210       11.8136
 211       11.8136
 212       11.8362
 213       11.9679
 214       11.9783
 215       12.4552
 216       12.6345
 
  0.4285714E+00  0.1428571E+00  0.0000000E+00  0.5830904E-02
   1       -4.9676
   2       -4.5543
   3       -3.0245
   4       -2.6784
   5       -2.3675
   6       -2.3675
   7       -2.0637
   8       -2.0637
   9       -1.8103
  10       -1.5352
  11       -1.3860
  12       -1.3860
  13       -1.3732
  14       -1.3732
  15       -1.3201
  16       -1.1769
  17       -1.0859
  18       -1.0859
  19       -0.9604
  20       -0.9604
  21       -0.9087
  22       -0.8885
  23       -0.7495
  24       -0.7347
  25       -0.5542
  26       -0.5428
  27       -0.5417
  28       -0.4524
  29       -0.4253
  30       -0.4215