<?xml version="1.0" encoding="ISO-8859-1"?>
<modeling>
 <generator>
  <i name="program" type="string">vasp</i>
  <i name="version" type="string">4.6.28 </i>
  <i name="subversion" type="string">25Jul05 complex  parallel</i>
  <i name="platform" type="string">LinuxIFC</i>
  <i name="date" type="string">2016 01 16</i>
  <i name="time" type="string">15:41:49</i>
 </generator>
 <incar>
  <i type="string" name="PREC">accurate</i>
  <i type="int" name="IALGO">    38</i>
  <i type="logical" name="ADDGRID"> T  </i>
  <i name="EDIFF">      0.00000001</i>
  <i type="int" name="IBRION">     2</i>
  <i type="int" name="NSW">    60</i>
  <i type="int" name="ISIF">     3</i>
  <i name="ENCUT">    500.00000000</i>
  <i type="logical" name="LREAL"> F  </i>
  <i type="int" name="ISMEAR">     0</i>
  <i name="SIGMA">      0.01000000</i>
  <i type="logical" name="LWAVE"> F  </i>
  <i type="logical" name="LCHARG"> F  </i>
 </incar>
 <kpoints>
  <generation param="Auto">
   <i name="subdivisionlength">     50.00000000</i>
   <v type="int" name="divisions">       7       7       7</v>
   <v name="usershift">      0.00000000      0.00000000      0.00000000</v>
   <v name="genvec1">      0.14285714      0.00000000      0.00000000</v>
   <v name="genvec2">     -0.00000000      0.14285714      0.00000000</v>
   <v name="genvec3">      0.00000000      0.00000000      0.14285714</v>
   <v name="shift">      0.00000000      0.00000000      0.00000000</v>
  </generation>
  <varray name="kpointlist" >
   <v>       0.00000000      0.00000000      0.00000000</v>
   <v>       0.14285714     -0.00000000      0.00000000</v>
   <v>       0.28571429     -0.00000000      0.00000000</v>
   <v>       0.42857143     -0.00000000      0.00000000</v>
   <v>       0.00000000      0.14285714      0.00000000</v>
   <v>       0.14285714      0.14285714      0.00000000</v>
   <v>       0.28571429      0.14285714      0.00000000</v>
   <v>       0.42857143      0.14285714      0.00000000</v>
   <v>      -0.42857143      0.14285714      0.00000000</v>
   <v>      -0.28571429      0.14285714      0.00000000</v>
   <v>      -0.14285714      0.14285714      0.00000000</v>
   <v>      -0.00000000      0.28571429      0.00000000</v>
   <v>       0.14285714      0.28571429      0.00000000</v>
   <v>       0.28571429      0.28571429      0.00000000</v>
   <v>       0.42857143      0.28571429      0.00000000</v>
   <v>      -0.42857143      0.28571429      0.00000000</v>
   <v>      -0.28571429      0.28571429      0.00000000</v>
   <v>      -0.14285714      0.28571429      0.00000000</v>
   <v>       0.00000000      0.42857143      0.00000000</v>
   <v>       0.14285714      0.42857143      0.00000000</v>
   <v>       0.28571429      0.42857143      0.00000000</v>
   <v>       0.42857143      0.42857143      0.00000000</v>
   <v>      -0.42857143      0.42857143      0.00000000</v>
   <v>      -0.28571429      0.42857143      0.00000000</v>
   <v>      -0.14285714      0.42857143      0.00000000</v>
   <v>       0.00000000      0.00000000      0.14285714</v>
   <v>       0.14285714     -0.00000000      0.14285714</v>
   <v>       0.28571429     -0.00000000      0.14285714</v>
   <v>       0.42857143     -0.00000000      0.14285714</v>
   <v>       0.00000000      0.14285714      0.14285714</v>
   <v>       0.14285714      0.14285714      0.14285714</v>
   <v>       0.28571429      0.14285714      0.14285714</v>
   <v>       0.42857143      0.14285714      0.14285714</v>
   <v>      -0.42857143      0.14285714      0.14285714</v>
   <v>      -0.28571429      0.14285714      0.14285714</v>
   <v>      -0.14285714      0.14285714      0.14285714</v>
   <v>      -0.00000000      0.28571429      0.14285714</v>
   <v>       0.14285714      0.28571429      0.14285714</v>
   <v>       0.28571429      0.28571429      0.14285714</v>
   <v>       0.42857143      0.28571429      0.14285714</v>
   <v>      -0.42857143      0.28571429      0.14285714</v>
   <v>      -0.28571429      0.28571429      0.14285714</v>
   <v>      -0.14285714      0.28571429      0.14285714</v>
   <v>       0.00000000      0.42857143      0.14285714</v>
   <v>       0.14285714      0.42857143      0.14285714</v>
   <v>       0.28571429      0.42857143      0.14285714</v>
   <v>       0.42857143      0.42857143      0.14285714</v>
   <v>      -0.42857143      0.42857143      0.14285714</v>
   <v>      -0.28571429      0.42857143      0.14285714</v>
   <v>      -0.14285714      0.42857143      0.14285714</v>
   <v>       0.00000000      0.00000000      0.28571429</v>
   <v>       0.14285714     -0.00000000      0.28571429</v>
   <v>       0.28571429     -0.00000000      0.28571429</v>
   <v>       0.42857143     -0.00000000      0.28571429</v>
   <v>       0.00000000      0.14285714      0.28571429</v>
   <v>       0.14285714      0.14285714      0.28571429</v>
   <v>       0.28571429      0.14285714      0.28571429</v>
   <v>       0.42857143      0.14285714      0.28571429</v>
   <v>      -0.42857143      0.14285714      0.28571429</v>
   <v>      -0.28571429      0.14285714      0.28571429</v>
   <v>      -0.14285714      0.14285714      0.28571429</v>
   <v>      -0.00000000      0.28571429      0.28571429</v>
   <v>       0.14285714      0.28571429      0.28571429</v>
   <v>       0.28571429      0.28571429      0.28571429</v>
   <v>       0.42857143      0.28571429      0.28571429</v>
   <v>      -0.42857143      0.28571429      0.28571429</v>
   <v>      -0.28571429      0.28571429      0.28571429</v>
   <v>      -0.14285714      0.28571429      0.28571429</v>
   <v>       0.00000000      0.42857143      0.28571429</v>
   <v>       0.14285714      0.42857143      0.28571429</v>
   <v>       0.28571429      0.42857143      0.28571429</v>
   <v>       0.42857143      0.42857143      0.28571429</v>
   <v>      -0.42857143      0.42857143      0.28571429</v>
   <v>      -0.28571429      0.42857143      0.28571429</v>
   <v>      -0.14285714      0.42857143      0.28571429</v>
   <v>       0.00000000      0.00000000      0.42857143</v>
   <v>       0.14285714     -0.00000000      0.42857143</v>
   <v>       0.28571429     -0.00000000      0.42857143</v>
   <v>       0.42857143     -0.00000000      0.42857143</v>
   <v>       0.00000000      0.14285714      0.42857143</v>
   <v>       0.14285714      0.14285714      0.42857143</v>
   <v>       0.28571429      0.14285714      0.42857143</v>
   <v>       0.42857143      0.14285714      0.42857143</v>
   <v>      -0.42857143      0.14285714      0.42857143</v>
   <v>      -0.28571429      0.14285714      0.42857143</v>
   <v>      -0.14285714      0.14285714      0.42857143</v>
   <v>      -0.00000000      0.28571429      0.42857143</v>
   <v>       0.14285714      0.28571429      0.42857143</v>
   <v>       0.28571429      0.28571429      0.42857143</v>
   <v>       0.42857143      0.28571429      0.42857143</v>
   <v>      -0.42857143      0.28571429      0.42857143</v>
   <v>      -0.28571429      0.28571429      0.42857143</v>
   <v>      -0.14285714      0.28571429      0.42857143</v>
   <v>       0.00000000      0.42857143      0.42857143</v>
   <v>       0.14285714      0.42857143      0.42857143</v>
   <v>       0.28571429      0.42857143      0.42857143</v>
   <v>       0.42857143      0.42857143      0.42857143</v>
   <v>      -0.42857143      0.42857143      0.42857143</v>
   <v>      -0.28571429      0.42857143      0.42857143</v>
   <v>      -0.14285714      0.42857143      0.42857143</v>
  </varray>
  <varray name="weights" >
   <v>       0.00291545</v>
   <v>       0.00583090</v>
   <v>       0.00583090</v>
   <v>       0.00583090</v>
   <v>       0.00583090</v>
   <v>       0.00583090</v>
   <v>       0.00583090</v>
   <v>       0.00583090</v>
   <v>       0.00583090</v>
   <v>       0.00583090</v>
   <v>       0.00583090</v>
   <v>       0.00583090</v>
   <v>       0.00583090</v>
   <v>       0.00583090</v>
   <v>       0.00583090</v>
   <v>       0.00583090</v>
   <v>       0.00583090</v>
   <v>       0.00583090</v>
   <v>       0.00583090</v>
   <v>       0.00583090</v>
   <v>       0.00583090</v>
   <v>       0.00583090</v>
   <v>       0.00583090</v>
   <v>       0.00583090</v>
   <v>       0.00583090</v>
   <v>       0.00583090</v>
   <v>       0.01166181</v>
   <v>       0.01166181</v>
   <v>       0.01166181</v>
   <v>       0.01166181</v>
   <v>       0.01166181</v>
   <v>       0.01166181</v>
   <v>       0.01166181</v>
   <v>       0.01166181</v>
   <v>       0.01166181</v>
   <v>       0.01166181</v>
   <v>       0.01166181</v>
   <v>       0.01166181</v>
   <v>       0.01166181</v>
   <v>       0.01166181</v>
   <v>       0.01166181</v>
   <v>       0.01166181</v>
   <v>       0.01166181</v>
   <v>       0.01166181</v>
   <v>       0.01166181</v>
   <v>       0.01166181</v>
   <v>       0.01166181</v>
   <v>       0.01166181</v>
   <v>       0.01166181</v>
   <v>       0.01166181</v>
   <v>       0.00583090</v>
   <v>       0.01166181</v>
   <v>       0.01166181</v>
   <v>       0.01166181</v>
   <v>       0.01166181</v>
   <v>       0.01166181</v>
   <v>       0.01166181</v>
   <v>       0.01166181</v>
   <v>       0.01166181</v>
   <v>       0.01166181</v>
   <v>       0.01166181</v>
   <v>       0.01166181</v>
   <v>       0.01166181</v>
   <v>       0.01166181</v>
   <v>       0.01166181</v>
   <v>       0.01166181</v>
   <v>       0.01166181</v>
   <v>       0.01166181</v>
   <v>       0.01166181</v>
   <v>       0.01166181</v>
   <v>       0.01166181</v>
   <v>       0.01166181</v>
   <v>       0.01166181</v>
   <v>       0.01166181</v>
   <v>       0.01166181</v>
   <v>       0.00583090</v>
   <v>       0.01166181</v>
   <v>       0.01166181</v>
   <v>       0.01166181</v>
   <v>       0.01166181</v>
   <v>       0.01166181</v>
   <v>       0.01166181</v>
   <v>       0.01166181</v>
   <v>       0.01166181</v>
   <v>       0.01166181</v>
   <v>       0.01166181</v>
   <v>       0.01166181</v>
   <v>       0.01166181</v>
   <v>       0.01166181</v>
   <v>       0.01166181</v>
   <v>       0.01166181</v>
   <v>       0.01166181</v>
   <v>       0.01166181</v>
   <v>       0.01166181</v>
   <v>       0.01166181</v>
   <v>       0.01166181</v>
   <v>       0.01166181</v>
   <v>       0.01166181</v>
   <v>       0.01166181</v>
   <v>       0.01166181</v>
  </varray>
 </kpoints>
 <parameters>
  <separator name="general" >
   <i type="string" name="SYSTEM">unknown system</i>
   <i type="logical" name="LCOMPAT"> F  </i>
  </separator>
  <separator name="electronic" >
   <i type="string" name="PREC">accura</i>
   <i name="ENMAX">    500.00000000</i>
   <i name="ENAUG">    516.45600000</i>
   <i name="EDIFF">      0.00000001</i>
   <i type="int" name="IALGO">    38</i>
   <i type="int" name="IWAVPR">    11</i>
   <i type="int" name="NBANDS">   211</i>
   <i name="NELECT">    352.00000000</i>
   <separator name="electronic smearing" >
    <i type="int" name="ISMEAR">     0</i>
    <i name="SIGMA">      0.01000000</i>
   </separator>
   <separator name="electronic projectors" >
    <i type="logical" name="LREAL"> F  </i>
    <v name="ROPT">      0.00000000</v>
    <i type="int" name="LMAXPAW">  -100</i>
    <i type="int" name="LMAXMIX">     2</i>
   </separator>
   <separator name="electronic startup" >
    <i type="int" name="ISTART">     0</i>
    <i type="int" name="ICHARG">     2</i>
    <i type="int" name="INIWAV">     1</i>
   </separator>
   <separator name="electronic spin" >
    <i type="int" name="ISPIN">     1</i>
    <i type="logical" name="LNONCOLLINEAR"> F  </i>
    <v name="MAGMOM">      1.00000000      1.00000000      1.00000000      1.00000000      1.00000000      1.00000000      1.00000000      1.00000000      1.00000000      1.00000000      1.00000000      1.00000000      1.00000000      1.00000000      1.00000000      1.00000000      1.00000000      1.00000000      1.00000000      1.00000000
      1.00000000      1.00000000      1.00000000      1.00000000      1.00000000      1.00000000      1.00000000      1.00000000      1.00000000      1.00000000      1.00000000      1.00000000</v>
    <i name="NUPDOWN">     -1.00000000</i>
    <i type="logical" name="LSORBIT"> F  </i>
    <v name="SAXIS">      0.00000000      0.00000000      1.00000000</v>
    <i type="logical" name="LSPIRAL"> F  </i>
    <v name="QSPIRAL">      0.00000000      0.00000000      0.00000000</v>
    <i type="logical" name="LZEROZ"> F  </i>
   </separator>
   <separator name="electronic exchange-correlation" >
    <i type="string" name="GGA">--</i>
    <i type="int" name="VOSKOWN">     0</i>
    <i type="logical" name="LASPH"> F  </i>
    <i type="logical" name="LMETAGGA"> F  </i>
    <i type="string" name="GGA2">--</i>
   </separator>
   <separator name="electronic convergence" >
    <i type="int" name="NELM">    60</i>
    <i type="int" name="NELMDL">    -5</i>
    <i type="int" name="NELMIN">     2</i>
    <i name="ENINI">    500.00000000</i>
    <separator name="electronic convergence detail" >
     <i type="logical" name="LDIAG"> T  </i>
     <i name="WEIMIN">      0.00100000</i>
     <i name="EBREAK">      0.00000000</i>
     <i name="DEPER">      0.30000000</i>
     <i type="int" name="NRMM">     4</i>
     <i name="TIME">      0.10000000</i>
    </separator>
   </separator>
   <separator name="electronic mixer" >
    <i name="AMIX">      0.40000000</i>
    <i name="BMIX">      1.00000000</i>
    <i name="AMIN">      0.10000000</i>
    <i name="AMIX_MAG">      1.60000000</i>
    <i name="BMIX_MAG">      1.00000000</i>
    <separator name="electronic mixer details" >
     <i type="int" name="IMIX">     4</i>
     <i type="int" name="MAXMIX">   -45</i>
     <i name="WC">    100.00000000</i>
     <i type="int" name="INIMIX">     1</i>
     <i type="int" name="MIXPRE">     1</i>
     <i type="int" name="MREMOVE">     5</i>
    </separator>
   </separator>
   <separator name="electronic dipolcorrection" >
    <i type="int" name="IDIPOL">     0</i>
    <i type="logical" name="LDIPOL"> F  </i>
    <v name="DIPOL">   -100.00000000</v>
    <i name="EFIELD">      0.00000000</i>
   </separator>
  </separator>
  <separator name="grids" >
   <i type="int" name="NGX">    54</i>
   <i type="int" name="NGY">    54</i>
   <i type="int" name="NGZ">    54</i>
   <i type="int" name="NGXF">   108</i>
   <i type="int" name="NGYF">   108</i>
   <i type="int" name="NGZF">   108</i>
   <i type="logical" name="ADDGRID"> T  </i>
  </separator>
  <separator name="ionic" >
   <i type="int" name="NSW">    60</i>
   <i type="int" name="IBRION">     2</i>
   <i type="int" name="ISIF">     3</i>
   <i name="PSTRESS">      0.00000000</i>
   <i name="EDIFFG">      0.00000010</i>
   <i type="int" name="NFREE">     1</i>
   <i name="POTIM">      0.50000000</i>
   <i name="SMASS">     -3.00000000</i>
  </separator>
  <separator name="ionic md" >
   <i name="TEBEG">      0.00010000</i>
   <i name="TEEND">      0.00010000</i>
   <i type="int" name="NBLOCK">     1</i>
   <i type="int" name="KBLOCK">    60</i>
   <i type="int" name="NPACO">   256</i>
   <i name="APACO">     16.00000000</i>
  </separator>
  <separator name="symmetry" >
   <i type="int" name="ISYM">     2</i>
   <i name="SYMPREC">      0.00001000</i>
  </separator>
  <separator name="dos" >
   <i type="logical" name="LORBIT"> F  </i>
   <v name="RWIGS">     -1.00000000</v>
   <i type="int" name="NEDOS">   301</i>
   <i name="EMIN">     10.00000000</i>
   <i name="EMAX">    -10.00000000</i>
  </separator>
  <separator name="writing" >
   <i type="int" name="NWRITE">     2</i>
   <i type="logical" name="LWAVE"> F  </i>
   <i type="logical" name="LCHARG"> F  </i>
   <i type="logical" name="LPARD"> F  </i>
   <i type="logical" name="LVTOT"> F  </i>
   <i type="logical" name="LELF"> F  </i>
   <i type="logical" name="LOPTICS"> F  </i>
   <i name="STM">      0.00000000</i>
  </separator>
  <separator name="performance" >
   <i type="int" name="NPAR">     8</i>
   <i type="int" name="NSIM">     4</i>
   <i type="int" name="NBLK">   256</i>
   <i type="logical" name="LPLANE"> T  </i>
   <i type="logical" name="LCRITICAL_MEM"> F  </i>
   <i type="logical" name="LSCALAPACK"> F  </i>
   <i type="logical" name="LSCALU"> F  </i>
   <i type="logical" name="LASYNC"> F  </i>
  </separator>
  <separator name="miscellaneous" >
   <i type="int" name="IDIOT">     3</i>
   <i type="logical" name="LMUSIC"> F  </i>
   <v name="POMASS">     63.54600000</v>
   <i type="logical" name="LCORR"> T  </i>
  </separator>
  <i type="logical" name="LREAL_COMPAT"> F  </i>
  <i type="logical" name="GGA_COMPAT"> T  </i>
  <i type="logical" name="LBERRY"> F  </i>
  <i type="int" name="ICORELEVEL">     0</i>
  <i type="logical" name="LDAU"> F  </i>
  <i type="int" name="I_CONSTRAINED_M">     0</i>
 </parameters>
 <atominfo>
  <atoms>      32</atoms>
  <types>       1</types>
  <array name="atoms" >
   <dimension dim="1">ion</dimension>
   <field type="string">element</field>
   <field type="int">atomtype</field>
   <set>
    <rc><c>Cu</c><c>   1</c></rc>
    <rc><c>Cu</c><c>   1</c></rc>
    <rc><c>Cu</c><c>   1</c></rc>
    <rc><c>Cu</c><c>   1</c></rc>
    <rc><c>Cu</c><c>   1</c></rc>
    <rc><c>Cu</c><c>   1</c></rc>
    <rc><c>Cu</c><c>   1</c></rc>
    <rc><c>Cu</c><c>   1</c></rc>
    <rc><c>Cu</c><c>   1</c></rc>
    <rc><c>Cu</c><c>   1</c></rc>
    <rc><c>Cu</c><c>   1</c></rc>
    <rc><c>Cu</c><c>   1</c></rc>
    <rc><c>Cu</c><c>   1</c></rc>
    <rc><c>Cu</c><c>   1</c></rc>
    <rc><c>Cu</c><c>   1</c></rc>
    <rc><c>Cu</c><c>   1</c></rc>
    <rc><c>Cu</c><c>   1</c></rc>
    <rc><c>Cu</c><c>   1</c></rc>
    <rc><c>Cu</c><c>   1</c></rc>
    <rc><c>Cu</c><c>   1</c></rc>
    <rc><c>Cu</c><c>   1</c></rc>
    <rc><c>Cu</c><c>   1</c></rc>
    <rc><c>Cu</c><c>   1</c></rc>
    <rc><c>Cu</c><c>   1</c></rc>
    <rc><c>Cu</c><c>   1</c></rc>
    <rc><c>Cu</c><c>   1</c></rc>
    <rc><c>Cu</c><c>   1</c></rc>
    <rc><c>Cu</c><c>   1</c></rc>
    <rc><c>Cu</c><c>   1</c></rc>
    <rc><c>Cu</c><c>   1</c></rc>
    <rc><c>Cu</c><c>   1</c></rc>
    <rc><c>Cu</c><c>   1</c></rc>
   </set>
  </array>
  <array name="atomtypes" >
   <dimension dim="1">type</dimension>
   <field type="int">atomspertype</field>
   <field type="string">element</field>
   <field>mass</field>
   <field>valence</field>
   <field type="string">pseudopotential</field>
   <set>
    <rc><c>  32</c><c>Cu</c><c>     63.54600000</c><c>     11.00000000</c><c> PAW_PBE Cu 05Jan2001                   </c></rc>
   </set>
  </array>
 </atominfo>
 <structure name="initialpos" >
  <crystal>
   <varray name="basis" >
    <v>       7.27241360     -0.00000146      0.00000000</v>
    <v>      -0.00000176      7.27261311      0.00000000</v>
    <v>       0.00000000      0.00000000      7.27262948</v>
   </varray>
   <i name="volume">    384.64537657</i>
   <varray name="rec_basis" >
    <v>       0.13750593      0.00000003      0.00000000</v>
    <v>       0.00000003      0.13750216      0.00000000</v>
    <v>       0.00000000      0.00000000      0.13750185</v>
   </varray>
  </crystal>
  <varray name="positions" >
   <v>       0.25004950      0.25000001      0.00000000</v>
   <v>       0.75003247      0.24999999      0.00000000</v>
   <v>       0.25003518      0.74999999      0.00000000</v>
   <v>       0.75004241      0.75000001      0.00000000</v>
   <v>       0.25003516      0.25000000      0.50000000</v>
   <v>       0.75004243      0.24999999      0.50000000</v>
   <v>       0.25003389      0.75000000      0.50000000</v>
   <v>       0.75003770      0.75000001      0.50000000</v>
   <v>       0.25003888      0.00000003      0.24999998</v>
   <v>       0.75003868      0.99999996      0.25000002</v>
   <v>       0.25003887      0.49999997      0.24999998</v>
   <v>       0.75003869      0.50000004      0.25000002</v>
   <v>       0.25003888      0.00000003      0.75000002</v>
   <v>       0.75003868      0.99999996      0.74999998</v>
   <v>       0.25003887      0.49999997      0.75000002</v>
   <v>       0.75003869      0.50000004      0.74999998</v>
   <v>       0.00004004      0.25000000      0.24999562</v>
   <v>       0.50004009      0.24999999      0.25000439</v>
   <v>       0.00003735      0.75000000      0.24999914</v>
   <v>       0.50003730      0.75000001      0.25000086</v>
   <v>       0.00004004      0.25000000      0.75000438</v>
   <v>       0.50004009      0.24999999      0.74999561</v>
   <v>       0.00003735      0.75000000      0.75000086</v>
   <v>       0.50003730      0.75000001      0.74999914</v>
   <v>       0.00004002      0.00000439      0.00000000</v>
   <v>       0.50004012      0.99999559      0.00000000</v>
   <v>       0.00004003      0.49999561      0.00000000</v>
   <v>       0.50004010      0.50000441      0.00000000</v>
   <v>       0.00003736      0.00000086      0.50000000</v>
   <v>       0.50003729      0.99999912      0.50000000</v>
   <v>       0.00003738      0.49999914      0.50000000</v>
   <v>       0.50003728      0.50000088      0.50000000</v>
  </varray>
 </structure>
 <calculation>
  <scstep>
   <time name="dav">  141.61  141.60</time>
   <time name="total">  141.90  141.89</time>
   <energy>
    <i name="alphaZ">   3401.28365087</i>
    <i name="ewald"> -35150.45163889</i>
    <i name="hartreedc"> -10547.16385697</i>
    <i name="XCdc">   1403.30618433</i>
    <i name="pawpsdc">  34625.67335558</i>
    <i name="pawaedc"> -39234.46421604</i>
    <i name="eentropy">     -0.00021702</i>
    <i name="bandstr">   4254.45500265</i>
    <i name="atom">  44511.25856501</i>
    <i name="e_fr_energy">   3263.89682953</i>
    <i name="e_wo_entrp">   3263.89704655</i>
    <i name="e_0_energy">   3263.89693804</i>
   </energy>
  </scstep>
  <scstep>
   <time name="dav">  141.83  141.81</time>
   <time name="total">  141.90  141.88</time>
   <energy>
    <i name="e_fr_energy">    314.33617620</i>
    <i name="e_wo_entrp">    314.33657973</i>
    <i name="e_0_energy">    314.33637796</i>
   </energy>
  </scstep>
  <scstep>
   <time name="dav">  141.22  141.20</time>
   <time name="total">  141.29  141.27</time>
   <energy>
    <i name="e_fr_energy">   -122.79595177</i>
    <i name="e_wo_entrp">   -122.79499940</i>
    <i name="e_0_energy">   -122.79547559</i>
   </energy>
  </scstep>
  <scstep>
   <time name="dav">  148.05  148.05</time>
   <time name="total">  148.12  148.13</time>
   <energy>
    <i name="e_fr_energy">   -146.51031561</i>
    <i name="e_wo_entrp">   -146.50910393</i>
    <i name="e_0_energy">   -146.50970977</i>
   </energy>
  </scstep>
  <scstep>
   <time name="dav">  148.79  148.77</time>
   <time name="total">  153.34  153.32</time>
   <energy>
    <i name="e_fr_energy">   -146.70000159</i>
    <i name="e_wo_entrp">   -146.69878675</i>
    <i name="e_0_energy">   -146.69939417</i>
   </energy>
  </scstep>
  <scstep>
   <time name="dav">  149.72  149.69</time>
   <time name="total">  154.42  154.40</time>
   <energy>
    <i name="e_fr_energy">   -129.22593572</i>
    <i name="e_wo_entrp">   -129.22521686</i>
    <i name="e_0_energy">   -129.22557629</i>
   </energy>
  </scstep>
  <scstep>
   <time name="dav">  153.96  153.95</time>
   <time name="total">  158.71  158.70</time>
   <energy>
    <i name="e_fr_energy">   -119.37212721</i>
    <i name="e_wo_entrp">   -119.37134534</i>
    <i name="e_0_energy">   -119.37173627</i>
   </energy>
  </scstep>
  <scstep>
   <time name="dav">  146.49  146.47</time>
   <time name="total">  151.29  151.27</time>
   <energy>
    <i name="e_fr_energy">   -119.12386783</i>
    <i name="e_wo_entrp">   -119.12310230</i>
    <i name="e_0_energy">   -119.12348506</i>
   </energy>
  </scstep>
  <scstep>
   <time name="dav">  150.27  150.24</time>
   <time name="total">  155.00  154.97</time>
   <energy>
    <i name="e_fr_energy">   -119.03778891</i>
    <i name="e_wo_entrp">   -119.03673511</i>
    <i name="e_0_energy">   -119.03726201</i>
   </energy>
  </scstep>
  <scstep>
   <time name="dav">  152.39  152.40</time>
   <time name="total">  157.06  157.07</time>
   <energy>
    <i name="e_fr_energy">   -119.03870717</i>
    <i name="e_wo_entrp">   -119.03764954</i>
    <i name="e_0_energy">   -119.03817835</i>
   </energy>
  </scstep>
  <scstep>
   <time name="dav">  147.40  147.37</time>
   <time name="total">  152.13  152.10</time>
   <energy>
    <i name="e_fr_energy">   -119.03860929</i>
    <i name="e_wo_entrp">   -119.03756601</i>
    <i name="e_0_energy">   -119.03808765</i>
   </energy>
  </scstep>
  <scstep>
   <time name="dav">  150.73  150.71</time>
   <time name="total">  155.43  155.42</time>
   <energy>
    <i name="e_fr_energy">   -119.03860998</i>
    <i name="e_wo_entrp">   -119.03756967</i>
    <i name="e_0_energy">   -119.03808983</i>
   </energy>
  </scstep>
  <scstep>
   <time name="dav">  146.61  146.62</time>
   <time name="total">  151.30  151.31</time>
   <energy>
    <i name="e_fr_energy">   -119.03860913</i>
    <i name="e_wo_entrp">   -119.03756847</i>
    <i name="e_0_energy">   -119.03808880</i>
   </energy>
  </scstep>
  <scstep>
   <time name="dav">  145.86  145.83</time>
   <time name="total">  150.54  150.52</time>
   <energy>
    <i name="e_fr_energy">   -119.03861293</i>
    <i name="e_wo_entrp">   -119.03757121</i>
    <i name="e_0_energy">   -119.03809207</i>
   </energy>
  </scstep>
  <scstep>
   <time name="dav">  149.37  149.34</time>
   <time name="total">  154.26  154.24</time>
   <energy>
    <i name="e_fr_energy">   -119.03861369</i>
    <i name="e_wo_entrp">   -119.03757164</i>
    <i name="e_0_energy">   -119.03809266</i>
   </energy>
  </scstep>
  <scstep>
   <time name="dav">  154.69  154.66</time>
   <time name="total">  159.48  159.46</time>
   <energy>
    <i name="e_fr_energy">   -119.03861490</i>
    <i name="e_wo_entrp">   -119.03757254</i>
    <i name="e_0_energy">   -119.03809372</i>
   </energy>
  </scstep>
  <scstep>
   <time name="dav">  149.90  149.95</time>
   <time name="total">  154.66  154.71</time>
   <energy>
    <i name="e_fr_energy">   -119.03861870</i>
    <i name="e_wo_entrp">   -119.03757626</i>
    <i name="e_0_energy">   -119.03809748</i>
   </energy>
  </scstep>
  <scstep>
   <time name="dav">  137.06  137.04</time>
   <time name="total">  141.79  141.77</time>
   <energy>
    <i name="e_fr_energy">   -119.03861944</i>
    <i name="e_wo_entrp">   -119.03757699</i>
    <i name="e_0_energy">   -119.03809822</i>
   </energy>
  </scstep>
  <scstep>
   <time name="dav">   94.99   95.00</time>
   <time name="total">   99.71   99.71</time>
   <energy>
    <i name="e_fr_energy">   -119.03862072</i>
    <i name="e_wo_entrp">   -119.03757826</i>
    <i name="e_0_energy">   -119.03809949</i>
   </energy>
  </scstep>
  <scstep>
   <time name="dav">   95.84   95.83</time>
   <time name="total">  100.61  100.60</time>
   <energy>
    <i name="e_fr_energy">   -119.03862081</i>
    <i name="e_wo_entrp">   -119.03757835</i>
    <i name="e_0_energy">   -119.03809958</i>
   </energy>
  </scstep>
  <scstep>
   <time name="dav">   95.80   95.78</time>
   <time name="total">   96.08   96.07</time>
   <energy>
    <i name="alphaZ">   3401.28365087</i>
    <i name="ewald"> -35150.45163889</i>
    <i name="hartreedc">  -9844.54682608</i>
    <i name="XCdc">   1368.73500831</i>
    <i name="pawpsdc">  35062.19269970</i>
    <i name="pawaedc"> -39692.67585604</i>
    <i name="eentropy">     -0.00104246</i>
    <i name="bandstr">    225.16681875</i>
    <i name="atom">  44511.25856501</i>
    <i name="e_fr_energy">   -119.03862082</i>
    <i name="e_wo_entrp">   -119.03757836</i>
    <i name="e_0_energy">   -119.03809959</i>
   </energy>
  </scstep>
  <structure>
   <crystal>
    <varray name="basis" >
     <v>       7.27241360     -0.00000146      0.00000000</v>
     <v>      -0.00000176      7.27261311      0.00000000</v>
     <v>       0.00000000      0.00000000      7.27262948</v>
    </varray>
    <i name="volume">    384.64537657</i>
    <varray name="rec_basis" >
     <v>       0.13750593      0.00000003      0.00000000</v>
     <v>       0.00000003      0.13750216      0.00000000</v>
     <v>       0.00000000      0.00000000      0.13750185</v>
    </varray>
   </crystal>
   <varray name="positions" >
    <v>       0.25004950      0.25000001      0.00000000</v>
    <v>       0.75003247      0.24999999      0.00000000</v>
    <v>       0.25003518      0.74999999      0.00000000</v>
    <v>       0.75004241      0.75000001      0.00000000</v>
    <v>       0.25003516      0.25000000      0.50000000</v>
    <v>       0.75004243      0.24999999      0.50000000</v>
    <v>       0.25003389      0.75000000      0.50000000</v>
    <v>       0.75003770      0.75000001      0.50000000</v>
    <v>       0.25003888      0.00000003      0.24999998</v>
    <v>       0.75003868      0.99999996      0.25000002</v>
    <v>       0.25003887      0.49999997      0.24999998</v>
    <v>       0.75003869      0.50000004      0.25000002</v>
    <v>       0.25003888      0.00000003      0.75000002</v>
    <v>       0.75003868      0.99999996      0.74999998</v>
    <v>       0.25003887      0.49999997      0.75000002</v>
    <v>       0.75003869      0.50000004      0.74999998</v>
    <v>       0.00004004      0.25000000      0.24999562</v>
    <v>       0.50004009      0.24999999      0.25000439</v>
    <v>       0.00003735      0.75000000      0.24999914</v>
    <v>       0.50003730      0.75000001      0.25000086</v>
    <v>       0.00004004      0.25000000      0.75000438</v>
    <v>       0.50004009      0.24999999      0.74999561</v>
    <v>       0.00003735      0.75000000      0.75000086</v>
    <v>       0.50003730      0.75000001      0.74999914</v>
    <v>       0.00004002      0.00000439      0.00000000</v>
    <v>       0.50004012      0.99999559      0.00000000</v>
    <v>       0.00004003      0.49999561      0.00000000</v>
    <v>       0.50004010      0.50000441      0.00000000</v>
    <v>       0.00003736      0.00000086      0.50000000</v>
    <v>       0.50003729      0.99999912      0.50000000</v>
    <v>       0.00003738      0.49999914      0.50000000</v>
    <v>       0.50003728      0.50000088      0.50000000</v>
   </varray>
  </structure>
  <varray name="forces" >
   <v>      -0.00022029      0.00000108      0.00000000</v>
   <v>       0.00012935      0.00000022      0.00000000</v>
   <v>       0.00007806     -0.00000128      0.00000000</v>
   <v>      -0.00008660     -0.00000011      0.00000000</v>
   <v>       0.00007675      0.00000105      0.00000000</v>
   <v>      -0.00008537      0.00000005      0.00000000</v>
   <v>       0.00012072     -0.00000101      0.00000000</v>
   <v>       0.00002740     -0.00000010      0.00000000</v>
   <v>      -0.00000604     -0.00000066      0.00000147</v>
   <v>      -0.00000167      0.00000019     -0.00000073</v>
   <v>      -0.00000679      0.00000062      0.00000128</v>
   <v>      -0.00000103     -0.00000010     -0.00000094</v>
   <v>      -0.00000604     -0.00000066     -0.00000147</v>
   <v>      -0.00000167      0.00000019      0.00000073</v>
   <v>      -0.00000679      0.00000062     -0.00000128</v>
   <v>      -0.00000103     -0.00000010      0.00000094</v>
   <v>      -0.00003380      0.00000097      0.00009888</v>
   <v>      -0.00003669      0.00000032     -0.00009850</v>
   <v>       0.00003369     -0.00000103      0.00001837</v>
   <v>       0.00003461     -0.00000027     -0.00001817</v>
   <v>      -0.00003380      0.00000097     -0.00009888</v>
   <v>      -0.00003669      0.00000032      0.00009850</v>
   <v>       0.00003369     -0.00000103     -0.00001837</v>
   <v>       0.00003461     -0.00000027      0.00001817</v>
   <v>      -0.00003505     -0.00009833      0.00000000</v>
   <v>      -0.00003545      0.00009791      0.00000000</v>
   <v>      -0.00003404      0.00009829      0.00000000</v>
   <v>      -0.00003646     -0.00009787      0.00000000</v>
   <v>       0.00003393     -0.00001775      0.00000000</v>
   <v>       0.00003434      0.00001759      0.00000000</v>
   <v>       0.00003485      0.00001770      0.00000000</v>
   <v>       0.00003332     -0.00001754      0.00000000</v>
  </varray>
  <varray name="stress" >
   <v>       0.00103521     -0.00009898      0.00000000</v>
   <v>      -0.00011801      0.01591879      0.00000000</v>
   <v>       0.00000000      0.00000000      0.01829361</v>
  </varray>
  <energy>
   <i name="e_fr_energy">   -119.03862082</i>
   <i name="e_wo_entrp">   -119.03809959</i>
   <i name="e_0_energy">     -0.00104246</i>
  </energy>
 </calculation>
 <calculation>
  <scstep>
   <time name="dav">  150.07  150.05</time>
   <time name="total">  154.79  154.76</time>
   <energy>
    <i name="alphaZ">   3401.24025988</i>
    <i name="ewald"> -35150.30216409</i>
    <i name="hartreedc">  -9844.50490527</i>
    <i name="XCdc">   1368.72761665</i>
    <i name="pawpsdc">  35062.19152443</i>
    <i name="pawaedc"> -39692.67559105</i>
    <i name="eentropy">     -0.00104405</i>
    <i name="bandstr">    225.02711594</i>
    <i name="atom">  44511.25856501</i>
    <i name="e_fr_energy">   -119.03862255</i>
    <i name="e_wo_entrp">   -119.03757851</i>
    <i name="e_0_energy">   -119.03810053</i>
   </energy>
  </scstep>
  <scstep>
   <time name="dav">  148.88  148.86</time>
   <time name="total">  153.57  153.55</time>
   <energy>
    <i name="e_fr_energy">   -119.03862072</i>
    <i name="e_wo_entrp">   -119.03757885</i>
    <i name="e_0_energy">   -119.03809979</i>
   </energy>
  </scstep>
  <scstep>
   <time name="dav">  147.80  147.81</time>
   <time name="total">  152.58  152.59</time>
   <energy>
    <i name="e_fr_energy">   -119.03862076</i>
    <i name="e_wo_entrp">   -119.03757806</i>
    <i name="e_0_energy">   -119.03809941</i>
   </energy>
  </scstep>
  <scstep>
   <time name="dav">   98.25   98.28</time>
   <time name="total">  103.01  103.04</time>
   <energy>
    <i name="e_fr_energy">   -119.03862062</i>
    <i name="e_wo_entrp">   -119.03757809</i>
    <i name="e_0_energy">   -119.03809935</i>
   </energy>
  </scstep>
  <scstep>
   <time name="dav">   94.79   94.78</time>
   <time name="total">   95.08   95.07</time>
   <energy>
    <i name="alphaZ">   3401.24025988</i>
    <i name="ewald"> -35150.30216409</i>
    <i name="hartreedc">  -9844.62974574</i>
    <i name="XCdc">   1368.73415712</i>
    <i name="pawpsdc">  35062.13609959</i>
    <i name="pawaedc"> -39692.61701260</i>
    <i name="eentropy">     -0.00104253</i>
    <i name="bandstr">    225.14226273</i>
    <i name="atom">  44511.25856501</i>
    <i name="e_fr_energy">   -119.03862063</i>
    <i name="e_wo_entrp">   -119.03757810</i>
    <i name="e_0_energy">   -119.03809937</i>
   </energy>
  </scstep>
  <structure>
   <crystal>
    <varray name="basis" >
     <v>       7.27241632     -0.00000172      0.00000000</v>
     <v>      -0.00000207      7.27265501      0.00000000</v>
     <v>       0.00000000      0.00000000      7.27267763</v>
    </varray>
    <i name="volume">    384.65028365</i>
    <varray name="rec_basis" >
     <v>       0.13750588      0.00000004      0.00000000</v>
     <v>       0.00000003      0.13750137      0.00000000</v>
     <v>       0.00000000      0.00000000      0.13750094</v>
    </varray>
   </crystal>
   <varray name="positions" >
    <v>       0.25004804      0.25000001      0.00000000</v>
    <v>       0.75003333      0.25000000      0.00000000</v>
    <v>       0.25003569      0.74999998      0.00000000</v>
    <v>       0.75004183      0.75000001      0.00000000</v>
    <v>       0.25003567      0.25000001      0.50000000</v>
    <v>       0.75004186      0.24999999      0.50000000</v>
    <v>       0.25003469      0.74999999      0.50000000</v>
    <v>       0.75003788      0.75000001      0.50000000</v>
    <v>       0.25003884      0.00000002      0.24999999</v>
    <v>       0.75003867      0.99999996      0.25000002</v>
    <v>       0.25003882      0.49999998      0.24999999</v>
    <v>       0.75003869      0.50000004      0.25000001</v>
    <v>       0.25003884      0.00000002      0.75000001</v>
    <v>       0.75003867      0.99999996      0.74999998</v>
    <v>       0.25003882      0.49999998      0.75000001</v>
    <v>       0.75003869      0.50000004      0.74999999</v>
    <v>       0.00003982      0.25000001      0.24999627</v>
    <v>       0.50003985      0.25000000      0.25000374</v>
    <v>       0.00003758      0.74999999      0.24999926</v>
    <v>       0.50003753      0.75000001      0.25000074</v>
    <v>       0.00003982      0.25000001      0.75000373</v>
    <v>       0.50003985      0.25000000      0.74999626</v>
    <v>       0.00003758      0.74999999      0.75000074</v>
    <v>       0.50003753      0.75000001      0.74999926</v>
    <v>       0.00003979      0.00000374      0.00000000</v>
    <v>       0.50003988      0.99999624      0.00000000</v>
    <v>       0.00003981      0.49999626      0.00000000</v>
    <v>       0.50003986      0.50000376      0.00000000</v>
    <v>       0.00003759      0.00000074      0.50000000</v>
    <v>       0.50003752      0.99999924      0.50000000</v>
    <v>       0.00003761      0.49999926      0.50000000</v>
    <v>       0.50003750      0.50000076      0.50000000</v>
   </varray>
  </structure>
  <varray name="forces" >
   <v>      -0.00013982     -0.00000085      0.00000000</v>
   <v>       0.00007784      0.00000107      0.00000000</v>
   <v>       0.00003829      0.00000116      0.00000000</v>
   <v>      -0.00004208     -0.00000112      0.00000000</v>
   <v>       0.00004087     -0.00000114      0.00000000</v>
   <v>      -0.00004408      0.00000090      0.00000000</v>
   <v>       0.00006072      0.00000120      0.00000000</v>
   <v>       0.00001758     -0.00000083      0.00000000</v>
   <v>      -0.00000627      0.00000080     -0.00000031</v>
   <v>       0.00000381      0.00000244      0.00000041</v>
   <v>      -0.00000500     -0.00000075     -0.00000047</v>
   <v>       0.00000267     -0.00000243      0.00000024</v>
   <v>      -0.00000627      0.00000080      0.00000031</v>
   <v>       0.00000381      0.00000244     -0.00000041</v>
   <v>      -0.00000500     -0.00000075      0.00000047</v>
   <v>       0.00000267     -0.00000243     -0.00000024</v>
   <v>      -0.00001801     -0.00000064      0.00005117</v>
   <v>      -0.00001729      0.00000056     -0.00005199</v>
   <v>       0.00001752      0.00000073      0.00000980</v>
   <v>       0.00001777     -0.00000058     -0.00000961</v>
   <v>      -0.00001801     -0.00000064     -0.00005117</v>
   <v>      -0.00001729      0.00000056      0.00005199</v>
   <v>       0.00001752      0.00000073     -0.00000980</v>
   <v>       0.00001777     -0.00000058      0.00000961</v>
   <v>      -0.00001573     -0.00005029      0.00000000</v>
   <v>      -0.00001929      0.00005378      0.00000000</v>
   <v>      -0.00001760      0.00004976      0.00000000</v>
   <v>      -0.00001735     -0.00005405      0.00000000</v>
   <v>       0.00001712     -0.00000889      0.00000000</v>
   <v>       0.00001794      0.00001216      0.00000000</v>
   <v>       0.00001517      0.00000901      0.00000000</v>
   <v>       0.00002003     -0.00001212      0.00000000</v>
  </varray>
  <varray name="stress" >
   <v>      -0.01346976      0.00001296      0.00000000</v>
   <v>       0.00002239      0.00635067      0.00000000</v>
   <v>       0.00000000      0.00000000      0.00956485</v>
  </varray>
  <energy>
   <i name="e_fr_energy">   -119.03862063</i>
   <i name="e_wo_entrp">   -119.03809937</i>
   <i name="e_0_energy">     -0.00104253</i>
  </energy>
 </calculation>
 <calculation>
  <scstep>
   <time name="dav">  150.24  150.22</time>
   <time name="total">  155.02  155.00</time>
   <energy>
    <i name="alphaZ">   3401.20292903</i>
    <i name="ewald"> -35150.17356438</i>
    <i name="hartreedc">  -9844.59420641</i>
    <i name="XCdc">   1368.72782458</i>
    <i name="pawpsdc">  35062.13580406</i>
    <i name="pawaedc"> -39692.61789203</i>
    <i name="eentropy">     -0.00104388</i>
    <i name="bandstr">    225.02296208</i>
    <i name="atom">  44511.25856501</i>
    <i name="e_fr_energy">   -119.03862194</i>
    <i name="e_wo_entrp">   -119.03757806</i>
    <i name="e_0_energy">   -119.03810000</i>
   </energy>
  </scstep>
  <scstep>
   <time name="dav">  148.54  148.54</time>
   <time name="total">  153.27  153.28</time>
   <energy>
    <i name="e_fr_energy">   -119.03862048</i>
    <i name="e_wo_entrp">   -119.03757846</i>
    <i name="e_0_energy">   -119.03809947</i>
   </energy>
  </scstep>
  <scstep>
   <time name="dav">  147.39  147.44</time>
   <time name="total">  152.09  152.14</time>
   <energy>
    <i name="e_fr_energy">   -119.03862056</i>
    <i name="e_wo_entrp">   -119.03757783</i>
    <i name="e_0_energy">   -119.03809919</i>
   </energy>
  </scstep>
  <scstep>
   <time name="dav">   99.69   99.72</time>
   <time name="total">  104.35  104.39</time>
   <energy>
    <i name="e_fr_energy">   -119.03862047</i>
    <i name="e_wo_entrp">   -119.03757787</i>
    <i name="e_0_energy">   -119.03809917</i>
   </energy>
  </scstep>
  <scstep>
   <time name="dav">   94.02   94.02</time>
   <time name="total">   94.30   94.30</time>
   <energy>
    <i name="alphaZ">   3401.20292903</i>
    <i name="ewald"> -35150.17356438</i>
    <i name="hartreedc">  -9844.70050226</i>
    <i name="XCdc">   1368.73340048</i>
    <i name="pawpsdc">  35062.08376093</i>
    <i name="pawaedc"> -39692.56312946</i>
    <i name="eentropy">     -0.00104258</i>
    <i name="bandstr">    225.12096276</i>
    <i name="atom">  44511.25856501</i>
    <i name="e_fr_energy">   -119.03862047</i>
    <i name="e_wo_entrp">   -119.03757788</i>
    <i name="e_0_energy">   -119.03809918</i>
   </energy>
  </scstep>
  <structure>
   <crystal>
    <varray name="basis" >
     <v>       7.27241867     -0.00000194      0.00000000</v>
     <v>      -0.00000234      7.27269106      0.00000000</v>
     <v>       0.00000000      0.00000000      7.27271906</v>
    </varray>
    <i name="volume">    384.65450549</i>
    <varray name="rec_basis" >
     <v>       0.13750583      0.00000004      0.00000000</v>
     <v>       0.00000004      0.13750068      0.00000000</v>
     <v>       0.00000000      0.00000000      0.13750016</v>
    </varray>
   </crystal>
   <varray name="positions" >
    <v>       0.25004678      0.25000002      0.00000000</v>
    <v>       0.75003407      0.25000000      0.00000000</v>
    <v>       0.25003614      0.74999998      0.00000000</v>
    <v>       0.75004134      0.75000001      0.00000000</v>
    <v>       0.25003610      0.25000002      0.50000000</v>
    <v>       0.75004137      0.24999999      0.50000000</v>
    <v>       0.25003538      0.74999998      0.50000000</v>
    <v>       0.75003804      0.75000001      0.50000000</v>
    <v>       0.25003880      0.00000002      0.25000000</v>
    <v>       0.75003866      0.99999996      0.25000001</v>
    <v>       0.25003878      0.49999998      0.24999999</v>
    <v>       0.75003868      0.50000004      0.25000001</v>
    <v>       0.25003880      0.00000002      0.75000000</v>
    <v>       0.75003866      0.99999996      0.74999999</v>
    <v>       0.25003878      0.49999998      0.75000001</v>
    <v>       0.75003868      0.50000004      0.74999999</v>
    <v>       0.00003962      0.25000002      0.24999684</v>
    <v>       0.50003964      0.25000000      0.25000318</v>
    <v>       0.00003777      0.74999998      0.24999937</v>
    <v>       0.50003773      0.75000000      0.25000064</v>
    <v>       0.00003962      0.25000002      0.75000316</v>
    <v>       0.50003964      0.25000000      0.74999682</v>
    <v>       0.00003777      0.74999998      0.75000063</v>
    <v>       0.50003773      0.75000000      0.74999936</v>
    <v>       0.00003959      0.00000317      0.00000000</v>
    <v>       0.50003968      0.99999680      0.00000000</v>
    <v>       0.00003961      0.49999683      0.00000000</v>
    <v>       0.50003965      0.50000320      0.00000000</v>
    <v>       0.00003778      0.00000064      0.50000000</v>
    <v>       0.50003772      0.99999934      0.50000000</v>
    <v>       0.00003781      0.49999936      0.50000000</v>
    <v>       0.50003769      0.50000066      0.50000000</v>
   </varray>
  </structure>
  <varray name="forces" >
   <v>      -0.00011351     -0.00000173      0.00000000</v>
   <v>       0.00005812      0.00000043      0.00000000</v>
   <v>       0.00003341      0.00000197      0.00000000</v>
   <v>      -0.00003438     -0.00000058      0.00000000</v>
   <v>       0.00003611     -0.00000197      0.00000000</v>
   <v>      -0.00003738      0.00000035      0.00000000</v>
   <v>       0.00004641      0.00000193      0.00000000</v>
   <v>       0.00000963     -0.00000031      0.00000000</v>
   <v>      -0.00000079     -0.00000127     -0.00000103</v>
   <v>       0.00000007      0.00000077      0.00000027</v>
   <v>       0.00000093      0.00000125     -0.00000107</v>
   <v>      -0.00000153     -0.00000084      0.00000021</v>
   <v>      -0.00000079     -0.00000127      0.00000103</v>
   <v>       0.00000007      0.00000077     -0.00000027</v>
   <v>       0.00000093      0.00000125      0.00000107</v>
   <v>      -0.00000153     -0.00000084     -0.00000021</v>
   <v>      -0.00001238     -0.00000160      0.00003550</v>
   <v>      -0.00001078      0.00000001     -0.00003712</v>
   <v>       0.00001223      0.00000165      0.00000746</v>
   <v>       0.00001195     -0.00000009     -0.00000786</v>
   <v>      -0.00001238     -0.00000160     -0.00003550</v>
   <v>      -0.00001078      0.00000001      0.00003712</v>
   <v>       0.00001223      0.00000165     -0.00000746</v>
   <v>       0.00001195     -0.00000009      0.00000786</v>
   <v>      -0.00000979     -0.00003801      0.00000000</v>
   <v>      -0.00001379      0.00003819      0.00000000</v>
   <v>      -0.00001216      0.00003811      0.00000000</v>
   <v>      -0.00001148     -0.00003813      0.00000000</v>
   <v>       0.00001193     -0.00000949      0.00000000</v>
   <v>       0.00001279      0.00000872      0.00000000</v>
   <v>       0.00000962      0.00000954      0.00000000</v>
   <v>       0.00001509     -0.00000878      0.00000000</v>
  </varray>
  <varray name="stress" >
   <v>      -0.03094835      0.00004974      0.00000000</v>
   <v>       0.00007809     -0.00790305      0.00000000</v>
   <v>       0.00000000      0.00000000     -0.00433415</v>
  </varray>
  <energy>
   <i name="e_fr_energy">   -119.03862047</i>
   <i name="e_wo_entrp">   -119.03809918</i>
   <i name="e_0_energy">     -0.00104258</i>
  </energy>
 </calculation>
 <calculation>
  <scstep>
   <time name="dav">  149.33  149.31</time>
   <time name="total">  154.04  154.03</time>
   <energy>
    <i name="alphaZ">   3401.24433909</i>
    <i name="ewald"> -35150.31621609</i>
    <i name="hartreedc">  -9844.74094649</i>
    <i name="XCdc">   1368.74048488</i>
    <i name="pawpsdc">  35062.08358999</i>
    <i name="pawaedc"> -39692.56388985</i>
    <i name="eentropy">     -0.00104099</i>
    <i name="bandstr">    225.25649337</i>
    <i name="atom">  44511.25856501</i>
    <i name="e_fr_energy">   -119.03862109</i>
    <i name="e_wo_entrp">   -119.03758010</i>
    <i name="e_0_energy">   -119.03810060</i>
   </energy>
  </scstep>
  <scstep>
   <time name="dav">  148.75  148.72</time>
   <time name="total">  153.79  153.77</time>
   <energy>
    <i name="e_fr_energy">   -119.03862141</i>
    <i name="e_wo_entrp">   -119.03757835</i>
    <i name="e_0_energy">   -119.03809988</i>
   </energy>
  </scstep>
  <scstep>
   <time name="dav">  146.85  146.84</time>
   <time name="total">  151.60  151.59</time>
   <energy>
    <i name="e_fr_energy">   -119.03862077</i>
    <i name="e_wo_entrp">   -119.03757852</i>
    <i name="e_0_energy">   -119.03809964</i>
   </energy>
  </scstep>
  <scstep>
   <time name="dav">  137.55  137.52</time>
   <time name="total">  142.27  142.25</time>
   <energy>
    <i name="e_fr_energy">   -119.03862084</i>
    <i name="e_wo_entrp">   -119.03757846</i>
    <i name="e_0_energy">   -119.03809965</i>
   </energy>
  </scstep>
  <scstep>
   <time name="dav">   93.42   93.41</time>
   <time name="total">   93.71   93.70</time>
   <energy>
    <i name="alphaZ">   3401.24433909</i>
    <i name="ewald"> -35150.31621609</i>
    <i name="hartreedc">  -9844.62120870</i>
    <i name="XCdc">   1368.73422121</i>
    <i name="pawpsdc">  35062.12942339</i>
    <i name="pawaedc"> -39692.61358280</i>
    <i name="eentropy">     -0.00104241</i>
    <i name="bandstr">    225.14688048</i>
    <i name="atom">  44511.25856501</i>
    <i name="e_fr_energy">   -119.03862084</i>
    <i name="e_wo_entrp">   -119.03757843</i>
    <i name="e_0_energy">   -119.03809963</i>
   </energy>
  </scstep>
  <structure>
   <crystal>
    <varray name="basis" >
     <v>       7.27235522     -0.00000184      0.00000000</v>
     <v>      -0.00000218      7.27267486      0.00000000</v>
     <v>       0.00000000      0.00000000      7.27271017</v>
    </varray>
    <i name="volume">    384.64982233</i>
    <varray name="rec_basis" >
     <v>       0.13750703      0.00000004      0.00000000</v>
     <v>       0.00000003      0.13750099      0.00000000</v>
     <v>       0.00000000      0.00000000      0.13750032</v>
    </varray>
   </crystal>
   <varray name="positions" >
    <v>       0.25004620      0.25000001      0.00000000</v>
    <v>       0.75003437      0.25000000      0.00000000</v>
    <v>       0.25003631      0.74999999      0.00000000</v>
    <v>       0.75004116      0.75000000      0.00000000</v>
    <v>       0.25003629      0.25000001      0.50000000</v>
    <v>       0.75004118      0.24999999      0.50000000</v>
    <v>       0.25003562      0.74999999      0.50000000</v>
    <v>       0.75003809      0.75000001      0.50000000</v>
    <v>       0.25003880      0.00000001      0.25000000</v>
    <v>       0.75003866      0.99999996      0.25000001</v>
    <v>       0.25003879      0.49999999      0.24999999</v>
    <v>       0.75003867      0.50000004      0.25000001</v>
    <v>       0.25003880      0.00000001      0.75000000</v>
    <v>       0.75003866      0.99999996      0.74999999</v>
    <v>       0.25003879      0.49999999      0.75000001</v>
    <v>       0.75003867      0.50000004      0.74999999</v>
    <v>       0.00003956      0.25000001      0.24999702</v>
    <v>       0.50003958      0.25000000      0.25000299</v>
    <v>       0.00003783      0.74999999      0.24999941</v>
    <v>       0.50003779      0.75000000      0.25000059</v>
    <v>       0.00003956      0.25000001      0.75000298</v>
    <v>       0.50003958      0.25000000      0.74999701</v>
    <v>       0.00003783      0.74999999      0.75000059</v>
    <v>       0.50003779      0.75000000      0.74999941</v>
    <v>       0.00003953      0.00000298      0.00000000</v>
    <v>       0.50003961      0.99999699      0.00000000</v>
    <v>       0.00003955      0.49999702      0.00000000</v>
    <v>       0.50003959      0.50000301      0.00000000</v>
    <v>       0.00003784      0.00000059      0.50000000</v>
    <v>       0.50003778      0.99999939      0.50000000</v>
    <v>       0.00003786      0.49999941      0.50000000</v>
    <v>       0.50003777      0.50000061      0.50000000</v>
   </varray>
  </structure>
  <varray name="forces" >
   <v>      -0.00012091      0.00000050      0.00000000</v>
   <v>       0.00007082      0.00000093      0.00000000</v>
   <v>       0.00003572     -0.00000040      0.00000000</v>
   <v>      -0.00003952     -0.00000092      0.00000000</v>
   <v>       0.00003605      0.00000003      0.00000000</v>
   <v>      -0.00003937      0.00000047      0.00000000</v>
   <v>       0.00005416     -0.00000000      0.00000000</v>
   <v>       0.00001672     -0.00000044      0.00000000</v>
   <v>      -0.00000665      0.00000049      0.00000129</v>
   <v>       0.00000349      0.00000116     -0.00000035</v>
   <v>      -0.00000659     -0.00000039      0.00000079</v>
   <v>       0.00000348     -0.00000105     -0.00000092</v>
   <v>      -0.00000665      0.00000049     -0.00000129</v>
   <v>       0.00000349      0.00000116      0.00000035</v>
   <v>      -0.00000659     -0.00000039     -0.00000079</v>
   <v>       0.00000348     -0.00000105      0.00000092</v>
   <v>      -0.00001690      0.00000045      0.00005086</v>
   <v>      -0.00001735      0.00000056     -0.00005043</v>
   <v>       0.00001641     -0.00000045      0.00001008</v>
   <v>       0.00001747     -0.00000057     -0.00000976</v>
   <v>      -0.00001690      0.00000045     -0.00005086</v>
   <v>      -0.00001735      0.00000056      0.00005043</v>
   <v>       0.00001641     -0.00000045     -0.00001008</v>
   <v>       0.00001747     -0.00000057      0.00000976</v>
   <v>      -0.00001700     -0.00004934      0.00000000</v>
   <v>      -0.00001690      0.00005058      0.00000000</v>
   <v>      -0.00001724      0.00004879      0.00000000</v>
   <v>      -0.00001648     -0.00005075      0.00000000</v>
   <v>       0.00001684     -0.00000890      0.00000000</v>
   <v>       0.00001676      0.00001070      0.00000000</v>
   <v>       0.00001642      0.00000902      0.00000000</v>
   <v>       0.00001723     -0.00001069      0.00000000</v>
  </varray>
  <varray name="stress" >
   <v>      -0.08256870      0.00002041      0.00000000</v>
   <v>       0.00003947     -0.05482102      0.00000000</v>
   <v>       0.00000000      0.00000000     -0.05061464</v>
  </varray>
  <energy>
   <i name="e_fr_energy">   -119.03862084</i>
   <i name="e_wo_entrp">   -119.03809963</i>
   <i name="e_0_energy">     -0.00104241</i>
  </energy>
 </calculation>
 <calculation>
  <scstep>
   <time name="dav">  148.45  148.42</time>
   <time name="total">  153.17  153.14</time>
   <energy>
    <i name="alphaZ">   3401.36857398</i>
    <i name="ewald"> -35150.74418015</i>
    <i name="hartreedc">  -9844.74026816</i>
    <i name="XCdc">   1368.75534480</i>
    <i name="pawpsdc">  35062.12976145</i>
    <i name="pawaedc"> -39692.61289834</i>
    <i name="eentropy">     -0.00103766</i>
    <i name="bandstr">    225.54751039</i>
    <i name="atom">  44511.25856501</i>
    <i name="e_fr_energy">   -119.03862868</i>
    <i name="e_wo_entrp">   -119.03759102</i>
    <i name="e_0_energy">   -119.03810985</i>
   </energy>
  </scstep>
  <scstep>
   <time name="dav">  147.89  147.94</time>
   <time name="total">  152.61  152.67</time>
   <energy>
    <i name="e_fr_energy">   -119.03862527</i>
    <i name="e_wo_entrp">   -119.03758143</i>
    <i name="e_0_energy">   -119.03810335</i>
   </energy>
  </scstep>
  <scstep>
   <time name="dav">  146.04  146.01</time>
   <time name="total">  150.86  150.83</time>
   <energy>
    <i name="e_fr_energy">   -119.03862158</i>
    <i name="e_wo_entrp">   -119.03758012</i>
    <i name="e_0_energy">   -119.03810085</i>
   </energy>
  </scstep>
  <scstep>
   <time name="dav">  170.39  170.36</time>
   <time name="total">  175.14  175.11</time>
   <energy>
    <i name="e_fr_energy">   -119.03862145</i>
    <i name="e_wo_entrp">   -119.03757960</i>
    <i name="e_0_energy">   -119.03810052</i>
   </energy>
  </scstep>
  <scstep>
   <time name="dav">  149.75  149.72</time>
   <time name="total">  154.51  154.49</time>
   <energy>
    <i name="e_fr_energy">   -119.03862141</i>
    <i name="e_wo_entrp">   -119.03757952</i>
    <i name="e_0_energy">   -119.03810047</i>
   </energy>
  </scstep>
  <scstep>
   <time name="dav">  113.52  113.50</time>
   <time name="total">  118.31  118.29</time>
   <energy>
    <i name="e_fr_energy">   -119.03862135</i>
    <i name="e_wo_entrp">   -119.03757940</i>
    <i name="e_0_energy">   -119.03810037</i>
   </energy>
  </scstep>
  <scstep>
   <time name="dav">   93.49   93.48</time>
   <time name="total">   98.20   98.18</time>
   <energy>
    <i name="e_fr_energy">   -119.03862131</i>
    <i name="e_wo_entrp">   -119.03757935</i>
    <i name="e_0_energy">   -119.03810033</i>
   </energy>
  </scstep>
  <scstep>
   <time name="dav">   93.04   93.03</time>
   <time name="total">   97.82   97.80</time>
   <energy>
    <i name="e_fr_energy">   -119.03862122</i>
    <i name="e_wo_entrp">   -119.03757928</i>
    <i name="e_0_energy">   -119.03810025</i>
   </energy>
  </scstep>
  <scstep>
   <time name="dav">   92.64   92.63</time>
   <time name="total">   92.93   92.91</time>
   <energy>
    <i name="alphaZ">   3401.36857398</i>
    <i name="ewald"> -35150.74418015</i>
    <i name="hartreedc">  -9844.38558492</i>
    <i name="XCdc">   1368.73672459</i>
    <i name="pawpsdc">  35062.30682591</i>
    <i name="pawaedc"> -39692.79507165</i>
    <i name="eentropy">     -0.00104194</i>
    <i name="bandstr">    225.21656796</i>
    <i name="atom">  44511.25856501</i>
    <i name="e_fr_energy">   -119.03862122</i>
    <i name="e_wo_entrp">   -119.03757928</i>
    <i name="e_0_energy">   -119.03810025</i>
   </energy>
  </scstep>
  <structure>
   <crystal>
    <varray name="basis" >
     <v>       7.27216486     -0.00000154      0.00000000</v>
     <v>      -0.00000170      7.27262625      0.00000000</v>
     <v>       0.00000000      0.00000000      7.27268351</v>
    </varray>
    <i name="volume">    384.63577300</i>
    <varray name="rec_basis" >
     <v>       0.13751063      0.00000003      0.00000000</v>
     <v>       0.00000003      0.13750191      0.00000000</v>
     <v>       0.00000000      0.00000000      0.13750083</v>
    </varray>
   </crystal>
   <varray name="positions" >
    <v>       0.25004444      0.24999998      0.00000000</v>
    <v>       0.75003527      0.25000001      0.00000000</v>
    <v>       0.25003683      0.75000002      0.00000000</v>
    <v>       0.75004063      0.74999999      0.00000000</v>
    <v>       0.25003685      0.24999998      0.50000000</v>
    <v>       0.75004060      0.25000000      0.50000000</v>
    <v>       0.25003633      0.75000002      0.50000000</v>
    <v>       0.75003823      0.75000000      0.50000000</v>
    <v>       0.25003879     -0.00000001      0.24999998</v>
    <v>       0.75003866      0.99999997      0.25000002</v>
    <v>       0.25003880      0.50000000      0.24999997</v>
    <v>       0.75003865      0.50000003      0.25000001</v>
    <v>       0.25003879     -0.00000001      0.75000002</v>
    <v>       0.75003866      0.99999997      0.74999998</v>
    <v>       0.25003880      0.50000000      0.75000003</v>
    <v>       0.75003865      0.50000003      0.74999999</v>
    <v>       0.00003937      0.24999998      0.24999757</v>
    <v>       0.50003942      0.25000000      0.25000241</v>
    <v>       0.00003802      0.75000002      0.24999952</v>
    <v>       0.50003798      0.75000000      0.25000047</v>
    <v>       0.00003937      0.24999998      0.75000243</v>
    <v>       0.50003942      0.25000000      0.74999759</v>
    <v>       0.00003802      0.75000002      0.75000048</v>
    <v>       0.50003798      0.75000000      0.74999953</v>
    <v>       0.00003938      0.00000239      0.00000000</v>
    <v>       0.50003940      0.99999758      0.00000000</v>
    <v>       0.00003936      0.49999761      0.00000000</v>
    <v>       0.50003942      0.50000242      0.00000000</v>
    <v>       0.00003803      0.00000045      0.50000000</v>
    <v>       0.50003798      0.99999952      0.50000000</v>
    <v>       0.00003801      0.49999955      0.50000000</v>
    <v>       0.50003800      0.50000048      0.50000000</v>
   </varray>
  </structure>
  <varray name="forces" >
   <v>      -0.00011199      0.00000108      0.00000000</v>
   <v>       0.00006793     -0.00000057      0.00000000</v>
   <v>       0.00003709     -0.00000108      0.00000000</v>
   <v>      -0.00004027      0.00000064      0.00000000</v>
   <v>       0.00003538      0.00000177      0.00000000</v>
   <v>      -0.00003783      0.00000009      0.00000000</v>
   <v>       0.00005369     -0.00000174      0.00000000</v>
   <v>       0.00001415     -0.00000009      0.00000000</v>
   <v>      -0.00000425      0.00000098      0.00000037</v>
   <v>       0.00000153      0.00000072     -0.00000047</v>
   <v>      -0.00000531     -0.00000092      0.00000104</v>
   <v>       0.00000256     -0.00000071      0.00000023</v>
   <v>      -0.00000425      0.00000098     -0.00000037</v>
   <v>       0.00000153      0.00000072      0.00000047</v>
   <v>      -0.00000531     -0.00000092     -0.00000104</v>
   <v>       0.00000256     -0.00000071     -0.00000023</v>
   <v>      -0.00001722      0.00000104      0.00005632</v>
   <v>      -0.00001914      0.00000003     -0.00005548</v>
   <v>       0.00001659     -0.00000102      0.00000975</v>
   <v>       0.00001796     -0.00000004     -0.00000964</v>
   <v>      -0.00001722      0.00000104     -0.00005632</v>
   <v>      -0.00001914      0.00000003      0.00005548</v>
   <v>       0.00001659     -0.00000102     -0.00000975</v>
   <v>       0.00001796     -0.00000004      0.00000964</v>
   <v>      -0.00001833     -0.00005390      0.00000000</v>
   <v>      -0.00001759      0.00005556      0.00000000</v>
   <v>      -0.00001659      0.00005374      0.00000000</v>
   <v>      -0.00001923     -0.00005564      0.00000000</v>
   <v>       0.00001606     -0.00000740      0.00000000</v>
   <v>       0.00001798      0.00000986      0.00000000</v>
   <v>       0.00001775      0.00000738      0.00000000</v>
   <v>       0.00001636     -0.00000987      0.00000000</v>
  </varray>
  <varray name="stress" >
   <v>      -0.00267782     -0.00008561      0.00000000</v>
   <v>      -0.00005720      0.03175256      0.00000000</v>
   <v>       0.00000000      0.00000000      0.03664479</v>
  </varray>
  <energy>
   <i name="e_fr_energy">   -119.03862122</i>
   <i name="e_wo_entrp">   -119.03810025</i>
   <i name="e_0_energy">     -0.00104194</i>
  </energy>
 </calculation>
 <calculation>
  <scstep>
   <time name="dav">  148.50  148.48</time>
   <time name="total">  153.22  153.20</time>
   <energy>
    <i name="alphaZ">   3401.32381918</i>
    <i name="ewald"> -35150.59000921</i>
    <i name="hartreedc">  -9844.34231383</i>
    <i name="XCdc">   1368.72909414</i>
    <i name="pawpsdc">  35062.30647499</i>
    <i name="pawaedc"> -39692.79465555</i>
    <i name="eentropy">     -0.00104356</i>
    <i name="bandstr">    225.07144564</i>
    <i name="atom">  44511.25856501</i>
    <i name="e_fr_energy">   -119.03862318</i>
    <i name="e_wo_entrp">   -119.03757962</i>
    <i name="e_0_energy">   -119.03810140</i>
   </energy>
  </scstep>
  <scstep>
   <time name="dav">  149.63  149.60</time>
   <time name="total">  154.38  154.36</time>
   <energy>
    <i name="e_fr_energy">   -119.03862124</i>
    <i name="e_wo_entrp">   -119.03757993</i>
    <i name="e_0_energy">   -119.03810058</i>
   </energy>
  </scstep>
  <scstep>
   <time name="dav">  146.54  146.51</time>
   <time name="total">  151.38  151.36</time>
   <energy>
    <i name="e_fr_energy">   -119.03862127</i>
    <i name="e_wo_entrp">   -119.03757910</i>
    <i name="e_0_energy">   -119.03810019</i>
   </energy>
  </scstep>
  <scstep>
   <time name="dav">  101.38  101.37</time>
   <time name="total">  106.09  106.08</time>
   <energy>
    <i name="e_fr_energy">   -119.03862112</i>
    <i name="e_wo_entrp">   -119.03757913</i>
    <i name="e_0_energy">   -119.03810013</i>
   </energy>
  </scstep>
  <scstep>
   <time name="dav">   93.99   93.99</time>
   <time name="total">   94.28   94.27</time>
   <energy>
    <i name="alphaZ">   3401.32381918</i>
    <i name="ewald"> -35150.59000921</i>
    <i name="hartreedc">  -9844.47116913</i>
    <i name="XCdc">   1368.73584223</i>
    <i name="pawpsdc">  35062.25226549</i>
    <i name="pawaedc"> -39692.73690459</i>
    <i name="eentropy">     -0.00104197</i>
    <i name="bandstr">    225.19001187</i>
    <i name="atom">  44511.25856501</i>
    <i name="e_fr_energy">   -119.03862112</i>
    <i name="e_wo_entrp">   -119.03757915</i>
    <i name="e_0_energy">   -119.03810014</i>
   </energy>
  </scstep>
  <structure>
   <crystal>
    <varray name="basis" >
     <v>       7.27216096     -0.00000166      0.00000000</v>
     <v>      -0.00000178      7.27267248      0.00000000</v>
     <v>       0.00000000      0.00000000      7.27273687</v>
    </varray>
    <i name="volume">    384.64083406</i>
    <varray name="rec_basis" >
     <v>       0.13751071      0.00000003      0.00000000</v>
     <v>       0.00000003      0.13750104      0.00000000</v>
     <v>       0.00000000      0.00000000      0.13749982</v>
    </varray>
   </crystal>
   <varray name="positions" >
    <v>       0.25004403      0.24999999      0.00000000</v>
    <v>       0.75003552      0.25000000      0.00000000</v>
    <v>       0.25003697      0.75000001      0.00000000</v>
    <v>       0.75004048      0.75000000      0.00000000</v>
    <v>       0.25003698      0.24999998      0.50000000</v>
    <v>       0.75004046      0.25000000      0.50000000</v>
    <v>       0.25003653      0.75000002      0.50000000</v>
    <v>       0.75003829      0.75000000      0.50000000</v>
    <v>       0.25003877     -0.00000000      0.24999998</v>
    <v>       0.75003867      0.99999998      0.25000002</v>
    <v>       0.25003878      0.50000000      0.24999998</v>
    <v>       0.75003866      0.50000002      0.25000001</v>
    <v>       0.25003877     -0.00000000      0.75000002</v>
    <v>       0.75003867      0.99999998      0.74999998</v>
    <v>       0.25003878      0.50000000      0.75000002</v>
    <v>       0.75003866      0.50000002      0.74999999</v>
    <v>       0.00003931      0.24999999      0.24999778</v>
    <v>       0.50003935      0.25000000      0.25000221</v>
    <v>       0.00003808      0.75000001      0.24999956</v>
    <v>       0.50003804      0.75000000      0.25000044</v>
    <v>       0.00003931      0.24999999      0.75000222</v>
    <v>       0.50003935      0.25000000      0.74999779</v>
    <v>       0.00003808      0.75000001      0.75000044</v>
    <v>       0.50003804      0.75000000      0.74999956</v>
    <v>       0.00003932      0.00000219      0.00000000</v>
    <v>       0.50003933      0.99999779      0.00000000</v>
    <v>       0.00003930      0.49999781      0.00000000</v>
    <v>       0.50003935      0.50000221      0.00000000</v>
    <v>       0.00003809      0.00000042      0.50000000</v>
    <v>       0.50003805      0.99999956      0.50000000</v>
    <v>       0.00003807      0.49999958      0.50000000</v>
    <v>       0.50003806      0.50000044      0.50000000</v>
   </varray>
  </structure>
  <varray name="forces" >
   <v>      -0.00007671      0.00000005      0.00000000</v>
   <v>       0.00004449     -0.00000071      0.00000000</v>
   <v>       0.00002888     -0.00000013      0.00000000</v>
   <v>      -0.00003077      0.00000069      0.00000000</v>
   <v>       0.00002795     -0.00000019      0.00000000</v>
   <v>      -0.00002954     -0.00000101      0.00000000</v>
   <v>       0.00003874      0.00000018      0.00000000</v>
   <v>       0.00000646      0.00000096      0.00000000</v>
   <v>       0.00000060     -0.00000034      0.00000105</v>
   <v>      -0.00000225     -0.00000086     -0.00000008</v>
   <v>      -0.00000045      0.00000035      0.00000075</v>
   <v>      -0.00000121      0.00000087     -0.00000037</v>
   <v>       0.00000060     -0.00000034     -0.00000105</v>
   <v>      -0.00000225     -0.00000086      0.00000008</v>
   <v>      -0.00000045      0.00000035     -0.00000075</v>
   <v>      -0.00000121      0.00000087      0.00000037</v>
   <v>      -0.00001073      0.00000010      0.00003534</v>
   <v>      -0.00001218     -0.00000095     -0.00003530</v>
   <v>       0.00001031     -0.00000012      0.00000742</v>
   <v>       0.00001194      0.00000097     -0.00000624</v>
   <v>      -0.00001073      0.00000010     -0.00003534</v>
   <v>      -0.00001218     -0.00000095      0.00003530</v>
   <v>       0.00001031     -0.00000012     -0.00000742</v>
   <v>       0.00001194      0.00000097      0.00000624</v>
   <v>      -0.00001208     -0.00003561      0.00000000</v>
   <v>      -0.00001104      0.00003477      0.00000000</v>
   <v>      -0.00001126      0.00003571      0.00000000</v>
   <v>      -0.00001182     -0.00003478      0.00000000</v>
   <v>       0.00001077     -0.00000728      0.00000000</v>
   <v>       0.00001154      0.00000557      0.00000000</v>
   <v>       0.00001158      0.00000729      0.00000000</v>
   <v>       0.00001078     -0.00000556      0.00000000</v>
  </varray>
  <varray name="stress" >
   <v>       0.00677786     -0.00007373      0.00000000</v>
   <v>      -0.00006426      0.04786595      0.00000000</v>
   <v>       0.00000000      0.00000000      0.05368586</v>
  </varray>
  <energy>
   <i name="e_fr_energy">   -119.03862112</i>
   <i name="e_wo_entrp">   -119.03810014</i>
   <i name="e_0_energy">     -0.00104197</i>
  </energy>
 </calculation>
 <calculation>
  <scstep>
   <time name="dav">  149.23  149.22</time>
   <time name="total">  154.19  154.19</time>
   <energy>
    <i name="alphaZ">   3401.18956027</i>
    <i name="ewald"> -35150.12750671</i>
    <i name="hartreedc">  -9844.34217426</i>
    <i name="XCdc">   1368.71299742</i>
    <i name="pawpsdc">  35062.25162532</i>
    <i name="pawaedc"> -39692.73738056</i>
    <i name="eentropy">     -0.00104673</i>
    <i name="bandstr">    224.75672616</i>
    <i name="atom">  44511.25856501</i>
    <i name="e_fr_energy">   -119.03863408</i>
    <i name="e_wo_entrp">   -119.03758736</i>
    <i name="e_0_energy">   -119.03811072</i>
   </energy>
  </scstep>
  <scstep>
   <time name="dav">  148.67  148.77</time>
   <time name="total">  153.55  153.64</time>
   <energy>
    <i name="e_fr_energy">   -119.03862330</i>
    <i name="e_wo_entrp">   -119.03758324</i>
    <i name="e_0_energy">   -119.03810327</i>
   </energy>
  </scstep>
  <scstep>
   <time name="dav">  147.06  147.04</time>
   <time name="total">  152.39  152.36</time>
   <energy>
    <i name="e_fr_energy">   -119.03862132</i>
    <i name="e_wo_entrp">   -119.03757873</i>
    <i name="e_0_energy">   -119.03810003</i>
   </energy>
  </scstep>
  <scstep>
   <time name="dav">  191.26  191.33</time>
   <time name="total">  196.03  196.10</time>
   <energy>
    <i name="e_fr_energy">   -119.03862058</i>
    <i name="e_wo_entrp">   -119.03757856</i>
    <i name="e_0_energy">   -119.03809957</i>
   </energy>
  </scstep>
  <scstep>
   <time name="dav">  146.35  146.32</time>
   <time name="total">  151.12  151.09</time>
   <energy>
    <i name="e_fr_energy">   -119.03862060</i>
    <i name="e_wo_entrp">   -119.03757862</i>
    <i name="e_0_energy">   -119.03809961</i>
   </energy>
  </scstep>
  <scstep>
   <time name="dav">  114.17  114.15</time>
   <time name="total">  118.87  118.86</time>
   <energy>
    <i name="e_fr_energy">   -119.03862068</i>
    <i name="e_wo_entrp">   -119.03757875</i>
    <i name="e_0_energy">   -119.03809972</i>
   </energy>
  </scstep>
  <scstep>
   <time name="dav">   93.71   93.69</time>
   <time name="total">   98.45   98.43</time>
   <energy>
    <i name="e_fr_energy">   -119.03862072</i>
    <i name="e_wo_entrp">   -119.03757878</i>
    <i name="e_0_energy">   -119.03809975</i>
   </energy>
  </scstep>
  <scstep>
   <time name="dav">   93.37   93.35</time>
   <time name="total">   98.09   98.08</time>
   <energy>
    <i name="e_fr_energy">   -119.03862081</i>
    <i name="e_wo_entrp">   -119.03757886</i>
    <i name="e_0_energy">   -119.03809984</i>
   </energy>
  </scstep>
  <scstep>
   <time name="dav">   92.84   92.83</time>
   <time name="total">   93.13   93.11</time>
   <energy>
    <i name="alphaZ">   3401.18956027</i>
    <i name="ewald"> -35150.12750671</i>
    <i name="hartreedc">  -9844.72583012</i>
    <i name="XCdc">   1368.73313682</i>
    <i name="pawpsdc">  35062.06145440</i>
    <i name="pawaedc"> -39692.54147584</i>
    <i name="eentropy">     -0.00104195</i>
    <i name="bandstr">    225.11451732</i>
    <i name="atom">  44511.25856501</i>
    <i name="e_fr_energy">   -119.03862081</i>
    <i name="e_wo_entrp">   -119.03757886</i>
    <i name="e_0_energy">   -119.03809983</i>
   </energy>
  </scstep>
  <structure>
   <crystal>
    <varray name="basis" >
     <v>       7.27214926     -0.00000204      0.00000000</v>
     <v>      -0.00000203      7.27281118      0.00000000</v>
     <v>       0.00000000      0.00000000      7.27289695</v>
    </varray>
    <i name="volume">    384.65601741</i>
    <varray name="rec_basis" >
     <v>       0.13751093      0.00000004      0.00000000</v>
     <v>       0.00000004      0.13749841      0.00000000</v>
     <v>       0.00000000      0.00000000      0.13749679</v>
    </varray>
   </crystal>
   <varray name="positions" >
    <v>       0.25004279      0.25000000      0.00000000</v>
    <v>       0.75003627      0.25000000      0.00000000</v>
    <v>       0.25003738      0.75000000      0.00000000</v>
    <v>       0.75004004      0.75000000      0.00000000</v>
    <v>       0.25003737      0.25000000      0.50000000</v>
    <v>       0.75004005      0.25000000      0.50000000</v>
    <v>       0.25003712      0.75000000      0.50000000</v>
    <v>       0.75003844      0.75000000      0.50000000</v>
    <v>       0.25003873      0.00000001      0.24999998</v>
    <v>       0.75003869      0.99999998      0.25000001</v>
    <v>       0.25003872      0.49999999      0.24999999</v>
    <v>       0.75003869      0.50000001      0.25000001</v>
    <v>       0.25003873      0.00000001      0.75000002</v>
    <v>       0.75003869      0.99999998      0.74999999</v>
    <v>       0.25003872      0.49999999      0.75000001</v>
    <v>       0.75003869      0.50000001      0.74999999</v>
    <v>       0.00003912      0.25000000      0.24999840</v>
    <v>       0.50003914      0.25000000      0.25000160</v>
    <v>       0.00003827      0.75000000      0.24999966</v>
    <v>       0.50003824      0.75000000      0.25000033</v>
    <v>       0.00003912      0.25000000      0.75000160</v>
    <v>       0.50003914      0.25000000      0.74999840</v>
    <v>       0.00003827      0.75000000      0.75000034</v>
    <v>       0.50003824      0.75000000      0.74999967</v>
    <v>       0.00003911      0.00000160      0.00000000</v>
    <v>       0.50003914      0.99999840      0.00000000</v>
    <v>       0.00003912      0.49999840      0.00000000</v>
    <v>       0.50003913      0.50000160      0.00000000</v>
    <v>       0.00003826      0.00000034      0.50000000</v>
    <v>       0.50003825      0.99999967      0.50000000</v>
    <v>       0.00003827      0.49999966      0.50000000</v>
    <v>       0.50003824      0.50000033      0.50000000</v>
   </varray>
  </structure>
  <varray name="forces" >
   <v>      -0.00009082     -0.00000000      0.00000000</v>
   <v>       0.00005187      0.00000021      0.00000000</v>
   <v>       0.00002941     -0.00000006      0.00000000</v>
   <v>      -0.00003097     -0.00000025      0.00000000</v>
   <v>       0.00002949     -0.00000012      0.00000000</v>
   <v>      -0.00003115      0.00000005      0.00000000</v>
   <v>       0.00003655      0.00000013      0.00000000</v>
   <v>       0.00000858     -0.00000009      0.00000000</v>
   <v>      -0.00000157     -0.00000014      0.00000047</v>
   <v>       0.00000008      0.00000052     -0.00000023</v>
   <v>      -0.00000149      0.00000017      0.00000033</v>
   <v>       0.00000001     -0.00000048     -0.00000041</v>
   <v>      -0.00000157     -0.00000014     -0.00000047</v>
   <v>       0.00000008      0.00000052      0.00000023</v>
   <v>      -0.00000149      0.00000017     -0.00000033</v>
   <v>       0.00000001     -0.00000048      0.00000041</v>
   <v>      -0.00001010      0.00000003      0.00003302</v>
   <v>      -0.00001038      0.00000016     -0.00003265</v>
   <v>       0.00001043     -0.00000005      0.00000828</v>
   <v>       0.00001082     -0.00000014     -0.00000813</v>
   <v>      -0.00001010      0.00000003     -0.00003302</v>
   <v>      -0.00001038      0.00000016      0.00003265</v>
   <v>       0.00001043     -0.00000005     -0.00000828</v>
   <v>       0.00001082     -0.00000014      0.00000813</v>
   <v>      -0.00000999     -0.00003270      0.00000000</v>
   <v>      -0.00001046      0.00003270      0.00000000</v>
   <v>      -0.00001017      0.00003265      0.00000000</v>
   <v>      -0.00001025     -0.00003271      0.00000000</v>
   <v>       0.00001050     -0.00000815      0.00000000</v>
   <v>       0.00001066      0.00000830      0.00000000</v>
   <v>       0.00001033      0.00000820      0.00000000</v>
   <v>       0.00001086     -0.00000828      0.00000000</v>
  </varray>
  <varray name="stress" >
   <v>      -0.08165312      0.00005691      0.00000000</v>
   <v>       0.00004746     -0.03071359      0.00000000</v>
   <v>       0.00000000      0.00000000     -0.02393957</v>
  </varray>
  <energy>
   <i name="e_fr_energy">   -119.03862081</i>
   <i name="e_wo_entrp">   -119.03809983</i>
   <i name="e_0_energy">     -0.00104195</i>
  </energy>
 </calculation>
 <calculation>
  <scstep>
   <time name="dav">  149.32  149.30</time>
   <time name="total">  154.06  154.03</time>
   <energy>
    <i name="alphaZ">   3401.23199113</i>
    <i name="ewald"> -35150.27367625</i>
    <i name="hartreedc">  -9844.76678586</i>
    <i name="XCdc">   1368.74036791</i>
    <i name="pawpsdc">  35062.06147115</i>
    <i name="pawaedc"> -39692.54153150</i>
    <i name="eentropy">     -0.00104042</i>
    <i name="bandstr">    225.25201746</i>
    <i name="atom">  44511.25856501</i>
    <i name="e_fr_energy">   -119.03862138</i>
    <i name="e_wo_entrp">   -119.03758096</i>
    <i name="e_0_energy">   -119.03810117</i>
   </energy>
  </scstep>
  <scstep>
   <time name="dav">  148.83  148.81</time>
   <time name="total">  153.55  153.53</time>
   <energy>
    <i name="e_fr_energy">   -119.03862166</i>
    <i name="e_wo_entrp">   -119.03757912</i>
    <i name="e_0_energy">   -119.03810039</i>
   </energy>
  </scstep>
  <scstep>
   <time name="dav">  146.96  146.93</time>
   <time name="total">  151.68  151.65</time>
   <energy>
    <i name="e_fr_energy">   -119.03862101</i>
    <i name="e_wo_entrp">   -119.03757925</i>
    <i name="e_0_energy">   -119.03810013</i>
   </energy>
  </scstep>
  <scstep>
   <time name="dav">   99.18   99.22</time>
   <time name="total">  103.91  103.95</time>
   <energy>
    <i name="e_fr_energy">   -119.03862106</i>
    <i name="e_wo_entrp">   -119.03757912</i>
    <i name="e_0_energy">   -119.03810009</i>
   </energy>
  </scstep>
  <scstep>
   <time name="dav">   92.81   92.80</time>
   <time name="total">   93.10   93.09</time>
   <energy>
    <i name="alphaZ">   3401.23199113</i>
    <i name="ewald"> -35150.27367625</i>
    <i name="hartreedc">  -9844.64459063</i>
    <i name="XCdc">   1368.73396892</i>
    <i name="pawpsdc">  35062.11235466</i>
    <i name="pawaedc"> -39692.59564740</i>
    <i name="eentropy">     -0.00104195</i>
    <i name="bandstr">    225.13945547</i>
    <i name="atom">  44511.25856501</i>
    <i name="e_fr_energy">   -119.03862105</i>
    <i name="e_wo_entrp">   -119.03757910</i>
    <i name="e_0_energy">   -119.03810007</i>
   </energy>
  </scstep>
  <structure>
   <crystal>
    <varray name="basis" >
     <v>       7.27215296     -0.00000192      0.00000000</v>
     <v>      -0.00000195      7.27276735      0.00000000</v>
     <v>       0.00000000      0.00000000      7.27284635</v>
    </varray>
    <i name="volume">    384.65121877</i>
    <varray name="rec_basis" >
     <v>       0.13751086      0.00000004      0.00000000</v>
     <v>       0.00000004      0.13749924      0.00000000</v>
     <v>       0.00000000      0.00000000      0.13749775</v>
    </varray>
   </crystal>
   <varray name="positions" >
    <v>       0.25004318      0.25000000      0.00000000</v>
    <v>       0.75003603      0.25000000      0.00000000</v>
[...]
       <r>   1.2228  1.0000</r>
       <r>   1.2230  1.0000</r>
       <r>   1.2230  1.0000</r>
       <r>   1.2230  1.0000</r>
       <r>   1.2231  1.0000</r>
       <r>   1.2359  1.0000</r>
       <r>   1.2361  1.0000</r>
       <r>   1.2361  1.0000</r>
       <r>   1.3041  1.0000</r>
       <r>   1.3043  1.0000</r>
       <r>   1.3044  1.0000</r>
       <r>   1.3428  1.0000</r>
       <r>   1.3428  1.0000</r>
       <r>   1.3429  1.0000</r>
       <r>   1.3430  1.0000</r>
       <r>   1.3430  1.0000</r>
       <r>   1.3430  1.0000</r>
       <r>   1.4276  1.0000</r>
       <r>   1.4277  1.0000</r>
       <r>   1.4278  1.0000</r>
       <r>   1.4524  1.0000</r>
       <r>   1.4524  1.0000</r>
       <r>   1.4525  1.0000</r>
       <r>   1.4655  1.0000</r>
       <r>   1.4657  1.0000</r>
       <r>   1.4874  1.0000</r>
       <r>   1.4875  1.0000</r>
       <r>   1.4875  1.0000</r>
       <r>   1.5673  1.0000</r>
       <r>   1.5675  1.0000</r>
       <r>   1.5675  1.0000</r>
       <r>   1.6125  1.0000</r>
       <r>   1.6125  1.0000</r>
       <r>   1.6366  1.0000</r>
       <r>   1.6366  1.0000</r>
       <r>   1.6367  1.0000</r>
       <r>   2.0064  1.0000</r>
       <r>   2.0064  1.0000</r>
       <r>   2.0065  1.0000</r>
       <r>   2.0208  1.0000</r>
       <r>   2.0208  1.0000</r>
       <r>   2.0208  1.0000</r>
       <r>   2.0209  1.0000</r>
       <r>   2.0209  1.0000</r>
       <r>   2.0209  1.0000</r>
       <r>   2.0224  1.0000</r>
       <r>   2.0224  1.0000</r>
       <r>   2.0224  1.0000</r>
       <r>   2.0224  1.0000</r>
       <r>   2.0225  1.0000</r>
       <r>   2.0225  1.0000</r>
       <r>   2.0275  1.0000</r>
       <r>   2.0275  1.0000</r>
       <r>   2.0276  1.0000</r>
       <r>   2.0374  1.0000</r>
       <r>   2.0374  1.0000</r>
       <r>   2.0375  1.0000</r>
       <r>   2.0467  1.0000</r>
       <r>   2.0467  1.0000</r>
       <r>   2.0467  1.0000</r>
       <r>   3.7330  0.0000</r>
       <r>   3.7331  0.0000</r>
       <r>   3.7339  0.0000</r>
       <r>   4.1037  0.0000</r>
       <r>   4.1038  0.0000</r>
       <r>   4.1039  0.0000</r>
       <r>   4.1040  0.0000</r>
       <r>   4.1047  0.0000</r>
       <r>   4.1047  0.0000</r>
       <r>   4.3935  0.0000</r>
       <r>   4.3936  0.0000</r>
       <r>   4.3943  0.0000</r>
       <r>   4.6901  0.0000</r>
       <r>   4.6902  0.0000</r>
       <r>   4.6914  0.0000</r>
       <r>   5.1213  0.0000</r>
       <r>   5.1215  0.0000</r>
       <r>   5.1215  0.0000</r>
       <r>   5.1216  0.0000</r>
       <r>   5.1226  0.0000</r>
       <r>   5.1227  0.0000</r>
       <r>   5.4616  0.0000</r>
       <r>   5.4617  0.0000</r>
       <r>   5.4628  0.0000</r>
       <r>   9.0292  0.0000</r>
       <r>   9.0303  0.0000</r>
       <r>   9.0305  0.0000</r>
       <r>   9.4681  0.0000</r>
       <r>   9.4692  0.0000</r>
       <r>   9.4693  0.0000</r>
       <r>  10.0856  0.0000</r>
       <r>  10.0856  0.0000</r>
       <r>  10.0869  0.0000</r>
       <r>  10.0871  0.0000</r>
       <r>  10.0872  0.0000</r>
       <r>  10.0873  0.0000</r>
       <r>  10.5472  0.0000</r>
       <r>  10.5472  0.0000</r>
       <r>  10.5484  0.0000</r>
       <r>  10.5485  0.0000</r>
       <r>  10.5486  0.0000</r>
       <r>  10.5488  0.0000</r>
       <r>  11.1883  0.0000</r>
       <r>  11.1898  0.0000</r>
       <r>  11.1900  0.0000</r>
       <r>  11.6587  0.0000</r>
       <r>  11.6601  0.0000</r>
       <r>  11.6603  0.0000</r>
      </set>
      <set comment="kpoint 99">
       <r>  -4.2715  1.0000</r>
       <r>  -3.8807  1.0000</r>
       <r>  -3.8807  1.0000</r>
       <r>  -3.5057  1.0000</r>
       <r>  -3.1524  1.0000</r>
       <r>  -2.8269  1.0000</r>
       <r>  -2.8269  1.0000</r>
       <r>  -2.5420  1.0000</r>
       <r>  -1.1349  1.0000</r>
       <r>  -1.0287  1.0000</r>
       <r>  -1.0287  1.0000</r>
       <r>  -1.0056  1.0000</r>
       <r>  -0.9586  1.0000</r>
       <r>  -0.9586  1.0000</r>
       <r>  -0.8419  1.0000</r>
       <r>  -0.8419  1.0000</r>
       <r>  -0.8012  1.0000</r>
       <r>  -0.8012  1.0000</r>
       <r>  -0.7687  1.0000</r>
       <r>  -0.7687  1.0000</r>
       <r>  -0.7107  1.0000</r>
       <r>  -0.7025  1.0000</r>
       <r>  -0.7025  1.0000</r>
       <r>  -0.6885  1.0000</r>
       <r>  -0.6885  1.0000</r>
       <r>  -0.5924  1.0000</r>
       <r>  -0.5923  1.0000</r>
       <r>  -0.5888  1.0000</r>
       <r>  -0.5888  1.0000</r>
       <r>  -0.5469  1.0000</r>
       <r>  -0.5469  1.0000</r>
       <r>  -0.5176  1.0000</r>
       <r>  -0.3831  1.0000</r>
       <r>  -0.3795  1.0000</r>
       <r>  -0.3795  1.0000</r>
       <r>  -0.2952  1.0000</r>
       <r>  -0.2952  1.0000</r>
       <r>  -0.2852  1.0000</r>
       <r>  -0.2852  1.0000</r>
       <r>  -0.2810  1.0000</r>
       <r>  -0.2810  1.0000</r>
       <r>  -0.2133  1.0000</r>
       <r>  -0.1847  1.0000</r>
       <r>  -0.1847  1.0000</r>
       <r>  -0.1141  1.0000</r>
       <r>  -0.1141  1.0000</r>
       <r>  -0.0856  1.0000</r>
       <r>  -0.0142  1.0000</r>
       <r>  -0.0142  1.0000</r>
       <r>   0.0161  1.0000</r>
       <r>   0.0162  1.0000</r>
       <r>   0.0378  1.0000</r>
       <r>   0.0378  1.0000</r>
       <r>   0.1249  1.0000</r>
       <r>   0.1249  1.0000</r>
       <r>   0.1721  1.0000</r>
       <r>   0.3267  1.0000</r>
       <r>   0.3455  1.0000</r>
       <r>   0.3695  1.0000</r>
       <r>   0.3695  1.0000</r>
       <r>   0.3780  1.0000</r>
       <r>   0.3780  1.0000</r>
       <r>   0.4282  1.0000</r>
       <r>   0.4914  1.0000</r>
       <r>   0.5368  1.0000</r>
       <r>   0.5368  1.0000</r>
       <r>   0.5557  1.0000</r>
       <r>   0.5557  1.0000</r>
       <r>   0.5605  1.0000</r>
       <r>   0.5605  1.0000</r>
       <r>   0.5956  1.0000</r>
       <r>   0.5957  1.0000</r>
       <r>   0.6028  1.0000</r>
       <r>   0.6104  1.0000</r>
       <r>   0.6104  1.0000</r>
       <r>   0.6111  1.0000</r>
       <r>   0.6467  1.0000</r>
       <r>   0.6467  1.0000</r>
       <r>   0.6859  1.0000</r>
       <r>   0.7228  1.0000</r>
       <r>   0.7228  1.0000</r>
       <r>   0.7401  1.0000</r>
       <r>   0.7558  1.0000</r>
       <r>   0.7559  1.0000</r>
       <r>   0.7657  1.0000</r>
       <r>   0.7800  1.0000</r>
       <r>   0.7847  1.0000</r>
       <r>   0.7847  1.0000</r>
       <r>   0.7912  1.0000</r>
       <r>   0.7913  1.0000</r>
       <r>   0.7970  1.0000</r>
       <r>   0.8018  1.0000</r>
       <r>   0.8086  1.0000</r>
       <r>   0.8134  1.0000</r>
       <r>   0.8135  1.0000</r>
       <r>   0.8141  1.0000</r>
       <r>   0.8141  1.0000</r>
       <r>   0.8445  1.0000</r>
       <r>   0.8445  1.0000</r>
       <r>   0.8457  1.0000</r>
       <r>   0.8574  1.0000</r>
       <r>   0.9689  1.0000</r>
       <r>   0.9690  1.0000</r>
       <r>   0.9783  1.0000</r>
       <r>   1.0035  1.0000</r>
       <r>   1.0416  1.0000</r>
       <r>   1.0416  1.0000</r>
       <r>   1.1057  1.0000</r>
       <r>   1.1057  1.0000</r>
       <r>   1.1574  1.0000</r>
       <r>   1.1574  1.0000</r>
       <r>   1.1617  1.0000</r>
       <r>   1.1617  1.0000</r>
       <r>   1.1827  1.0000</r>
       <r>   1.2731  1.0000</r>
       <r>   1.2731  1.0000</r>
       <r>   1.3543  1.0000</r>
       <r>   1.3627  1.0000</r>
       <r>   1.3627  1.0000</r>
       <r>   1.3632  1.0000</r>
       <r>   1.3632  1.0000</r>
       <r>   1.3645  1.0000</r>
       <r>   1.3771  1.0000</r>
       <r>   1.4229  1.0000</r>
       <r>   1.4230  1.0000</r>
       <r>   1.4539  1.0000</r>
       <r>   1.4539  1.0000</r>
       <r>   1.4754  1.0000</r>
       <r>   1.4754  1.0000</r>
       <r>   1.5009  1.0000</r>
       <r>   1.5056  1.0000</r>
       <r>   1.5346  1.0000</r>
       <r>   1.5346  1.0000</r>
       <r>   1.5424  1.0000</r>
       <r>   1.5442  1.0000</r>
       <r>   1.5442  1.0000</r>
       <r>   1.5817  1.0000</r>
       <r>   1.5817  1.0000</r>
       <r>   1.6527  1.0000</r>
       <r>   1.6734  1.0000</r>
       <r>   1.6766  1.0000</r>
       <r>   1.7313  1.0000</r>
       <r>   1.7582  1.0000</r>
       <r>   1.7582  1.0000</r>
       <r>   1.9633  1.0000</r>
       <r>   1.9678  1.0000</r>
       <r>   1.9678  1.0000</r>
       <r>   1.9719  1.0000</r>
       <r>   1.9719  1.0000</r>
       <r>   1.9809  1.0000</r>
       <r>   1.9809  1.0000</r>
       <r>   1.9857  1.0000</r>
       <r>   1.9857  1.0000</r>
       <r>   1.9910  1.0000</r>
       <r>   1.9910  1.0000</r>
       <r>   2.0018  1.0000</r>
       <r>   2.0018  1.0000</r>
       <r>   2.0020  1.0000</r>
       <r>   2.0020  1.0000</r>
       <r>   2.0036  1.0000</r>
       <r>   2.0068  1.0000</r>
       <r>   2.0068  1.0000</r>
       <r>   2.0071  1.0000</r>
       <r>   2.0071  1.0000</r>
       <r>   2.0211  1.0000</r>
       <r>   2.0336  1.0000</r>
       <r>   2.0397  1.0000</r>
       <r>   2.0397  1.0000</r>
       <r>   2.9524  1.0000</r>
       <r>   3.2540  1.0000</r>
       <r>   3.2540  1.0000</r>
       <r>   3.4468  1.0000</r>
       <r>   3.4469  1.0000</r>
       <r>   3.4716  1.0000</r>
       <r>   3.8827  0.0000</r>
       <r>   3.8828  0.0000</r>
       <r>   4.3416  0.0000</r>
       <r>   4.3417  0.0000</r>
       <r>   4.5427  0.0000</r>
       <r>   4.5428  0.0000</r>
       <r>   4.7227  0.0000</r>
       <r>   4.7228  0.0000</r>
       <r>   4.8380  0.0000</r>
       <r>   4.8382  0.0000</r>
       <r>   5.6047  0.0000</r>
       <r>   5.6048  0.0000</r>
       <r>   5.7656  0.0000</r>
       <r>   5.7758  0.0000</r>
       <r>   5.7759  0.0000</r>
       <r>   6.2537  0.0000</r>
       <r>   6.2537  0.0000</r>
       <r>   6.6237  0.0000</r>
       <r>   8.2122  0.0000</r>
       <r>   8.2123  0.0000</r>
       <r>   8.5663  0.0000</r>
       <r>   8.5664  0.0000</r>
       <r>   8.7106  0.0000</r>
       <r>   9.1245  0.0000</r>
       <r>   9.1247  0.0000</r>
       <r>   9.5642  0.0000</r>
       <r>   9.5644  0.0000</r>
       <r>   9.7350  0.0000</r>
       <r>   9.7350  0.0000</r>
       <r>  10.0173  0.0000</r>
       <r>  10.8318  0.0000</r>
       <r>  11.1163  0.0000</r>
       <r>  11.1163  0.0000</r>
       <r>  11.2995  0.0000</r>
       <r>  11.2997  0.0000</r>
       <r>  11.7677  0.0000</r>
       <r>  11.7678  0.0000</r>
       <r>  12.2383  0.0000</r>
       <r>  12.4088  0.0000</r>
       <r>  12.4090  0.0000</r>
       <r>  12.8848  0.0000</r>
       <r>  12.8850  0.0000</r>
      </set>
      <set comment="kpoint 100">
       <r>  -4.4408  1.0000</r>
       <r>  -4.0426  1.0000</r>
       <r>  -4.0426  1.0000</r>
       <r>  -3.6575  1.0000</r>
       <r>  -2.6252  1.0000</r>
       <r>  -2.3438  1.0000</r>
       <r>  -2.3438  1.0000</r>
       <r>  -2.1183  1.0000</r>
       <r>  -1.5517  1.0000</r>
       <r>  -1.3943  1.0000</r>
       <r>  -1.3943  1.0000</r>
       <r>  -1.3181  1.0000</r>
       <r>  -1.0211  1.0000</r>
       <r>  -1.0211  1.0000</r>
       <r>  -0.9066  1.0000</r>
       <r>  -0.9066  1.0000</r>
       <r>  -0.8222  1.0000</r>
       <r>  -0.8222  1.0000</r>
       <r>  -0.7696  1.0000</r>
       <r>  -0.7696  1.0000</r>
       <r>  -0.7263  1.0000</r>
       <r>  -0.7263  1.0000</r>
       <r>  -0.7083  1.0000</r>
       <r>  -0.6424  1.0000</r>
       <r>  -0.6424  1.0000</r>
       <r>  -0.5888  1.0000</r>
       <r>  -0.5888  1.0000</r>
       <r>  -0.5765  1.0000</r>
       <r>  -0.5765  1.0000</r>
       <r>  -0.4759  1.0000</r>
       <r>  -0.4689  1.0000</r>
       <r>  -0.4689  1.0000</r>
       <r>  -0.4255  1.0000</r>
       <r>  -0.4204  1.0000</r>
       <r>  -0.4204  1.0000</r>
       <r>  -0.3395  1.0000</r>
       <r>  -0.3395  1.0000</r>
       <r>  -0.3303  1.0000</r>
       <r>  -0.3303  1.0000</r>
       <r>  -0.3168  1.0000</r>
       <r>  -0.3168  1.0000</r>
       <r>  -0.2685  1.0000</r>
       <r>  -0.2350  1.0000</r>
       <r>  -0.2350  1.0000</r>
       <r>  -0.0557  1.0000</r>
       <r>  -0.0557  1.0000</r>
       <r>   0.0369  1.0000</r>
       <r>   0.0564  1.0000</r>
       <r>   0.0564  1.0000</r>
       <r>   0.0819  1.0000</r>
       <r>   0.0819  1.0000</r>
       <r>   0.1681  1.0000</r>
       <r>   0.1681  1.0000</r>
       <r>   0.1892  1.0000</r>
       <r>   0.1892  1.0000</r>
       <r>   0.2474  1.0000</r>
       <r>   0.3173  1.0000</r>
       <r>   0.3279  1.0000</r>
       <r>   0.3403  1.0000</r>
       <r>   0.3403  1.0000</r>
       <r>   0.3567  1.0000</r>
       <r>   0.3568  1.0000</r>
       <r>   0.4283  1.0000</r>
       <r>   0.4896  1.0000</r>
       <r>   0.4896  1.0000</r>
       <r>   0.5064  1.0000</r>
       <r>   0.5339  1.0000</r>
       <r>   0.5339  1.0000</r>
       <r>   0.5590  1.0000</r>
       <r>   0.5590  1.0000</r>
       <r>   0.5877  1.0000</r>
       <r>   0.5877  1.0000</r>
       <r>   0.5915  1.0000</r>
       <r>   0.5915  1.0000</r>
       <r>   0.5958  1.0000</r>
       <r>   0.6033  1.0000</r>
       <r>   0.6818  1.0000</r>
       <r>   0.6910  1.0000</r>
       <r>   0.6910  1.0000</r>
       <r>   0.6952  1.0000</r>
       <r>   0.6952  1.0000</r>
       <r>   0.7162  1.0000</r>
       <r>   0.7191  1.0000</r>
       <r>   0.7385  1.0000</r>
       <r>   0.7386  1.0000</r>
       <r>   0.7867  1.0000</r>
       <r>   0.8014  1.0000</r>
       <r>   0.8030  1.0000</r>
       <r>   0.8188  1.0000</r>
       <r>   0.8188  1.0000</r>
       <r>   0.8199  1.0000</r>
       <r>   0.8449  1.0000</r>
       <r>   0.8450  1.0000</r>
       <r>   0.8509  1.0000</r>
       <r>   0.8510  1.0000</r>
       <r>   0.8532  1.0000</r>
       <r>   0.8532  1.0000</r>
       <r>   0.8821  1.0000</r>
       <r>   0.8821  1.0000</r>
       <r>   0.8995  1.0000</r>
       <r>   0.9083  1.0000</r>
       <r>   0.9202  1.0000</r>
       <r>   0.9929  1.0000</r>
       <r>   0.9930  1.0000</r>
       <r>   1.0005  1.0000</r>
       <r>   1.0005  1.0000</r>
       <r>   1.0418  1.0000</r>
       <r>   1.0419  1.0000</r>
       <r>   1.0709  1.0000</r>
       <r>   1.0711  1.0000</r>
       <r>   1.1037  1.0000</r>
       <r>   1.1038  1.0000</r>
       <r>   1.1119  1.0000</r>
       <r>   1.1119  1.0000</r>
       <r>   1.2158  1.0000</r>
       <r>   1.2158  1.0000</r>
       <r>   1.2587  1.0000</r>
       <r>   1.2802  1.0000</r>
       <r>   1.2802  1.0000</r>
       <r>   1.3145  1.0000</r>
       <r>   1.4515  1.0000</r>
       <r>   1.5203  1.0000</r>
       <r>   1.5203  1.0000</r>
       <r>   1.5302  1.0000</r>
       <r>   1.5389  1.0000</r>
       <r>   1.5389  1.0000</r>
       <r>   1.5818  1.0000</r>
       <r>   1.5818  1.0000</r>
       <r>   1.6066  1.0000</r>
       <r>   1.6066  1.0000</r>
       <r>   1.6093  1.0000</r>
       <r>   1.6093  1.0000</r>
       <r>   1.6319  1.0000</r>
       <r>   1.6594  1.0000</r>
       <r>   1.6594  1.0000</r>
       <r>   1.6627  1.0000</r>
       <r>   1.6903  1.0000</r>
       <r>   1.6903  1.0000</r>
       <r>   1.7075  1.0000</r>
       <r>   1.7761  1.0000</r>
       <r>   1.8241  1.0000</r>
       <r>   1.8368  1.0000</r>
       <r>   1.8689  1.0000</r>
       <r>   1.8689  1.0000</r>
       <r>   1.9076  1.0000</r>
       <r>   1.9076  1.0000</r>
       <r>   1.9127  1.0000</r>
       <r>   1.9127  1.0000</r>
       <r>   1.9131  1.0000</r>
       <r>   1.9273  1.0000</r>
       <r>   1.9273  1.0000</r>
       <r>   1.9384  1.0000</r>
       <r>   1.9384  1.0000</r>
       <r>   1.9423  1.0000</r>
       <r>   1.9423  1.0000</r>
       <r>   1.9463  1.0000</r>
       <r>   1.9549  1.0000</r>
       <r>   1.9549  1.0000</r>
       <r>   1.9600  1.0000</r>
       <r>   1.9600  1.0000</r>
       <r>   1.9674  1.0000</r>
       <r>   1.9674  1.0000</r>
       <r>   1.9725  1.0000</r>
       <r>   1.9725  1.0000</r>
       <r>   1.9858  1.0000</r>
       <r>   1.9876  1.0000</r>
       <r>   1.9876  1.0000</r>
       <r>   2.0082  1.0000</r>
       <r>   2.3613  1.0000</r>
       <r>   2.5995  1.0000</r>
       <r>   2.5995  1.0000</r>
       <r>   2.7263  1.0000</r>
       <r>   3.2665  1.0000</r>
       <r>   3.2666  1.0000</r>
       <r>   3.7458  0.0000</r>
       <r>   3.7459  0.0000</r>
       <r>   4.1091  0.0000</r>
       <r>   4.1093  0.0000</r>
       <r>   4.6514  0.0000</r>
       <r>   4.6516  0.0000</r>
       <r>   5.0264  0.0000</r>
       <r>   5.0265  0.0000</r>
       <r>   5.0328  0.0000</r>
       <r>   5.0329  0.0000</r>
       <r>   5.8505  0.0000</r>
       <r>   5.8505  0.0000</r>
       <r>   6.0793  0.0000</r>
       <r>   6.0794  0.0000</r>
       <r>   6.8038  0.0000</r>
       <r>   7.3687  0.0000</r>
       <r>   7.3687  0.0000</r>
       <r>   7.7319  0.0000</r>
       <r>   7.8475  0.0000</r>
       <r>   7.8475  0.0000</r>
       <r>   7.9133  0.0000</r>
       <r>   7.9133  0.0000</r>
       <r>   8.3616  0.0000</r>
       <r>   8.3618  0.0000</r>
       <r>   8.5374  0.0000</r>
       <r>   8.7285  0.0000</r>
       <r>   8.7286  0.0000</r>
       <r>   9.4854  0.0000</r>
       <r>   9.4855  0.0000</r>
       <r>  10.5777  0.0000</r>
       <r>  10.6707  0.0000</r>
       <r>  11.7875  0.0000</r>
       <r>  11.7875  0.0000</r>
       <r>  11.7952  0.0000</r>
       <r>  12.0460  0.0000</r>
       <r>  12.0460  0.0000</r>
       <r>  12.2792  0.0000</r>
       <r>  12.3290  0.0000</r>
       <r>  12.6170  0.0000</r>
       <r>  12.6172  0.0000</r>
       <r>  12.9204  0.0000</r>
       <r>  13.0900  0.0000</r>
      </set>
     </set>
    </set>
   </array>
  </eigenvalues>
 </calculation>
 <structure name="finalpos" >
  <crystal>
   <varray name="basis" >
    <v>       7.27196095     -0.00000164      0.00000000</v>
    <v>      -0.00000164      7.27281821      0.00000000</v>
    <v>       0.00000000      0.00000000      7.27292933</v>
   </varray>
   <i name="volume">    384.64814144</i>
   <varray name="rec_basis" >
    <v>       0.13751449      0.00000003      0.00000000</v>
    <v>       0.00000003      0.13749828      0.00000000</v>
    <v>       0.00000000      0.00000000      0.13749618</v>
   </varray>
  </crystal>
  <varray name="positions" >
   <v>       0.25004198      0.25000000      0.00000000</v>
   <v>       0.75003673      0.25000000      0.00000000</v>
   <v>       0.25003763      0.75000000      0.00000000</v>
   <v>       0.75003978      0.75000000      0.00000000</v>
   <v>       0.25003762      0.25000000      0.50000000</v>
   <v>       0.75003978      0.25000000      0.50000000</v>
   <v>       0.25003743      0.75000000      0.50000000</v>
   <v>       0.75003852      0.75000000      0.50000000</v>
   <v>       0.25003871      0.00000001      0.24999999</v>
   <v>       0.75003869      0.99999999      0.25000001</v>
   <v>       0.25003871      0.49999999      0.24999999</v>
   <v>       0.75003869      0.50000001      0.25000001</v>
   <v>       0.25003871      0.00000001      0.75000001</v>
   <v>       0.75003869      0.99999999      0.74999999</v>
   <v>       0.25003871      0.49999999      0.75000001</v>
   <v>       0.75003869      0.50000001      0.74999999</v>
   <v>       0.00003903      0.25000000      0.24999868</v>
   <v>       0.50003905      0.25000000      0.25000131</v>
   <v>       0.00003835      0.75000000      0.24999974</v>
   <v>       0.50003833      0.75000000      0.25000026</v>
   <v>       0.00003903      0.25000000      0.75000132</v>
   <v>       0.50003905      0.25000000      0.74999869</v>
   <v>       0.00003835      0.75000000      0.75000026</v>
   <v>       0.50003833      0.75000000      0.74999974</v>
   <v>       0.00003903      0.00000131      0.00000000</v>
   <v>       0.50003905      0.99999869      0.00000000</v>
   <v>       0.00003903      0.49999869      0.00000000</v>
   <v>       0.50003905      0.50000131      0.00000000</v>
   <v>       0.00003835      0.00000026      0.50000000</v>
   <v>       0.50003834      0.99999974      0.50000000</v>
   <v>       0.00003835      0.49999974      0.50000000</v>
   <v>       0.50003833      0.50000026      0.50000000</v>
  </varray>
 </structure>
</modeling>
