 vasp.4.6.28 25Jul05 complex 
 executed on             LinuxIFC date 2017.01.06  19:11:15
 running on    4 nodes
 distr:  one band on    1 nodes,    4 groups


--------------------------------------------------------------------------------------------------------


 INCAR:
 POTCAR:   PAW_PBE Al 04Jan2001                   
 POTCAR:   PAW_PBE Al 04Jan2001                   
   VRHFIN =Al: s2p1                                                             
   LEXCH  = PE                                                                  
   EATOM  =    53.5387 eV,    3.9350 Ry                                         
                                                                                
   TITEL  = PAW_PBE Al 04Jan2001                                                
   LULTRA =        F    use ultrasoft PP ?                                      
   IUNSCR =        1    unscreen: 0-lin 1-nonlin 2-no                           
   RPACOR =    1.500    partial core radius                                     
   POMASS =   26.982; ZVAL   =    3.000    mass and valenz                      
   RCORE  =    1.900    outmost cutoff radius                                   
   RWIGS  =    2.650; RWIGS  =    1.402    wigner-seitz radius (au A)           
   ENMAX  =  240.300; ENMIN  =  180.225 eV                                      
   ICORE  =        2    local potential                                         
   LCOR   =        T    correct aug charges                                     
   LPAW   =        T    paw PP                                                  
   EAUG   =  291.052                                                            
   DEXC   =    -.041                                                            
   RMAX   =    2.974    core radius for proj-oper                               
   RAUG   =    1.300    factor for augmentation sphere                          
   RDEP   =    1.966    radius for radial grids                                 
   QCUT   =   -4.203; QGAM   =    8.405    optimization parameters              
                                                                                
   Description                                                                  
     l     E      TYP  RCUT    TYP  RCUT                                        
     0   .000     23  1.900                                                     
     0   .000     23  1.900                                                     
     1   .000     23  1.900                                                     
     1  1.000     23  1.900                                                     
     2   .000      7  1.900                                                     
  local pseudopotential read in
  partial core-charges read in
  atomic valenz-charges read in
  non local Contribution for L=           0  read in
    real space projection operators read in
  non local Contribution for L=           0  read in
    real space projection operators read in
  non local Contribution for L=           1  read in
    real space projection operators read in
  non local Contribution for L=           1  read in
    real space projection operators read in
    PAW grid and wavefunctions read in
 
   number of l-projection  operators is LMAX  =           4
   number of lm-projection operators is LMMAX =           8
 

 ----------------------------------------------------------------------------- 
|                                                                             |
|  ADVICE TO THIS USER RUNNING 'VASP/VAMP'   (HEAR YOUR MASTER'S VOICE ...):  |
|                                                                             |
|      You have a (more or less) 'large supercell' and for larger cells       |
|      it might be more efficient to use real space projection operators      |
|      So try LREAL= Auto  in the INCAR   file.                               |
|      Mind: If you want to do an extremely accurate calculations keep the    |
|      reciprocal projection scheme          (i.e. LREAL=.FALSE.)             |
|                                                                             |
 ----------------------------------------------------------------------------- 

 PAW_PBE Al 04Jan2001                   :
 energy of atom  1       EATOM=  -53.5387
 kinetic energy error for atom=    0.0002 (will be added to EATOM!!)
 
 EXHCAR: internal setup
 exchange correlation table for  LEXCH =        8
   RHO(1)=    0.500       N(1)  =     2000
   RHO(2)=  100.500       N(2)  =     4000
 
 POSCAR: al100                                   
  positions in direct lattice
  No initial velocities read in
 


--------------------------------------------------------------------------------------------------------


 ion  position               nearest neighbor table
   1  0.750  0.750  0.500-   3 2.88   5 2.88  14 2.88  19 2.88  20 2.88  26 2.88   6 2.88  29 2.88
                            11 2.88  18 2.88  10 2.88   8 2.88
   2  0.750  0.750  0.000-   8 2.88  10 2.88  11 2.88  18 2.88  22 2.88  27 2.88  32 2.88   5 2.88
                            26 2.88   3 2.88  20 2.88  12 2.90
   3  0.750  0.000  0.250-   1 2.88   5 2.88   9 2.88  19 2.88  28 2.88  13 2.88  18 2.88  27 2.88
                             6 2.88   2 2.88   4 2.88  12 2.90
   4  0.750  0.250  0.500-   6 2.88   8 2.88  10 2.88  13 2.88  29 2.88  31 2.88  14 2.88  19 2.88
                            21 2.88  28 2.88   3 2.88  20 2.88
   5  0.000  0.750  0.250-   1 2.88   3 2.88  14 2.88  15 2.88  25 2.88  16 2.88  10 2.88   7 2.88
                             2 2.88  22 2.88   6 2.88  12 2.88
   6  0.000  0.000  0.500-   4 2.88   7 2.88   8 2.88  11 2.88  13 2.88  16 2.88   1 2.88  17 2.88
                             3 2.88  23 2.88  21 2.88   5 2.88
   7  0.250  0.750  0.500-   6 2.88  11 2.88  16 2.88  18 2.88  29 2.88  30 2.88  14 2.88  19 2.88
                             5 2.88  26 2.88  25 2.88  23 2.88
   8  0.750  0.000  0.750-   2 2.88   4 2.88   6 2.88  11 2.88  27 2.88  31 2.88  21 2.88  26 2.88
                            19 2.88   1 2.88   9 2.88  12 2.90
   9  0.750  0.250  0.000-   3 2.88  20 2.88  21 2.88  28 2.88  32 2.88  22 2.88  27 2.88  31 2.88
                            13 2.88   8 2.88  10 2.88  12 2.90
  10  0.750  0.500  0.250-   2 2.88   4 2.88  13 2.88  18 2.88  22 2.88  29 2.88  28 2.88   5 2.88
                            14 2.88  32 2.88   9 2.88   1 2.88
  11  0.000  0.750  0.750-   2 2.88   6 2.88   7 2.88   8 2.88  22 2.88  30 2.88  23 2.88  20 2.88
                             1 2.88  15 2.88  14 2.88  12 2.88
  12  0.002  0.000  0.000-  15 2.87  23 2.87  16 2.87  24 2.87   5 2.88  21 2.88  13 2.88  11 2.88
                             9 2.90   3 2.90   2 2.90   8 2.90
  13  0.000  0.250  0.250-   4 2.88   6 2.88  10 2.88  16 2.88  22 2.88  24 2.88   3 2.88  25 2.88
                            17 2.88   9 2.88  14 2.88  12 2.88
  14  0.000  0.500  0.500-   1 2.88   5 2.88  17 2.88  20 2.88  21 2.88  25 2.88   4 2.88   7 2.88
                            10 2.88  30 2.88  13 2.88  11 2.88
  15  0.250  0.750  0.000-  12 2.87   5 2.88  23 2.88  25 2.88  26 2.88  32 2.88  27 2.88  22 2.88
                            11 2.88  18 2.88  30 2.88  16 2.88
  16  0.250  0.000  0.250-  12 2.87   7 2.88   6 2.88  13 2.88  18 2.88  24 2.88  27 2.88   5 2.88
                            28 2.88  19 2.88  17 2.88  15 2.88
  17  0.250  0.250  0.500-  14 2.88  19 2.88  21 2.88  23 2.88  25 2.88  28 2.88   6 2.88  29 2.88
                            13 2.88  31 2.88  30 2.88  16 2.88
  18  0.500  0.750  0.250-   2 2.88   7 2.88  10 2.88  16 2.88  27 2.88  29 2.88   3 2.88  25 2.88
                             1 2.88  15 2.88  19 2.88  32 2.88
  19  0.500  0.000  0.500-   1 2.88   3 2.88  17 2.88  23 2.88  26 2.88  28 2.88   4 2.88   7 2.88
                             8 2.88  16 2.88  18 2.88  31 2.88
  20  0.750  0.500  0.750-   1 2.88   9 2.88  14 2.88  21 2.88  26 2.88  32 2.88  31 2.88  11 2.88
                            22 2.88  29 2.88   4 2.88   2 2.88
  21  0.000  0.250  0.750-   9 2.88  14 2.88  17 2.88  20 2.88  23 2.88   8 2.88  30 2.88  24 2.88
                             4 2.88  22 2.88   6 2.88  12 2.88
  22  0.000  0.500  0.000-   2 2.88  10 2.88  11 2.88  13 2.88  24 2.88  30 2.88   9 2.88  15 2.88
                            25 2.88  20 2.88  21 2.88   5 2.88
  23  0.250  0.000  0.750-  12 2.87  15 2.88  17 2.88  19 2.88  21 2.88  26 2.88  11 2.88  31 2.88
                            27 2.88   6 2.88  24 2.88   7 2.88
  24  0.250  0.250  0.000-  12 2.87  13 2.88  16 2.88  22 2.88  27 2.88  30 2.88  31 2.88  32 2.88
                            28 2.88  21 2.88  25 2.88  23 2.88
  25  0.250  0.500  0.250-   5 2.88  14 2.88  15 2.88  17 2.88  28 2.88  32 2.88  13 2.88  18 2.88
                            29 2.88  22 2.88  24 2.88   7 2.88
  26  0.500  0.750  0.750-   1 2.88  15 2.88  19 2.88  20 2.88  23 2.88  32 2.88  30 2.88   8 2.88
                             7 2.88   2 2.88  27 2.88  29 2.88
  27  0.500  0.000  0.000-   2 2.88   8 2.88  16 2.88  18 2.88  24 2.88  31 2.88   9 2.88  15 2.88
                             3 2.88  23 2.88  28 2.88  26 2.88
  28  0.500  0.250  0.250-   3 2.88   9 2.88  17 2.88  19 2.88  25 2.88  32 2.88  10 2.88  16 2.88
                             4 2.88  24 2.88  29 2.88  27 2.88
  29  0.500  0.500  0.500-   4 2.88   7 2.88  10 2.88  18 2.88  30 2.88  31 2.88  17 2.88   1 2.88
                            20 2.88  25 2.88  26 2.88  28 2.88
  30  0.250  0.500  0.750-   7 2.88  11 2.88  22 2.88  24 2.88  29 2.88  31 2.88  21 2.88  26 2.88
                            14 2.88  32 2.88  17 2.88  15 2.88
  31  0.500  0.250  0.750-   4 2.88   8 2.88  24 2.88  27 2.88  29 2.88  30 2.88  20 2.88  23 2.88
                             9 2.88  17 2.88  19 2.88  32 2.88
  32  0.500  0.500  0.000-   9 2.88  15 2.88  20 2.88  25 2.88  26 2.88  28 2.88  24 2.88   2 2.88
                            10 2.88  30 2.88  18 2.88  31 2.88
 
  LATTYP: Found a simple cubic cell.
 ALAT       =     8.1553581400
  
  Lattice vectors:
  
 A1 = (   8.1553581400,   0.0000000000,   0.0000000000)
 A2 = (   0.0000001500,   8.1553581400,   0.0000000000)
 A3 = (   0.0000001500,   0.0000001500,   8.1553581400)
 Subroutine PRICEL returns:
 Original cell was already a primitive cell.
 

Analysis of symmetry for initial positions (statically):

 Routine SETGRP: Setting up the symmetry group for a 
 simple cubic supercell.


 Subroutine GETGRP returns: Found  8 space group operations
 (whereof  8 operations were pure point group operations)
 out of a pool of 48 trial point group operations.


The static configuration has the point symmetry C_4v.

Analysis of symmetry for dynamics (positions and initial velocities):

 Subroutine DYNSYM returns: Found  8 space group operations
 (whereof  8 operations were pure point group operations)
 out of a pool of  8 trial space group operations
 (whereof  8 operations were pure point group operations)
 and found also     1 'primitive' translations


The dynamic configuration has the point symmetry C_4v.
 
 
 KPOINTS: Automatic mesh                          

Automatic generation of k-mesh.
 
 Subroutine IBZKPT returns following result:
 ===========================================
 
 Found      6 irreducible k-points:
 
 Following reciprocal coordinates:
            Coordinates               Weight
  0.000000  0.000000  0.000000      1.000000
  0.333333 -0.000000 -0.000000      2.000000
  0.000000  0.333333 -0.000000      4.000000
  0.333333  0.333333 -0.000000      8.000000
  0.000000  0.333333  0.333333      4.000000
  0.333333  0.333333  0.333333      8.000000
 
 Following cartesian coordinates:
            Coordinates               Weight
  0.000000  0.000000  0.000000      1.000000
  0.040873 -0.000000 -0.000000      2.000000
  0.000000  0.040873 -0.000000      4.000000
  0.040873  0.040873 -0.000000      8.000000
  0.000000  0.040873  0.040873      4.000000
  0.040873  0.040873  0.040873      8.000000
 


--------------------------------------------------------------------------------------------------------




 Dimension of arrays:
   k-Points           NKPTS =      6   number of bands    NBANDS=     68
   number of dos      NEDOS =    301   number of ions     NIONS =     32
   non local maximal  LDIM  =      4   non local SUM 2l+1 LMDIM =      8
   total plane-waves  NPLWV = 343000
   max r-space proj   IRMAX =      1   max aug-charges    IRDMAX= 197067
   dimension x,y,z NGX =    70 NGY =   70 NGZ =   70
   dimension x,y,z NGXF=   140 NGYF=  140 NGZF=  140
   support grid    NGXF=   280 NGYF=  280 NGZF=  280
   ions per type =              32
 NGX,Y,Z   is equivalent  to a cutoff of  14.27, 14.27, 14.27 a.u.
 NGXF,Y,Z  is equivalent  to a cutoff of  28.54, 28.54, 28.54 a.u.


 I would recommend the setting:
   dimension x,y,z NGX =    65 NGY =   65 NGZ =   65
 SYSTEM =  al100                                   
 POSCAR =  al100                                   

 Startparameter for this run:
   NWRITE =      2    write-flag & timer
   PREC   = accura    medium, high low
   ISTART =      1    job   : 0-new  1-cont  2-samecut
   ICHARG =      0    charge: 1-file 2-atom 10-const
   ISPIN  =      1    spin polarized calculation?
   LNONCOLLINEAR =      F non collinear calculations
   LSORBIT =      F    spin-orbit coupling
   INIWAV =      1    electr: 0-lowe 1-rand  2-diag
   LASPH  =      F    aspherical Exc in radial PAW
   METAGGA=      F    non-selfconsistent MetaGGA calc.

 Electronic Relaxation 1
   ENCUT  =  600.0 eV  44.10 Ry    6.64 a.u.  16.29 16.29 16.29*2*pi/ulx,y,z
   ENINI  =  600.0     initial cutoff
   ENAUG  =  291.1 eV  augmentation charge cutoff
   NELM   =     60;   NELMIN=  2; NELMDL=  0     # of ELM steps 
   EDIFF  = 0.1E-04   stopping-criterion for ELM
   LREAL  =      F    real-space projection
   LCOMPAT=      F    compatible to vasp.4.4
   LREAL_COMPAT= F    compatible to vasp.4.5.1-3
   GGA_COMPAT  = T    GGA compatible to vasp.4.4-vasp.4.6
   LMAXPAW     = -100 max onsite density
   LMAXMIX     =    2 max onsite mixed and CHGCAR
   VOSKOWN=      1    Vosko Wilk Nusair interpolation
   ROPT   =    0.00000
 Ionic relaxation
   EDIFFG = -.2E-01   stopping-criterion for IOM
   NSW    =      0    number of steps for IOM
   NBLOCK =      1;   KBLOCK =      1    inner block; outer block 
   IBRION =     -1    ionic relax: 0-MD 1-quasi-New 2-CG
   NFREE  =      0    steps in history (QN), initial steepest desc. (CG)
   ISIF   =      2    stress and relaxation
   IWAVPR =     10    prediction:  0-non 1-charg 2-wave 3-comb
   ISYM   =      2    0-nonsym 1-usesym 2-fastsym
   LCORR  =      T    Harris-Foulkes like correction to forces

   POTIM  =   0.50    time-step for ionic-motion
   TEIN   =    0.0    initial temperature
   TEBEG  =    0.0;   TEEND  =   0.0 temperature during run
   SMASS  =  -3.00    Nose mass-parameter (am)
   estimated Nose-frequenzy (Omega)   =  0.10E-29 period in steps =****** mass=  -0.152E-26a.u.
   NPACO  =    256;   APACO  = 16.0  distance and # of slots for P.C.
   PSTRESS=    0.0 pullay stress

  Mass of Ions in am
   POMASS =  26.98
  Ionic Valenz
   ZVAL   =   3.00
  Atomic Wigner-Seitz radii
   RWIGS  =   1.18
   NELECT =      96.0000    total number of electrons
   NUPDOWN=      -1.0000    fix difference up-down

 DOS related values:
   EMIN   =  10.00;   EMAX   =-10.00  energy-range for DOS
   ISMEAR =     1;   SIGMA  =   0.20  broadening in eV -4-tet -1-fermi 0-gaus

 Electronic relaxation 2 (details)
   IALGO  =     38    algorithm
   LDIAG  =      T    sub-space diagonalisation
   IMIX   =      4    mixing-type and parameters
     AMIX     =   0.40;   BMIX     =  1.00
     AMIX_MAG =   1.60;   BMIX_MAG =  1.00
     AMIN     =   0.10
     WC   =   100.;   INIMIX=   1;  MIXPRE=   1

 Intra band minimization:
   WEIMIN = 0.0000     energy-eigenvalue tresh-hold
   EBREAK =  0.38E-07  absolut break condition
   DEPER  =   0.30     relativ break condition  

   TIME   =   0.10     timestep for ELM

  volume/ion in A,a.u.               =      16.95       114.39
  Fermi-wavevector in a.u.,eV,Ry     =   0.919155 11.494833  0.844846

 Second variation
   LSECVAR=     F    do a second variation
 
 Write flags
   LWAVE  =      F    write WAVECAR
   LCHARG =      F    write CHGCAR
   LVTOT  =      F    write LOCPOT, local potential
   LELF   =      F    write electronic localiz. function (ELF)
   LORBIT =      0    0 simple, 1 ext, 2 COOP (PROOUT)


 Dipole corrections
   IDIPOL =      0    1-x, 2-y, 3-z
   LDIPOL =      F    correct potential



--------------------------------------------------------------------------------------------------------


 Static calculation
 charge density will be updated during run
 non-spin polarized calculation
 Variant of blocked Davidson
 Davidson routine will perform the subspace rotation
 performe sub-space diagonalisation
    after iterative eigenvector-optimisation
 modified Broyden-mixing scheme, WC =      100.0
 initial mixing is a Kerker type mixing with AMIX =  0.4000 and BMIX =      1.0000
 Hartree-type preconditioning will be used
 using additional bands           20
 reciprocal scheme for non local part
 use partial core corrections
 calculate Harris-corrections to forces 
   (improved forces if not selfconsistent)
 use gradient corrections 
 use of overlap-Matrix (Vanderbilt PP)
 Methfessel and Paxton  Order N= 1 SIGMA  =   0.20


--------------------------------------------------------------------------------------------------------


  energy-cutoff  :      600.00
  volume of cell :      542.41
      direct lattice vectors                 reciprocal lattice vectors
     8.155358140  0.000000000  0.000000000     0.122618772 -0.000000002 -0.000000002
     0.000000150  8.155358140  0.000000000     0.000000000  0.122618772 -0.000000002
     0.000000150  0.000000150  8.155358140     0.000000000  0.000000000  0.122618772

  length of vectors
     8.155358140  8.155358140  8.155358140     0.122618772  0.122618772  0.122618772


 
 old parameters found on file WAVECAR:
  energy-cutoff  :      600.00
  volume of cell :      542.41
      direct lattice vectors                 reciprocal lattice vectors
     8.155358140  0.000000000  0.000000000     0.122618772 -0.000000002 -0.000000002
     0.000000150  8.155358140  0.000000000     0.000000000  0.122618772 -0.000000002
     0.000000150  0.000000150  8.155358140     0.000000000  0.000000000  0.122618772

  length of vectors

 
 k-points in units of 2pi/SCALE and weight: Automatic mesh                          
   0.00000000  0.00000000  0.00000000       0.037
   0.04087292 -0.00000000 -0.00000000       0.074
   0.00000000  0.04087292 -0.00000000       0.148
   0.04087292  0.04087292 -0.00000000       0.296
   0.00000000  0.04087292  0.04087292       0.148
   0.04087292  0.04087292  0.04087292       0.296
 
 k-points in reciprocal lattice and weights: Automatic mesh                          
   0.00000000  0.00000000  0.00000000       0.037
   0.33333333 -0.00000000 -0.00000000       0.074
   0.00000000  0.33333333 -0.00000000       0.148
   0.33333333  0.33333333 -0.00000000       0.296
   0.00000000  0.33333333  0.33333333       0.148
   0.33333333  0.33333333  0.33333333       0.296
 
 position of ions in fractional coordinates (direct lattice) 
   0.75000000  0.75000000  0.50000000
   0.75000000  0.75000000  0.00000000
   0.75000000  0.00000000  0.25000000
   0.75000000  0.25000000  0.50000000
   0.00000000  0.75000000  0.25000000
   0.00000000  0.00000000  0.50000000
   0.25000000  0.75000000  0.50000000
   0.75000000  0.00000000  0.75000000
   0.75000000  0.25000000  0.00000000
   0.75000000  0.50000000  0.25000000
   0.00000000  0.75000000  0.75000000
   0.00245200  0.00000000  0.00000000
   0.00000000  0.25000000  0.25000000
   0.00000000  0.50000000  0.50000000
   0.25000000  0.75000000  0.00000000
   0.25000000  0.00000000  0.25000000
   0.25000000  0.25000000  0.50000000
   0.50000000  0.75000000  0.25000000
   0.50000000  0.00000000  0.50000000
   0.75000000  0.50000000  0.75000000
   0.00000000  0.25000000  0.75000000
   0.00000000  0.50000000  0.00000000
   0.25000000  0.00000000  0.75000000
   0.25000000  0.25000000  0.00000000
   0.25000000  0.50000000  0.25000000
   0.50000000  0.75000000  0.75000000
   0.50000000  0.00000000  0.00000000
   0.50000000  0.25000000  0.25000000
   0.50000000  0.50000000  0.50000000
   0.25000000  0.50000000  0.75000000
   0.50000000  0.25000000  0.75000000
   0.50000000  0.50000000  0.00000000
 
 position of ions in cartesian coordinates  (Angst):
   6.11651879  6.11651868  4.07767907
   6.11651872  6.11651861  0.00000000
   6.11651864  0.00000004  2.03883954
   6.11651872  2.03883961  4.07767907
   0.00000015  6.11651864  2.03883954
   0.00000007  0.00000007  4.07767907
   2.03883972  6.11651868  4.07767907
   6.11651872  0.00000011  6.11651861
   6.11651864  2.03883954  0.00000000
   6.11651872  4.07767911  2.03883954
   0.00000022  6.11651872  6.11651861
   0.01999694  0.00000000  0.00000000
   0.00000007  2.03883957  2.03883954
   0.00000015  4.07767915  4.07767907
   2.03883965  6.11651861  0.00000000
   2.03883957  0.00000004  2.03883954
   2.03883965  2.03883961  4.07767907
   4.07767922  6.11651864  2.03883954
   4.07767915  0.00000007  4.07767907
   6.11651879  4.07767918  6.11651861
   0.00000015  2.03883965  6.11651861
   0.00000007  4.07767907  0.00000000
   2.03883965  0.00000011  6.11651861
   2.03883957  2.03883954  0.00000000
   2.03883965  4.07767911  2.03883954
   4.07767930  6.11651872  6.11651861
   4.07767907  0.00000000  0.00000000
   4.07767915  2.03883957  2.03883954
   4.07767922  4.07767915  4.07767907
   2.03883972  4.07767918  6.11651861
   4.07767922  2.03883965  6.11651861
   4.07767915  4.07767907  0.00000000
 


--------------------------------------------------------------------------------------------------------


 k-point  1 :  0.00000.00000.0000  plane waves:  18037
 k-point  2 :  0.3333-.0000-.0000  plane waves:  18100
 k-point  3 :  0.00000.3333-.0000  plane waves:  18100
 k-point  4 :  0.33330.3333-.0000  plane waves:  18103
 k-point  5 :  0.00000.33330.3333  plane waves:  18103
 k-point  6 :  0.33330.33330.3333  plane waves:  18088

 maximum and minimum number of plane-waves per node :  18103 18037

 maximum number of plane-waves:  18103
 maximal index in each direction: 
   IXMAX= 16   IYMAX= 16   IZMAX= 16
   IXMIN=-16   IYMIN=-16   IZMIN=-16

 NGX is ok and might be reduce to  66
 NGY is ok and might be reduce to  66
 NGZ is ok and might be reduce to  66

 parallel 3dFFT wavefunction:
    minimum data exchange during FFTs selected (reduces bandwidth)
 parallel 3dFFT charge:
    minimum data exchange during FFTs selected (reduces bandwidth)

 For storing wavefunctions  118.08 MBYTES are necessary
 For predicting wavefunctions   46.69 MBYTES are necessary
Broyden mixing: mesh for mixing (old mesh)
   NGX = 33   NGY = 33   NGZ = 33
  (NGX  =140   NGY  =140   NGZ  =140)
 gives a total of  35937 points
 charge density for first step will be calculated from the start-wavefunctions


--------------------------------------------------------------------------------------------------------


 Maximum index for augmentation-charges        47762 (set IRDMAX)


--------------------------------------------------------------------------------------------------------


 initial charge from wavefunction
 First call to EWALD:  gamma=   0.217
 Maximum number of real-space cells 3x 3x 3
 Maximum number of reciprocal cells 3x 3x 3

    FEWALD:  VPU time    0.01: CPU time    0.01


----------------------------------------- Iteration    1(   1)  ---------------------------------------


    POTLOK:  VPU time    0.67: CPU time    0.67
    SETDIJ:  VPU time    0.53: CPU time    0.54
    EDDAV :  VPU time   15.95: CPU time   16.07
    DOS   :  VPU time   -0.00: CPU time   -0.00
    CHARGE:  VPU time    1.86: CPU time    1.87
    MIXING:  VPU time    0.01: CPU time    0.01
    ------------------------------------------
      LOOP:  VPU time   19.03: CPU time   19.16

 eigenvalue-minimisations  :  1084
 total energy-change (2. order) :-0.1202958E+03  (-0.6308462E+01)
 number of electron   96.0000000 magnetization 
 augmentation part    -1.2736547 magnetization 

 Broyden mixing:
  rms(total) = 0.37955E-01    rms(broyden)= 0.32007E-01
  rms(prec ) = 0.97963E-01
  weight for this iteration     100.00
  WARNING: grid for Broyden might be to small

 Free energy of the ion-electron system (eV)
  ---------------------------------------------------
  alpha Z        PSCENC =        -6.34098228
  Ewald energy   TEWEN  =     -2331.47463177
  -1/2 Hartree   DENC   =        -3.32640467
  -V(xc)+E(xc)   XCENC  =      -836.59846052
  PAW double counting   =      1140.14610321     -117.92315265
  entropy T*S    EENTRO =        -0.03555734
  eigenvalues    EBANDS =       322.02373734
  atomic energy  EATOM  =      1713.23359074
  ---------------------------------------------------
  free energy    TOTEN  =      -120.29575795 eV

  energy without entropy =     -120.26020061  energy(sigma->0) =     -120.28390550


--------------------------------------------------------------------------------------------------------




----------------------------------------- Iteration    1(   2)  ---------------------------------------


    POTLOK:  VPU time    0.65: CPU time    0.65
    SETDIJ:  VPU time    0.55: CPU time    0.56
    EDDAV :  VPU time   14.56: CPU time   14.61
    DOS   :  VPU time    0.00: CPU time   -0.00
    CHARGE:  VPU time    1.96: CPU time    1.96
    MIXING:  VPU time    0.01: CPU time    0.01
    ------------------------------------------
      LOOP:  VPU time   17.74: CPU time   17.80

 eigenvalue-minimisations  :   908
 total energy-change (2. order) :-0.1745601E+00  (-0.1863228E+00)
 number of electron   96.0000000 magnetization 
 augmentation part    -1.2806853 magnetization 

 Broyden mixing:
  rms(total) = 0.12846E-01    rms(broyden)= 0.12846E-01
  rms(prec ) = 0.24627E-01
  weight for this iteration     100.00

 eigenvalues of (default mixing * dielectric matrix)
  average eigenvalue GAMMA=   1.2865
  1.2865

 Free energy of the ion-electron system (eV)
  ---------------------------------------------------
  alpha Z        PSCENC =        -6.34098228
  Ewald energy   TEWEN  =     -2331.47463177
  -1/2 Hartree   DENC   =        -3.28074942
  -V(xc)+E(xc)   XCENC  =      -837.89380802
  PAW double counting   =      1139.80446976     -117.55411294
  entropy T*S    EENTRO =        -0.03574668
  eigenvalues    EBANDS =       323.07165257
  atomic energy  EATOM  =      1713.23359074
  ---------------------------------------------------
  free energy    TOTEN  =      -120.47031805 eV

  energy without entropy =     -120.43457137  energy(sigma->0) =     -120.45840249


--------------------------------------------------------------------------------------------------------




----------------------------------------- Iteration    1(   3)  ---------------------------------------


    POTLOK:  VPU time    0.71: CPU time    0.71
    SETDIJ:  VPU time    0.56: CPU time    0.57
    EDDAV :  VPU time   15.40: CPU time   15.45
    DOS   :  VPU time    0.00: CPU time   -0.00
    CHARGE:  VPU time    1.94: CPU time    1.95
    MIXING:  VPU time    0.02: CPU time    0.02
    ------------------------------------------
      LOOP:  VPU time   18.64: CPU time   18.70

 eigenvalue-minimisations  :   976
 total energy-change (2. order) :-0.1616160E-02  (-0.2545634E-02)
 number of electron   96.0000000 magnetization 
 augmentation part    -1.2811862 magnetization 

 Broyden mixing:
  rms(total) = 0.66108E-02    rms(broyden)= 0.66108E-02
  rms(prec ) = 0.10557E-01
  weight for this iteration     100.00

 eigenvalues of (default mixing * dielectric matrix)
  average eigenvalue GAMMA=   1.3824
  0.9995  1.7654

 Free energy of the ion-electron system (eV)
  ---------------------------------------------------
  alpha Z        PSCENC =        -6.34098228
  Ewald energy   TEWEN  =     -2331.47463177
  -1/2 Hartree   DENC   =        -3.25397289
  -V(xc)+E(xc)   XCENC  =      -837.90975231
  PAW double counting   =      1139.67015235     -117.40984916
  entropy T*S    EENTRO =        -0.03568630
  eigenvalues    EBANDS =       323.04919742
  atomic energy  EATOM  =      1713.23359074
  ---------------------------------------------------
  free energy    TOTEN  =      -120.47193421 eV

  energy without entropy =     -120.43624790  energy(sigma->0) =     -120.46003877


--------------------------------------------------------------------------------------------------------




----------------------------------------- Iteration    1(   4)  ---------------------------------------


    POTLOK:  VPU time    0.69: CPU time    0.69
    SETDIJ:  VPU time    0.56: CPU time    0.56
    EDDAV :  VPU time   14.73: CPU time   14.78
    DOS   :  VPU time    0.00: CPU time   -0.00
    CHARGE:  VPU time    1.48: CPU time    1.48
    MIXING:  VPU time    0.01: CPU time    0.01
    ------------------------------------------
      LOOP:  VPU time   17.48: CPU time   17.53

 eigenvalue-minimisations  :   948
 total energy-change (2. order) : 0.5357777E-04  (-0.7479589E-04)
 number of electron   96.0000000 magnetization 
 augmentation part    -1.2812209 magnetization 

 Broyden mixing:
  rms(total) = 0.29935E-02    rms(broyden)= 0.29935E-02
  rms(prec ) = 0.44296E-02
  weight for this iteration     100.00

 eigenvalues of (default mixing * dielectric matrix)
  average eigenvalue GAMMA=   1.4683
  2.3470  1.0289  1.0289

 Free energy of the ion-electron system (eV)
  ---------------------------------------------------
  alpha Z        PSCENC =        -6.34098228
  Ewald energy   TEWEN  =     -2331.47463177
  -1/2 Hartree   DENC   =        -3.23332691
  -V(xc)+E(xc)   XCENC  =      -837.92310384
  PAW double counting   =      1139.57665407     -117.30943081
  entropy T*S    EENTRO =        -0.03566685
  eigenvalues    EBANDS =       323.03501702
  atomic energy  EATOM  =      1713.23359074
  ---------------------------------------------------
  free energy    TOTEN  =      -120.47188063 eV

  energy without entropy =     -120.43621378  energy(sigma->0) =     -120.45999168


--------------------------------------------------------------------------------------------------------




----------------------------------------- Iteration    1(   5)  ---------------------------------------


    POTLOK:  VPU time    0.57: CPU time    0.57
    SETDIJ:  VPU time    0.44: CPU time    0.44
    EDDAV :  VPU time   15.03: CPU time   15.08
    DOS   :  VPU time    0.00: CPU time   -0.00
    ------------------------------------------
      LOOP:  VPU time   16.04: CPU time   16.10

 eigenvalue-minimisations  :   956
 total energy-change (2. order) : 0.8252220E-05  (-0.4468717E-05)
 number of electron   96.0000000 magnetization 
 augmentation part    -1.2812209 magnetization 

 Free energy of the ion-electron system (eV)
  ---------------------------------------------------
  alpha Z        PSCENC =        -6.34098228
  Ewald energy   TEWEN  =     -2331.47463177
  -1/2 Hartree   DENC   =        -3.21907072
  -V(xc)+E(xc)   XCENC  =      -837.93253333
  PAW double counting   =      1139.52100081     -117.24950415
  entropy T*S    EENTRO =        -0.03567582
  eigenvalues    EBANDS =       323.02593415
  atomic energy  EATOM  =      1713.23359074
  ---------------------------------------------------
  free energy    TOTEN  =      -120.47187238 eV

  energy without entropy =     -120.43619656  energy(sigma->0) =     -120.45998044


--------------------------------------------------------------------------------------------------------




 average (electrostatic) potential at core
  the test charge radii are     1.0406
  (the norm of the test charge is              1.0000)
       1 -72.9312       2 -72.9333       3 -72.9333       4 -72.9312       5 -72.9315
       6 -72.9315       7 -72.9318       8 -72.9333       9 -72.9333      10 -72.9312
      11 -72.9315      12 -72.9312      13 -72.9315      14 -72.9314      15 -72.9295
      16 -72.9295      17 -72.9318      18 -72.9315      19 -72.9314      20 -72.9312
      21 -72.9315      22 -72.9315      23 -72.9295      24 -72.9295      25 -72.9318
      26 -72.9315      27 -72.9313      28 -72.9315      29 -72.9315      30 -72.9318
      31 -72.9315      32 -72.9314
 
 
 
 E-fermi :   7.5513     XC(G=0): -10.0992     alpha+bet :-14.4811
   add alpha+bet to get absolut eigen values

 k-point   1 :       0.0000    0.0000    0.0000
  band No.  band energies     occupation 
      1      -3.2274      2.00000
      2      -1.0254      2.00000
      3      -1.0182      2.00000
      4      -1.0182      2.00000
      5      -1.0182      2.00000
      6      -1.0182      2.00000
      7      -1.0112      2.00000
      8       1.1459      2.00000
      9       1.1547      2.00000
     10       1.1547      2.00000
     11       1.1578      2.00000
     12       1.1581      2.00000
     13       1.1582      2.00000
     14       1.1582      2.00000
     15       1.1582      2.00000
     16       1.1585      2.00000
     17       1.1616      2.00000
     18       1.1616      2.00000
     19       1.1704      2.00000
     20       3.2359      2.00000
     21       3.2361      2.00000
     22       3.2361      2.00000
     23       3.2361      2.00000
     24       3.3785      2.00000
     25       3.3785      2.00000
     26       3.3785      2.00000
     27       3.3788      2.00000
     28       4.8636      2.00000
     29       4.8636      2.00000
     30       4.8637      2.00000
     31       6.1248      2.00000
     32       6.1249      2.00000
     33       6.1249      2.00000
     34       6.9018      2.00004
     35       6.9018      2.00004
     36       6.9104      2.00006
     37       6.9104      2.00006
     38       6.9104      2.00006
     39       6.9104      2.00006
     40       6.9104      2.00006
     41       6.9105      2.00006
     42       6.9105      2.00006
     43       6.9106      2.00006
     44       6.9190      2.00007
     45       6.9190      2.00007
     46       7.9304     -0.02209
     47       7.9385     -0.01957
     48       7.9385     -0.01956
     49       7.9385     -0.01956
     50       7.9385     -0.01956
     51       7.9464     -0.01731
     52       8.6801     -0.00000
     53       8.6819     -0.00000
     54       8.6819     -0.00000
     55       8.6819     -0.00000
     56       8.6820     -0.00000
     57       8.6837     -0.00000
     58       8.9544     -0.00000
     59       8.9548     -0.00000
     60       8.9595     -0.00000
     61       8.9621     -0.00000
     62       8.9623     -0.00000
     63       8.9623     -0.00000
     64       8.9625     -0.00000
     65       8.9626     -0.00000
     66       8.9666     -0.00000
     67       8.9703     -0.00000
     68       8.9704     -0.00000

 k-point   2 :       0.3333   -0.0000   -0.0000
  band No.  band energies     occupation 
      1      -2.9803      2.00000
      2      -2.2413      2.00000
      3      -0.7749      2.00000
      4      -0.7748      2.00000
      5      -0.7748      2.00000
      6      -0.7748      2.00000
      7      -0.0470      2.00000
      8      -0.0469      2.00000
      9      -0.0469      2.00000
     10      -0.0469      2.00000
     11       0.6754      2.00000
     12       1.3981      2.00000
     13       1.3981      2.00000
     14       1.3981      2.00000
     15       1.3981      2.00000
     16       2.1156      2.00000
     17       2.1156      2.00000
     18       2.1156      2.00000
     19       2.1156      2.00000
     20       2.8091      2.00000
     21       2.8265      2.00000
     22       2.8265      2.00000
     23       2.8265      2.00000
     24       2.8268      2.00000
     25       4.9233      2.00000
     26       4.9233      2.00000
     27       4.9235      2.00000
     28       4.9235      2.00000
     29       4.9579      2.00000
     30       4.9580      2.00000
     31       4.9580      2.00000
     32       4.9580      2.00000
     33       5.0907      2.00000
     34       5.0907      2.00000
     35       5.7724      2.00000
     36       5.7724      2.00000
     37       6.3649      2.00000
     38       6.3649      2.00000
     39       7.0306      2.00144
     40       7.0308      2.00144
     41       7.0308      2.00144
     42       7.0309      2.00145
     43       7.0701      2.00349
     44       7.0705      2.00352
     45       7.1382      2.01286
     46       7.1382      2.01286
     47       7.1383      2.01289
     48       7.1383      2.01289
     49       7.8219     -0.06670
     50       7.8219     -0.06670
     51       7.8219     -0.06670
     52       7.8219     -0.06670
     53       8.5066     -0.00000
     54       8.5066     -0.00000
     55       8.5164     -0.00000
     56       8.5164     -0.00000
     57       8.5166     -0.00000
     58       8.5166     -0.00000
     59       8.6093     -0.00000
     60       9.2376     -0.00000
     61       9.2376     -0.00000
     62       9.2376     -0.00000
     63       9.2377     -0.00000
     64       9.9727     -0.00000
     65       9.9728     -0.00000
     66      10.5593     -0.00000
     67      10.5608     -0.00000
     68      10.5626     -0.00000

 k-point   3 :       0.0000    0.3333   -0.0000
  band No.  band energies     occupation 
      1      -2.9803      2.00000
      2      -2.2413      2.00000
      3      -0.7804      2.00000
      4      -0.7748      2.00000
      5      -0.7748      2.00000
      6      -0.7693      2.00000
      7      -0.0525      2.00000
      8      -0.0469      2.00000
      9      -0.0469      2.00000
     10      -0.0414      2.00000
     11       0.6753      2.00000
     12       1.3938      2.00000
     13       1.3958      2.00000
     14       1.4004      2.00000
     15       1.4025      2.00000
     16       2.1113      2.00000
     17       2.1133      2.00000
     18       2.1179      2.00000
     19       2.1200      2.00000
     20       2.8092      2.00000
     21       2.8209      2.00000
     22       2.8265      2.00000
     23       2.8265      2.00000
     24       2.8321      2.00000
     25       4.9176      2.00000
     26       4.9235      2.00000
     27       4.9235      2.00000
     28       4.9292      2.00000
     29       4.9535      2.00000
     30       4.9556      2.00000
     31       4.9603      2.00000
     32       4.9624      2.00000
     33       5.0907      2.00000
     34       5.0908      2.00000
     35       5.7723      2.00000
     36       5.7725      2.00000
     37       6.3648      2.00000
     38       6.3650      2.00000
     39       7.0261      2.00130
     40       7.0286      2.00137
     41       7.0333      2.00153
     42       7.0354      2.00161
     43       7.0701      2.00349
     44       7.0702      2.00350
     45       7.1329      2.01174
     46       7.1382      2.01286
     47       7.1385      2.01292
     48       7.1435      2.01406
     49       7.8166     -0.06816
     50       7.8219     -0.06670
     51       7.8220     -0.06666
     52       7.8273     -0.06497
     53       8.5059     -0.00000
     54       8.5068     -0.00000
     55       8.5123     -0.00000
     56       8.5164     -0.00000
     57       8.5166     -0.00000
     58       8.5209     -0.00000
     59       8.6094     -0.00000
     60       9.2333     -0.00000
     61       9.2376     -0.00000
     62       9.2393     -0.00000
     63       9.2420     -0.00000
     64       9.9727     -0.00000
     65       9.9902     -0.00000
     66      10.5624     -0.00000
     67      10.5629     -0.00000
     68      10.5883     -0.00000

 k-point   4 :       0.3333    0.3333   -0.0000
  band No.  band energies     occupation 
      1      -2.7335      2.00000
      2      -1.9981      2.00000
      3      -1.9937      2.00000
      4      -1.2619      2.00000
      5      -0.5318      2.00000
      6      -0.5318      2.00000
      7       0.1917      2.00000
      8       0.1936      2.00000
      9       0.1962      2.00000
     10       0.1981      2.00000
     11       0.9127      2.00000
     12       0.9167      2.00000
     13       0.9182      2.00000
     14       0.9208      2.00000
     15       1.6344      2.00000
     16       1.6364      2.00000
     17       3.0444      2.00000
     18       3.0464      2.00000
     19       3.0605      2.00000
     20       3.0620      2.00000
     21       3.0647      2.00000
     22       3.0668      2.00000
     23       3.6943      2.00000
     24       3.6943      2.00000
     25       3.7509      2.00000
     26       3.7554      2.00000
     27       3.8612      2.00000
     28       3.8613      2.00000
     29       4.4741      2.00000
     30       5.0607      2.00000
     31       5.0607      2.00000
     32       5.2669      2.00000
     33       5.2671      2.00000
     34       5.3179      2.00000
     35       5.8662      2.00000
     36       5.8681      2.00000
     37       5.8707      2.00000
     38       5.8728      2.00000
     39       5.9973      2.00000
     40       6.0023      2.00000
     41       6.5122      2.00000
     42       6.5157      2.00000
     43       6.5896      2.00000
     44       6.5901      2.00000
     45       6.5985      2.00000
     46       6.6825      2.00000
     47       7.3896      1.98437
     48       7.3922      1.97788
     49       8.0718     -0.00145
     50       8.6397     -0.00000
     51       8.6426     -0.00000
     52       8.6442     -0.00000
     53       8.6444     -0.00000
     54       8.6468     -0.00000
     55       8.7325     -0.00000
     56       8.7376     -0.00000
     57       8.8343     -0.00000
     58       8.8366     -0.00000
     59       9.4177     -0.00000
     60       9.4214     -0.00000
     61       9.4371     -0.00000
     62       9.4416     -0.00000
     63      10.2788     -0.00000
     64      10.2802     -0.00000
     65      10.7088     -0.00000
     66      10.7088     -0.00000
     67      10.7893     -0.00000
     68      10.7933     -0.00000

 k-point   5 :       0.0000    0.3333    0.3333
  band No.  band energies     occupation 
      1      -2.7335      2.00000
      2      -1.9959      2.00000
      3      -1.9959      2.00000
      4      -1.2620      2.00000
      5      -0.5351      2.00000
      6      -0.5285      2.00000
      7       0.1896      2.00000
      8       0.1936      2.00000
      9       0.1962      2.00000
     10       0.2002      2.00000
     11       0.9140      2.00000
     12       0.9159      2.00000
     13       0.9166      2.00000
     14       0.9219      2.00000
     15       1.6354      2.00000
     16       1.6354      2.00000
     17       3.0456      2.00000
     18       3.0456      2.00000
     19       3.0581      2.00000
     20       3.0621      2.00000
     21       3.0647      2.00000
     22       3.0687      2.00000
     23       3.6942      2.00000
     24       3.6943      2.00000
     25       3.7531      2.00000
     26       3.7531      2.00000
     27       3.8612      2.00000
     28       3.8613      2.00000
     29       4.4740      2.00000
     30       5.0606      2.00000
     31       5.0607      2.00000
     32       5.2671      2.00000
     33       5.2671      2.00000
     34       5.3179      2.00000
     35       5.8640      2.00000
     36       5.8681      2.00000
     37       5.8709      2.00000
     38       5.8750      2.00000
     39       5.9998      2.00000
     40       6.0000      2.00000
     41       6.5139      2.00000
     42       6.5140      2.00000
     43       6.5865      2.00000
     44       6.5933      2.00000
     45       6.5983      2.00000
     46       6.6826      2.00000
     47       7.3908      1.98137
     48       7.3909      1.98128
     49       8.0717     -0.00145
     50       8.6398     -0.00000
     51       8.6403     -0.00000
     52       8.6418     -0.00000
     53       8.6470     -0.00000
     54       8.6489     -0.00000
     55       8.7349     -0.00000
     56       8.7350     -0.00000
     57       8.8355     -0.00000
     58       8.8356     -0.00000
     59       9.4187     -0.00000
     60       9.4191     -0.00000
     61       9.4399     -0.00000
     62       9.4403     -0.00000
     63      10.2794     -0.00000
     64      10.2795     -0.00000
     65      10.7086     -0.00000
     66      10.7089     -0.00000
     67      10.7909     -0.00000
     68      10.7914     -0.00000

 k-point   6 :       0.3333    0.3333    0.3333
  band No.  band energies     occupation 
      1      -2.4873      2.00000
      2      -1.7540      2.00000
      3      -1.7508      2.00000
      4      -1.7477      2.00000
      5      -1.0213      2.00000
      6      -1.0181      2.00000
      7      -1.0150      2.00000
      8      -0.2890      2.00000
      9       1.1529      2.00000
     10       1.1561      2.00000
     11       1.1593      2.00000
     12       1.8691      2.00000
     13       1.8724      2.00000
     14       1.8745      2.00000
     15       1.8745      2.00000
     16       1.8766      2.00000
     17       1.8799      2.00000
     18       2.5878      2.00000
     19       2.5892      2.00000
     20       2.5906      2.00000
     21       3.2805      2.00000
     22       3.2819      2.00000
     23       3.2833      2.00000
     24       3.9822      2.00000
     25       3.9854      2.00000
     26       3.9877      2.00000
     27       3.9877      2.00000
     28       3.9899      2.00000
     29       3.9931      2.00000
     30       4.6032      2.00000
     31       4.6064      2.00000
     32       4.6095      2.00000
     33       4.8029      2.00000
     34       4.8062      2.00000
     35       4.8095      2.00000
     36       5.4222      2.00000
     37       5.4236      2.00000
     38       5.4252      2.00000
     39       6.7881      2.00000
     40       6.7890      2.00000
     41       6.7916      2.00000
     42       6.7916      2.00000
     43       6.7941      2.00000
     44       6.7949      2.00000
     45       7.4861      1.52078
     46       7.4872      1.51322
     47       7.4896      1.49600
     48       7.4896      1.49600
     49       7.4920      1.47840
     50       7.4931      1.47052
     51       8.2089     -0.00003
     52       8.7628     -0.00000
     53       8.7652     -0.00000
     54       8.7677     -0.00000
     55       9.1669     -0.00000
     56       9.1675     -0.00000
     57       9.1680     -0.00000
     58       9.5282     -0.00000
     59       9.5316     -0.00000
     60       9.5351     -0.00000
     61       9.7769     -0.00000
     62       9.7772     -0.00000
     63       9.7798     -0.00000
     64       9.7799     -0.00000
     65       9.7824     -0.00000
     66       9.7828     -0.00000
     67      10.2446     -0.00000
     68      10.2475     -0.00000


--------------------------------------------------------------------------------------------------------


 soft charge-density along one line, spin component           1
         0         1         2         3         4         5         6         7         8         9
 total charge-density along one line
 
 pseudopotential strength for first ion, spin component:           1
  8.453  -0.006   0.000   0.000  -0.000   0.000   0.000  -0.000
 -0.006   0.000   0.000   0.000  -0.000  -0.000  -0.000   0.000
  0.000   0.000   1.987  -0.000   0.000  -0.026   0.000  -0.000
  0.000   0.000  -0.000   1.987  -0.000   0.000  -0.026   0.000
 -0.000  -0.000   0.000  -0.000   1.987  -0.000   0.000  -0.026
  0.000  -0.000  -0.026   0.000  -0.000  -0.012   0.000  -0.000
  0.000  -0.000   0.000  -0.026   0.000   0.000  -0.012   0.000
 -0.000   0.000  -0.000   0.000  -0.026  -0.000   0.000  -0.012
 total augmentation occupancy for first ion, spin component:           1
  1.356  -0.439  -0.000  -0.000   0.000   0.000  -0.000  -0.000
 -0.439   0.448  -0.000   0.000  -0.000   0.000  -0.000  -0.000
 -0.000  -0.000   0.701  -0.012  -0.009  -0.141   0.000   0.000
 -0.000   0.000  -0.012   0.709  -0.015   0.000  -0.140   0.001
  0.000  -0.000  -0.009  -0.015   0.705   0.000   0.001  -0.140
  0.000   0.000  -0.141   0.000   0.000   0.033   0.000   0.000
 -0.000  -0.000   0.000  -0.140   0.001   0.000   0.032  -0.000
 -0.000  -0.000   0.000   0.001  -0.140   0.000  -0.000   0.032


------------------------ aborting loop because EDIFF is reached ----------------------------------------




--------------------------------------------------------------------------------------------------------


    CHARGE:  VPU time    1.86: CPU time    1.87
    FORLOC:  VPU time    0.13: CPU time    0.13
    FORNL :  VPU time    5.86: CPU time    5.89
    STRESS:  VPU time   12.44: CPU time   12.48
    FORCOR:  VPU time    0.74: CPU time    0.75
    FORHAR:  VPU time    0.28: CPU time    0.28
    MIXING:  VPU time    0.01: CPU time    0.01


--------------------------------------------------------------------------------------------------------



  FREE ENERGIE OF THE ION-ELECTRON SYSTEM (eV)
  ---------------------------------------------------
  free  energy   TOTEN  =      -120.471872 eV

  energy  without entropy=     -120.436197  energy(sigma->0) =     -120.459980
 

  FORCE on cell =-STRESS in cart. coord.  units (eV/reduce length):
  Direction    X        Y        Z        XY       YZ       ZX
  --------------------------------------------------------------------------------------
  Alpha Z     -6.34     -6.34     -6.34
  Ewald     -777.17   -777.16   -777.16     -0.00     -0.00     -0.00
  Hartree      1.07      1.07      1.07      0.00      0.00      0.00
  E(xc)     -271.89   -271.89   -271.89      0.00      0.00      0.00
  Local        6.73      6.71      6.71      0.00      0.00      0.00
  n-local    604.64    606.92    602.37      0.80      0.60      0.39
  augment    -34.19    -34.19    -34.19      0.00      0.00      0.00
  Kinetic    471.51    460.51    482.51     -5.72     -8.06    -10.41
  -------------------------------------------------------------------------------------
  Total       -5.65     -5.65     -5.65     -0.00     -0.00     -0.00
  in kB      -16.68    -16.69    -16.69     -0.00     -0.00     -0.00
  external pressure =      -16.68 kB  Pullay stress =        0.00 kB


 VOLUME and BASIS-vectors are now :
 -----------------------------------------------------------------------------
  energy-cutoff  :      600.00
  volume of cell :      542.41
      direct lattice vectors                 reciprocal lattice vectors
     8.155358140  0.000000000  0.000000000     0.122618772 -0.000000002 -0.000000002
     0.000000150  8.155358140  0.000000000     0.000000000  0.122618772 -0.000000002
     0.000000150  0.000000150  8.155358140     0.000000000  0.000000000  0.122618772

  length of vectors
     8.155358140  8.155358140  8.155358140     0.122618772  0.122618772  0.122618772


 FORCES acting on ions
    electron-ion (+dipol)            ewald-force                    non-local-force                 convergence-correction
 -----------------------------------------------------------------------------------------------
   -.919E-03 -.161E-01 0.106E-08   0.276E-02 0.124E-01 -.129E-08   -.110E-02 0.117E-02 0.000E+00   0.692E-04 0.112E-02 -.406E-10
   -.891E-01 -.161E+00 0.199E-08   0.794E-01 0.149E+00 -.266E-10   0.236E-01 0.249E-01 0.000E+00   -.116E-02 -.121E-02 0.652E-10
   -.891E-01 0.247E-08 0.161E+00   0.794E-01 -.273E-08 -.149E+00   0.236E-01 -.458E-09 -.249E-01   -.116E-02 -.480E-11 0.121E-02
   -.919E-03 0.161E-01 -.717E-09   0.276E-02 -.124E-01 0.710E-09   -.110E-02 -.117E-02 0.271E-19   0.692E-04 -.112E-02 0.465E-10
   0.929E-01 -.123E-02 0.123E-02   -.978E-01 0.754E-03 -.754E-03   0.152E-02 0.156E-03 -.156E-03   -.319E-03 0.338E-03 -.338E-03
   0.569E-01 -.287E-09 -.318E-08   -.518E-01 0.140E-09 0.378E-08   -.390E-02 0.335E-19 0.271E-19   -.123E-02 -.715E-10 0.161E-09
   -.185E-03 0.151E-01 -.729E-09   0.227E-02 -.124E-01 0.741E-09   -.111E-02 -.111E-02 0.271E-19   -.114E-03 -.257E-03 0.338E-10
   -.891E-01 -.992E-09 -.161E+00   0.794E-01 0.272E-08 0.149E+00   0.236E-01 0.458E-09 0.249E-01   -.116E-02 0.429E-10 -.121E-02
   -.891E-01 0.161E+00 -.487E-09   0.794E-01 -.149E+00 0.217E-10   0.236E-01 -.249E-01 -.271E-19   -.116E-02 0.121E-02 -.271E-10
   -.919E-03 -.419E-09 0.161E-01   0.276E-02 0.482E-09 -.124E-01   -.110E-02 -.215E-10 -.117E-02   0.692E-04 0.259E-10 -.112E-02
   0.929E-01 -.123E-02 -.123E-02   -.978E-01 0.754E-03 0.754E-03   0.152E-02 0.156E-03 0.156E-03   -.319E-03 0.338E-03 0.338E-03
   0.737E+00 -.106E-07 -.175E-07   -.620E+00 0.109E-07 0.109E-07   -.205E+00 -.262E-19 0.000E+00   0.348E-02 -.216E-09 -.216E-09
   0.929E-01 0.123E-02 0.123E-02   -.978E-01 -.754E-03 -.754E-03   0.152E-02 -.156E-03 -.156E-03   -.319E-03 -.338E-03 -.338E-03
   0.188E-01 -.878E-09 -.879E-09   -.214E-01 0.100E-08 0.100E-08   0.836E-03 0.110E-18 0.000E+00   -.297E-03 0.101E-09 0.101E-09
   -.886E-01 0.164E+00 -.503E-09   0.784E-01 -.152E+00 0.242E-10   0.246E-01 -.265E-01 -.271E-19   -.112E-02 0.193E-02 -.411E-10
   -.886E-01 -.101E-08 -.164E+00   0.784E-01 0.277E-08 0.152E+00   0.246E-01 0.488E-09 0.265E-01   -.112E-02 0.425E-10 -.193E-02
   -.185E-03 -.151E-01 0.102E-08   0.227E-02 0.124E-01 -.127E-08   -.111E-02 0.111E-02 0.678E-20   -.114E-03 0.257E-03 -.222E-10
   -.630E-01 -.188E-03 0.188E-03   0.550E-01 -.226E-03 0.226E-03   0.404E-02 -.961E-04 0.961E-04   0.146E-02 0.453E-03 -.453E-03
   -.410E-01 0.247E-09 0.206E-08   0.407E-01 -.139E-09 -.239E-08   -.174E-02 -.731E-19 -.542E-19   0.180E-02 0.650E-10 -.183E-09
   -.919E-03 0.767E-09 -.161E-01   0.276E-02 -.106E-08 0.124E-01   -.110E-02 0.215E-10 0.117E-02   0.692E-04 -.200E-10 0.112E-02
   0.929E-01 0.123E-02 -.123E-02   -.978E-01 -.754E-03 0.754E-03   0.152E-02 -.156E-03 0.156E-03   -.319E-03 -.338E-03 0.338E-03
   0.569E-01 -.316E-08 -.290E-09   -.518E-01 0.378E-08 0.140E-09   -.390E-02 -.206E-19 0.000E+00   -.123E-02 0.161E-09 -.715E-10
   -.886E-01 0.250E-08 0.164E+00   0.784E-01 -.277E-08 -.152E+00   0.246E-01 -.488E-09 -.265E-01   -.112E-02 -.565E-11 0.193E-02
   -.886E-01 -.164E+00 0.201E-08   0.784E-01 0.152E+00 -.241E-10   0.246E-01 0.265E-01 0.136E-19   -.112E-02 -.193E-02 0.779E-10
   -.185E-03 0.745E-09 -.151E-01   0.227E-02 -.104E-08 0.124E-01   -.111E-02 0.203E-10 0.111E-02   -.114E-03 -.175E-10 0.257E-03
   -.630E-01 -.188E-03 -.188E-03   0.550E-01 -.226E-03 -.226E-03   0.404E-02 -.961E-04 -.961E-04   0.146E-02 0.453E-03 0.453E-03
   -.172E+00 0.117E-08 0.318E-08   0.164E+00 -.186E-09 -.186E-09   0.875E-02 0.133E-18 0.271E-19   0.384E-03 0.136E-09 0.136E-09
   -.630E-01 0.188E-03 0.188E-03   0.550E-01 0.226E-03 0.226E-03   0.404E-02 0.961E-04 0.961E-04   0.146E-02 -.453E-03 -.453E-03
   -.194E-01 0.870E-09 0.870E-09   0.200E-01 -.884E-09 -.884E-09   -.701E-03 0.149E-19 0.847E-21   0.969E-05 -.958E-10 -.958E-10
   -.185E-03 -.451E-09 0.151E-01   0.227E-02 0.513E-09 -.124E-01   -.111E-02 -.203E-10 -.111E-02   -.114E-03 0.291E-10 -.257E-03
   -.630E-01 0.188E-03 -.188E-03   0.550E-01 0.226E-03 -.226E-03   0.404E-02 0.961E-04 -.961E-04   0.146E-02 -.453E-03 0.453E-03
   -.410E-01 0.208E-08 0.244E-09   0.407E-01 -.239E-08 -.139E-09   -.174E-02 0.429E-20 0.000E+00   0.180E-02 -.183E-09 0.650E-10
 -----------------------------------------------------------------------------------------------
   0.508E-03 -.808E-12 -.485E-08   -.389E-15 -.113E-13 -.178E-13   -.631E-03 0.707E-17 -.623E-18   0.285E-04 -.915E-11 -.915E-11
 
 
 POSITION                                       TOTAL-FORCE (eV/Angst)
 -----------------------------------------------------------------------------------
      6.11652      6.11652      4.07768         0.000813     -0.001447      0.000000
      6.11652      6.11652      0.00000         0.012754      0.011697     -0.000000
      6.11652      0.00000      2.03884         0.012754     -0.000000     -0.011697
      6.11652      2.03884      4.07768         0.000813      0.001447      0.000000
      0.00000      6.11652      2.03884        -0.003695      0.000014     -0.000014
      0.00000      0.00000      4.07768        -0.000045     -0.000000      0.000000
      2.03884      6.11652      4.07768         0.000867      0.001293      0.000000
      6.11652      0.00000      6.11652         0.012754      0.000000      0.011697
      6.11652      2.03884      0.00000         0.012754     -0.011697      0.000000
      6.11652      4.07768      2.03884         0.000813      0.000000      0.001447
      0.00000      6.11652      6.11652        -0.003695      0.000014      0.000014
      0.02000      0.00000      0.00000        -0.084604     -0.000000      0.000000
      0.00000      2.03884      2.03884        -0.003695     -0.000014     -0.000014
      0.00000      4.07768      4.07768        -0.002036      0.000000     -0.000000
      2.03884      6.11652      0.00000         0.013349     -0.012570      0.000000
      2.03884      0.00000      2.03884         0.013349      0.000000      0.012570
      2.03884      2.03884      4.07768         0.000867     -0.001293      0.000000
      4.07768      6.11652      2.03884        -0.002530     -0.000057      0.000057
      4.07768      0.00000      4.07768        -0.000212     -0.000000     -0.000000
      6.11652      4.07768      6.11652         0.000813     -0.000000     -0.001447
      0.00000      2.03884      6.11652        -0.003695     -0.000014      0.000014
      0.00000      4.07768      0.00000        -0.000045     -0.000000      0.000000
      2.03884      0.00000      6.11652         0.013349     -0.000000     -0.012570
      2.03884      2.03884      0.00000         0.013349      0.012570      0.000000
      2.03884      4.07768      2.03884         0.000867     -0.000000     -0.001293
      4.07768      6.11652      6.11652        -0.002530     -0.000057     -0.000057
      4.07768      0.00000      0.00000         0.000954      0.000000     -0.000000
      4.07768      2.03884      2.03884        -0.002530      0.000057      0.000057
      4.07768      4.07768      4.07768        -0.000037     -0.000000      0.000000
      2.03884      4.07768      6.11652         0.000867      0.000000      0.001293
      4.07768      2.03884      6.11652        -0.002530      0.000057     -0.000057
      4.07768      4.07768      0.00000        -0.000212      0.000000      0.000000
 -----------------------------------------------------------------------------------
    total drift:                               -0.000095     -0.000000     -0.000000


--------------------------------------------------------------------------------------------------------



 mean value of Nose-termostat <S>:     1.000 mean value of <T> :     0.000
 mean temperature <T/S>/<1/S>  :     0.000

     LOOP+:  VPU time  110.34: CPU time  110.78

 ----------------------------------------------------------------------------- 
|                                                                             |
|           W    W    AA    RRRRR   N    N  II  N    N   GGGG   !!!           |
|           W    W   A  A   R    R  NN   N  II  NN   N  G    G  !!!           |
|           W    W  A    A  R    R  N N  N  II  N N  N  G       !!!           |
|           W WW W  AAAAAA  RRRRR   N  N N  II  N  N N  G  GGG   !            |
|           WW  WW  A    A  R   R   N   NN  II  N   NN  G    G                |
|           W    W  A    A  R    R  N    N  II  N    N   GGGG   !!!           |
|                                                                             |
|      The partial DOS and the PROCAR file are not evaluated for NPAR/=1      |
|      please rerun with NPAR=1                                               |
|                                                                             |
 ----------------------------------------------------------------------------- 

  
  
 General timing and accounting informations for this job:
 ========================================================
  
                  Total CPU time used (sec):      117.958
                            User time (sec):      109.700
                          System time (sec):        8.258
                         Elapsed time (sec):      118.415
  
                   Maximum memory used (kb):      456488.
                   Average memory used (kb):           0.
  
                          Minor page faults:        74234
                          Major page faults:            0
                 Voluntary context switches:          785
