       N       E                     dE             d eps       ncg     rms          rms(c)
DAV:   1     0.148956053776E+03    0.14896E+03   -0.36787E+04   544   0.128E+03
DAV:   2    -0.104859736397E+03   -0.25382E+03   -0.23450E+03   628   0.152E+02
DAV:   3    -0.120779305368E+03   -0.15920E+02   -0.14947E+02   688   0.296E+01
DAV:   4    -0.121161496946E+03   -0.38219E+00   -0.37788E+00   652   0.463E+00
DAV:   5    -0.121166444879E+03   -0.49479E-02   -0.49440E-02   664   0.619E-01    0.514E+00
DAV:   6    -0.120765050006E+03    0.40139E+00   -0.53117E-02   644   0.755E-01    0.319E+00
DAV:   7    -0.120472603040E+03    0.29245E+00   -0.15681E-01   608   0.121E+00    0.131E-01
DAV:   8    -0.120472694873E+03   -0.91833E-04   -0.11582E-03   644   0.136E-01    0.325E-02
DAV:   9    -0.120472711965E+03   -0.17092E-04   -0.32552E-05   528   0.160E-02    0.306E-03
DAV:  10    -0.120472706515E+03    0.54497E-05   -0.22523E-06   352   0.604E-03
   1 F= -.12047271E+03 E0= -.12046080E+03  d E =-.120473E+03
