   4   4   0   0
  0.1314070E+02  0.3745929E-09  0.3745929E-09  0.3745929E-09  0.5000000E-15
  1.000000000000000E-004
  CAR 
 unknown system                          
     24.95592163     -7.09719453  301      2.91969383      1.00000000
     -7.097  0.0000E+00  0.0000E+00
     -6.990  0.0000E+00  0.0000E+00
     -6.884  0.0000E+00  0.0000E+00
     -6.777  0.0000E+00  0.0000E+00
     -6.670  0.0000E+00  0.0000E+00
     -6.563  0.0000E+00  0.0000E+00
     -6.456  0.0000E+00  0.0000E+00
     -6.349  0.0000E+00  0.0000E+00
     -6.242  0.0000E+00  0.0000E+00
     -6.136  0.0000E+00  0.0000E+00
     -6.029  0.0000E+00  0.0000E+00
     -5.922  0.0000E+00  0.0000E+00
     -5.815  0.0000E+00  0.0000E+00
     -5.708  0.0000E+00  0.0000E+00
     -5.601  0.1733E-01  0.1852E-02
     -5.495  0.7422E-01  0.1184E-01
     -5.388  0.1313E+00  0.2748E-01
     -5.281  0.1199E+00  0.4912E-01
     -5.174  0.1480E+00  0.6862E-01
     -5.067  0.2438E+00  0.1006E+00
     -4.960  0.1955E+00  0.1278E+00
     -4.853  0.2130E+00  0.1566E+00
     -4.747  0.2231E+00  0.1959E+00
     -4.640  0.2801E+00  0.2274E+00
     -4.533  0.2775E+00  0.2679E+00
     -4.426  0.2299E+00  0.3045E+00
     -4.319  0.3778E+00  0.3594E+00
     -4.212  0.3561E+00  0.4022E+00
     -4.106  0.2336E+00  0.4441E+00
     -3.999  0.3419E+00  0.4947E+00
     -3.892  0.3595E+00  0.5522E+00
     -3.785  0.3506E+00  0.5998E+00
     -3.678  0.3382E+00  0.6636E+00
     -3.571  0.3314E+00  0.7161E+00
     -3.465  0.4736E+00  0.7869E+00
     -3.358  0.4284E+00  0.8445E+00
     -3.251  0.4456E+00  0.9201E+00
     -3.144  0.5012E+00  0.9903E+00
     -3.037  0.4389E+00  0.1050E+01
     -2.930  0.5714E+00  0.1146E+01
     -2.823  0.4338E+00  0.1221E+01
     -2.717  0.6429E+00  0.1306E+01
     -2.610  0.8707E+00  0.1409E+01
     -2.503  0.5166E+00  0.1486E+01
     -2.396  0.8377E+00  0.1598E+01
     -2.289  0.6743E+00  0.1699E+01
     -2.182  0.6715E+00  0.1817E+01
     -2.076  0.9654E+00  0.1962E+01
     -1.969  0.9581E+00  0.2082E+01
     -1.862  0.1137E+01  0.2249E+01
     -1.755  0.1191E+01  0.2425E+01
     -1.648  0.1892E+01  0.2669E+01
     -1.541  0.2154E+01  0.2950E+01
     -1.434  0.2739E+01  0.3323E+01
     -1.328  0.3627E+01  0.3794E+01
     -1.221  0.3962E+01  0.4363E+01
     -1.114  0.3821E+01  0.4920E+01
     -1.007  0.4055E+01  0.5533E+01
     -0.900  0.5469E+01  0.6356E+01
     -0.793  0.7231E+01  0.7360E+01
     -0.687  0.8534E+01  0.8534E+01
     -0.580  0.7206E+01  0.9607E+01
     -0.473  0.7174E+01  0.1066E+02
     -0.366  0.7246E+01  0.1173E+02
     -0.259  0.6687E+01  0.1272E+02
     -0.152  0.9391E+01  0.1405E+02
     -0.046  0.1128E+02  0.1558E+02
      0.061  0.1173E+02  0.1719E+02
      0.168  0.1368E+02  0.1904E+02
      0.275  0.1415E+02  0.2108E+02
      0.382  0.1680E+02  0.2344E+02
      0.489  0.1044E+02  0.2499E+02
      0.596  0.9349E+01  0.2633E+02
      0.702  0.1009E+02  0.2771E+02
      0.809  0.1280E+02  0.2951E+02
      0.916  0.1378E+02  0.3147E+02
      1.023  0.1190E+02  0.3312E+02
      1.130  0.1115E+02  0.3473E+02
      1.237  0.1270E+02  0.3650E+02
      1.343  0.1976E+02  0.3919E+02
      1.450  0.1224E+02  0.4144E+02
      1.557  0.1286E+01  0.4194E+02
      1.664  0.1830E+01  0.4217E+02
      1.771  0.1423E+01  0.4235E+02
      1.878  0.1000E+01  0.4250E+02
      1.985  0.1452E+01  0.4270E+02
      2.091  0.9596E+00  0.4284E+02
      2.198  0.9104E+00  0.4301E+02
      2.305  0.1010E+01  0.4316E+02
      2.412  0.7880E+00  0.4331E+02
      2.519  0.9235E+00  0.4344E+02
      2.626  0.1308E+01  0.4362E+02
      2.732  0.9384E+00  0.4375E+02
      2.839  0.8585E+00  0.4387E+02
      2.946  0.1181E+01  0.4406E+02
      3.053  0.6867E+00  0.4415E+02
      3.160  0.8132E+00  0.4427E+02
      3.267  0.1088E+01  0.4444E+02
      3.373  0.8984E+00  0.4457E+02
      3.480  0.7279E+00  0.4467E+02
      3.587  0.1101E+01  0.4480E+02
      3.694  0.8413E+00  0.4494E+02
      3.801  0.5321E+00  0.4505E+02
      3.908  0.7630E+00  0.4515E+02
      4.015  0.1098E+01  0.4529E+02
      4.121  0.9382E+00  0.4542E+02
      4.228  0.7514E+00  0.4552E+02
      4.335  0.5151E+00  0.4561E+02
      4.442  0.1114E+01  0.4575E+02
      4.549  0.8534E+00  0.4587E+02
      4.656  0.6581E+00  0.4598E+02
      4.762  0.6733E+00  0.4608E+02
      4.869  0.6393E+00  0.4618E+02
      4.976  0.9682E+00  0.4631E+02
      5.083  0.6299E+00  0.4641E+02
      5.190  0.5419E+00  0.4651E+02
      5.297  0.6443E+00  0.4660E+02
      5.404  0.7155E+00  0.4670E+02
      5.510  0.7864E+00  0.4681E+02
      5.617  0.7591E+00  0.4690E+02
      5.724  0.4907E+00  0.4697E+02
      5.831  0.5696E+00  0.4704E+02
      5.938  0.6215E+00  0.4713E+02
      6.045  0.5049E+00  0.4720E+02
      6.151  0.5138E+00  0.4729E+02
      6.258  0.7606E+00  0.4739E+02
      6.365  0.5916E+00  0.4748E+02
      6.472  0.1136E+01  0.4761E+02
      6.579  0.7573E+00  0.4776E+02
      6.686  0.8358E+00  0.4788E+02
      6.792  0.8171E+00  0.4802E+02
      6.899  0.8446E+00  0.4814E+02
      7.006  0.8664E+00  0.4827E+02
      7.113  0.1043E+01  0.4842E+02
      7.220  0.8745E+00  0.4854E+02
      7.327  0.7140E+00  0.4866E+02
      7.434  0.9809E+00  0.4879E+02
      7.540  0.7526E+00  0.4891E+02
      7.647  0.9103E+00  0.4904E+02
      7.754  0.8304E+00  0.4916E+02
      7.861  0.9390E+00  0.4929E+02
      7.968  0.8554E+00  0.4942E+02
      8.075  0.7619E+00  0.4953E+02
      8.181  0.7315E+00  0.4964E+02
      8.288  0.8818E+00  0.4975E+02
      8.395  0.9146E+00  0.4988E+02
      8.502  0.8905E+00  0.4999E+02
      8.609  0.9821E+00  0.5011E+02
      8.716  0.8510E+00  0.5021E+02
      8.823  0.5499E+00  0.5030E+02
      8.929  0.7552E+00  0.5042E+02
      9.036  0.9605E+00  0.5054E+02
      9.143  0.5564E+00  0.5062E+02
      9.250  0.6983E+00  0.5074E+02
      9.357  0.6212E+00  0.5083E+02
      9.464  0.1013E+01  0.5096E+02
      9.570  0.9632E+00  0.5109E+02
      9.677  0.9915E+00  0.5123E+02
      9.784  0.9611E+00  0.5136E+02
      9.891  0.1061E+01  0.5151E+02
      9.998  0.8133E+00  0.5165E+02
     10.105  0.1139E+01  0.5181E+02
     10.211  0.1183E+01  0.5197E+02
     10.318  0.9998E+00  0.5211E+02
     10.425  0.1054E+01  0.5227E+02
     10.532  0.9516E+00  0.5241E+02
     10.639  0.1139E+01  0.5258E+02
     10.746  0.1130E+01  0.5272E+02
     10.853  0.1276E+01  0.5289E+02
     10.959  0.1021E+01  0.5302E+02
     11.066  0.1194E+01  0.5319E+02
     11.173  0.1276E+01  0.5338E+02
     11.280  0.1137E+01  0.5353E+02
     11.387  0.9613E+00  0.5368E+02
     11.494  0.1140E+01  0.5381E+02
     11.600  0.1193E+01  0.5398E+02
     11.707  0.1132E+01  0.5413E+02
     11.814  0.1085E+01  0.5431E+02
     11.921  0.1266E+01  0.5450E+02
     12.028  0.1131E+01  0.5465E+02
     12.135  0.1297E+01  0.5481E+02
     12.242  0.8554E+00  0.5495E+02
     12.348  0.1216E+01  0.5512E+02
     12.455  0.1192E+01  0.5528E+02
     12.562  0.1293E+01  0.5547E+02
     12.669  0.1121E+01  0.5561E+02
     12.776  0.1405E+01  0.5580E+02
     12.883  0.1156E+01  0.5597E+02
     12.989  0.7796E+00  0.5610E+02
     13.096  0.1245E+01  0.5629E+02
     13.203  0.1500E+01  0.5650E+02
     13.310  0.1096E+01  0.5665E+02
     13.417  0.9424E+00  0.5679E+02
     13.524  0.1078E+01  0.5694E+02
     13.630  0.1411E+01  0.5716E+02
     13.737  0.1076E+01  0.5732E+02
     13.844  0.1506E+01  0.5752E+02
     13.951  0.9616E+00  0.5765E+02
     14.058  0.1355E+01  0.5786E+02
     14.165  0.1511E+01  0.5805E+02
     14.272  0.1211E+01  0.5822E+02
     14.378  0.8316E+00  0.5836E+02
     14.485  0.1543E+01  0.5856E+02
     14.592  0.1106E+01  0.5874E+02
     14.699  0.1287E+01  0.5892E+02
     14.806  0.1601E+01  0.5912E+02
     14.913  0.1438E+01  0.5932E+02
     15.019  0.1407E+01  0.5952E+02
     15.126  0.1017E+01  0.5967E+02
     15.233  0.1370E+01  0.5989E+02
     15.340  0.1140E+01  0.6007E+02
     15.447  0.1533E+01  0.6028E+02
     15.554  0.1249E+01  0.6047E+02
     15.661  0.1104E+01  0.6062E+02
     15.767  0.1363E+01  0.6080E+02
     15.874  0.1588E+01  0.6099E+02
     15.981  0.8953E+00  0.6116E+02
     16.088  0.9292E+00  0.6131E+02
     16.195  0.1426E+01  0.6149E+02
     16.302  0.1074E+01  0.6163E+02
     16.408  0.1015E+01  0.6177E+02
     16.515  0.7082E+00  0.6189E+02
     16.622  0.8702E+00  0.6200E+02
     16.729  0.6546E+00  0.6209E+02
     16.836  0.8338E+00  0.6221E+02
     16.943  0.7841E+00  0.6233E+02
     17.049  0.5163E+00  0.6242E+02
     17.156  0.7456E+00  0.6250E+02
     17.263  0.6842E+00  0.6259E+02
     17.370  0.5530E+00  0.6267E+02
     17.477  0.4899E+00  0.6273E+02
     17.584  0.4690E+00  0.6280E+02
     17.691  0.5481E+00  0.6287E+02
     17.797  0.2952E+00  0.6292E+02
     17.904  0.4495E+00  0.6299E+02
     18.011  0.3940E+00  0.6305E+02
     18.118  0.3885E+00  0.6309E+02
     18.225  0.6201E+00  0.6316E+02
     18.332  0.2676E+00  0.6321E+02
     18.438  0.3038E+00  0.6325E+02
     18.545  0.2248E+00  0.6328E+02
     18.652  0.3967E+00  0.6333E+02
     18.759  0.2155E+00  0.6337E+02
     18.866  0.1421E+00  0.6340E+02
     18.973  0.2133E+00  0.6345E+02
     19.080  0.1644E+00  0.6347E+02
     19.186  0.3241E+00  0.6352E+02
     19.293  0.2523E+00  0.6354E+02
     19.400  0.2390E+00  0.6358E+02
     19.507  0.7164E-01  0.6359E+02
     19.614  0.2924E+00  0.6363E+02
     19.721  0.2142E+00  0.6365E+02
     19.827  0.3902E-01  0.6367E+02
     19.934  0.2266E-01  0.6368E+02
     20.041  0.2316E+00  0.6371E+02
     20.148  0.2078E+00  0.6374E+02
     20.255  0.9738E-01  0.6375E+02
     20.362  0.2925E+00  0.6378E+02
     20.468  0.6564E-01  0.6379E+02
     20.575  0.5435E-01  0.6380E+02
     20.682  0.1300E+00  0.6382E+02
     20.789  0.2597E+00  0.6385E+02
     20.896  0.6499E-01  0.6385E+02
     21.003  0.1667E+00  0.6387E+02
     21.110  0.3268E-01  0.6388E+02
     21.216  0.9748E-01  0.6389E+02
     21.323  0.5190E-04  0.6389E+02
     21.430  0.6774E-01  0.6391E+02
     21.537  0.1992E-14  0.6392E+02
     21.644  0.3598E-01  0.6392E+02
     21.751  0.9749E-01  0.6394E+02
     21.857  0.3250E-01  0.6395E+02
     21.964  0.3856E-06  0.6395E+02
     22.071  0.1408E+00  0.6396E+02
     22.178  0.3250E-01  0.6396E+02
     22.285  0.6498E-01  0.6397E+02
     22.392  0.3250E-01  0.6397E+02
     22.499  0.3250E-01  0.6398E+02
     22.605  0.9525E-08  0.6398E+02
     22.712  0.9749E-01  0.6399E+02
     22.819  0.1429E-04  0.6399E+02
     22.926  0.1520E-09  0.6399E+02
     23.033  0.4333E-01  0.6400E+02
     23.140  0.2033E-01  0.6400E+02
     23.246  0.0000E+00  0.6400E+02
     23.353  0.0000E+00  0.6400E+02
     23.460  0.1220E-09  0.6400E+02
     23.567  0.5416E-02  0.6400E+02
     23.674  0.0000E+00  0.6400E+02
     23.781  0.0000E+00  0.6400E+02
     23.887  0.0000E+00  0.6400E+02
     23.994  0.0000E+00  0.6400E+02
     24.101  0.0000E+00  0.6400E+02
     24.208  0.0000E+00  0.6400E+02
     24.315  0.0000E+00  0.6400E+02
     24.422  0.0000E+00  0.6400E+02
     24.529  0.0000E+00  0.6400E+02
     24.635  0.0000E+00  0.6400E+02
     24.742  0.0000E+00  0.6400E+02
     24.849  0.0000E+00  0.6400E+02
     24.956  0.0000E+00  0.6400E+02
