    4    4    1    1
  0.1314070E+02  0.3745929E-09  0.3745929E-09  0.3745929E-09  0.5000000E-15
  1.000000000000000E-004
  CAR 
 unknown system                          
   44  455   32
 
  0.0000000E+00  0.0000000E+00  0.0000000E+00  0.7233796E-04
   1       -5.6402
   2       -1.3814
   3       -1.3814
   4       -1.3814
   5       -0.9940
   6       -0.9940
   7       -0.9940
   8        0.1829
   9        0.1829
  10        0.1829
  11        0.8842
  12        0.8842
  13        1.3508
  14        1.3508
  15        1.3508
  16        1.4814
  17        1.4814
  18        1.4814
  19        1.4814
  20        1.4814
  21        1.4814
  22        4.5143
  23        4.5143
  24        4.5143
  25        9.3254
  26        9.3254
  27        9.3254
  28       15.2713
  29       15.2713
  30       15.2713
  31       15.2713
  32       15.2713
 
  0.4166667E-01  0.0000000E+00  0.0000000E+00  0.4340278E-03
   1       -5.6207
   2       -1.3818
   3       -1.3727
   4       -1.3727
   5       -0.9891
   6       -0.9889
   7       -0.9889
   8        0.1777
   9        0.1872
  10        0.1872
  11        0.8794
  12        0.8861
  13        1.3447
  14        1.3447
  15        1.3488
  16        1.4506
  17        1.4506
  18        1.4741
  19        1.4741
  20        1.4814
  21        1.4814
  22        4.3690
  23        4.5631
  24        4.5631
  25        9.3335
  26        9.3335
  27        9.5108
  28       15.1214
  29       15.1214
  30       15.1727
  31       15.1727
  32       15.2994
 
  0.8333333E-01  0.0000000E+00  0.0000000E+00  0.4340278E-03
   1       -5.5620
   2       -1.3839
   3       -1.3468
   4       -1.3468
   5       -0.9747
   6       -0.9736
   7       -0.9736
   8        0.1620
   9        0.2000
  10        0.2000
  11        0.8652
  12        0.8920
  13        1.3264
  14        1.3264
  15        1.3427
  16        1.3636
  17        1.3636
  18        1.4524
  19        1.4524
  20        1.4815
  21        1.4815
  22        3.9891
  23        4.7037
  24        4.7037
  25        9.3580
  26        9.3580
  27       10.0118
  28       14.7292
  29       14.7292
  30       14.9017
  31       14.9017
  32       15.3835
 
  0.1250000E+00  0.0000000E+00  0.0000000E+00  0.4340278E-03
   1       -5.4645
   2       -1.3905
   3       -1.3046
   4       -1.3046
   5       -0.9510
   6       -0.9481
   7       -0.9481
   8        0.1363
   9        0.2213
  10        0.2213
  11        0.8421
  12        0.9016
  13        1.2339
  14        1.2339
  15        1.2963
  16        1.2963
  17        1.3328
  18        1.4171
  19        1.4171
  20        1.4815
  21        1.4815
  22        3.4792
  23        4.9226
  24        4.9226
  25        9.3995
  26        9.3995
  27       10.7262
  28       14.1970
  29       14.1970
  30       14.5127
  31       14.5127
  32       15.5227
 
  0.1666667E+00  0.0000000E+00  0.0000000E+00  0.4340278E-03
   1       -5.3286
   2       -1.4068
   3       -1.2478
   4       -1.2478
   5       -0.9183
   6       -0.9122
   7       -0.9122
   8        0.1009
   9        0.2509
  10        0.2509
  11        0.8106
  12        0.9149
  13        1.0766
  14        1.0766
  15        1.2552
  16        1.2552
  17        1.3190
  18        1.3692
  19        1.3692
  20        1.4816
  21        1.4816
  22        2.9205
  23        5.2047
  24        5.2047
  25        9.4587
  26        9.4587
  27       11.5771
  28       13.5976
  29       13.5976
  30       14.0590
  31       14.0590
  32       15.7157
 
  0.2083333E+00  0.0000000E+00  0.0000000E+00  0.4340278E-03
   1       -5.1552
   2       -1.4413
   3       -1.1786
   4       -1.1786
   5       -0.8770
   6       -0.8658
   7       -0.8658
   8        0.0566
   9        0.2887
  10        0.2887
  11        0.7718
  12        0.9043
  13        0.9043
  14        0.9316
  15        1.2043
  16        1.2043
  17        1.3018
  18        1.3104
  19        1.3104
  20        1.4817
  21        1.4817
  22        2.3651
  23        5.5372
  24        5.5372
  25        9.5371
  26        9.5371
  27       12.5200
  28       12.9703
  29       12.9703
  30       13.5797
  31       13.5797
  32       15.9606
 
  0.2500000E+00  0.0000000E+00  0.0000000E+00  0.4340278E-03
   1       -4.9451
   2       -1.5064
   3       -1.1001
   4       -1.1001
   5       -0.8279
   6       -0.8087
   7       -0.8087
   8        0.0042
   9        0.3343
  10        0.3343
  11        0.7260
  12        0.7260
  13        0.7272
  14        0.9514
  15        1.1454
  16        1.1454
  17        1.2424
  18        1.2424
  19        1.2814
  20        1.4817
  21        1.4817
  22        1.8485
  23        5.9108
  24        5.9108
  25        9.6360
  26        9.6360
  27       12.3356
  28       12.3356
  29       13.1001
  30       13.1001
  31       13.5299
  32       16.2555
 
  0.2916667E+00  0.0000000E+00  0.0000000E+00  0.4340278E-03
   1       -4.6999
   2       -1.6180
   3       -1.0163
   4       -1.0163
   5       -0.7717
   6       -0.7408
   7       -0.7408
   8       -0.0553
   9        0.3875
  10        0.3875
  11        0.5481
  12        0.5481
  13        0.6787
  14        0.9741
  15        1.0813
  16        1.0813
  17        1.1670
  18        1.1670
  19        1.2582
  20        1.3994
  21        1.4818
  22        1.4818
  23        6.3188
  24        6.3188
  25        9.7575
  26        9.7575
  27       11.7045
  28       11.7045
  29       12.6361
  30       12.6361
  31       14.5922
  32       16.5981
 
  0.3333333E+00  0.0000000E+00  0.0000000E+00  0.4340278E-03
   1       -4.4216
   2       -1.7922
   3       -0.9325
   4       -0.9325
   5       -0.7092
   6       -0.6617
   7       -0.6617
   8       -0.1208
   9        0.3746
  10        0.3746
  11        0.4477
  12        0.4477
  13        0.6288
  14        0.9992
  15        1.0157
  16        1.0157
  17        1.0409
  18        1.0863
  19        1.0863
  20        1.2325
  21        1.4819
  22        1.4819
  23        6.7568
  24        6.7568
  25        9.9034
  26        9.9034
  27       11.0833
  28       11.0833
  29       12.1975
  30       12.1975
  31       15.6972
  32       16.9859
 
  0.3750000E+00  0.0000000E+00  0.0000000E+00  0.4340278E-03
   1       -4.1128
   2       -2.0361
   3       -0.8550
   4       -0.8550
   5       -0.6415
   6       -0.5713
   7       -0.5713
   8       -0.1912
   9        0.2085
  10        0.2085
  11        0.5144
  12        0.5144
  13        0.5809
  14        0.7840
  15        0.9539
  16        0.9539
  17        1.0021
  18        1.0021
  19        1.0263
  20        1.2049
  21        1.4820
  22        1.4820
  23        7.2217
  24        7.2217
  25       10.0761
  26       10.0761
  27       10.4759
  28       10.4759
  29       11.7903
  30       11.7903
  31       16.8373
  32       17.4166
 
  0.4166667E+00  0.0000000E+00  0.0000000E+00  0.4340278E-03
   1       -3.7777
   2       -2.3415
   3       -0.7912
   4       -0.7912
   5       -0.5696
   6       -0.4696
   7       -0.4696
   8       -0.2651
   9        0.0513
  10        0.0513
  11        0.5398
  12        0.5870
  13        0.5870
  14        0.6225
  15        0.9022
  16        0.9022
  17        0.9163
  18        0.9163
  19        1.0551
  20        1.1759
  21        1.4820
  22        1.4820
  23        7.7111
  24        7.7111
  25        9.8847
  26        9.8847
  27       10.2777
  28       10.2777
  29       11.4176
  30       11.4176
  31       17.8877
  32       17.8882
 
  0.4583333E+00  0.0000000E+00  0.0000000E+00  0.4340278E-03
   1       -3.4221
   2       -2.6885
   3       -0.7488
   4       -0.7488
   5       -0.4948
   6       -0.3563
   7       -0.3563
   8       -0.3412
   9       -0.0956
  10       -0.0956
  11        0.5120
  12        0.5375
  13        0.6645
  14        0.6645
  15        0.8304
  16        0.8304
  17        0.8673
  18        0.8673
  19        1.0849
  20        1.1458
  21        1.4820
  22        1.4820
  23        8.2234
  24        8.2234
  25        9.3113
  26        9.3113
  27       10.5100
  28       10.5100
  29       11.0813
  30       11.0813
  31       18.3970
  32       18.3970
 
  0.5000000E+00  0.0000000E+00  0.0000000E+00  0.2170139E-03
   1       -3.0548
   2       -3.0548
   3       -0.7338
   4       -0.7338
   5       -0.4182
   6       -0.4182
   7       -0.2316
   8       -0.2316
   9       -0.2316
  10       -0.2316
  11        0.5067
  12        0.5067
  13        0.7460
  14        0.7460
  15        0.7460
  16        0.7460
  17        0.8550
  18        0.8550
  19        1.1153
  20        1.1153
  21        1.4821
  22        1.4821
  23        8.7572
  24        8.7572
  25        8.7572
  26        8.7572
  27       10.7471
  28       10.7471
  29       10.8094
  30       10.8094
  31       18.9421
  32       18.9421
 
  0.4166667E-01  0.4166667E-01  0.0000000E+00  0.8680556E-03
   1       -5.6011
   2       -1.3730
   3       -1.3730
   4       -1.3640
   5       -0.9841
   6       -0.9841
   7       -0.9838
   8        0.1747
   9        0.1893
  10        0.1914
  11        0.8780
  12        0.8848
  13        1.3386
  14        1.3420
  15        1.3420
  16        1.4253
  17        1.4435
  18        1.4435
  19        1.4741
  20        1.4741
  21        1.4768
  22        4.4173
  23        4.4173
  24        4.6109
  25        9.3417
  26        9.5198
  27        9.5198
  28       14.7615
  29       15.1489
  30       15.1489
  31       15.2004
  32       15.2004
 
  0.8333333E-01  0.4166667E-01  0.0000000E+00  0.1736111E-02
   1       -5.5424
   2       -1.3749
   3       -1.3470
   4       -1.3383
   5       -0.9698
   6       -0.9689
   7       -0.9687
   8        0.1603
   9        0.2009
  10        0.2039
  11        0.8653
  12        0.8895
  13        1.3173
  14        1.3205
  15        1.3335
  16        1.3432
  17        1.3619
  18        1.4229
  19        1.4524
  20        1.4741
  21        1.4742
  22        4.0370
  23        4.5563
  24        4.7493
  25        9.3663
  26        9.5470
  27       10.0226
  28       14.2472
  29       14.7555
  30       14.9283
  31       15.2312
  32       15.2599
 
  0.1250000E+00  0.4166667E-01  0.0000000E+00  0.1736111E-02
   1       -5.4450
   2       -1.3812
   3       -1.3045
   4       -1.2964
   5       -0.9461
   6       -0.9435
   7       -0.9434
   8        0.1350
   9        0.2219
  10        0.2246
  11        0.8426
  12        0.8993
  13        1.2169
  14        1.2172
  15        1.2907
  16        1.3016
  17        1.3176
  18        1.3908
  19        1.4170
  20        1.4735
  21        1.4742
  22        3.5280
  23        4.7717
  24        4.9652
  25        9.4079
  26        9.5929
  27       10.7387
  28       13.6651
  29       14.2224
  30       14.5379
  31       14.9880
  32       15.3674
 
  0.1666667E+00  0.4166667E-01  0.0000000E+00  0.1736111E-02
   1       -5.3093
   2       -1.3971
   3       -1.2473
   4       -1.2400
   5       -0.9136
   6       -0.9078
   7       -0.9078
   8        0.0999
   9        0.2514
  10        0.2534
  11        0.8115
  12        0.9129
  13        1.0614
  14        1.0633
  15        1.2500
  16        1.2581
  17        1.2887
  18        1.3534
  19        1.3692
  20        1.4734
  21        1.4742
  22        2.9728
  23        5.0479
  24        5.2443
  25        9.4674
  26        9.6587
  27       11.5908
  28       13.0543
  29       13.6223
  30       14.0829
  31       14.5867
  32       15.5560
 
  0.2083333E+00  0.4166667E-01  0.0000000E+00  0.1736111E-02
   1       -5.1360
   2       -1.4311
   3       -1.1776
   4       -1.1712
   5       -0.8725
   6       -0.8619
   7       -0.8616
   8        0.0560
   9        0.2890
  10        0.2900
  11        0.7734
  12        0.8894
  13        0.8939
  14        0.9301
  15        1.1996
  16        1.2067
  17        1.2374
  18        1.3103
  19        1.3200
  20        1.4734
  21        1.4742
  22        2.4250
  23        5.3719
  24        5.5740
  25        9.5460
  26        9.7456
  27       12.4367
  28       12.5344
  29       12.9945
  30       13.6023
  31       14.1206
  32       15.7952
 
  0.2500000E+00  0.4166667E-01  0.0000000E+00  0.1736111E-02
   1       -4.9262
   2       -1.4954
   3       -1.0985
   4       -1.0931
   5       -0.8236
   6       -0.8054
   7       -0.8048
   8        0.0039
   9        0.3339
  10        0.3346
  11        0.7116
  12        0.7181
  13        0.7300
  14        0.9506
  15        1.1413
  16        1.1477
  17        1.1608
  18        1.2423
  19        1.2909
  20        1.4734
  21        1.4742
  22        1.9250
  23        5.7342
  24        5.9451
  25        9.6453
  26        9.8555
  27       11.8242
  28       12.3596
  29       13.1215
  30       13.5449
  31       13.6315
  32       16.0826
 
  0.2916667E+00  0.4166667E-01  0.0000000E+00  0.1736111E-02
   1       -4.6813
   2       -1.6063
   3       -1.0140
   4       -1.0097
   5       -0.7677
   6       -0.7383
   7       -0.7372
   8       -0.0553
   9        0.3841
  10        0.3877
  11        0.5343
  12        0.5423
  13        0.6836
  14        0.9740
  15        1.0528
  16        1.0778
  17        1.0835
  18        1.1669
  19        1.2595
  20        1.4735
  21        1.4743
  22        1.5163
  23        6.1282
  24        6.3511
  25        9.7668
  26        9.9903
  27       11.2233
  28       11.7284
  29       12.6563
  30       13.1450
  31       14.6075
  32       16.4158
 
  0.3333333E+00  0.4166667E-01  0.0000000E+00  0.1736111E-02
   1       -4.4033
   2       -1.7795
   3       -0.9294
   4       -0.9260
   5       -0.7055
   6       -0.6606
   7       -0.6585
   8       -0.1204
   9        0.3617
  10        0.3706
  11        0.4382
  12        0.4478
  13        0.6390
  14        0.8941
  15        1.0000
  16        1.0129
  17        1.0179
  18        1.0862
  19        1.1938
  20        1.2752
  21        1.4737
  22        1.4743
  23        6.5490
  24        6.7874
  25        9.9116
  26       10.1526
  27       10.6380
  28       11.1074
  29       12.2167
  30       12.6765
  31       15.7123
  32       16.7929
 
  0.3750000E+00  0.4166667E-01  0.0000000E+00  0.1736111E-02
   1       -4.0950
   2       -2.0225
   3       -0.8510
   4       -0.8483
   5       -0.6382
   6       -0.5721
   7       -0.5686
   8       -0.1903
   9        0.1966
  10        0.2059
  11        0.4866
  12        0.5145
  13        0.6086
  14        0.7145
  15        0.9518
  16        0.9558
  17        1.0020
  18        1.0281
  19        1.0600
  20        1.2194
  21        1.4738
  22        1.4743
  23        6.9936
  24        7.2508
  25       10.0233
  26       10.1288
  27       10.3446
  28       10.5003
  29       11.8084
  30       12.2355
  31       16.8486
  32       17.2084
 
  0.4166667E+00  0.4166667E-01  0.0000000E+00  0.1736111E-02
   1       -3.7604
   2       -2.3271
   3       -0.7862
   4       -0.7843
   5       -0.5667
   6       -0.4726
   7       -0.4674
   8       -0.2638
   9        0.0408
  10        0.0501
  11        0.4990
  12        0.5808
  13        0.5870
  14        0.6266
  15        0.9008
  16        0.9037
  17        0.9161
  18        0.9509
  19        1.0579
  20        1.1854
  21        1.4739
  22        1.4742
  23        7.4593
  24        7.7390
  25        9.5051
  26        9.9095
  27       10.2948
  28       10.5688
  29       11.4346
  30       11.8279
  31       17.6618
  32       17.7281
 
  0.4583333E+00  0.4166667E-01  0.0000000E+00  0.1736111E-02
   1       -3.4054
   2       -2.6732
   3       -0.7429
   4       -0.7418
   5       -0.4922
   6       -0.3616
   7       -0.3548
   8       -0.3395
   9       -0.1046
  10       -0.0958
  11        0.4846
  12        0.5072
  13        0.6645
  14        0.6896
  15        0.8303
  16        0.8557
  17        0.8667
  18        0.8683
  19        1.0889
  20        1.1529
  21        1.4740
  22        1.4742
  23        7.9446
  24        8.2503
  25        8.9686
  26        9.3367
  27       10.5272
  28       10.8272
  29       11.0972
  30       11.4570
  31       18.1492
  32       18.2344
 
  0.5000000E+00  0.4166667E-01  0.0000000E+00  0.8680556E-03
   1       -3.0387
   2       -3.0387
   3       -0.7272
   4       -0.7272
   5       -0.4161
   6       -0.4161
   7       -0.2389
   8       -0.2389
   9       -0.2309
  10       -0.2309
  11        0.4808
  12        0.4808
  13        0.7460
  14        0.7460
  15        0.7686
  16        0.7686
  17        0.8552
  18        0.8552
  19        1.1207
  20        1.1207
  21        1.4741
  22        1.4741
  23        8.4480
  24        8.4480
  25        8.7832
  26        8.7832
  27       10.7935
  28       10.7935
  29       11.1243
  30       11.1243
  31       18.6675
  32       18.6751
 
  0.8333333E-01  0.8333333E-01  0.0000000E+00  0.8680556E-03
   1       -5.4840
   2       -1.3484
   3       -1.3484
   4       -1.3131
   5       -0.9548
   6       -0.9548
   7       -0.9539
   8        0.1506
   9        0.2081
  10        0.2154
  11        0.8601
  12        0.8877
  13        1.2761
  14        1.2909
  15        1.2909
  16        1.3030
  17        1.3560
  18        1.3560
  19        1.4524
  20        1.4524
  21        1.4627
  22        4.1736
  23        4.1736
  24        4.8816
  25        9.3912
  26       10.0552
  27       10.0552
  28       13.6285
  29       14.8343
  30       14.8343
  31       15.0078
  32       15.0078
 
  0.1250000E+00  0.8333333E-01  0.0000000E+00  0.1736111E-02
   1       -5.3869
   2       -1.3538
   3       -1.3051
   4       -1.2721
   5       -0.9315
   6       -0.9298
   7       -0.9292
   8        0.1286
   9        0.2261
  10        0.2345
  11        0.8416
  12        0.8948
  13        1.1643
  14        1.1754
  15        1.2480
  16        1.2741
  17        1.3078
  18        1.3452
  19        1.4169
  20        1.4523
  21        1.4559
  22        3.6654
  23        4.3829
  24        5.0896
  25        9.4334
  26       10.1101
  27       10.7761
  28       12.9842
  29       14.2981
  30       14.6134
  31       14.9646
  32       15.1394
 
  0.1666667E+00  0.8333333E-01  0.0000000E+00  0.1736111E-02
   1       -5.2516
   2       -1.3684
   3       -1.2467
   4       -1.2168
   5       -0.8994
   6       -0.8946
   7       -0.8946
   8        0.0956
   9        0.2541
  10        0.2609
  11        0.8129
  12        0.9087
  13        1.0191
  14        1.0219
  15        1.1881
  16        1.2347
  17        1.2633
  18        1.3292
  19        1.3690
  20        1.4523
  21        1.4527
  22        3.1162
  23        4.6482
  24        5.3603
  25        9.4936
  26       10.1886
  27       11.6318
  28       12.3376
  29       13.6958
  30       14.1544
  31       15.1448
  32       15.2402
 
  0.2083333E+00  0.8333333E-01  0.0000000E+00  0.1736111E-02
   1       -5.0788
   2       -1.4007
   3       -1.1755
   4       -1.1493
   5       -0.8590
   6       -0.8499
   7       -0.8490
   8        0.0531
   9        0.2910
  10        0.2940
  11        0.7770
  12        0.8471
  13        0.8619
  14        0.9271
  15        1.1094
  16        1.1857
  17        1.2116
  18        1.3079
  19        1.3101
  20        1.4511
  21        1.4522
  22        2.5809
  23        4.9561
  24        5.6823
  25        9.5730
  26       10.2919
  27       11.7014
  28       12.5778
  29       13.0668
  30       13.6699
  31       14.8697
  32       15.3729
 
  0.2500000E+00  0.8333333E-01  0.0000000E+00  0.1736111E-02
   1       -4.8697
   2       -1.4630
   3       -1.0946
   4       -1.0726
   5       -0.8109
   6       -0.7952
   7       -0.7931
   8        0.0024
   9        0.3328
  10        0.3360
  11        0.6702
  12        0.6940
  13        0.7367
  14        0.9495
  15        1.0082
  16        1.1291
  17        1.1527
  18        1.2420
  19        1.2809
  20        1.4504
  21        1.4520
  22        2.1013
  23        5.2973
  24        6.0466
  25        9.6725
  26       10.4218
  27       11.0832
  28       12.4312
  29       13.1856
  30       13.5898
  31       14.4297
  32       15.6465
 
  0.2916667E+00  0.8333333E-01  0.0000000E+00  0.1736111E-02
   1       -4.6256
   2       -1.5714
   3       -1.0080
   4       -0.9902
   5       -0.7558
   6       -0.7309
   7       -0.7264
   8       -0.0555
   9        0.3752
  10        0.3887
  11        0.4947
  12        0.5246
  13        0.6959
  14        0.8805
  15        0.9752
  16        1.0673
  17        1.0886
  18        1.1666
  19        1.2455
  20        1.4501
  21        1.4519
  22        1.7144
  23        5.6656
  24        6.4468
  25        9.7915
  26       10.4891
  27       10.5801
  28       11.8001
  29       12.7170
  30       13.9640
  31       14.6532
  32       15.9630
 
  0.3333333E+00  0.8333333E-01  0.0000000E+00  0.1736111E-02
   1       -4.3486
   2       -1.7420
   3       -0.9208
   4       -0.9069
   5       -0.6946
   6       -0.6572
   7       -0.6490
   8       -0.1193
   9        0.3246
  10        0.3584
  11        0.4158
  12        0.4485
  13        0.6621
  14        0.7327
  15        1.0039
  16        1.0043
  17        1.0229
  18        1.0858
  19        1.1937
  20        1.4471
  21        1.4500
  22        1.4517
  23        6.0571
  24        6.8782
  25        9.8421
  26       10.0110
  27       10.7690
  28       11.1795
  29       12.2742
  30       13.4982
  31       15.7567
  32       16.3194
 
  0.3750000E+00  0.8333333E-01  0.0000000E+00  0.1736111E-02
   1       -4.0416
   2       -1.9822
   3       -0.8396
   4       -0.8287
   5       -0.6283
   6       -0.5743
   7       -0.5605
   8       -0.1880
   9        0.1625
  10        0.1983
  11        0.4424
  12        0.5149
  13        0.5936
  14        0.6505
  15        0.9452
  16        0.9604
  17        1.0016
  18        1.0351
  19        1.1089
  20        1.3004
  21        1.4501
  22        1.4515
  23        6.4692
  24        7.3374
  25        9.3415
  26       10.1341
  27       10.5732
  28       10.9903
  29       11.8627
  30       13.0476
  31       16.7128
  32       16.8304
 
  0.4166667E+00  0.8333333E-01  0.0000000E+00  0.1736111E-02
   1       -3.7085
   2       -2.2840
   3       -0.7719
   4       -0.7638
   5       -0.5579
   6       -0.4814
   7       -0.4610
   8       -0.2601
   9        0.0102
  10        0.0462
  11        0.4436
  12        0.4936
  13        0.5872
  14        0.6763
  15        0.8963
  16        0.9073
  17        0.9158
  18        1.0026
  19        1.0684
  20        1.2287
  21        1.4503
  22        1.4513
  23        6.9005
  24        7.8221
  25        8.8148
  26        9.9836
  27       10.3353
  28       11.2457
  29       11.4860
  30       12.6215
  31       17.1400
  32       17.3486
 
  0.4583333E+00  0.8333333E-01  0.0000000E+00  0.1736111E-02
   1       -3.3552
   2       -2.6275
   3       -0.7256
   4       -0.7211
   5       -0.4847
   6       -0.3772
   7       -0.3504
   8       -0.3345
   9       -0.1311
  10       -0.0964
  11        0.4305
  12        0.4400
  13        0.6645
  14        0.7342
  15        0.8301
  16        0.8644
  17        0.8703
  18        0.9012
  19        1.1037
  20        1.1813
  21        1.4505
  22        1.4510
  23        7.3505
  24        8.3070
  25        8.3304
  26        9.4124
  27       10.5705
  28       11.1448
  29       11.5369
  30       12.2257
  31       17.5982
  32       17.8284
 
  0.5000000E+00  0.8333333E-01  0.0000000E+00  0.8680556E-03
   1       -2.9906
   2       -2.9906
   3       -0.7076
   4       -0.7076
   5       -0.4098
   6       -0.4098
   7       -0.2605
   8       -0.2605
   9       -0.2288
  10       -0.2288
  11        0.4237
  12        0.4237
  13        0.7458
  14        0.7458
  15        0.8112
  16        0.8112
  17        0.8552
  18        0.8552
  19        1.1410
  20        1.1410
  21        1.4508
  22        1.4508
  23        7.8191
  24        7.8191
  25        8.8609
  26        8.8609
  27       10.8400
  28       10.8400
  29       11.8635
  30       11.8635
  31       18.0842
  32       18.0842
 
  0.1250000E+00  0.1250000E+00  0.0000000E+00  0.8680556E-03
   1       -5.2902
   2       -1.3091
   3       -1.3091
   4       -1.2324
   5       -0.9071
   6       -0.9071
   7       -0.9056
   8        0.1124
   9        0.2391
  10        0.2508
  11        0.8319
  12        0.8960
  13        1.0732
  14        1.1167
  15        1.1167
  16        1.2468
  17        1.3074
  18        1.3074
  19        1.4168
  20        1.4168
  21        1.4395
  22        3.8719
  23        3.8719
  24        5.2868
  25        9.4764
  26       10.8392
  27       10.8392
  28       12.2988
  29       14.4231
  30       14.4231
  31       14.7384
  32       14.7384
 
  0.1666667E+00  0.1250000E+00  0.0000000E+00  0.1736111E-02
   1       -5.1556
   2       -1.3217
   3       -1.2487
   4       -1.1790
   5       -0.8758
   6       -0.8727
   7       -0.8724
   8        0.0844
   9        0.2630
  10        0.2731
  11        0.8096
  12        0.9075
  13        0.9505
  14        0.9555
  15        1.0414
  16        1.2093
  17        1.2649
  18        1.2989
  19        1.3687
  20        1.4166
  21        1.4283
  22        3.3245
  23        4.1288
  24        5.5459
  25        9.5376
  26       10.9288
  27       11.6259
  28       11.7007
  29       13.8173
  30       14.2727
  31       14.5961
  32       14.9115
 
  0.2083333E+00  0.1250000E+00  0.0000000E+00  0.1736111E-02
   1       -4.9838
   2       -1.3512
   3       -1.1749
   4       -1.1138
   5       -0.8364
   6       -0.8298
   7       -0.8283
   8        0.0457
   9        0.2971
  10        0.3007
  11        0.7783
  12        0.7822
  13        0.8072
  14        0.9269
  15        0.9482
  16        1.1627
  17        1.2143
  18        1.2820
  19        1.3097
  20        1.4163
  21        1.4215
  22        2.7949
  23        4.4227
  24        5.8568
  25        9.6172
  26       10.9743
  27       11.0460
  28       12.6505
  29       13.1862
  30       13.7820
  31       14.8149
  32       15.1312
 
  0.2500000E+00  0.1250000E+00  0.0000000E+00  0.1736111E-02
   1       -4.7758
   2       -1.4100
   3       -1.0909
   4       -1.0394
   5       -0.7895
   6       -0.7781
   7       -0.7737
   8       -0.0020
   9        0.3319
  10        0.3404
  11        0.6064
  12        0.6528
  13        0.7428
  14        0.8364
  15        0.9521
  16        1.1087
  17        1.1563
  18        1.2415
  19        1.2564
  20        1.4160
  21        1.4175
  22        2.3211
  23        4.7452
  24        6.2112
  25        9.7123
  26       10.3530
  27       11.1922
  28       12.5497
  29       13.2918
  30       13.6650
  31       15.0773
  32       15.2463
 
  0.2916667E+00  0.1250000E+00  0.0000000E+00  0.1736111E-02
   1       -4.5332
   2       -1.5144
   3       -1.0006
   4       -0.9590
   5       -0.7359
   6       -0.7180
   7       -0.7087
   8       -0.0571
   9        0.3637
  10        0.3918
  11        0.4336
  12        0.4946
  13        0.7087
  14        0.7088
  15        0.9817
  16        1.0498
  17        1.0929
  18        1.1660
  19        1.2205
  20        1.4152
  21        1.4156
  22        1.9317
  23        5.0914
  24        6.6026
  25        9.6775
  26        9.9117
  27       11.3687
  28       11.9185
  29       12.8178
  30       14.7294
  31       14.8318
  32       15.3806
 
  0.3333333E+00  0.1250000E+00  0.0000000E+00  0.1736111E-02
   1       -4.2580
   2       -1.6805
   3       -0.9092
   4       -0.8765
   5       -0.6763
   6       -0.6508
   7       -0.6333
   8       -0.1185
   9        0.2673
  10        0.3376
  11        0.3895
  12        0.4507
  13        0.5790
  14        0.6850
  15        0.9897
  16        1.0152
  17        1.0275
  18        1.0852
  19        1.1710
  20        1.4140
  21        1.4152
  22        1.6416
  23        5.4585
  24        7.0264
  25        9.1470
  26       10.0191
  27       11.2986
  28       11.5769
  29       12.3699
  30       14.3912
  31       15.7222
  32       15.8202
 
  0.3750000E+00  0.1250000E+00  0.0000000E+00  0.1736111E-02
   1       -3.9531
   2       -1.9161
   3       -0.8232
   4       -0.7975
   5       -0.6118
   6       -0.5770
   7       -0.5473
   8       -0.1847
   9        0.1098
  10        0.1851
  11        0.4000
  12        0.4692
  13        0.5164
  14        0.6840
  15        0.9337
  16        0.9648
  17        1.0011
  18        1.0522
  19        1.1031
  20        1.4134
  21        1.4147
  22        1.4464
  23        5.8451
  24        7.4792
  25        8.6049
  26       10.1934
  27       10.6936
  28       11.8153
  29       11.9563
  30       13.9502
  31       16.0993
  32       16.4183
 
  0.4166667E+00  0.1250000E+00  0.0000000E+00  0.1736111E-02
   1       -3.6225
   2       -2.2133
   3       -0.7501
   4       -0.7307
   5       -0.5434
   6       -0.4955
   7       -0.4506
   8       -0.2545
   9       -0.0373
  10        0.0395
  11        0.3914
  12        0.3965
  13        0.5881
  14        0.7131
  15        0.8880
  16        0.9106
  17        0.9154
  18        1.0179
  19        1.0926
  20        1.3242
  21        1.4132
  22        1.4143
  23        6.2510
  24        7.9585
  25        8.0866
  26       10.1060
  27       10.4007
  28       11.5697
  29       12.0951
  30       13.5238
  31       16.5093
  32       16.8431
 
  0.4583333E+00  0.1250000E+00  0.0000000E+00  0.1736111E-02
   1       -3.2723
   2       -2.5523
   3       -0.6985
   4       -0.6873
   5       -0.4723
   6       -0.4025
   7       -0.3433
   8       -0.3265
   9       -0.1727
  10       -0.0978
  11        0.3626