    4    4    1    1
  0.1202561E+02  0.3636824E-09  0.3636824E-09  0.3636824E-09  0.5000000E-15
  1.000000000000000E-004
  CAR 
 unknown system                          
   44 1330   32
 
  0.0000000E+00  0.0000000E+00  0.0000000E+00  0.2143347E-04
   1       -5.5736
   2       -1.1520
   3       -1.1520
   4       -1.1520
   5       -0.7113
   6       -0.7113
   7       -0.7113
   8        0.6412
   9        0.6412
  10        0.6412
  11        1.4462
  12        1.4462
  13        1.9810
  14        1.9810
  15        1.9810
  16        2.1309
  17        2.1309
  18        2.1309
  19        2.1309
  20        2.1309
  21        2.1309
  22        5.1629
  23        5.1629
  24        5.1629
  25       10.6309
  26       10.6309
  27       10.6309
  28       16.6660
  29       16.6660
  30       16.6660
  31       16.6660
  32       16.6660
 
  0.2777778E-01  0.0000000E+00  0.0000000E+00  0.1286008E-03
   1       -5.5643
   2       -1.1520
   3       -1.1477
   4       -1.1477
   5       -0.7089
   6       -0.7087
   7       -0.7087
   8        0.6385
   9        0.6434
  10        0.6434
  11        1.4438
  12        1.4472
  13        1.9778
  14        1.9778
  15        1.9800
  16        2.1141
  17        2.1141
  18        2.1272
  19        2.1272
  20        2.1309
  21        2.1309
  22        5.0983
  23        5.1881
  24        5.1881
  25       10.6344
  26       10.6344
  27       10.7140
  28       16.5945
  29       16.5945
  30       16.6221
  31       16.6221
  32       16.6796
 
  0.5555556E-01  0.0000000E+00  0.0000000E+00  0.1286008E-03
   1       -5.5365
   2       -1.1521
   3       -1.1347
   4       -1.1347
   5       -0.7016
   6       -0.7010
   7       -0.7010
   8        0.6304
   9        0.6499
  10        0.6499
  11        1.4364
  12        1.4502
  13        1.9683
  14        1.9683
  15        1.9768
  16        2.0653
  17        2.0653
  18        2.1159
  19        2.1159
  20        2.1310
  21        2.1310
  22        4.9156
  23        5.2618
  24        5.2618
  25       10.6448
  26       10.6448
  27       10.9522
  28       16.3940
  29       16.3940
  30       16.4952
  31       16.4952
  32       16.7202
 
  0.8333333E-01  0.0000000E+00  0.0000000E+00  0.1286008E-03
   1       -5.4902
   2       -1.1530
   3       -1.1134
   4       -1.1134
   5       -0.6894
   6       -0.6881
   7       -0.6881
   8        0.6170
   9        0.6607
  10        0.6607
  11        1.4243
  12        1.4552
  13        1.9526
  14        1.9526
  15        1.9717
  16        1.9889
  17        1.9889
  18        2.0974
  19        2.0974
  20        2.1310
  21        2.1310
  22        4.6419
  23        5.3798
  24        5.3798
  25       10.6624
  26       10.6624
  27       11.3189
  28       16.0966
  29       16.0966
  30       16.2983
  31       16.2983
  32       16.7878
 
  0.1111111E+00  0.0000000E+00  0.0000000E+00  0.1286008E-03
   1       -5.4255
   2       -1.1555
   3       -1.0840
   4       -1.0840
   5       -0.6725
   6       -0.6701
   7       -0.6701
   8        0.5984
   9        0.6759
  10        0.6759
  11        1.4075
  12        1.4621
  13        1.8905
  14        1.8905
  15        1.9308
  16        1.9308
  17        1.9645
  18        2.0718
  19        2.0718
  20        2.1310
  21        2.1310
  22        4.3074
  23        5.5363
  24        5.5363
  25       10.6873
  26       10.6873
  27       11.7847
  28       15.7347
  29       15.7347
  30       16.0479
  31       16.0479
  32       16.8819
 
  0.1388889E+00  0.0000000E+00  0.0000000E+00  0.1286008E-03
   1       -5.3426
   2       -1.1613
   3       -1.0470
   4       -1.0470
   5       -0.6510
   6       -0.6468
   7       -0.6468
   8        0.5747
   9        0.6952
  10        0.6952
  11        1.3862
  12        1.4708
  13        1.7760
  14        1.7760
  15        1.9031
  16        1.9031
  17        1.9554
  18        2.0396
  19        2.0396
  20        2.1311
  21        2.1311
  22        3.9378
  23        5.7254
  24        5.7254
  25       10.7197
  26       10.7197
  27       12.3251
  28       15.3327
  29       15.3327
  30       15.7601
  31       15.7601
  32       17.0022
 
  0.1666667E+00  0.0000000E+00  0.0000000E+00  0.1286008E-03
   1       -5.2417
   2       -1.1722
   3       -1.0031
   4       -1.0031
   5       -0.6250
   6       -0.6182
   7       -0.6182
   8        0.5462
   9        0.7188
  10        0.7188
  11        1.3609
  12        1.4814
  13        1.6505
  14        1.6505
  15        1.8700
  16        1.8700
  17        1.9445
  18        2.0012
  19        2.0012
  20        2.1311
  21        2.1311
  22        3.5527
  23        5.9421
  24        5.9421
  25       10.7599
  26       10.7599
  27       12.9221
  28       14.9071
  29       14.9071
  30       15.4490
  31       15.4490
  32       17.1480
 
  0.1944444E+00  0.0000000E+00  0.0000000E+00  0.1286008E-03
   1       -5.1231
   2       -1.1911
   3       -0.9529
   4       -0.9529
   5       -0.5947
   6       -0.5844
   7       -0.5844
   8        0.5131
   9        0.7465
  10        0.7465
  11        1.3317
  12        1.4937
  13        1.5182
  14        1.5182
  15        1.8318
  16        1.8318
  17        1.9317
  18        1.9572
  19        1.9572
  20        2.1312
  21        2.1312
  22        3.1669
  23        6.1820
  24        6.1820
  25       10.8085
  26       10.8085
  27       13.5631
  28       14.4685
  29       14.4685
  30       15.1257
  31       15.1257
  32       17.3187
 
  0.2222222E+00  0.0000000E+00  0.0000000E+00  0.1286008E-03
   1       -4.9871
   2       -1.2214
   3       -0.8976
   4       -0.8976
   5       -0.5602
   6       -0.5452
   7       -0.5452
   8        0.4757
   9        0.7783
  10        0.7783
  11        1.2993
  12        1.3822
  13        1.3822
  14        1.5077
  15        1.7891
  16        1.7891
  17        1.9082
  18        1.9082
  19        1.9173
  20        2.1312
  21        2.1312
  22        2.7923
  23        6.4419
  24        6.4419
  25       10.8656
  26       10.8656
  27       14.0238
  28       14.0238
  29       14.2394
  30       14.7986
  31       14.7986
  32       17.5137
 
  0.2500000E+00  0.0000000E+00  0.0000000E+00  0.1286008E-03
   1       -4.8340
   2       -1.2676
   3       -0.8382
   4       -0.8382
   5       -0.5218
   6       -0.5005
   7       -0.5005
   8        0.4343
   9        0.8140
  10        0.8140
  11        1.2451
  12        1.2451
  13        1.2642
  14        1.5232
  15        1.7428
  16        1.7428
  17        1.8549
  18        1.8549
  19        1.9013
  20        2.1313
  21        2.1313
  22        2.4388
  23        6.7192
  24        6.7192
  25       10.9320
  26       10.9320
  27       13.5775
  28       13.5775
  29       14.4740
  30       14.4740
  31       14.9446
  32       17.7322
 
  0.2777778E+00  0.0000000E+00  0.0000000E+00  0.1286008E-03
   1       -4.6645
   2       -1.3347
   3       -0.7762
   4       -0.7762
   5       -0.4799
   6       -0.4504
   7       -0.4504
   8        0.3893
   9        0.8535
  10        0.8535
  11        1.1088
  12        1.1088
  13        1.2270
  14        1.5401
  15        1.6939
  16        1.6939
  17        1.7978
  18        1.7978
  19        1.8838
  20        2.1150
  21        2.1314
  22        2.1314
  23        7.0119
  24        7.0119
  25       11.0080
  26       11.0080
  27       13.1326
  28       13.1326
  29       14.1569
  30       14.1569
  31       15.6740
  32       17.9734
 
  0.3055556E+00  0.0000000E+00  0.0000000E+00  0.1286008E-03
   1       -4.4792
   2       -1.4278
   3       -0.7132
   4       -0.7132
   5       -0.4345
   6       -0.3947
   7       -0.3947
   8        0.3410
   9        0.8967
  10        0.8967
  11        0.9745
  12        0.9745
  13        1.1886
  14        1.5584
  15        1.6435
  16        1.6435
  17        1.7377
  18        1.7377
  19        1.8289
  20        1.8651
  21        2.1314
  22        2.1314
  23        7.3186
  24        7.3186
  25       11.0942
  26       11.0942
  27       12.6912
  28       12.6912
  29       13.8505
  30       13.8505
  31       16.4240
  32       18.2364
 
  0.3333333E+00  0.0000000E+00  0.0000000E+00  0.1286008E-03
   1       -4.2789
   2       -1.5510
   3       -0.6512
   4       -0.6512
   5       -0.3861
   6       -0.3334
   7       -0.3334
   8        0.2899
   9        0.8435
  10        0.8435
  11        0.9434
  12        0.9434
  13        1.1500
  14        1.5779
  15        1.5863
  16        1.5932
  17        1.5932
  18        1.6752
  19        1.6752
  20        1.8452
  21        2.1315
  22        2.1315
  23        7.6381
  24        7.6381
  25       11.1911
  26       11.1911
  27       12.2547
  28       12.2547
  29       13.5577
  30       13.5577
  31       17.1914
  32       18.5205
 
  0.3611111E+00  0.0000000E+00  0.0000000E+00  0.1286008E-03
   1       -4.0646
   2       -1.7065
   3       -0.5922
   4       -0.5922
   5       -0.3351
   6       -0.2664
   7       -0.2664
   8        0.2363
   9        0.7163
  10        0.7163
  11        0.9935
  12        0.9935
  13        1.1124
  14        1.3905
  15        1.5449
  16        1.5449
  17        1.5983
  18        1.6110
  19        1.6110
  20        1.8243
  21        2.1315
  22        2.1315
  23        7.9695
  24        7.9695
  25       11.2989
  26       11.2989
  27       11.8243
  28       11.8243
  29       13.2806
  30       13.2806
  31       17.9731
  32       18.8248
 
  0.3888889E+00  0.0000000E+00  0.0000000E+00  0.1286008E-03
   1       -3.8375
   2       -1.8931
   3       -0.5388
   4       -0.5388
   5       -0.2816
   6       -0.1937
   7       -0.1937
   8        0.1807
   9        0.5936
  10        0.5936
  11        1.0466
  12        1.0466
  13        1.0774
  14        1.2411
  15        1.5007
  16        1.5007
  17        1.5457
  18        1.5457
  19        1.6197
  20        1.8026
  21        2.1316
  22        2.1316
  23        8.3122
  24        8.3122
  25       11.4006
  26       11.4006
  27       11.4176
  28       11.4176
  29       13.0210
  30       13.0210
  31       18.7661
  32       19.1485
 
  0.4166667E+00  0.0000000E+00  0.0000000E+00  0.1286008E-03
   1       -3.5994
   2       -2.1064
   3       -0.4934
   4       -0.4934
   5       -0.2263
   6       -0.1153
   7       -0.1153
   8        0.1236
   9        0.4758
  10        0.4758
  11        1.0468
  12        1.1026
  13        1.1026
  14        1.1343
  15        1.4628
  16        1.4628
  17        1.4799
  18        1.4799
  19        1.6418
  20        1.7802
  21        2.1316
  22        2.1316
  23        8.6654
  24        8.6654
  25       10.9843
  26       10.9843
  27       11.5461
  28       11.5461
  29       12.7816
  30       12.7816
  31       19.4908
  32       19.4920
 
  0.4444444E+00  0.0000000E+00  0.0000000E+00  0.1286008E-03
   1       -3.3522
   2       -2.3403
   3       -0.4588
   4       -0.4588
   5       -0.1694
   6       -0.0310
   7       -0.0310
   8        0.0654
   9        0.3633
  10        0.3633
  11        1.0228
  12        1.0643
  13        1.1612
  14        1.1612
  15        1.4141
  16        1.4141
  17        1.4336
  18        1.4336
  19        1.6645
  20        1.7573
  21        2.1317
  22        2.1317
  23        9.0288
  24        9.0288
  25       10.5759
  26       10.5759
  27       11.6806
  28       11.6806
  29       12.5672
  30       12.5672
  31       19.8509
  32       19.8509
 
  0.4722222E+00  0.0000000E+00  0.0000000E+00  0.1286008E-03
   1       -3.0988
   2       -2.5879
   3       -0.4370
   4       -0.4370
   5       -0.1113
   6        0.0065
   7        0.0590
   8        0.0590
   9        0.2562
  10        0.2562
  11        1.0085
  12        1.0241
  13        1.2220
  14        1.2220
  15        1.3489
  16        1.3489
  17        1.4151
  18        1.4151
  19        1.6875
  20        1.7341
  21        2.1317
  22        2.1317
  23        9.4019
  24        9.4019
  25       10.1758
  26       10.1758
  27       11.8062
  28       11.8062
  29       12.3933
  30       12.3933
  31       20.2281
  32       20.2281
 
  0.5000000E+00  0.0000000E+00  0.0000000E+00  0.6430041E-04
   1       -2.8425
   2       -2.8425
   3       -0.4295
   4       -0.4295
   5       -0.0525
   6       -0.0525
   7        0.1548
   8        0.1548
   9        0.1548
  10        0.1548
  11        1.0074
  12        1.0074
  13        1.2847
  14        1.2847
  15        1.2847
  16        1.2847
  17        1.4088
  18        1.4088
  19        1.7108
  20        1.7108
  21        2.1317
  22        2.1317
  23        9.7844
  24        9.7844
  25        9.7844
  26        9.7844
  27       11.8693
  28       11.8693
  29       12.3141
  30       12.3141
  31       20.6216
  32       20.6216
 
  0.2777778E-01  0.2777778E-01  0.0000000E+00  0.2572016E-03
   1       -5.5551
   2       -1.1476
   3       -1.1476
   4       -1.1434
   5       -0.7063
   6       -0.7063
   7       -0.7062
   8        0.6369
   9        0.6445
  10        0.6455
  11        1.4431
  12        1.4465
  13        1.9747
  14        1.9766
  15        1.9766
  16        2.1000
  17        2.1104
  18        2.1104
  19        2.1272
  20        2.1272
  21        2.1285
  22        5.1233
  23        5.1233
  24        5.2129
  25       10.6378
  26       10.7176
  27       10.7176
  28       16.4181
  29       16.6079
  30       16.6079
  31       16.6356
  32       16.6356
 
  0.5555556E-01  0.2777778E-01  0.0000000E+00  0.5144033E-03
   1       -5.5272
   2       -1.1477
   3       -1.1347
   4       -1.1305
   5       -0.6990
   6       -0.6986
   7       -0.6985
   8        0.6294
   9        0.6504
  10        0.6520
  11        1.4364
  12        1.4489
  13        1.9652
  14        1.9665
  15        1.9731
  16        2.0532
  17        2.0619
  18        2.0992
  19        2.1159
  20        2.1272
  21        2.1272
  22        4.9406
  23        5.1968
  24        5.2860
  25       10.6483
  26       10.7287
  27       10.9563
  28       16.1425
  29       16.4071
  30       16.5085
  31       16.6481
  32       16.6644
 
  0.8333333E-01  0.2777778E-01  0.0000000E+00  0.5144033E-03
   1       -5.4809
   2       -1.1485
   3       -1.1133
   4       -1.1092
   5       -0.6869
   6       -0.6857
   7       -0.6857
   8        0.6162
   9        0.6610
  10        0.6627
  11        1.4244
  12        1.4538
  13        1.9473
  14        1.9495
  15        1.9671
  16        1.9782
  17        1.9886
  18        2.0809
  19        2.0974
  20        2.1269
  21        2.1272
  22        4.6669
  23        5.3142
  24        5.4029
  25       10.6659
  26       10.7472
  27       11.3236
  28       15.8040
  29       16.1093
  30       16.3112
  31       16.5342
  32       16.7151
 
  0.1111111E+00  0.2777778E-01  0.0000000E+00  0.5144033E-03
   1       -5.4163
   2       -1.1510
   3       -1.0838
   4       -1.0799
   5       -0.6700
   6       -0.6677
   7       -0.6677
   8        0.5977
   9        0.6761
  10        0.6776
  11        1.4077
  12        1.4607
  13        1.8802
  14        1.8811
  15        1.9278
  16        1.9352
  17        1.9584
  18        2.0559
  19        2.0718
  20        2.1268
  21        2.1272
  22        4.3328
  23        5.4698
  24        5.5583
  25       10.6908
  26       10.7733
  27       11.7899
  28       15.4237
  29       15.7470
  30       16.0603
  31       16.3242
  32       16.8082
 
  0.1388889E+00  0.2777778E-01  0.0000000E+00  0.5144033E-03
   1       -5.3335
   2       -1.1566
   3       -1.0467
   4       -1.0430
   5       -0.6486
   6       -0.6445
   7       -0.6445
   8        0.5741
   9        0.6954
  10        0.6968
  11        1.3866
  12        1.4696
  13        1.7679
  14        1.7679
  15        1.9003
  16        1.9051
  17        1.9465
  18        2.0252
  19        2.0396
  20        2.1268
  21        2.1273
  22        3.9641
  23        5.6575
  24        5.7462
  25       10.7232
  26       10.8075
  27       12.3308
  28       15.0172
  29       15.3447
  30       15.7721
  31       16.0573
  32       16.9277
 
  0.1666667E+00  0.2777778E-01  0.0000000E+00  0.5144033E-03
   1       -5.2326
   2       -1.1674
   3       -1.0026
   4       -0.9991
   5       -0.6226
   6       -0.6160
   7       -0.6160
   8        0.5457
   9        0.7190
  10        0.7201
  11        1.3614
  12        1.4803
  13        1.6427
  14        1.6435
  15        1.8673
  16        1.8714
  17        1.9294
  18        1.9908
  19        2.0012
  20        2.1268
  21        2.1273
  22        3.5807
  23        5.8722
  24        5.9617
  25       10.7635
  26       10.8499
  27       12.9282
  28       14.5956
  29       14.9189
  30       15.4606
  31       15.7536
  32       17.0713
 
  0.1944444E+00  0.2777778E-01  0.0000000E+00  0.5144033E-03
   1       -5.1140
   2       -1.1862
   3       -0.9524
   4       -0.9491
   5       -0.5923
   6       -0.5823
   7       -0.5822
   8        0.5127
   9        0.7467
  10        0.7474
  11        1.3324
  12        1.4928
  13        1.5105
  14        1.5123
  15        1.8293
  16        1.8330
  17        1.9024
  18        1.9572
  19        1.9579
  20        2.1268
  21        2.1274
  22        3.1978
  23        6.1096
  24        6.2006
  25       10.8119
  26       10.9010
  27       13.5695
  28       14.1665
  29       14.4801
  30       15.1368
  31       15.4287
  32       17.2400
 
  0.2222222E+00  0.2777778E-01  0.0000000E+00  0.5144033E-03
   1       -4.9781
   2       -1.2163
   3       -0.8969
   4       -0.8939
   5       -0.5580
   6       -0.5433
   7       -0.5431
   8        0.4754
   9        0.7784
  10        0.7787
  11        1.3003
  12        1.3747
  13        1.3773
  14        1.5070
  15        1.7868
  16        1.7903
  17        1.8601
  18        1.9082
  19        1.9316
  20        2.1269
  21        2.1274
  22        2.8281
  23        6.3663
  24        6.4595
  25       10.8690
  26       10.9613
  27       13.7347
  28       14.0353
  29       14.2460
  30       14.8093
  31       15.0942
  32       17.4329
 
  0.2500000E+00  0.2777778E-01  0.0000000E+00  0.5144033E-03
   1       -4.8251
   2       -1.2623
   3       -0.8373
   4       -0.8347
   5       -0.5197
   6       -0.4989
   7       -0.4985
   8        0.4341
   9        0.8137
  10        0.8141
  11        1.2379
  12        1.2411
  13        1.2656
  14        1.5227
  15        1.7407
  16        1.7440
  17        1.8036
  18        1.8548
  19        1.9098
  20        2.1270
  21        2.1274
  22        2.4833
  23        6.6398
  24        6.7360
  25       10.9351
  26       11.0312
  27       13.3036
  28       13.5890
  29       14.4844
  30       14.7585
  31       14.9512
  32       17.6505
 
  0.2777778E+00  0.2777778E-01  0.0000000E+00  0.5144033E-03
   1       -4.6557
   2       -1.3292
   3       -0.7751
   4       -0.7728
   5       -0.4778
   6       -0.4490
   7       -0.4485
   8        0.3892
   9        0.8523
  10        0.8536
  11        1.1017
  12        1.1055
  13        1.2291
  14        1.5399
  15        1.6920
  16        1.6950
  17        1.7324
  18        1.7978
  19        1.8882
  20        2.1271
  21        2.1275
  22        2.1777
  23        6.9282
  24        7.0280
  25       11.0105
  26       11.1114
  27       12.8755
  28       13.1441
  29       14.1668
  30       14.4276
  31       15.6806
  32       17.8864
 
  0.3055556E+00  0.2777778E-01  0.0000000E+00  0.5144033E-03
   1       -4.4705
   2       -1.4220
   3       -0.7118
   4       -0.7099
   5       -0.4326
   6       -0.3937
   7       -0.3929
   8        0.3411
   9        0.8941
  10        0.8968
  11        0.9678
  12        0.9719
  13        1.1918
  14        1.5585
  15        1.6356
  16        1.6418
  17        1.6446
  18        1.7377
  19        1.8593
  20        1.9382
  21        2.1272
  22        2.1275
  23        7.2298
  24        7.3340
  25       11.0954
  26       11.2025
  27       12.4525
  28       12.7027
  29       13.8601
  30       14.1061
  31       16.4304
  32       18.1450
 
  0.3333333E+00  0.2777778E-01  0.0000000E+00  0.5144033E-03
   1       -4.2703
   2       -1.5450
   3       -0.6495
   4       -0.6478
   5       -0.3843
   6       -0.3329
   7       -0.3318
   8        0.2901
   9        0.8370
  10        0.8414
  11        0.9383
  12        0.9435
  13        1.1555
  14        1.4974
  15        1.5782
  16        1.5918
  17        1.5943
  18        1.6752
  19        1.7540
  20        1.8567
  21        2.1272
  22        2.1276
  23        7.5435
  24        7.6529
  25       11.1886
  26       11.3048
  27       12.0371
  28       12.2663
  29       13.5670
  30       13.7974
  31       17.1970
  32       18.4282
 
  0.3611111E+00  0.2777778E-01  0.0000000E+00  0.5144033E-03
   1       -4.0561
   2       -1.7002
   3       -0.5903
   4       -0.5888
   5       -0.3333
   6       -0.2665
   7       -0.2649
   8        0.2366
   9        0.7102
  10        0.7148
  11        0.9827
  12        0.9935
  13        1.1233
  14        1.3431
  15        1.5437
  16        1.5459
  17        1.5990
  18        1.6109
  19        1.6526
  20        1.8314
  21        2.1273
  22        2.1276
  23        7.8683
  24        7.9839
  25       11.2792
  26       11.4187
  27       11.6412
  28       11.8359
  29       13.2897
  30       13.5039
  31       17.9765
  32       18.7243
 
  0.3888889E+00  0.2777778E-01  0.0000000E+00  0.5144033E-03
   1       -3.8292
   2       -1.8865
   3       -0.5365
   4       -0.5353
   5       -0.2800
   6       -0.1945
   7       -0.1924
   8        0.1812
   9        0.5879
  10        0.5925
  11        1.0177
  12        1.0467
  13        1.1061
  14        1.2108
  15        1.4997
  16        1.5016
  17        1.5456
  18        1.5717
  19        1.6207
  20        1.8080
  21        2.1274
  22        2.1276
  23        8.2035
  24        8.3260
  25       11.1645
  26       11.4124
  27       11.4684
  28       11.5441
  29       13.0302
  30       13.2278
  31       18.7582
  32       19.0403
 
  0.4166667E+00  0.2777778E-01  0.0000000E+00  0.5144033E-03
   1       -3.5912
   2       -2.0996
   3       -0.4909
   4       -0.4899
   5       -0.2248
   6       -0.1167
   7       -0.1142
   8        0.1242
   9        0.4706
  10        0.4752
  11        1.0209
  12        1.1026
  13        1.1124
  14        1.1279
  15        1.4621
  16        1.4635
  17        1.4798
  18        1.4984
  19        1.6432
  20        1.7847
  21        2.1274
  22        2.1276
  23        8.5484
  24        8.6789
  25       10.7881
  26       10.9962
  27       11.5751
  28       11.6795
  29       12.7916
  30       12.9712
  31       19.3750
  32       19.3855
 
  0.4444444E+00  0.2777778E-01  0.0000000E+00  0.5144033E-03
   1       -3.3442
   2       -2.3332
   3       -0.4559
   4       -0.4552
   5       -0.1680
   6       -0.0333
   7       -0.0301
   8        0.0662
   9        0.3586
  10        0.3631
  11        1.0060
  12        1.0469
  13        1.1612
  14        1.1770
  15        1.4140
  16        1.4287
  17        1.4331
  18        1.4342
  19        1.6662
  20        1.7610
  21        2.1275
  22        2.1276
  23        8.9024
  24        9.0419
  25       10.3990
  26       10.5880
  27       11.7104
  28       11.8192
  29       12.5806
  30       12.7374
  31       19.7261
  32       19.7658
 
  0.4722222E+00  0.2777778E-01  0.0000000E+00  0.5144033E-03
   1       -3.0910
   2       -2.5805
   3       -0.4338
   4       -0.4335
   5       -0.1101
   6        0.0075
   7        0.0560
   8        0.0596
   9        0.2520
  10        0.2563
  11        0.9943
  12        1.0092
  13        1.2220
  14        1.2349
  15        1.3488
  16        1.3616
  17        1.4149
  18        1.4155
  19        1.6897
  20        1.7373
  21        2.1276
  22        2.1276
  23        9.2651
  24        9.4147
  25       10.0141
  26       10.1881
  27       11.8496
  28       11.9390
  29       12.4224
  30       12.5353
  31       20.0925
  32       20.1432
 
  0.5000000E+00  0.2777778E-01  0.0000000E+00  0.2572016E-03
   1       -2.8349
   2       -2.8349
   3       -0.4262
   4       -0.4262
   5       -0.0514
   6       -0.0514
   7        0.1512
   8        0.1512
   9        0.1551
  10        0.1551
  11        0.9935
  12        0.9935
  13        1.2847
  14        1.2847
  15        1.2968
  16        1.2968
  17        1.4089
  18        1.4089
  19        1.7134
  20        1.7134
  21        2.1276
  22        2.1276
  23        9.6358
  24        9.6358
  25        9.7969
  26        9.7969
  27       11.9562
  28       11.9562
  29       12.4001
  30       12.4001
  31       20.4733
  32       20.5099
 
  0.5555556E-01  0.5555556E-01  0.0000000E+00  0.2572016E-03
   1       -5.4995
   2       -1.1347
   3       -1.1347
   4       -1.1177
   5       -0.6913
   6       -0.6913
   7       -0.6909
   8        0.6242
   9        0.6541
  10        0.6582
  11        1.4336
  12        1.4476
  13        1.9559
  14        1.9609
  15        1.9609
  16        2.0130
  17        2.0519
  18        2.0519
  19        2.1159
  20        2.1159
  21        2.1214
  22        5.0135
  23        5.0135
  24        5.3571
  25       10.6588
  26       10.9687
  27       10.9687
  28       15.7889
  29       16.4463
  30       16.4463
  31       16.5481
  32       16.5481
 
  0.8333333E-01  0.5555556E-01  0.0000000E+00  0.5144033E-03
   1       -5.4532
   2       -1.1353
   3       -1.1131
   4       -1.0966
   5       -0.6793
   6       -0.6786
   7       -0.6782
   8        0.6126
   9        0.6633
  10        0.6686
  11        1.4237
  12        1.4508
  13        1.9323
  14        1.9404
  15        1.9439
  16        1.9509
  17        1.9869
  18        2.0361
  19        2.0973
  20        2.1159
  21        2.1179
  22        4.7397
  23        5.1298
  24        5.4712
  25       10.6765
  26       10.9895
  27       11.3377
  28       15.3952
  29       16.1473
  30       16.3498
  31       16.5114
  32       16.6140
 
  0.1111111E+00  0.5555556E-01  0.0000000E+00  0.5144033E-03
   1       -5.3887
   2       -1.1375
   3       -1.0834
   4       -1.0675
   5       -0.6626
   6       -0.6607
   7       -0.6604
   8        0.5949
   9        0.6776
  10        0.6830
  11        1.4078
  12        1.4574
  13        1.8518
  14        1.8559
  15        1.9190
  16        1.9349
  17        1.9417
  18        2.0160
  19        2.0717
  20        2.1159
  21        2.1161
  22        4.4064
  23        5.2831
  24        5.6232
  25       10.7014
  26       11.0190
  27       11.8057
  28       14.9777
  29       15.7839
  30       16.0976
  31       16.6021
  32       16.6604
 
  0.1388889E+00  0.5555556E-01  0.0000000E+00  0.5144033E-03
   1       -5.3060
   2       -1.1428
   3       -1.0460
   4       -1.0309
   5       -0.6412
   6       -0.6376
   7       -0.6375
   8        0.5719
   9        0.6966
  10        0.7014
  11        1.3873
  12        1.4664
  13        1.7428
  14        1.7450
  15        1.8919
  16        1.9094
  17        1.9107
  18        1.9941
  19        2.0395
  20        2.1153
  21        2.1159
  22        4.0398
  23        5.4674
  24        5.8078
  25       10.7338
  26       11.0574
  27       12.3480
  28       14.5477
  29       15.3807
  30       15.8081
  31       16.4672
  32       16.7178
 
  0.1666667E+00  0.5555556E-01  0.0000000E+00  0.5144033E-03
   1       -5.2053
   2       -1.1532
   3       -1.0015
   4       -0.9874
   5       -0.6155
   6       -0.6094
   7       -0.6093
   8        0.5439
   9        0.7199
  10        0.7238
  11        1.3626
  12        1.4775
  13        1.6203
  14        1.6223
  15        1.8594
  16        1.8748
  17        1.8759
  18        1.9724
  19        2.0011
  20        2.1148
  21        2.1159
  22        3.6603
  23        5.6773
  24        6.0201
  25       10.7740
  26       11.1051
  27       12.9465
  28       14.1124
  29       14.9542
  30       15.4952
  31       16.2132
  32       16.8580
 
  0.1944444E+00  0.5555556E-01  0.0000000E+00  0.5144033E-03
   1       -5.0868
   2       -1.1715
   3       -0.9508
   4       -0.9378
   5       -0.5854
   6       -0.5761
   7       -0.5757
   8        0.5113
   9        0.7474
  10        0.7500
  11        1.3343
  12        1.4883
  13        1.4905
  14        1.4944
  15        1.8218
  16        1.8295
  17        1.8361
  18        1.9516
  19        1.9571
  20        2.1146
  21        2.1159
  22        3.2838
  23        5.9084
  24        6.2559
  25       10.8223
  26       11.1626
  27       13.5886
  28       13.6770
  29       14.5150
  30       15.1702
  31       15.9194
  32       17.0219
 
  0.2222222E+00  0.5555556E-01  0.0000000E+00  0.5144033E-03
   1       -4.9511
   2       -1.2011
   3       -0.8948
   4       -0.8830
   5       -0.5512
   6       -0.5376
   7       -0.5368
   8        0.4743
   9        0.7790
  10        0.7799
  11        1.3030
  12        1.3529
  13        1.3624
  14        1.5052
  15        1.7711
  16        1.7799
  17        1.7932
  18        1.9081
  19        1.9308
  20        2.1145
  21        2.1159
  22        2.9239
  23        6.1575
  24        6.5121
  25       10.8789
  26       11.2304
  27       13.2451
  28       14.0699
  29       14.2657
  30       14.8414
  31       15.6024
  32       17.2087
 
  0.2500000E+00  0.5555556E-01  0.0000000E+00  0.5144033E-03
   1       -4.7984
   2       -1.2464
   3       -0.8347
   4       -0.8242
   5       -0.5132
   6       -0.4939
   7       -0.4925
   8        0.4335
   9        0.8130
  10        0.8146
  11        1.2165