   4   4   0   0
  0.1313628E+02  0.3745508E-09  0.3745508E-09  0.3745508E-09  0.5000000E-15
  1.000000000000000E-004
  CAR 
 unknown system                          
     12.89391963     -6.52266946  301      2.93336260      1.00000000
     -6.523  0.0000E+00  0.0000E+00
     -6.458  0.0000E+00  0.0000E+00
     -6.393  0.0000E+00  0.0000E+00
     -6.329  0.0000E+00  0.0000E+00
     -6.264  0.0000E+00  0.0000E+00
     -6.199  0.0000E+00  0.0000E+00
     -6.134  0.0000E+00  0.0000E+00
     -6.070  0.0000E+00  0.0000E+00
     -6.005  0.0000E+00  0.0000E+00
     -5.940  0.0000E+00  0.0000E+00
     -5.875  0.0000E+00  0.0000E+00
     -5.811  0.0000E+00  0.0000E+00
     -5.746  0.0000E+00  0.0000E+00
     -5.681  0.5116E-10  0.3311E-11
     -5.617  0.1787E-01  0.1157E-02
     -5.552  0.9878E-01  0.7551E-02
     -5.487  0.7717E-01  0.1255E-01
     -5.422  0.1475E+00  0.2209E-01
     -5.358  0.1415E+00  0.3125E-01
     -5.293  0.1073E+00  0.3819E-01
     -5.228  0.4290E+00  0.6596E-01
     -5.164  0.4044E+00  0.9214E-01
     -5.099  0.2481E-01  0.9375E-01
     -5.034  0.8670E-02  0.9431E-01
     -4.969  0.2062E+00  0.1077E+00
     -4.905  0.5362E+00  0.1424E+00
     -4.840  0.4292E+00  0.1701E+00
     -4.775  0.4278E+00  0.1978E+00
     -4.710  0.1348E+00  0.2066E+00
     -4.646  0.2016E+00  0.2197E+00
     -4.581  0.3137E+00  0.2400E+00
     -4.516  0.7804E+00  0.2905E+00
     -4.452  0.9032E-06  0.2905E+00
     -4.387  0.1073E+00  0.2975E+00
     -4.322  0.8583E+00  0.3530E+00
     -4.257  0.6414E+00  0.3945E+00
     -4.193  0.4197E+00  0.4218E+00
     -4.128  0.3085E+00  0.4418E+00
     -4.063  0.4870E+00  0.4733E+00
     -3.999  0.7173E+00  0.5197E+00
     -3.934  0.2135E+00  0.5336E+00
     -3.869  0.9623E-02  0.5342E+00
     -3.804  0.4196E+00  0.5613E+00
     -3.740  0.5365E+00  0.5961E+00
     -3.675  0.1291E+01  0.6796E+00
     -3.610  0.5688E+00  0.7164E+00
     -3.545  0.1396E-03  0.7164E+00
     -3.481  0.1287E+01  0.7997E+00
     -3.416  0.8576E+00  0.8553E+00
     -3.351  0.1118E-11  0.8553E+00
     -3.287  0.2126E+00  0.8691E+00
     -3.222  0.8884E+00  0.9267E+00
     -3.157  0.8191E+00  0.9797E+00
     -3.092  0.8693E+00  0.1036E+01
     -3.028  0.5332E+00  0.1071E+01
     -2.963  0.4334E+00  0.1099E+01
     -2.898  0.1283E+01  0.1182E+01
     -2.834  0.2093E-03  0.1182E+01
     -2.769  0.8584E+00  0.1237E+01
     -2.704  0.1292E+01  0.1321E+01
     -2.639  0.1283E+01  0.1404E+01
     -2.575  0.2990E+00  0.1423E+01
     -2.510  0.1037E+01  0.1490E+01
     -2.445  0.1302E+01  0.1575E+01
     -2.380  0.8025E-01  0.1580E+01
     -2.316  0.1646E+01  0.1686E+01
     -2.251  0.6069E+00  0.1726E+01
     -2.186  0.9671E+00  0.1788E+01
     -2.122  0.8374E+00  0.1843E+01
     -2.057  0.3086E+01  0.2042E+01
     -1.992  0.1301E+01  0.2126E+01
     -1.927  0.3785E+00  0.2151E+01
     -1.863  0.1438E+01  0.2244E+01
     -1.798  0.1239E+01  0.2324E+01
     -1.733  0.1576E+01  0.2426E+01
     -1.669  0.3660E+01  0.2663E+01
     -1.604  0.1926E+01  0.2788E+01
     -1.539  0.2111E+01  0.2925E+01
     -1.474  0.4371E+01  0.3208E+01
     -1.410  0.2878E+01  0.3395E+01
     -1.345  0.4347E+01  0.3676E+01
     -1.280  0.5497E+01  0.4032E+01
     -1.215  0.6238E+01  0.4436E+01
     -1.151  0.3160E+01  0.4640E+01
     -1.086  0.7637E+01  0.5135E+01
     -1.021  0.4291E+01  0.5412E+01
     -0.957  0.6168E+01  0.5812E+01
     -0.892  0.1046E+02  0.6488E+01
     -0.827  0.8870E+01  0.7063E+01
     -0.762  0.8202E+01  0.7594E+01
     -0.698  0.1220E+02  0.8385E+01
     -0.633  0.1159E+02  0.9135E+01
     -0.568  0.9717E+01  0.9764E+01
     -0.504  0.8846E+01  0.1034E+02
     -0.439  0.1023E+02  0.1100E+02
     -0.374  0.1038E+02  0.1167E+02
     -0.309  0.9431E+01  0.1228E+02
     -0.245  0.8969E+01  0.1286E+02
     -0.180  0.1340E+02  0.1373E+02
     -0.115  0.1287E+02  0.1456E+02
     -0.050  0.1313E+02  0.1541E+02
      0.014  0.1626E+02  0.1647E+02
      0.079  0.1637E+02  0.1753E+02
      0.144  0.1584E+02  0.1855E+02
      0.208  0.1856E+02  0.1975E+02
      0.273  0.1721E+02  0.2087E+02
      0.338  0.2623E+02  0.2257E+02
      0.403  0.1809E+02  0.2374E+02
      0.467  0.1564E+02  0.2475E+02
      0.532  0.1159E+02  0.2550E+02
      0.597  0.1060E+02  0.2619E+02
      0.661  0.1380E+02  0.2708E+02
      0.726  0.1558E+02  0.2809E+02
      0.791  0.1640E+02  0.2915E+02
      0.856  0.1867E+02  0.3036E+02
      0.920  0.1704E+02  0.3146E+02
      0.985  0.1692E+02  0.3256E+02
      1.050  0.1476E+02  0.3352E+02
      1.115  0.1404E+02  0.3443E+02
      1.179  0.1760E+02  0.3557E+02
      1.244  0.1611E+02  0.3661E+02
      1.309  0.2452E+02  0.3820E+02
      1.373  0.3002E+02  0.4014E+02
      1.438  0.1577E+02  0.4116E+02
      1.503  0.1235E+02  0.4196E+02
      1.568  0.4932E+00  0.4200E+02
      1.632  0.7946E+00  0.4205E+02
      1.697  0.1888E+01  0.4217E+02
      1.762  0.2576E+01  0.4234E+02
      1.826  0.1815E+01  0.4245E+02
      1.891  0.9082E+00  0.4251E+02
      1.956  0.1732E+01  0.4262E+02
      2.021  0.1701E+01  0.4273E+02
      2.085  0.1202E+01  0.4281E+02
      2.150  0.1938E+01  0.4294E+02
      2.215  0.2011E+01  0.4307E+02
      2.280  0.1186E+01  0.4315E+02
      2.344  0.1733E+01  0.4326E+02
      2.409  0.1780E+00  0.4327E+02
      2.474  0.8575E+00  0.4332E+02
      2.538  0.1447E+01  0.4342E+02
      2.603  0.1339E+01  0.4350E+02
      2.668  0.2549E+01  0.4367E+02
      2.733  0.2153E+01  0.4381E+02
      2.797  0.1590E+01  0.4391E+02
      2.862  0.9835E+00  0.4398E+02
      2.927  0.1458E+00  0.4399E+02
      2.991  0.1206E+01  0.4406E+02
      3.056  0.4264E-01  0.4407E+02
      3.121  0.1640E+01  0.4417E+02
      3.186  0.1420E+01  0.4426E+02
      3.250  0.3373E+01  0.4448E+02
      3.315  0.4292E+00  0.4451E+02
      3.380  0.5667E+00  0.4455E+02
      3.445  0.2008E+01  0.4468E+02
      3.509  0.1285E+01  0.4476E+02
      3.574  0.1025E+00  0.4477E+02
      3.639  0.1272E+01  0.4485E+02
      3.703  0.1160E+01  0.4492E+02
      3.768  0.1472E+01  0.4502E+02
      3.833  0.1144E+01  0.4509E+02
      3.898  0.5867E-01  0.4510E+02
      3.962  0.1373E+01  0.4519E+02
      4.027  0.1037E+01  0.4525E+02
      4.092  0.1224E+01  0.4533E+02
      4.156  0.2136E+01  0.4547E+02
      4.221  0.1313E+01  0.4556E+02
      4.286  0.1304E+01  0.4564E+02
      4.351  0.3471E+00  0.4566E+02
      4.415  0.5499E+00  0.4570E+02
      4.480  0.8634E+00  0.4575E+02
      4.545  0.1335E+01  0.4584E+02
      4.610  0.1712E+01  0.4595E+02
      4.674  0.4302E+00  0.4598E+02
      4.739  0.1072E+01  0.4605E+02
      4.804  0.7700E+00  0.4610E+02
      4.868  0.5203E+00  0.4613E+02
      4.933  0.2681E+01  0.4631E+02
      4.998  0.1339E+01  0.4639E+02
      5.063  0.5438E-01  0.4640E+02
      5.127  0.4938E-05  0.4640E+02
      5.192  0.1806E+01  0.4651E+02
      5.257  0.1757E+01  0.4663E+02
      5.321  0.5136E+00  0.4666E+02
      5.386  0.4290E+00  0.4669E+02
      5.451  0.8584E+00  0.4674E+02
      5.516  0.8584E+00  0.4680E+02
      5.580  0.4318E+00  0.4683E+02
      5.645  0.4273E+00  0.4685E+02
      5.710  0.8576E+00  0.4691E+02
      5.775  0.1683E+01  0.4702E+02
      5.839  0.9908E+00  0.4708E+02
      5.904  0.2207E+00  0.4710E+02
      5.969  0.7534E+00  0.4715E+02
      6.033  0.5166E-02  0.4715E+02
      6.098  0.2141E+01  0.4728E+02
      6.163  0.3791E+00  0.4731E+02
      6.228  0.8517E+00  0.4736E+02
      6.292  0.6024E+00  0.4740E+02
      6.357  0.7778E+00  0.4745E+02
      6.422  0.5941E+00  0.4749E+02
      6.486  0.2721E+01  0.4767E+02
      6.551  0.9000E+00  0.4773E+02
      6.616  0.1006E+01  0.4779E+02
      6.681  0.2513E+00  0.4781E+02
      6.745  0.1886E+01  0.4793E+02
      6.810  0.6392E+00  0.4797E+02
      6.875  0.9362E+00  0.4803E+02
      6.939  0.1210E+01  0.4811E+02
      7.004  0.1905E+01  0.4823E+02
      7.069  0.4450E+00  0.4826E+02
      7.134  0.2360E+01  0.4842E+02
      7.198  0.1186E+01  0.4849E+02
      7.263  0.8972E+00  0.4855E+02
      7.328  0.6269E-01  0.4856E+02
      7.393  0.1556E+01  0.4866E+02
      7.457  0.1508E+01  0.4875E+02
      7.522  0.2267E+00  0.4877E+02
      7.587  0.9289E+00  0.4883E+02
      7.651  0.7959E+00  0.4888E+02
      7.716  0.1408E+01  0.4897E+02
      7.781  0.8053E+00  0.4902E+02
      7.846  0.3090E+01  0.4922E+02
      7.910  0.8550E+00  0.4928E+02
      7.975  0.6054E-01  0.4928E+02
      8.040  0.8519E+00  0.4934E+02
      8.104  0.4515E+00  0.4937E+02
      8.169  0.6150E+00  0.4941E+02
      8.234  0.9737E+00  0.4947E+02
      8.299  0.1381E+01  0.4956E+02
      8.363  0.1683E-07  0.4956E+02
      8.428  0.1372E+01  0.4965E+02
      8.493  0.4823E+00  0.4968E+02
      8.558  0.9559E+00  0.4974E+02
      8.622  0.1267E+01  0.4982E+02
      8.687  0.1322E+01  0.4991E+02
      8.752  0.4138E+00  0.4994E+02
      8.816  0.1220E+01  0.5002E+02
      8.881  0.1543E+01  0.5012E+02
      8.946  0.8543E+00  0.5017E+02
      9.011  0.0000E+00  0.5017E+02
      9.075  0.5208E-11  0.5017E+02
      9.140  0.7059E+00  0.5022E+02
      9.205  0.1068E+01  0.5029E+02
      9.269  0.1802E+01  0.5040E+02
      9.334  0.2841E+00  0.5042E+02
      9.399  0.8923E+00  0.5048E+02
      9.464  0.1827E+00  0.5049E+02
      9.528  0.9607E+00  0.5055E+02
      9.593  0.4437E+00  0.5058E+02
      9.658  0.1529E+01  0.5068E+02
      9.723  0.9417E+00  0.5074E+02
      9.787  0.5170E+00  0.5078E+02
      9.852  0.8507E+00  0.5083E+02
      9.917  0.8377E+00  0.5089E+02
      9.981  0.9560E+00  0.5095E+02
     10.046  0.2708E+01  0.5112E+02
     10.111  0.8431E+00  0.5118E+02
     10.176  0.2979E+00  0.5120E+02
     10.240  0.1757E+01  0.5131E+02
     10.305  0.1899E+01  0.5143E+02
     10.370  0.6666E+00  0.5148E+02
     10.434  0.9401E+00  0.5154E+02
     10.499  0.1172E+01  0.5161E+02
     10.564  0.0000E+00  0.5161E+02
     10.629  0.1690E+00  0.5162E+02
     10.693  0.9227E+00  0.5168E+02
     10.758  0.1233E+01  0.5176E+02
     10.823  0.2464E+00  0.5178E+02
     10.888  0.1933E-01  0.5178E+02
     10.952  0.1048E+01  0.5185E+02
     11.017  0.1520E-01  0.5185E+02
     11.082  0.4370E+00  0.5188E+02
     11.146  0.5008E+00  0.5191E+02
     11.211  0.3438E+00  0.5193E+02
     11.276  0.1548E-01  0.5193E+02
     11.341  0.6998E+00  0.5198E+02
     11.405  0.0000E+00  0.5198E+02
     11.470  0.0000E+00  0.5198E+02
     11.535  0.0000E+00  0.5198E+02
     11.599  0.0000E+00  0.5198E+02
     11.664  0.5701E-01  0.5198E+02
     11.729  0.1576E+00  0.5199E+02
     11.794  0.0000E+00  0.5199E+02
     11.858  0.0000E+00  0.5199E+02
     11.923  0.0000E+00  0.5199E+02
     11.988  0.4686E-04  0.5199E+02
     12.053  0.1072E+00  0.5200E+02
     12.117  0.0000E+00  0.5200E+02
     12.182  0.0000E+00  0.5200E+02
     12.247  0.0000E+00  0.5200E+02
     12.311  0.0000E+00  0.5200E+02
     12.376  0.0000E+00  0.5200E+02
     12.441  0.0000E+00  0.5200E+02
     12.506  0.0000E+00  0.5200E+02
     12.570  0.0000E+00  0.5200E+02
     12.635  0.0000E+00  0.5200E+02
     12.700  0.0000E+00  0.5200E+02
     12.764  0.0000E+00  0.5200E+02
     12.829  0.0000E+00  0.5200E+02
     12.894  0.0000E+00  0.5200E+02
