    4    4    1    1
  0.1313628E+02  0.3745508E-09  0.3745508E-09  0.3745508E-09  0.5000000E-15
  1.000000000000000E-004
  CAR 
 unknown system                          
   44   84   26
 
  0.0000000E+00  0.0000000E+00  0.0000000E+00  0.5787037E-03
   1       -5.6401
   2       -1.3809
   3       -1.3809
   4       -1.3809
   5       -0.9933
   6       -0.9933
   7       -0.9933
   8        0.1841
   9        0.1841
  10        0.1841
  11        0.8857
  12        0.8857
  13        1.3526
  14        1.3526
  15        1.3526
  16        1.4833
  17        1.4833
  18        1.4833
  19        1.4833
  20        1.4833
  21        1.4833
  22        4.5166
  23        4.5166
  24        4.5166
  25        9.3300
  26        9.3300
 
  0.8333333E-01  0.0000000E+00  0.0000000E+00  0.3472222E-02
   1       -5.5618
   2       -1.3834
   3       -1.3463
   4       -1.3463
   5       -0.9741
   6       -0.9730
   7       -0.9730
   8        0.1632
   9        0.2012
  10        0.2012
  11        0.8668
  12        0.8936
  13        1.3282
  14        1.3282
  15        1.3445
  16        1.3653
  17        1.3653
  18        1.4542
  19        1.4542
  20        1.4833
  21        1.4833
  22        3.9914
  23        4.7060
  24        4.7060
  25        9.3626
  26        9.3626
 
  0.1666667E+00  0.0000000E+00  0.0000000E+00  0.3472222E-02
   1       -5.3284
   2       -1.4063
   3       -1.2473
   4       -1.2473
   5       -0.9176
   6       -0.9116
   7       -0.9116
   8        0.1020
   9        0.2522
  10        0.2522
  11        0.8121
  12        0.9165
  13        1.0782
  14        1.0782
  15        1.2569
  16        1.2569
  17        1.3208
  18        1.3710
  19        1.3710
  20        1.4834
  21        1.4834
  22        2.9227
  23        5.2072
  24        5.2072
  25        9.4633
  26        9.4633
 
  0.2500000E+00  0.0000000E+00  0.0000000E+00  0.3472222E-02
   1       -4.9448
   2       -1.5058
   3       -1.0995
   4       -1.0995
   5       -0.8272
   6       -0.8080
   7       -0.8080
   8        0.0053
   9        0.3356
  10        0.3356
  11        0.7274
  12        0.7274
  13        0.7287
  14        0.9530
  15        1.1471
  16        1.1471
  17        1.2441
  18        1.2441
  19        1.2832
  20        1.4836
  21        1.4836
  22        1.8504
  23        5.9136
  24        5.9136
  25        9.6406
  26        9.6406
 
  0.3333333E+00  0.0000000E+00  0.0000000E+00  0.3472222E-02
   1       -4.4211
   2       -1.7915
   3       -0.9318
   4       -0.9318
   5       -0.7085
   6       -0.6609
   7       -0.6609
   8       -0.1198
   9        0.3759
  10        0.3759
  11        0.4490
  12        0.4490
  13        0.6302
  14        1.0008
  15        1.0174
  16        1.0174
  17        1.0426
  18        1.0880
  19        1.0880
  20        1.2343
  21        1.4837
  22        1.4837
  23        6.7599
  24        6.7599
  25        9.9080
  26        9.9080
 
  0.4166667E+00  0.0000000E+00  0.0000000E+00  0.3472222E-02
   1       -3.7772
   2       -2.3408
   3       -0.7904
   4       -0.7904
   5       -0.5688
   6       -0.4687
   7       -0.4687
   8       -0.2641
   9        0.0525
  10        0.0525
  11        0.5412
  12        0.5884
  13        0.5884
  14        0.6240
  15        0.9038
  16        0.9038
  17        0.9178
  18        0.9178
  19        1.0567
  20        1.1776
  21        1.4838
  22        1.4838
  23        7.7144
  24        7.7144
  25        9.8885
  26        9.8885
 
  0.5000000E+00  0.0000000E+00  0.0000000E+00  0.1736111E-02
   1       -3.0541
   2       -3.0541
   3       -0.7331
   4       -0.7331
   5       -0.4173
   6       -0.4173
   7       -0.2306
   8       -0.2306
   9       -0.2306
  10       -0.2306
  11        0.5081
  12        0.5081
  13        0.7475
  14        0.7475
  15        0.7475
  16        0.7475
  17        0.8565
  18        0.8565
  19        1.1170
  20        1.1170
  21        1.4839
  22        1.4839
  23        8.7607
  24        8.7607
  25        8.7607
  26        8.7607
 
  0.8333333E-01  0.8333333E-01  0.0000000E+00  0.6944444E-02
   1       -5.4838
   2       -1.3478
   3       -1.3478
   4       -1.3125
   5       -0.9542
   6       -0.9542
   7       -0.9533
   8        0.1517
   9        0.2093
  10        0.2166
  11        0.8617
  12        0.8892
  13        1.2778
  14        1.2927
  15        1.2927
  16        1.3047
  17        1.3578
  18        1.3578
  19        1.4542
  20        1.4542
  21        1.4645
  22        4.1759
  23        4.1759
  24        4.8840
  25        9.3958
  26       10.0597
 
  0.1666667E+00  0.8333333E-01  0.0000000E+00  0.1388889E-01
   1       -5.2513
   2       -1.3679
   3       -1.2462
   4       -1.2162
   5       -0.8988
   6       -0.8939
   7       -0.8939
   8        0.0968
   9        0.2553
  10        0.2621
  11        0.8144
  12        0.9102
  13        1.0207
  14        1.0235
  15        1.1898
  16        1.2364
  17        1.2651
  18        1.3309
  19        1.3708
  20        1.4541
  21        1.4545
  22        3.1184
  23        4.6508
  24        5.3629
  25        9.4982
  26       10.1931
 
  0.2500000E+00  0.8333333E-01  0.0000000E+00  0.1388889E-01
   1       -4.8694
   2       -1.4624
   3       -1.0939
   4       -1.0720
   5       -0.8102
   6       -0.7945
   7       -0.7923
   8        0.0035
   9        0.3341
  10        0.3373
  11        0.6716
  12        0.6954
  13        0.7381
  14        0.9511
  15        1.0098
  16        1.1307
  17        1.1544
  18        1.2437
  19        1.2826
  20        1.4522
  21        1.4539
  22        2.1034
  23        5.3001
  24        6.0495
  25        9.6770
  26       10.4263
 
  0.3333333E+00  0.8333333E-01  0.0000000E+00  0.1388889E-01
   1       -4.3482
   2       -1.7413
   3       -0.9201
   4       -0.9062
   5       -0.6938
   6       -0.6564
   7       -0.6482
   8       -0.1183
   9        0.3259
  10        0.3597
  11        0.4171
  12        0.4499
  13        0.6636
  14        0.7342
  15        1.0055
  16        1.0059
  17        1.0246
  18        1.0874
  19        1.1954
  20        1.4489
  21        1.4518
  22        1.4535
  23        6.0601
  24        6.8812
  25        9.8459
  26       10.0158
 
  0.4166667E+00  0.8333333E-01  0.0000000E+00  0.1388889E-01
   1       -3.7079
   2       -2.2833
   3       -0.7711
   4       -0.7631
   5       -0.5571
   6       -0.4805
   7       -0.4601
   8       -0.2592
   9        0.0113
  10        0.0473
  11        0.4450
  12        0.4950
  13        0.5886
  14        0.6778
  15        0.8978
  16        0.9089
  17        0.9174
  18        1.0042
  19        1.0701
  20        1.2305
  21        1.4521
  22        1.4531
  23        6.9038
  24        7.8254
  25        8.8185
  26        9.9875
 
  0.5000000E+00  0.8333333E-01  0.0000000E+00  0.6944444E-02
   1       -2.9899
   2       -2.9899
   3       -0.7069
   4       -0.7069
   5       -0.4089
   6       -0.4089
   7       -0.2595
   8       -0.2595
   9       -0.2278
  10       -0.2278
  11        0.4251
  12        0.4251
  13        0.7473
  14        0.7473
  15        0.8127
  16        0.8127
  17        0.8567
  18        0.8567
  19        1.1427
  20        1.1427
  21        1.4526
  22        1.4526
  23        7.8226
  24        7.8226
  25        8.8645
  26        8.8645
 
  0.1666667E+00  0.1666667E+00  0.0000000E+00  0.6944444E-02
   1       -5.0217
   2       -1.2578
   3       -1.2578
   4       -1.1276
   5       -0.8419
   6       -0.8419
   7       -0.8406
   8        0.0641
   9        0.2827
  10        0.2910
  11        0.7974
  12        0.8525
  13        0.8752
  14        0.8752
  15        0.9175
  16        1.1761
  17        1.2611
  18        1.2611
  19        1.3701
  20        1.3701
  21        1.4089
  22        3.5790
  23        3.5790
  24        5.7949
  25        9.6035
  26       10.9401
 
  0.2500000E+00  0.1666667E+00  0.0000000E+00  0.1388889E-01
   1       -4.6449
   2       -1.3375
   3       -1.0917
   4       -0.9946
   5       -0.7589
   6       -0.7528
   7       -0.7463
   8       -0.0105
   9        0.3331
  10        0.3516
  11        0.5265
  12        0.5954
  13        0.6645
  14        0.7438
  15        0.9657
  16        1.0820
  17        1.1561
  18        1.2227
  19        1.2425
  20        1.3691
  21        1.3828
  22        2.5666
  23        4.1698
  24        6.4359
  25        9.5718
  26        9.8582
 
  0.3333333E+00  0.1666667E+00  0.0000000E+00  0.1388889E-01
   1       -4.1316
   2       -1.5963
   3       -0.8986
   4       -0.8365
   5       -0.6500
   6       -0.6391
   7       -0.6110
   8       -0.1180
   9        0.1967
  10        0.3088
  11        0.3657
  12        0.4358
  13        0.4573
  14        0.6988
  15        0.9705
  16        1.0296
  17        1.0415
  18        1.0862
  19        1.1395
  20        1.3679
  21        1.3715
  22        1.8487
  23        4.8451
  24        7.2316
  25        8.4333
  26       10.1010
 
  0.4166667E+00  0.1666667E+00  0.0000000E+00  0.1388889E-01
   1       -3.5029
   2       -2.1158
   3       -0.7246
   4       -0.6857
   5       -0.5225
   6       -0.5130
   7       -0.4355
   8       -0.2465
   9       -0.0955
  10        0.0305
  11        0.3026
  12        0.3459
  13        0.5920
  14        0.7308
  15        0.8766
  16        0.9119
  17        0.9168
  18        1.0038
  19        1.1380
  20        1.3668
  21        1.3672
  22        1.4581
  23        5.5980
  24        7.3780
  25        8.1490
  26       10.2788
 
  0.5000000E+00  0.1666667E+00  0.0000000E+00  0.6944444E-02
   1       -2.8014
   2       -2.8014
   3       -0.6340
   4       -0.6340
   5       -0.3847
   6       -0.3847
   7       -0.3389
   8       -0.3389
   9       -0.2205
  10       -0.2205
  11        0.2969
  12        0.2969
  13        0.7482
  14        0.7482
  15        0.8478
  16        0.8478
  17        0.8498
  18        0.8498
  19        1.2623
  20        1.2623
  21        1.3662
  22        1.3662
  23        6.4373
  24        6.4373
  25        9.1689
  26        9.1689
 
  0.2500000E+00  0.2500000E+00  0.0000000E+00  0.6944444E-02
   1       -4.2772
   2       -1.1475
   3       -1.1475
   4       -0.8819
   5       -0.6822
   6       -0.6730
   7       -0.6730
   8       -0.0532
   9        0.3351
  10        0.3357
  11        0.3357
  12        0.3977
  13        0.4293
  14        0.7141
  15        1.0042
  16        1.0307
  17        1.1252
  18        1.1252
  19        1.2410
  20        1.2410
  21        1.3182
  22        3.1029
  23        3.1029
  24        7.0269
  25        8.2825
  26       10.0259
 
  0.3333333E+00  0.2500000E+00  0.0000000E+00  0.1388889E-01
   1       -3.7785
   2       -1.3749
   3       -0.9224
   4       -0.7489
   5       -0.5945
   6       -0.5774
   7       -0.5523
   8       -0.1300
   9        0.0433
  10        0.1765
  11        0.2199
  12        0.3245
  13        0.4842
  14        0.6806
  15        0.9102
  16        1.0050
  17        1.0481
  18        1.0853
  19        1.1401
  20        1.2398
  21        1.2765
  22        2.2915
  23        3.7029
  24        7.0967
  25        7.7791
  26       10.3361
 
  0.4166667E+00  0.2500000E+00  0.0000000E+00  0.1388889E-01
   1       -3.1715
   2       -1.8557
   3       -0.7082
   4       -0.5985
   5       -0.5335
   6       -0.4663
   7       -0.3977
   8       -0.2323
   9       -0.2085
  10       -0.0015
  11        0.1331
  12        0.2711
  13        0.6062
  14        0.7040
  15        0.8328
  16        0.8890
  17        0.9182
  18        0.9282
  19        1.2401
  20        1.2542
  21        1.2839
  22        1.7772
  23        4.3803
  24        6.0570
  25        8.6621
  26       10.7483
 
  0.5000000E+00  0.2500000E+00  0.0000000E+00  0.6944444E-02
   1       -2.5014
   2       -2.5014
   3       -0.5647
   4       -0.5647
   5       -0.4204
   6       -0.4204
   7       -0.3480
   8       -0.3480
   9       -0.2119
  10       -0.2119
  11        0.1878
  12        0.1878
  13        0.7544
  14        0.7544
  15        0.7978
  16        0.7978
  17        0.8200
  18        0.8200
  19        1.2438
  20        1.2438
  21        1.4771
  22        1.4771
  23        5.1572
  24        5.1572
  25        9.6561
  26        9.6561
 
  0.3333333E+00  0.3333333E+00  0.0000000E+00  0.6944444E-02
   1       -3.3032
   2       -1.1111
   3       -1.1111
   4       -0.6828
   5       -0.5083
   6       -0.4770
   7       -0.4770
   8       -0.1652
   9       -0.0394
  10       -0.0394
  11        0.0953
  12        0.2851
  13        0.5443
  14        0.6396
  15        0.8323
  16        0.9351
  17        0.9351
  18        1.0865
  19        1.0865
  20        1.1959
  21        1.2911
  22        2.7904
  23        2.7904
  24        5.9183
  25        8.4903
  26       10.6825
 
  0.4166667E+00  0.3333333E+00  0.0000000E+00  0.1388889E-01
   1       -2.7327
   2       -1.5361
   3       -0.8600
   4       -0.6517
   5       -0.4130
   6       -0.3916
   7       -0.3516
   8       -0.2257
   9       -0.2079
  10       -0.0528
  11        0.0005
  12        0.2150
  13        0.6402
  14        0.6423
  15        0.7654
  16        0.8247
  17        0.8255
  18        0.9256
  19        1.0928
  20        1.1409
  21        1.4871
  22        2.1559
  23        3.3710
  24        4.9094
  25        9.3383
  26       11.1524
 
  0.5000000E+00  0.3333333E+00  0.0000000E+00  0.6944444E-02
   1       -2.1157
   2       -2.1157
   3       -0.6942
   4       -0.6942
   5       -0.3262
   6       -0.3262
   7       -0.3046
   8       -0.3046
   9       -0.2068
  10       -0.2068
  11        0.1067
  12        0.1067
  13        0.7113
  14        0.7113
  15        0.7570
  16        0.7570
  17        0.7730
  18        0.7730
  19        1.1089
  20        1.1089
  21        1.7528
  22        1.7528
  23        4.0667
  24        4.0667
  25       10.3046
  26       10.3046
 
  0.4166667E+00  0.4166667E+00  0.0000000E+00  0.6944444E-02
   1       -2.2198
   2       -1.2101
   3       -1.2101
   4       -0.7606
   5       -0.3038
   6       -0.3038
   7       -0.2802
   8       -0.2349
   9       -0.1243
  10       -0.0961
  11       -0.0961
  12        0.1486
  13        0.6006
  14        0.6960
  15        0.7102
  16        0.7265
  17        0.7265
  18        0.9448
  19        0.9448
  20        1.0478
  21        1.7466
  22        2.6162
  23        2.6162
  24        3.9570
  25       10.1549
  26       11.6686
 
  0.5000000E+00  0.4166667E+00  0.0000000E+00  0.6944444E-02
   1       -1.6877
   2       -1.6877
   3       -0.9405
   4       -0.9405
   5       -0.2623
   6       -0.2623
   7       -0.2112
   8       -0.2112
   9       -0.1774
  10       -0.1774
  11        0.0400
  12        0.0400
  13        0.6340
  14        0.6340
  15        0.6735
  16        0.6735
  17        0.8130
  18        0.8130
  19        0.9831
  20        0.9831
  21        2.0990
  22        2.0990
  23        3.2014
  24        3.2014
  25       11.0948
  26       11.0948
 
  0.5000000E+00  0.5000000E+00  0.0000000E+00  0.1736111E-02
   1       -1.2779
   2       -1.2779
   3       -1.2779
   4       -1.2779
   5       -0.2295
   6       -0.2295
   7       -0.2295
   8       -0.2295
   9       -0.0477
  10       -0.0477
  11       -0.0477
  12       -0.0477
  13        0.6167
  14        0.6167
  15        0.6167
  16        0.6167
  17        0.8823
  18        0.8823
  19        0.8823
  20        0.8823
  21        2.5607
  22        2.5607
  23        2.5607
  24        2.5607
  25       12.0113
  26       12.0113
 
  0.8333333E-01  0.8333333E-01  0.8333333E-01  0.4629630E-02
   1       -5.4061
   2       -1.3133
   3       -1.3133
   4       -1.3133
   5       -0.9348
   6       -0.9348
   7       -0.9348
   8        0.1412
   9        0.2237
  10        0.2237
  11        0.8716
  12        0.8716
  13        1.2376
  14        1.2376
  15        1.2376
  16        1.2832
  17        1.2832
  18        1.2832
  19        1.4508
  20        1.4508
  21        1.4508
  22        4.3462
  23        4.3462
  24        4.3462
  25       10.1038
  26       10.1038
 
  0.1666667E+00  0.8333333E-01  0.8333333E-01  0.1388889E-01
   1       -5.1746
   2       -1.3310
   3       -1.2147
   4       -1.2147
   5       -0.8803
   6       -0.8764
   7       -0.8764
   8        0.0914
   9        0.2628
  10        0.2664
  11        0.8218
  12        0.9007
  13        0.9724
  14        0.9724
  15        1.1154
  16        1.2187
  17        1.2218
  18        1.2218
  19        1.4138
  20        1.4418
  21        1.4418
  22        3.2876
  23        4.7947
  24        4.7947
  25       10.2394
  26       10.2394
 
  0.2500000E+00  0.8333333E-01  0.8333333E-01  0.1388889E-01
   1       -4.7944
   2       -1.4212
   3       -1.0669
   4       -1.0669
   5       -0.7932
   6       -0.7788
   7       -0.7788
   8        0.0023
   9        0.3326
  10        0.3369
  11        0.6436
  12        0.6436
  13        0.7518
  14        0.9045
  15        0.9468
  16        1.1148
  17        1.1249
  18        1.1249
  19        1.3611
  20        1.4343
  21        1.4343
  22        2.2786
  23        5.4214
  24        5.4214
  25       10.4753
  26       10.4753
 
  0.3333333E+00  0.8333333E-01  0.8333333E-01  0.1388889E-01
   1       -4.2760
   2       -1.6937
   3       -0.8960
   4       -0.8960
   5       -0.6788
   6       -0.6443
   7       -0.6443
   8       -0.1158
   9        0.3143
  10        0.3143
  11        0.4036
  12        0.4334
  13        0.6268
  14        0.6990
  15        0.9827
  16        1.0049
  17        1.0049
  18        1.0067
  19        1.2974
  20        1.4300
  21        1.4300
  22        1.5740
  23        6.1639
  24        6.1639
  25       10.0022
  26       10.0022
 
  0.4166667E+00  0.8333333E-01  0.8333333E-01  0.1388889E-01
   1       -3.6397
   2       -2.2280
   3       -0.7445
   4       -0.7445
   5       -0.5446
   6       -0.4783
   7       -0.4783
   8       -0.2530
   9        0.0157
  10        0.0157
  11        0.4089
  12        0.4252
  13        0.5527
  14        0.7502
  15        0.8366
  16        0.8969
  17        0.8969
  18        1.0762
  19        1.1700
  20        1.2261
  21        1.4280
  22        1.4280
  23        6.9900
  24        6.9900
  25        8.9275
  26        8.9275
 
  0.5000000E+00  0.8333333E-01  0.8333333E-01  0.6944444E-02
   1       -2.9274
   2       -2.9274
   3       -0.6801
   4       -0.6801
   5       -0.3994
   6       -0.3994
   7       -0.3252
   8       -0.3252
   9       -0.1863
  10       -0.1863
  11        0.3784
  12        0.3784
  13        0.6897
  14        0.6897
  15        0.8514
  16        0.8514
  17        0.9165
  18        0.9165
  19        1.1510
  20        1.1510
  21        1.4274
  22        1.4274
  23        7.7475
  24        7.7475
  25        8.0888
  26        8.0888
 
  0.1666667E+00  0.1666667E+00  0.8333333E-01  0.1388889E-01
   1       -4.9462
   2       -1.2255
   3       -1.2255
   4       -1.1254
   5       -0.8248
   6       -0.8248
   7       -0.8236
   8        0.0610
   9        0.2871
  10        0.2918
  11        0.8073
  12        0.8152
  13        0.8317
  14        0.8317
  15        0.9032
  16        1.1393
  17        1.1649
  18        1.1649
  19        1.4088
  20        1.4088
  21        1.4158
  22        3.7096
  23        3.7096
  24        5.1890
  25       10.3798
  26       11.0326
 
  0.2500000E+00  0.1666667E+00  0.8333333E-01  0.2777778E-01
   1       -4.5716
   2       -1.3033
   3       -1.0669
   4       -0.9919
   5       -0.7419
   6       -0.7368
   7       -0.7320
   8       -0.0091
   9        0.3315
  10        0.3448
  11        0.5060
  12        0.5533
  13        0.6217
  14        0.7690
  15        0.9555
  16        1.0501
  17        1.0614
  18        1.0902
  19        1.3592
  20        1.3880
  21        1.3898
  22        2.6789
  23        4.2733
  24        5.7621
  25        9.7244
  26       10.6347
 
  0.3333333E+00  0.1666667E+00  0.8333333E-01  0.2777778E-01
   1       -4.0617
   2       -1.5576
   3       -0.8815
   4       -0.8329
   5       -0.6332
   6       -0.6267
   7       -0.6063
   8       -0.1121
   9        0.1974
  10        0.2769
  11        0.3607
  12        0.4000
  13        0.4282
  14        0.7457
  15        0.9287
  16        0.9489
  17        0.9865
  18        1.0339
  19        1.2863
  20        1.3713
  21        1.3713
  22        1.9157
  23        4.9301
  24        6.4526
  25        8.5587
  26       10.2737
 
  0.4166667E+00  0.1666667E+00  0.8333333E-01  0.2777778E-01
   1       -3.4382
   2       -2.0683
   3       -0.7063
   4       -0.6731
   5       -0.5223
   6       -0.5066
   7       -0.4695
   8       -0.2363
   9       -0.0608
  10        0.0232
  11        0.2788
  12        0.3347
  13        0.5305
  14        0.7870
  15        0.8180
  16        0.8594
  17        0.8832
  18        1.1288
  19        1.1685
  20        1.3616
  21        1.3620
  22        1.4610
  23        5.6672
  24        7.0925
  25        7.6681
  26        9.2003
 
  0.5000000E+00  0.1666667E+00  0.8333333E-01  0.1388889E-01
   1       -2.7442
   2       -2.7442
   3       -0.6060
   4       -0.6060
   5       -0.4290
   6       -0.4290
   7       -0.3711
   8       -0.3711
   9       -0.1491
  10       -0.1491
  11        0.2808
  12        0.2808
  13        0.6513
  14        0.6513
  15        0.8295
  16        0.8295
  17        0.9835
  18        0.9835
  19        1.2477
  20        1.2477
  21        1.3589
  22        1.3589
  23        6.4797
  24        6.4797
  25        8.2374
  26        8.2374
 
  0.2500000E+00  0.2500000E+00  0.8333333E-01  0.1388889E-01
   1       -4.2069
   2       -1.1267
   3       -1.1267
   4       -0.8849
   5       -0.6647
   6       -0.6557
   7       -0.6557
   8       -0.0469
   9        0.3239
  10        0.3239
  11        0.3329
  12        0.3780
  13        0.3995
  14        0.7527
  15        0.9590
  16        1.0069
  17        1.0069
  18        1.0183
  19        1.3238
  20        1.3238
  21        1.3410
  22        3.1846
  23        3.1846
  24        6.2651
  25        8.4153
  26       10.9003
 
  0.3333333E+00  0.2500000E+00  0.8333333E-01  0.2777778E-01
   1       -3.7130
   2       -1.3536
   3       -0.9218
   4       -0.7636
   5       -0.5752
   6       -0.5558
   7       -0.5385
   8       -0.1175
   9        0.0597
  10        0.1729
  11        0.2088
  12        0.3222
  13        0.4379
  14        0.7446
  15        0.8682
  16        0.8846
  17        0.9268
  18        1.1270
  19        1.2363
  20        1.2888
  21        1.2999
  22        2.3378
  23        3.7673
  24        6.7300
  25        7.4246
  26       10.7060
 
  0.4166667E+00  0.2500000E+00  0.8333333E-01  0.2777778E-01
   1       -3.1135
   2       -1.8233
   3       -0.7287
   4       -0.6388
   5       -0.5113
   6       -0.4424
   7       -0.4259
   8       -0.2140
   9       -0.1321
  10        0.0222
  11        0.1324
  12        0.2688
  13        0.5184
  14        0.7490
  15        0.7956
  16        0.8121
  17        0.8364
  18        1.1109
  19        1.2681
  20        1.2687
  21        1.2734
  22        1.7831
  23        4.4326
  24        6.0633
  25        7.8251
  26        9.6322
 
  0.5000000E+00  0.2500000E+00  0.8333333E-01  0.1388889E-01
   1       -2.4545
   2       -2.4545
   3       -0.5986
   4       -0.5986
   5       -0.4561
   6       -0.4561
   7       -0.3255
   8       -0.3255
   9       -0.1238
  10       -0.1238
  11        0.1863
  12        0.1863
  13        0.6226
  14        0.6226
  15        0.7800
  16        0.7800
  17        0.9528
  18        0.9528
  19        1.2630
  20        1.2630
  21        1.4632
  22        1.4632
  23        5.1964
  24        5.1964
  25        8.6677
  26        8.6677
 
  0.3333333E+00  0.3333333E+00  0.8333333E-01  0.1388889E-01
   1       -3.2449
   2       -1.1194
   3       -1.1194
   4       -0.7232
   5       -0.4812
   6       -0.4470
   7       -0.4470
   8       -0.1436
   9       -0.0174
  10       -0.0174
  11        0.1130
  12        0.2853
  13        0.4621
  14        0.7362
  15        0.7818
  16        0.8238
  17        0.8238
  18        1.1859
  19        1.1859
  20        1.2323
  21        1.2757
  22        2.8262
  23        2.8262
  24        5.9101
  25        7.6878
  26       11.2886
 
  0.4166667E+00  0.3333333E+00  0.8333333E-01  0.2777778E-01
   1       -2.6859
   2       -1.5291
   3       -0.9079
   4       -0.7172
   5       -0.3858
   6       -0.3517
   7       -0.3268
   8       -0.1945
   9       -0.1444
  10        0.0031
  11        0.0139
  12        0.2175
  13        0.5065
  14        0.7008
  15        0.7143
  16        0.7505
  17        0.7896
  18        1.0560
  19        1.1560
  20        1.1807
  21        1.4701
  22        2.1607
  23        3.4010
  24        4.9291
  25        8.4022
  26       10.2121
 
  0.5000000E+00  0.3333333E+00  0.8333333E-01  0.1388889E-01
   1       -2.0864
   2       -2.0864
   3       -0.7690
   4       -0.7690
   5       -0.3165
   6       -0.3165
   7       -0.2659
   8       -0.2659
   9       -0.1107
  10       -0.1107
  11        0.1128
  12        0.1128
  13        0.5874
  14        0.5874
  15        0.7008
  16        0.7008
  17        0.9103
  18        0.9103
  19        1.1541
  20        1.1541
  21        1.7396
  22        1.7396
  23        4.0931
  24        4.0931
  25        9.2497
  26        9.2497
 
  0.4166667E+00  0.4166667E+00  0.8333333E-01  0.1388889E-01
   1       -2.1912
   2       -1.2387
   3       -1.2387
   4       -0.8346
   5       -0.2567
   6       -0.2404
   7       -0.2404
   8       -0.1879
   9       -0.0732
  10       -0.0732
  11       -0.0412
  12        0.1553
  13        0.5042
  14        0.6394
  15        0.6433
  16        0.6433
  17        0.8153
  18        1.0291
  19        1.0291
  20        1.0985
  21        1.7293
  22        2.6217
  23        2.6217
  24        3.9732
  25        9.1226
  26       10.9282
 
  0.5000000E+00  0.4166667E+00  0.8333333E-01  0.1388889E-01
   1       -1.6855
   2       -1.6855
   3       -1.0023
   4       -1.0023
   5       -0.2010
   6       -0.2010
   7       -0.1666
   8       -0.1666
   9       -0.1122
  10       -0.1122
  11        0.0509
  12        0.0509
  13        0.5495
  14        0.5495
  15        0.6104
  16        0.6104
  17        0.9041
  18        0.9041
  19        1.0437
  20        1.0437
  21        2.0874
  22        2.0874
  23        3.2110
  24        3.2110
  25        9.9659
  26        9.9659
 
  0.5000000E+00  0.5000000E+00  0.8333333E-01  0.3472222E-02
   1       -1.3096
   2       -1.3096
   3       -1.3096
   4       -1.3096
   5       -0.1478
   6       -0.1478
   7       -0.1478
   8       -0.1478
   9       -0.0321
  10       -0.0321
  11       -0.0321
  12       -0.0321
  13        0.5488
  14        0.5488
  15        0.5488
  16        0.5488
  17        0.9521
  18        0.9521
  19        0.9521
  20        0.9521
  21        2.5562
  22        2.5562
  23        2.5562
  24        2.5562
  25       10.8080
  26       10.8080
 
  0.1666667E+00  0.1666667E+00  0.1666667E+00  0.4629630E-02
   1       -4.7216
   2       -1.1343
   3       -1.1343
   4       -1.1343
   5       -0.7727
   6       -0.7727
   7       -0.7727
   8        0.0414
   9        0.3028
  10        0.3028
  11        0.6764
  12        0.6764
  13        0.6764
  14        0.8653
  15        0.8653
  16        1.0486
  17        1.0486
  18        1.0486
  19        1.4199
  20        1.4199
  21        1.4199
  22        4.0609
  23        4.0609
  24        4.0609
  25       11.3039
  26       11.3039
 
  0.2500000E+00  0.1666667E+00  0.1666667E+00  0.1388889E-01
   1       -4.3538
   2       -1.2082
   3       -1.0006
   4       -1.0006
   5       -0.6894
   6       -0.6863
   7       -0.6863
   8       -0.0111
   9        0.3300
  10        0.3348
  11        0.4381
  12        0.4381
  13        0.4828
  14        0.8243
  15        0.9306
  16        0.9398
  17        0.9663
  18        0.9663
  19        1.3981
  20        1.3981
  21        1.4033
  22        2.9824
  23        4.5627
  24        4.5627
  25       10.0018
  26       10.0018
 
  0.3333333E+00  0.1666667E+00  0.1666667E+00  0.1388889E-01
   1       -3.8549
   2       -1.4502
   3       -0.8460
   4       -0.8460
   5       -0.5803
   6       -0.5793
   7       -0.5793
   8       -0.0967
   9        0.1954
  10        0.1954
  11        0.2968
  12        0.3426
  13        0.3876
  14        0.8022
  15        0.8298
  16        0.8849
  17        0.8849
  18        1.0291
  19        1.3617
  20        1.3675
  21        1.3675
  22        2.1362
  23        5.1666
  24        5.1666
  25        8.8352
  26        8.8352
 
  0.4166667E+00  0.1666667E+00  0.1666667E+00  0.1388889E-01
   1       -3.2480
   2       -1.9336
   3       -0.6893
   4       -0.6893
   5       -0.5044
   6       -0.5044
   7       -0.4564
   8       -0.2058
   9        0.0094
  10        0.0094
  11        0.2134
  12        0.3021
  13        0.4630
  14        0.6757
  15        0.8068
  16        0.8068
  17        0.9423
  18        1.1240
  19        1.2976
  20        1.3449
  21        1.3449
  22        1.5548
  23        5.8314
  24        5.8314
  25        7.8346
  26        7.8346
 
  0.5000000E+00  0.1666667E+00  0.1666667E+00  0.6944444E-02
   1       -2.5782
   2       -2.5782
   3       -0.5763
   4       -0.5763
   5       -0.5244
   6       -0.5244
   7       -0.3286
   8       -0.3286
   9       -0.0579
  10       -0.0579
  11        0.2369
  12        0.2369