 vasp.4.6.28 25Jul05 complex 
 executed on             LinuxIFC date 2016.12.21  11:39:52
 running on    2 nodes
 distr:  one band on    1 nodes,    2 groups


--------------------------------------------------------------------------------------------------------


 INCAR:
 POTCAR:   PAW_PBE Cu 05Jan2001                   
 POTCAR:   PAW_PBE Cu 05Jan2001                   
   VRHFIN =Cu: d10 p1                                                           
   LEXCH  = PE                                                                  
   EATOM  =  1390.9800 eV,  102.2341 Ry                                         
                                                                                
   TITEL  = PAW_PBE Cu 05Jan2001                                                
   LULTRA =        F    use ultrasoft PP ?                                      
   IUNSCR =        1    unscreen: 0-lin 1-nonlin 2-no                           
   RPACOR =    2.000    partial core radius                                     
   POMASS =   63.546; ZVAL   =   11.000    mass and valenz                      
   RCORE  =    2.300    outmost cutoff radius                                   
   RWIGS  =    2.480; RWIGS  =    1.312    wigner-seitz radius (au A)           
   ENMAX  =  273.214; ENMIN  =  204.910 eV                                      
   RCLOC  =    1.712    cutoff for local pot                                    
   LCOR   =        T    correct aug charges                                     
   LPAW   =        T    paw PP                                                  
   EAUG   =  516.456                                                            
   DEXC   =    -.008                                                            
   RMAX   =    2.789    core radius for proj-oper                               
   RAUG   =    1.300    factor for augmentation sphere                          
   RDEP   =    2.302    radius for radial grids                                 
   QCUT   =   -4.481; QGAM   =    8.962    optimization parameters              
                                                                                
   Description                                                                  
     l     E      TYP  RCUT    TYP  RCUT                                        
     2   .000     23  2.300                                                     
     2   .000     23  2.300                                                     
     0   .000     23  2.300                                                     
     0   .000     23  2.300                                                     
     1  -.200     23  2.300                                                     
     1   .000     23  2.300                                                     
     3   .000      7   .000                                                     
  local pseudopotential read in
  partial core-charges read in
  atomic valenz-charges read in
  non local Contribution for L=           2  read in
    real space projection operators read in
  non local Contribution for L=           2  read in
    real space projection operators read in
  non local Contribution for L=           0  read in
    real space projection operators read in
  non local Contribution for L=           0  read in
    real space projection operators read in
  non local Contribution for L=           1  read in
    real space projection operators read in
  non local Contribution for L=           1  read in
    real space projection operators read in
    PAW grid and wavefunctions read in
 
   number of l-projection  operators is LMAX  =           6
   number of lm-projection operators is LMMAX =          18
 
 PAW_PBE Cu 05Jan2001                   :
 energy of atom  1       EATOM=-1390.9800
 kinetic energy error for atom=    0.0006 (will be added to EATOM!!)
 
 EXHCAR: internal setup
 exchange correlation table for  LEXCH =        8
   RHO(1)=    0.500       N(1)  =     2000
   RHO(2)=  100.500       N(2)  =     4000
 
 POSCAR: Cu                                      
  positions in direct lattice
  velocities in cartesian coordinates
 


--------------------------------------------------------------------------------------------------------


 ion  position               nearest neighbor table
   1  0.000  0.000  0.000-   2 2.65   3 2.65   4 2.65   3 2.65   4 2.65   2 2.65   4 2.65   4 2.65
                             2 2.65   3 2.65   3 2.65   2 2.65
   2  0.500  0.500  0.000-   1 2.65   3 2.65   4 2.65   3 2.65   4 2.65   1 2.65   3 2.65   3 2.65
                             1 2.65   4 2.65   4 2.65   1 2.65
   3  0.500  0.000  0.500-   1 2.65   2 2.65   4 2.65   1 2.65   2 2.65   2 2.65   4 2.65   2 2.65
                             1 2.65   4 2.65   1 2.65   4 2.65
   4  0.000  0.500  0.500-   1 2.65   2 2.65   3 2.65   1 2.65   2 2.65   1 2.65   3 2.65   1 2.65
                             2 2.65   3 2.65   2 2.65   3 2.65
 
  LATTYP: Found a simple cubic cell.
 ALAT       =     3.7455082861
  
  Lattice vectors:
  
 A1 = (   3.7455082861,   0.0000000000,   0.0000000000)
 A2 = (   0.0000000000,   3.7455082861,   0.0000000000)
 A3 = (   0.0000000000,   0.0000000000,   3.7455082861)
 Subroutine PRICEL returns following result:
 
  LATTYP: Found a face centered cubic cell.
 ALAT       =     3.7455082861
  
  Lattice vectors:
  
 A1 = (   1.8727541430,   1.8727541430,  -0.0000000000)
 A2 = (   1.8727541430,   0.0000000000,  -1.8727541430)
 A3 = (   0.0000000000,   1.8727541430,  -1.8727541430)
 
   4 primitive cells build up your supercell.
 

Analysis of symmetry for initial positions (statically):

 Routine SETGRP: Setting up the symmetry group for a 
 simple cubic supercell.


 Subroutine GETGRP returns: Found 48 space group operations
 (whereof 48 operations were pure point group operations)
 out of a pool of 48 trial point group operations.


The static configuration has the point symmetry O_h .

Analysis of symmetry for dynamics (positions and initial velocities):

 Subroutine DYNSYM returns: Found 48 space group operations
 (whereof 48 operations were pure point group operations)
 out of a pool of 48 trial space group operations
 (whereof 48 operations were pure point group operations)
 and found also     4 'primitive' translations


The dynamic configuration has the point symmetry O_h .
 
 
 KPOINTS: Automatic mesh                          

Automatic generation of k-mesh.
 
 Subroutine IBZKPT returns following result:
 ===========================================
 
 Found     84 irreducible k-points:
 
 Following reciprocal coordinates:
            Coordinates               Weight
  0.000000  0.000000  0.000000      1.000000
  0.083333  0.000000  0.000000      6.000000
  0.166667  0.000000  0.000000      6.000000
  0.250000  0.000000  0.000000      6.000000
  0.333333  0.000000  0.000000      6.000000
  0.416667  0.000000  0.000000      6.000000
  0.500000  0.000000  0.000000      3.000000
  0.083333  0.083333  0.000000     12.000000
  0.166667  0.083333  0.000000     24.000000
  0.250000  0.083333  0.000000     24.000000
  0.333333  0.083333  0.000000     24.000000
  0.416667  0.083333  0.000000     24.000000
  0.500000  0.083333  0.000000     12.000000
  0.166667  0.166667  0.000000     12.000000
  0.250000  0.166667  0.000000     24.000000
  0.333333  0.166667  0.000000     24.000000
  0.416667  0.166667  0.000000     24.000000
  0.500000  0.166667  0.000000     12.000000
  0.250000  0.250000  0.000000     12.000000
  0.333333  0.250000  0.000000     24.000000
  0.416667  0.250000  0.000000     24.000000
  0.500000  0.250000  0.000000     12.000000
  0.333333  0.333333  0.000000     12.000000
  0.416667  0.333333  0.000000     24.000000
  0.500000  0.333333  0.000000     12.000000
  0.416667  0.416667  0.000000     12.000000
  0.500000  0.416667  0.000000     12.000000
  0.500000  0.500000  0.000000      3.000000
  0.083333  0.083333  0.083333      8.000000
  0.166667  0.083333  0.083333     24.000000
  0.250000  0.083333  0.083333     24.000000
  0.333333  0.083333  0.083333     24.000000
  0.416667  0.083333  0.083333     24.000000
  0.500000  0.083333  0.083333     12.000000
  0.166667  0.166667  0.083333     24.000000
  0.250000  0.166667  0.083333     48.000000
  0.333333  0.166667  0.083333     48.000000
  0.416667  0.166667  0.083333     48.000000
  0.500000  0.166667  0.083333     24.000000
  0.250000  0.250000  0.083333     24.000000
  0.333333  0.250000  0.083333     48.000000
  0.416667  0.250000  0.083333     48.000000
  0.500000  0.250000  0.083333     24.000000
  0.333333  0.333333  0.083333     24.000000
  0.416667  0.333333  0.083333     48.000000
  0.500000  0.333333  0.083333     24.000000
  0.416667  0.416667  0.083333     24.000000
  0.500000  0.416667  0.083333     24.000000
  0.500000  0.500000  0.083333      6.000000
  0.166667  0.166667  0.166667      8.000000
  0.250000  0.166667  0.166667     24.000000
  0.333333  0.166667  0.166667     24.000000
  0.416667  0.166667  0.166667     24.000000
  0.500000  0.166667  0.166667     12.000000
  0.250000  0.250000  0.166667     24.000000
  0.333333  0.250000  0.166667     48.000000
  0.416667  0.250000  0.166667     48.000000
  0.500000  0.250000  0.166667     24.000000
  0.333333  0.333333  0.166667     24.000000
  0.416667  0.333333  0.166667     48.000000
  0.500000  0.333333  0.166667     24.000000
  0.416667  0.416667  0.166667     24.000000
  0.500000  0.416667  0.166667     24.000000
  0.500000  0.500000  0.166667      6.000000
  0.250000  0.250000  0.250000      8.000000
  0.333333  0.250000  0.250000     24.000000
  0.416667  0.250000  0.250000     24.000000
  0.500000  0.250000  0.250000     12.000000
  0.333333  0.333333  0.250000     24.000000
  0.416667  0.333333  0.250000     48.000000
  0.500000  0.333333  0.250000     24.000000
  0.416667  0.416667  0.250000     24.000000
  0.500000  0.416667  0.250000     24.000000
  0.500000  0.500000  0.250000      6.000000
  0.333333  0.333333  0.333333      8.000000
  0.416667  0.333333  0.333333     24.000000
  0.500000  0.333333  0.333333     12.000000
  0.416667  0.416667  0.333333     24.000000
  0.500000  0.416667  0.333333     24.000000
  0.500000  0.500000  0.333333      6.000000
  0.416667  0.416667  0.416667      8.000000
  0.500000  0.416667  0.416667     12.000000
  0.500000  0.500000  0.416667      6.000000
  0.500000  0.500000  0.500000      1.000000
 
 Following cartesian coordinates:
            Coordinates               Weight
  0.000000  0.000000  0.000000      1.000000
  0.022916  0.000000  0.000000      6.000000
  0.045833  0.000000  0.000000      6.000000
  0.068749  0.000000  0.000000      6.000000
  0.091665  0.000000  0.000000      6.000000
  0.114582  0.000000  0.000000      6.000000
  0.137498  0.000000  0.000000      3.000000
  0.022916  0.022916  0.000000     12.000000
  0.045833  0.022916  0.000000     24.000000
  0.068749  0.022916  0.000000     24.000000
  0.091665  0.022916  0.000000     24.000000
  0.114582  0.022916  0.000000     24.000000
  0.137498  0.022916  0.000000     12.000000
  0.045833  0.045833  0.000000     12.000000
  0.068749  0.045833  0.000000     24.000000
  0.091665  0.045833  0.000000     24.000000
  0.114582  0.045833  0.000000     24.000000
  0.137498  0.045833  0.000000     12.000000
  0.068749  0.068749  0.000000     12.000000
  0.091665  0.068749  0.000000     24.000000
  0.114582  0.068749  0.000000     24.000000
  0.137498  0.068749  0.000000     12.000000
  0.091665  0.091665  0.000000     12.000000
  0.114582  0.091665  0.000000     24.000000
  0.137498  0.091665  0.000000     12.000000
  0.114582  0.114582  0.000000     12.000000
  0.137498  0.114582  0.000000     12.000000
  0.137498  0.137498  0.000000      3.000000
  0.022916  0.022916  0.022916      8.000000
  0.045833  0.022916  0.022916     24.000000
  0.068749  0.022916  0.022916     24.000000
  0.091665  0.022916  0.022916     24.000000
  0.114582  0.022916  0.022916     24.000000
  0.137498  0.022916  0.022916     12.000000
  0.045833  0.045833  0.022916     24.000000
  0.068749  0.045833  0.022916     48.000000
  0.091665  0.045833  0.022916     48.000000
  0.114582  0.045833  0.022916     48.000000
  0.137498  0.045833  0.022916     24.000000
  0.068749  0.068749  0.022916     24.000000
  0.091665  0.068749  0.022916     48.000000
  0.114582  0.068749  0.022916     48.000000
  0.137498  0.068749  0.022916     24.000000
  0.091665  0.091665  0.022916     24.000000
  0.114582  0.091665  0.022916     48.000000
  0.137498  0.091665  0.022916     24.000000
  0.114582  0.114582  0.022916     24.000000
  0.137498  0.114582  0.022916     24.000000
  0.137498  0.137498  0.022916      6.000000
  0.045833  0.045833  0.045833      8.000000
  0.068749  0.045833  0.045833     24.000000
  0.091665  0.045833  0.045833     24.000000
  0.114582  0.045833  0.045833     24.000000
  0.137498  0.045833  0.045833     12.000000
  0.068749  0.068749  0.045833     24.000000
  0.091665  0.068749  0.045833     48.000000
  0.114582  0.068749  0.045833     48.000000
  0.137498  0.068749  0.045833     24.000000
  0.091665  0.091665  0.045833     24.000000
  0.114582  0.091665  0.045833     48.000000
  0.137498  0.091665  0.045833     24.000000
  0.114582  0.114582  0.045833     24.000000
  0.137498  0.114582  0.045833     24.000000
  0.137498  0.137498  0.045833      6.000000
  0.068749  0.068749  0.068749      8.000000
  0.091665  0.068749  0.068749     24.000000
  0.114582  0.068749  0.068749     24.000000
  0.137498  0.068749  0.068749     12.000000
  0.091665  0.091665  0.068749     24.000000
  0.114582  0.091665  0.068749     48.000000
  0.137498  0.091665  0.068749     24.000000
  0.114582  0.114582  0.068749     24.000000
  0.137498  0.114582  0.068749     24.000000
  0.137498  0.137498  0.068749      6.000000
  0.091665  0.091665  0.091665      8.000000
  0.114582  0.091665  0.091665     24.000000
  0.137498  0.091665  0.091665     12.000000
  0.114582  0.114582  0.091665     24.000000
  0.137498  0.114582  0.091665     24.000000
  0.137498  0.137498  0.091665      6.000000
  0.114582  0.114582  0.114582      8.000000
  0.137498  0.114582  0.114582     12.000000
  0.137498  0.137498  0.114582      6.000000
  0.137498  0.137498  0.137498      1.000000
 


--------------------------------------------------------------------------------------------------------




 Dimension of arrays:
   k-Points           NKPTS =     84   number of bands    NBANDS=     26
   number of dos      NEDOS =    301   number of ions     NIONS =      4
   non local maximal  LDIM  =      6   non local SUM 2l+1 LMDIM =     18
   total plane-waves  NPLWV =  46656
   max r-space proj   IRMAX =      1   max aug-charges    IRDMAX= 249477
   dimension x,y,z NGX =    36 NGY =   36 NGZ =   36
   dimension x,y,z NGXF=    72 NGYF=   72 NGZF=   72
   support grid    NGXF=   144 NGYF=  144 NGZF=  144
   ions per type =               4
 NGX,Y,Z   is equivalent  to a cutoff of  15.98, 15.98, 15.98 a.u.
 NGXF,Y,Z  is equivalent  to a cutoff of  31.96, 31.96, 31.96 a.u.


 I would recommend the setting:
   dimension x,y,z NGX =    33 NGY =   33 NGZ =   33
 SYSTEM =  unknown system                          
 POSCAR =  Cu                                      

 Startparameter for this run:
   NWRITE =      2    write-flag & timer
   PREC   = accura    medium, high low
   ISTART =      0    job   : 0-new  1-cont  2-samecut
   ICHARG =      2    charge: 1-file 2-atom 10-const
   ISPIN  =      1    spin polarized calculation?
   LNONCOLLINEAR =      F non collinear calculations
   LSORBIT =      F    spin-orbit coupling
   INIWAV =      1    electr: 0-lowe 1-rand  2-diag
   LASPH  =      F    aspherical Exc in radial PAW
   METAGGA=      F    non-selfconsistent MetaGGA calc.

 Electronic Relaxation 1
   ENCUT  =  750.0 eV  55.12 Ry    7.42 a.u.   8.36  8.36  8.36*2*pi/ulx,y,z
   ENINI  =  750.0     initial cutoff
   ENAUG  =  516.5 eV  augmentation charge cutoff
   NELM   =     60;   NELMIN=  2; NELMDL=  0     # of ELM steps 
   EDIFF  = 0.1E-07   stopping-criterion for ELM
   LREAL  =      F    real-space projection
   LCOMPAT=      F    compatible to vasp.4.4
   LREAL_COMPAT= F    compatible to vasp.4.5.1-3
   GGA_COMPAT  = T    GGA compatible to vasp.4.4-vasp.4.6
   LMAXPAW     = -100 max onsite density
   LMAXMIX     =    2 max onsite mixed and CHGCAR
   VOSKOWN=      0    Vosko Wilk Nusair interpolation
   ROPT   =    0.00000
 Ionic relaxation
   EDIFFG = 0.1E-06   stopping-criterion for IOM
   NSW    =      0    number of steps for IOM
   NBLOCK =      1;   KBLOCK =      1    inner block; outer block 
   IBRION =     -1    ionic relax: 0-MD 1-quasi-New 2-CG
   NFREE  =      0    steps in history (QN), initial steepest desc. (CG)
   ISIF   =      2    stress and relaxation
   IWAVPR =     10    prediction:  0-non 1-charg 2-wave 3-comb
   ISYM   =      2    0-nonsym 1-usesym 2-fastsym
   LCORR  =      T    Harris-Foulkes like correction to forces

   POTIM  =   0.50    time-step for ionic-motion
   TEIN   =    0.0    initial temperature
   TEBEG  =    0.0;   TEEND  =   0.0 temperature during run
   SMASS  =  -3.00    Nose mass-parameter (am)
   estimated Nose-frequenzy (Omega)   =  0.10E-29 period in steps =****** mass=  -0.321E-27a.u.
   NPACO  =    256;   APACO  = 16.0  distance and # of slots for P.C.
   PSTRESS=    0.0 pullay stress

  Mass of Ions in am
   POMASS =  63.55
  Ionic Valenz
   ZVAL   =  11.00
  Atomic Wigner-Seitz radii
   RWIGS  =  -1.00
   NELECT =      44.0000    total number of electrons
   NUPDOWN=      -1.0000    fix difference up-down

 DOS related values:
   EMIN   =  10.00;   EMAX   =-10.00  energy-range for DOS
   ISMEAR =     0;   SIGMA  =   0.01  broadening in eV -4-tet -1-fermi 0-gaus

 Electronic relaxation 2 (details)
   IALGO  =     38    algorithm
   LDIAG  =      T    sub-space diagonalisation
   IMIX   =      4    mixing-type and parameters
     AMIX     =   0.40;   BMIX     =  1.00
     AMIX_MAG =   1.60;   BMIX_MAG =  1.00
     AMIN     =   0.10
     WC   =   100.;   INIMIX=   1;  MIXPRE=   1

 Intra band minimization:
   WEIMIN = 0.0000     energy-eigenvalue tresh-hold
   EBREAK =  0.96E-10  absolut break condition
   DEPER  =   0.30     relativ break condition  

   TIME   =   0.10     timestep for ELM

  volume/ion in A,a.u.               =      13.14        88.65
  Fermi-wavevector in a.u.,eV,Ry     =   1.543056 32.395760  2.381021

 Second variation
   LSECVAR=     F    do a second variation
 
 Write flags
   LWAVE  =      F    write WAVECAR
   LCHARG =      F    write CHGCAR
   LVTOT  =      F    write LOCPOT, local potential
   LELF   =      F    write electronic localiz. function (ELF)
   LORBIT =      0    0 simple, 1 ext, 2 COOP (PROOUT)


 Dipole corrections
   IDIPOL =      0    1-x, 2-y, 3-z
   LDIPOL =      F    correct potential



--------------------------------------------------------------------------------------------------------


 Static calculation
 charge density will be updated during run
 non-spin polarized calculation
 Variant of blocked Davidson
 Davidson routine will perform the subspace rotation
 performe sub-space diagonalisation
    after iterative eigenvector-optimisation
 modified Broyden-mixing scheme, WC =      100.0
 initial mixing is a Kerker type mixing with AMIX =  0.4000 and BMIX =      1.0000
 Hartree-type preconditioning will be used
 using additional bands            4
 reciprocal scheme for non local part
 use partial core corrections
 calculate Harris-corrections to forces 
   (improved forces if not selfconsistent)
 use gradient corrections 
 use of overlap-Matrix (Vanderbilt PP)
 Gauss-broadening in eV      SIGMA  =   0.01


--------------------------------------------------------------------------------------------------------


  energy-cutoff  :      750.00
  volume of cell :       52.55
      direct lattice vectors                 reciprocal lattice vectors
     3.745508286  0.000000000  0.000000000     0.266986460  0.000000000  0.000000000
     0.000000000  3.745508286  0.000000000     0.000000000  0.266986460  0.000000000
     0.000000000  0.000000000  3.745508286     0.000000000  0.000000000  0.266986460

  length of vectors
     3.745508286  3.745508286  3.745508286     0.266986460  0.266986460  0.266986460


 
 k-points in units of 2pi/SCALE and weight: Automatic mesh                          
   0.00000000  0.00000000  0.00000000       0.001
   0.02291634  0.00000000  0.00000000       0.003
   0.04583268  0.00000000  0.00000000       0.003
   0.06874901  0.00000000  0.00000000       0.003
   0.09166535  0.00000000  0.00000000       0.003
   0.11458169  0.00000000  0.00000000       0.003
   0.13749803  0.00000000  0.00000000       0.002
   0.02291634  0.02291634  0.00000000       0.007
   0.04583268  0.02291634  0.00000000       0.014
   0.06874901  0.02291634  0.00000000       0.014
   0.09166535  0.02291634  0.00000000       0.014
   0.11458169  0.02291634  0.00000000       0.014
   0.13749803  0.02291634  0.00000000       0.007
   0.04583268  0.04583268  0.00000000       0.007
   0.06874901  0.04583268  0.00000000       0.014
   0.09166535  0.04583268  0.00000000       0.014
   0.11458169  0.04583268  0.00000000       0.014
   0.13749803  0.04583268  0.00000000       0.007
   0.06874901  0.06874901  0.00000000       0.007
   0.09166535  0.06874901  0.00000000       0.014
   0.11458169  0.06874901  0.00000000       0.014
   0.13749803  0.06874901  0.00000000       0.007
   0.09166535  0.09166535  0.00000000       0.007
   0.11458169  0.09166535  0.00000000       0.014
   0.13749803  0.09166535  0.00000000       0.007
   0.11458169  0.11458169  0.00000000       0.007
   0.13749803  0.11458169  0.00000000       0.007
   0.13749803  0.13749803  0.00000000       0.002
   0.02291634  0.02291634  0.02291634       0.005
   0.04583268  0.02291634  0.02291634       0.014
   0.06874901  0.02291634  0.02291634       0.014
   0.09166535  0.02291634  0.02291634       0.014
   0.11458169  0.02291634  0.02291634       0.014
   0.13749803  0.02291634  0.02291634       0.007
   0.04583268  0.04583268  0.02291634       0.014
   0.06874901  0.04583268  0.02291634       0.028
   0.09166535  0.04583268  0.02291634       0.028
   0.11458169  0.04583268  0.02291634       0.028
   0.13749803  0.04583268  0.02291634       0.014
   0.06874901  0.06874901  0.02291634       0.014
   0.09166535  0.06874901  0.02291634       0.028
   0.11458169  0.06874901  0.02291634       0.028
   0.13749803  0.06874901  0.02291634       0.014
   0.09166535  0.09166535  0.02291634       0.014
   0.11458169  0.09166535  0.02291634       0.028
   0.13749803  0.09166535  0.02291634       0.014
   0.11458169  0.11458169  0.02291634       0.014
   0.13749803  0.11458169  0.02291634       0.014
   0.13749803  0.13749803  0.02291634       0.003
   0.04583268  0.04583268  0.04583268       0.005
   0.06874901  0.04583268  0.04583268       0.014
   0.09166535  0.04583268  0.04583268       0.014
   0.11458169  0.04583268  0.04583268       0.014
   0.13749803  0.04583268  0.04583268       0.007
   0.06874901  0.06874901  0.04583268       0.014
   0.09166535  0.06874901  0.04583268       0.028
   0.11458169  0.06874901  0.04583268       0.028
   0.13749803  0.06874901  0.04583268       0.014
   0.09166535  0.09166535  0.04583268       0.014
   0.11458169  0.09166535  0.04583268       0.028
   0.13749803  0.09166535  0.04583268       0.014
   0.11458169  0.11458169  0.04583268       0.014
   0.13749803  0.11458169  0.04583268       0.014
   0.13749803  0.13749803  0.04583268       0.003
   0.06874901  0.06874901  0.06874901       0.005
   0.09166535  0.06874901  0.06874901       0.014
   0.11458169  0.06874901  0.06874901       0.014
   0.13749803  0.06874901  0.06874901       0.007
   0.09166535  0.09166535  0.06874901       0.014
   0.11458169  0.09166535  0.06874901       0.028
   0.13749803  0.09166535  0.06874901       0.014
   0.11458169  0.11458169  0.06874901       0.014
   0.13749803  0.11458169  0.06874901       0.014
   0.13749803  0.13749803  0.06874901       0.003
   0.09166535  0.09166535  0.09166535       0.005
   0.11458169  0.09166535  0.09166535       0.014
   0.13749803  0.09166535  0.09166535       0.007
   0.11458169  0.11458169  0.09166535       0.014
   0.13749803  0.11458169  0.09166535       0.014
   0.13749803  0.13749803  0.09166535       0.003
   0.11458169  0.11458169  0.11458169       0.005
   0.13749803  0.11458169  0.11458169       0.007
   0.13749803  0.13749803  0.11458169       0.003
   0.13749803  0.13749803  0.13749803       0.001
 
 k-points in reciprocal lattice and weights: Automatic mesh                          
   0.00000000  0.00000000  0.00000000       0.001
   0.08333333  0.00000000  0.00000000       0.003
   0.16666667  0.00000000  0.00000000       0.003
   0.25000000  0.00000000  0.00000000       0.003
   0.33333333  0.00000000  0.00000000       0.003
   0.41666667  0.00000000  0.00000000       0.003
   0.50000000  0.00000000  0.00000000       0.002
   0.08333333  0.08333333  0.00000000       0.007
   0.16666667  0.08333333  0.00000000       0.014
   0.25000000  0.08333333  0.00000000       0.014
   0.33333333  0.08333333  0.00000000       0.014
   0.41666667  0.08333333  0.00000000       0.014
   0.50000000  0.08333333  0.00000000       0.007
   0.16666667  0.16666667  0.00000000       0.007
   0.25000000  0.16666667  0.00000000       0.014
   0.33333333  0.16666667  0.00000000       0.014
   0.41666667  0.16666667  0.00000000       0.014
   0.50000000  0.16666667  0.00000000       0.007
   0.25000000  0.25000000  0.00000000       0.007
   0.33333333  0.25000000  0.00000000       0.014
   0.41666667  0.25000000  0.00000000       0.014
   0.50000000  0.25000000  0.00000000       0.007
   0.33333333  0.33333333  0.00000000       0.007
   0.41666667  0.33333333  0.00000000       0.014
   0.50000000  0.33333333  0.00000000       0.007
   0.41666667  0.41666667  0.00000000       0.007
   0.50000000  0.41666667  0.00000000       0.007
   0.50000000  0.50000000  0.00000000       0.002
   0.08333333  0.08333333  0.08333333       0.005
   0.16666667  0.08333333  0.08333333       0.014
   0.25000000  0.08333333  0.08333333       0.014
   0.33333333  0.08333333  0.08333333       0.014
   0.41666667  0.08333333  0.08333333       0.014
   0.50000000  0.08333333  0.08333333       0.007
   0.16666667  0.16666667  0.08333333       0.014
   0.25000000  0.16666667  0.08333333       0.028
   0.33333333  0.16666667  0.08333333       0.028
   0.41666667  0.16666667  0.08333333       0.028
   0.50000000  0.16666667  0.08333333       0.014
   0.25000000  0.25000000  0.08333333       0.014
   0.33333333  0.25000000  0.08333333       0.028
   0.41666667  0.25000000  0.08333333       0.028
   0.50000000  0.25000000  0.08333333       0.014
   0.33333333  0.33333333  0.08333333       0.014
   0.41666667  0.33333333  0.08333333       0.028
   0.50000000  0.33333333  0.08333333       0.014
   0.41666667  0.41666667  0.08333333       0.014
   0.50000000  0.41666667  0.08333333       0.014
   0.50000000  0.50000000  0.08333333       0.003
   0.16666667  0.16666667  0.16666667       0.005
   0.25000000  0.16666667  0.16666667       0.014
   0.33333333  0.16666667  0.16666667       0.014
   0.41666667  0.16666667  0.16666667       0.014
   0.50000000  0.16666667  0.16666667       0.007
   0.25000000  0.25000000  0.16666667       0.014
   0.33333333  0.25000000  0.16666667       0.028
   0.41666667  0.25000000  0.16666667       0.028
   0.50000000  0.25000000  0.16666667       0.014
   0.33333333  0.33333333  0.16666667       0.014
   0.41666667  0.33333333  0.16666667       0.028
   0.50000000  0.33333333  0.16666667       0.014
   0.41666667  0.41666667  0.16666667       0.014
   0.50000000  0.41666667  0.16666667       0.014
   0.50000000  0.50000000  0.16666667       0.003
   0.25000000  0.25000000  0.25000000       0.005
   0.33333333  0.25000000  0.25000000       0.014
   0.41666667  0.25000000  0.25000000       0.014
   0.50000000  0.25000000  0.25000000       0.007
   0.33333333  0.33333333  0.25000000       0.014
   0.41666667  0.33333333  0.25000000       0.028
   0.50000000  0.33333333  0.25000000       0.014
   0.41666667  0.41666667  0.25000000       0.014
   0.50000000  0.41666667  0.25000000       0.014
   0.50000000  0.50000000  0.25000000       0.003
   0.33333333  0.33333333  0.33333333       0.005
   0.41666667  0.33333333  0.33333333       0.014
   0.50000000  0.33333333  0.33333333       0.007
   0.41666667  0.41666667  0.33333333       0.014
   0.50000000  0.41666667  0.33333333       0.014
   0.50000000  0.50000000  0.33333333       0.003
   0.41666667  0.41666667  0.41666667       0.005
   0.50000000  0.41666667  0.41666667       0.007
   0.50000000  0.50000000  0.41666667       0.003
   0.50000000  0.50000000  0.50000000       0.001
 
 position of ions in fractional coordinates (direct lattice) 
   0.00000000  0.00000000  0.00000000
   0.50000000  0.50000000  0.00000000
   0.50000000  0.00000000  0.50000000
   0.00000000  0.50000000  0.50000000
 
 position of ions in cartesian coordinates  (Angst):
   0.00000000  0.00000000  0.00000000
   1.87275414  1.87275414  0.00000000
   1.87275414  0.00000000  1.87275414
   0.00000000  1.87275414  1.87275414
 


--------------------------------------------------------------------------------------------------------


 k-point  1 :  0.00000.00000.0000  plane waves:   2469
 k-point  2 :  0.08330.00000.0000  plane waves:   2477
 k-point  3 :  0.16670.00000.0000  plane waves:   2465
 k-point  4 :  0.25000.00000.0000  plane waves:   2441
 k-point  5 :  0.33330.00000.0000  plane waves:   2457
 k-point  6 :  0.41670.00000.0000  plane waves:   2436
 k-point  7 :  0.50000.00000.0000  plane waves:   2416
 k-point  8 :  0.08330.08330.0000  plane waves:   2465
 k-point  9 :  0.16670.08330.0000  plane waves:   2454
 k-point 10 :  0.25000.08330.0000  plane waves:   2464
 k-point 11 :  0.33330.08330.0000  plane waves:   2448
 k-point 12 :  0.41670.08330.0000  plane waves:   2447
 k-point 13 :  0.50000.08330.0000  plane waves:   2452
 k-point 14 :  0.16670.16670.0000  plane waves:   2444
 k-point 15 :  0.25000.16670.0000  plane waves:   2461
 k-point 16 :  0.33330.16670.0000  plane waves:   2444
 k-point 17 :  0.41670.16670.0000  plane waves:   2456
 k-point 18 :  0.50000.16670.0000  plane waves:   2468
 k-point 19 :  0.25000.25000.0000  plane waves:   2452
 k-point 20 :  0.33330.25000.0000  plane waves:   2451
 k-point 21 :  0.41670.25000.0000  plane waves:   2461
 k-point 22 :  0.50000.25000.0000  plane waves:   2458
 k-point 23 :  0.33330.33330.0000  plane waves:   2470
 k-point 24 :  0.41670.33330.0000  plane waves:   2449
 k-point 25 :  0.50000.33330.0000  plane waves:   2448
 k-point 26 :  0.41670.41670.0000  plane waves:   2448
 k-point 27 :  0.50000.41670.0000  plane waves:   2452
 k-point 28 :  0.50000.50000.0000  plane waves:   2464
 k-point 29 :  0.08330.08330.0833  plane waves:   2460
 k-point 30 :  0.16670.08330.0833  plane waves:   2456
 k-point 31 :  0.25000.08330.0833  plane waves:   2454
 k-point 32 :  0.33330.08330.0833  plane waves:   2450
 k-point 33 :  0.41670.08330.0833  plane waves:   2452
 k-point 34 :  0.50000.08330.0833  plane waves:   2458
 k-point 35 :  0.16670.16670.0833  plane waves:   2454
 k-point 36 :  0.25000.16670.0833  plane waves:   2454
 k-point 37 :  0.33330.16670.0833  plane waves:   2449
 k-point 38 :  0.41670.16670.0833  plane waves:   2451
 k-point 39 :  0.50000.16670.0833  plane waves:   2450
 k-point 40 :  0.25000.25000.0833  plane waves:   2452
 k-point 41 :  0.33330.25000.0833  plane waves:   2449
 k-point 42 :  0.41670.25000.0833  plane waves:   2455
 k-point 43 :  0.50000.25000.0833  plane waves:   2450
 k-point 44 :  0.33330.33330.0833  plane waves:   2457
 k-point 45 :  0.41670.33330.0833  plane waves:   2456
 k-point 46 :  0.50000.33330.0833  plane waves:   2456
 k-point 47 :  0.41670.41670.0833  plane waves:   2453
 k-point 48 :  0.50000.41670.0833  plane waves:   2454
 k-point 49 :  0.50000.50000.0833  plane waves:   2460
 k-point 50 :  0.16670.16670.1667  plane waves:   2448
 k-point 51 :  0.25000.16670.1667  plane waves:   2447
 k-point 52 :  0.33330.16670.1667  plane waves:   2452
 k-point 53 :  0.41670.16670.1667  plane waves:   2454
 k-point 54 :  0.50000.16670.1667  plane waves:   2456
 k-point 55 :  0.25000.25000.1667  plane waves:   2445
 k-point 56 :  0.33330.25000.1667  plane waves:   2456
 k-point 57 :  0.41670.25000.1667  plane waves:   2457
 k-point 58 :  0.50000.25000.1667  plane waves:   2454
 k-point 59 :  0.33330.33330.1667  plane waves:   2456
 k-point 60 :  0.41670.33330.1667  plane waves:   2449
 k-point 61 :  0.50000.33330.1667  plane waves:   2450
 k-point 62 :  0.41670.41670.1667  plane waves:   2446
 k-point 63 :  0.50000.41670.1667  plane waves:   2448
 k-point 64 :  0.50000.50000.1667  plane waves:   2456
 k-point 65 :  0.25000.25000.2500  plane waves:   2455
 k-point 66 :  0.33330.25000.2500  plane waves:   2451
 k-point 67 :  0.41670.25000.2500  plane waves:   2445
 k-point 68 :  0.50000.25000.2500  plane waves:   2458
 k-point 69 :  0.33330.33330.2500  plane waves:   2448
 k-point 70 :  0.41670.33330.2500  plane waves:   2442
 k-point 71 :  0.50000.33330.2500  plane waves:   2440
 k-point 72 :  0.41670.41670.2500  plane waves:   2434
 k-point 73 :  0.50000.41670.2500  plane waves:   2436
 k-point 74 :  0.50000.50000.2500  plane waves:   2424
 k-point 75 :  0.33330.33330.3333  plane waves:   2431
 k-point 76 :  0.41670.33330.3333  plane waves:   2434
 k-point 77 :  0.50000.33330.3333  plane waves:   2428
 k-point 78 :  0.41670.41670.3333  plane waves:   2436
 k-point 79 :  0.50000.41670.3333  plane waves:   2434
 k-point 80 :  0.50000.50000.3333  plane waves:   2444
 k-point 81 :  0.41670.41670.4167  plane waves:   2434
 k-point 82 :  0.50000.41670.4167  plane waves:   2442
 k-point 83 :  0.50000.50000.4167  plane waves:   2440
 k-point 84 :  0.50000.50000.5000  plane waves:   2440

 maximum and minimum number of plane-waves per node :   2477  2416

 maximum number of plane-waves:   2477
 maximal index in each direction: 
   IXMAX=  8   IYMAX=  8   IZMAX=  8
   IXMIN= -8   IYMIN= -8   IZMIN= -8

 NGX is ok and might be reduce to  34
 NGY is ok and might be reduce to  34
 NGZ is ok and might be reduce to  34

 parallel 3dFFT wavefunction:
    minimum data exchange during FFTs selected (reduces bandwidth)
 parallel 3dFFT charge:
    minimum data exchange during FFTs selected (reduces bandwidth)

 For storing wavefunctions   85.62 MBYTES are necessary
 For predicting wavefunctions    3.82 MBYTES are necessary
Broyden mixing: mesh for mixing (old mesh)
   NGX = 17   NGY = 17   NGZ = 17
  (NGX  = 72   NGY  = 72   NGZ  = 72)
 gives a total of   4913 points
 initial charge density was supplied:
 charge density of overlapping atoms calculated
 number of electron   44.0000000 magnetization 
 keeping initial charge density in first step


--------------------------------------------------------------------------------------------------------


 Maximum index for augmentation-charges       120891 (set IRDMAX)


--------------------------------------------------------------------------------------------------------


 First call to EWALD:  gamma=   0.473
 Maximum number of real-space cells 3x 3x 3
 Maximum number of reciprocal cells 3x 3x 3

    FEWALD:  VPU time    0.00: CPU time    0.00


----------------------------------------- Iteration    1(   1)  ---------------------------------------


    POTLOK:  VPU time    0.49: CPU time    4.86
    SETDIJ:  VPU time    0.22: CPU time    2.16
    EDDAV :  VPU time   33.94: CPU time  339.41
    DOS   :  VPU time    0.00: CPU time   -0.00
    ------------------------------------------
      LOOP:  VPU time   34.70: CPU time  346.90

 eigenvalue-minimisations  :  4392
 total energy-change (2. order) : 0.3164905E+03  (-0.2712309E+04)
 number of electron   44.0000000 magnetization 
 augmentation part    44.0000000 magnetization 

 Free energy of the ion-electron system (eV)
  ---------------------------------------------------
  alpha Z        PSCENC =       389.03717917
  Ewald energy   TEWEN  =     -4265.66707610
  -1/2 Hartree   DENC   =     -1387.32969699
  -V(xc)+E(xc)   XCENC  =       174.47803956
  PAW double counting   =      4328.20916945    -4904.30802700
  entropy T*S    EENTRO =        -0.00006155
  eigenvalues    EBANDS =       418.15345739
  atomic energy  EATOM  =      5563.91755062
  ---------------------------------------------------
  free energy    TOTEN  =       316.49053455 eV

  energy without entropy =      316.49059609  energy(sigma->0) =      316.49056532


--------------------------------------------------------------------------------------------------------




----------------------------------------- Iteration    1(   2)  ---------------------------------------


    EDDAV :  VPU time   33.26: CPU time  332.57
    DOS   :  VPU time    0.00: CPU time   -0.00
    ------------------------------------------
      LOOP:  VPU time   33.27: CPU time  332.69

 eigenvalue-minimisations  :  4376
 total energy-change (2. order) :-0.3153747E+03  (-0.3092463E+03)
 number of electron   44.0000000 magnetization 
 augmentation part    44.0000000 magnetization 

 Free energy of the ion-electron system (eV)
  ---------------------------------------------------
  alpha Z        PSCENC =       389.03717917
  Ewald energy   TEWEN  =     -4265.66707610
  -1/2 Hartree   DENC   =     -1387.32969699
  -V(xc)+E(xc)   XCENC  =       174.47803956
  PAW double counting   =      4328.20916945    -4904.30802700
  entropy T*S    EENTRO =        -0.00023595
  eigenvalues    EBANDS =       102.77890682
  atomic energy  EATOM  =      5563.91755062
  ---------------------------------------------------
  free energy    TOTEN  =         1.11580958 eV

  energy without entropy =        1.11604552  energy(sigma->0) =        1.11592755


--------------------------------------------------------------------------------------------------------




----------------------------------------- Iteration    1(   3)  ---------------------------------------


    EDDAV :  VPU time   32.25: CPU time  322.41
    DOS   :  VPU time    0.00: CPU time   -0.00
    ------------------------------------------
      LOOP:  VPU time   32.27: CPU time  322.64

 eigenvalue-minimisations  :  4484
 total energy-change (2. order) :-0.1893024E+02  (-0.1833288E+02)
 number of electron   44.0000000 magnetization 
 augmentation part    44.0000000 magnetization 

 Free energy of the ion-electron system (eV)
  ---------------------------------------------------
  alpha Z        PSCENC =       389.03717917
  Ewald energy   TEWEN  =     -4265.66707610
  -1/2 Hartree   DENC   =     -1387.32969699
  -V(xc)+E(xc)   XCENC  =       174.47803956
  PAW double counting   =      4328.20916945    -4904.30802700
  entropy T*S    EENTRO =        -0.00013880
  eigenvalues    EBANDS =        83.84856871
  atomic energy  EATOM  =      5563.91755062
  ---------------------------------------------------
  free energy    TOTEN  =       -17.81443138 eV

  energy without entropy =      -17.81429258  energy(sigma->0) =      -17.81436198


--------------------------------------------------------------------------------------------------------




----------------------------------------- Iteration    1(   4)  ---------------------------------------


    EDDAV :  VPU time   34.08: CPU time  340.68
    DOS   :  VPU time    0.00: CPU time   -0.00
    ------------------------------------------
      LOOP:  VPU time   34.08: CPU time  340.80

 eigenvalue-minimisations  :  4616
 total energy-change (2. order) :-0.2187810E+00  (-0.2183006E+00)
 number of electron   44.0000000 magnetization 
 augmentation part    44.0000000 magnetization 

 Free energy of the ion-electron system (eV)
  ---------------------------------------------------
  alpha Z        PSCENC =       389.03717917
  Ewald energy   TEWEN  =     -4265.66707610
  -1/2 Hartree   DENC   =     -1387.32969699
  -V(xc)+E(xc)   XCENC  =       174.47803956
  PAW double counting   =      4328.20916945    -4904.30802700
  entropy T*S    EENTRO =        -0.00011647
  eigenvalues    EBANDS =        83.62976534
  atomic energy  EATOM  =      5563.91755062
  ---------------------------------------------------
  free energy    TOTEN  =       -18.03321243 eV

  energy without entropy =      -18.03309596  energy(sigma->0) =      -18.03315419


--------------------------------------------------------------------------------------------------------




----------------------------------------- Iteration    1(   5)  ---------------------------------------


    EDDAV :  VPU time   34.48: CPU time  344.76
    DOS   :  VPU time    0.00: CPU time   -0.00
    CHARGE:  VPU time    0.76: CPU time    7.56
    MIXING:  VPU time    0.02: CPU time    0.24
    ------------------------------------------
      LOOP:  VPU time   35.27: CPU time  352.81

 eigenvalue-minimisations  :  4554
 total energy-change (2. order) :-0.1077936E-02  (-0.1077890E-02)
 number of electron   44.0000001 magnetization 
 augmentation part    26.8361733 magnetization 

 Broyden mixing:
  rms(total) = 0.13653E+01    rms(broyden)= 0.13653E+01
  rms(prec ) = 0.32371E+01
  weight for this iteration     100.00

 Free energy of the ion-electron system (eV)
  ---------------------------------------------------
  alpha Z        PSCENC =       389.03717917
  Ewald energy   TEWEN  =     -4265.66707610
  -1/2 Hartree   DENC   =     -1387.32969699
  -V(xc)+E(xc)   XCENC  =       174.47803956
  PAW double counting   =      4328.20916945    -4904.30802700
  entropy T*S    EENTRO =        -0.00011636
  eigenvalues    EBANDS =        83.62868730
  atomic energy  EATOM  =      5563.91755062
  ---------------------------------------------------
  free energy    TOTEN  =       -18.03429036 eV

  energy without entropy =      -18.03417400  energy(sigma->0) =      -18.03423218


--------------------------------------------------------------------------------------------------------




----------------------------------------- Iteration    1(   6)  ---------------------------------------


    POTLOK:  VPU time    0.49: CPU time    4.90
    SETDIJ:  VPU time    0.22: CPU time    2.20
    EDDAV :  VPU time   31.83: CPU time  318.30
    DOS   :  VPU time    0.00: CPU time   -0.00
    CHARGE:  VPU time    0.67: CPU time    6.71
    MIXING:  VPU time    0.01: CPU time    0.14
    ------------------------------------------
      LOOP:  VPU time   33.30: CPU time  332.98

 eigenvalue-minimisations  :  4476
 total energy-change (2. order) : 0.1756029E+01  (-0.3972257E+01)
 number of electron   44.0000001 magnetization 
 augmentation part    30.0390364 magnetization 

 Broyden mixing:
  rms(total) = 0.71720E+00    rms(broyden)= 0.71720E+00
  rms(prec ) = 0.15489E+01
  weight for this iteration     100.00

 eigenvalues of (default mixing * dielectric matrix)
  average eigenvalue GAMMA=   0.6565
  0.6565

 Free energy of the ion-electron system (eV)
  ---------------------------------------------------
  alpha Z        PSCENC =       389.03717917
  Ewald energy   TEWEN  =     -4265.66707610
  -1/2 Hartree   DENC   =     -1285.88373721
  -V(xc)+E(xc)   XCENC  =       169.39902085
  PAW double counting   =      4204.09377948    -4746.81942325
  entropy T*S    EENTRO =        -0.00004043
  eigenvalues    EBANDS =       -44.35551403
  atomic energy  EATOM  =      5563.91755062
  ---------------------------------------------------
  free energy    TOTEN  =       -16.27826091 eV

  energy without entropy =      -16.27822048  energy(sigma->0) =      -16.27824070


--------------------------------------------------------------------------------------------------------




----------------------------------------- Iteration    1(   7)  ---------------------------------------


    POTLOK:  VPU time    0.48: CPU time    4.73
    SETDIJ:  VPU time    0.40: CPU time    4.05
    EDDAV :  VPU time   35.78: CPU time  357.78
    DOS   :  VPU time    0.00: CPU time   -0.00
    CHARGE:  VPU time    0.71: CPU time    7.04
    MIXING:  VPU time    0.04: CPU time    0.47
    ------------------------------------------
      LOOP:  VPU time   37.43: CPU time  374.27

 eigenvalue-minimisations  :  4700
 total energy-change (2. order) : 0.1513575E+01  (-0.7307916E+00)
 number of electron   44.0000001 magnetization 
 augmentation part    28.8249393 magnetization 

 Broyden mixing:
  rms(total) = 0.89485E-01    rms(broyden)= 0.89483E-01
  rms(prec ) = 0.22340E+00
  weight for this iteration     100.00

 eigenvalues of (default mixing * dielectric matrix)
  average eigenvalue GAMMA=   1.2747
  1.9122  0.6373

 Free energy of the ion-electron system (eV)
  ---------------------------------------------------
  alpha Z        PSCENC =       389.03717917
  Ewald energy   TEWEN  =     -4265.66707610
  -1/2 Hartree   DENC   =     -1317.34155482
  -V(xc)+E(xc)   XCENC  =       171.04257391
  PAW double counting   =      4286.27603795    -4853.31214492
  entropy T*S    EENTRO =        -0.00013907
  eigenvalues    EBANDS =        11.28288698
  atomic energy  EATOM  =      5563.91755062
  ---------------------------------------------------
  free energy    TOTEN  =       -14.76468629 eV

  energy without entropy =      -14.76454721  energy(sigma->0) =      -14.76461675


--------------------------------------------------------------------------------------------------------




----------------------------------------- Iteration    1(   8)  ---------------------------------------


    POTLOK:  VPU time    0.23: CPU time    2.28
    SETDIJ:  VPU time    0.21: CPU time    2.15
    EDDAV :  VPU time   33.80: CPU time  337.96
    DOS   :  VPU time   -0.00: CPU time   -0.00
    CHARGE:  VPU time    0.85: CPU time    8.50
    MIXING:  VPU time    0.05: CPU time    0.52
    ------------------------------------------
      LOOP:  VPU time   35.21: CPU time  352.12

 eigenvalue-minimisations  :  4542
 total energy-change (2. order) : 0.1780503E-01  (-0.1104405E-01)
 number of electron   44.0000001 magnetization 
 augmentation part    28.7408203 magnetization 

 Broyden mixing:
  rms(total) = 0.83245E-01    rms(broyden)= 0.83245E-01
  rms(prec ) = 0.20025E+00
  weight for this iteration     100.00

 eigenvalues of (default mixing * dielectric matrix)
  average eigenvalue GAMMA=   1.4168
  0.6686  0.9842  2.5975

 Free energy of the ion-electron system (eV)
  ---------------------------------------------------
  alpha Z        PSCENC =       389.03717917
  Ewald energy   TEWEN  =     -4265.66707610
  -1/2 Hartree   DENC   =     -1309.01951451
  -V(xc)+E(xc)   XCENC  =       170.68646208
  PAW double counting   =      4328.49559880    -4904.96153943
  entropy T*S    EENTRO =        -0.00013907
  eigenvalues    EBANDS =        12.76459718
  atomic energy  EATOM  =      5563.91755062
  ---------------------------------------------------
  free energy    TOTEN  =       -14.74688125 eV

  energy without entropy =      -14.74674218  energy(sigma->0) =      -14.74681172


--------------------------------------------------------------------------------------------------------




----------------------------------------- Iteration    1(   9)  ---------------------------------------


    POTLOK:  VPU time    0.37: CPU time    3.61
    SETDIJ:  VPU time    0.16: CPU time    1.67
    EDDAV :  VPU time   31.88: CPU time  296.95
    DOS   :  VPU time    0.00: CPU time   -0.00
    CHARGE:  VPU time    1.13: CPU time   10.16
    MIXING:  VPU time    0.02: CPU time    0.24
    ------------------------------------------
      LOOP:  VPU time   33.59: CPU time  312.87

 eigenvalue-minimisations  :  4536
 total energy-change (2. order) : 0.1353036E-01  (-0.5188795E-02)
 number of electron   44.0000001 magnetization 
 augmentation part    28.8605283 magnetization 

 Broyden mixing:
  rms(total) = 0.52300E-02    rms(broyden)= 0.52298E-02
  rms(prec ) = 0.11809E-01
  weight for this iteration     100.00

 eigenvalues of (default mixing * dielectric matrix)
  average eigenvalue GAMMA=   1.5690
  2.7273  0.6761  0.8906  1.9822

 Free energy of the ion-electron system (eV)
  ---------------------------------------------------
  alpha Z        PSCENC =       389.03717917
  Ewald energy   TEWEN  =     -4265.66707610
  -1/2 Hartree   DENC   =     -1302.35008142
  -V(xc)+E(xc)   XCENC  =       170.36950854
  PAW double counting   =      4335.72147915    -4913.19870934
  entropy T*S    EENTRO =        -0.00015272
  eigenvalues    EBANDS =         7.43695120
  atomic energy  EATOM  =      5563.91755062
  ---------------------------------------------------
  free energy    TOTEN  =       -14.73335089 eV

  energy without entropy =      -14.73319818  energy(sigma->0) =      -14.73327454


--------------------------------------------------------------------------------------------------------




----------------------------------------- Iteration    1(  10)  ---------------------------------------


    POTLOK:  VPU time    0.43: CPU time    3.84
    SETDIJ:  VPU time    0.18: CPU time    1.60
    EDDAV :  VPU time   29.78: CPU time  267.98
    DOS   :  VPU time    0.00: CPU time   -0.00
    CHARGE:  VPU time    0.69: CPU time    6.16
    MIXING:  VPU time    0.05: CPU time    0.46
    ------------------------------------------
      LOOP:  VPU time   31.13: CPU time  280.20

 eigenvalue-minimisations  :  4448
 total energy-change (2. order) :-0.7509131E-04  (-0.1150769E-03)
 number of electron   44.0000001 magnetization 
 augmentation part    28.8553423 magnetization 

 Broyden mixing:
  rms(total) = 0.12265E-02    rms(broyden)= 0.12265E-02
  rms(prec ) = 0.22977E-02
  weight for this iteration     100.00

 eigenvalues of (default mixing * dielectric matrix)
  average eigenvalue GAMMA=   1.5587
  2.5903  2.5903  0.6735  0.9696  0.9696

 Free energy of the ion-electron system (eV)
  ---------------------------------------------------
  alpha Z        PSCENC =       389.03717917
  Ewald energy   TEWEN  =     -4265.66707610
  -1/2 Hartree   DENC   =     -1302.68841448
  -V(xc)+E(xc)   XCENC  =       170.38605585
  PAW double counting   =      4336.56139257    -4913.98133627
  entropy T*S    EENTRO =        -0.00014720
  eigenvalues    EBANDS =         7.70136985
  atomic energy  EATOM  =      5563.91755062
  ---------------------------------------------------
  free energy    TOTEN  =       -14.73342599 eV

  energy without entropy =      -14.73327878  energy(sigma->0) =      -14.73335239


--------------------------------------------------------------------------------------------------------




----------------------------------------- Iteration    1(  11)  ---------------------------------------


    POTLOK:  VPU time    0.33: CPU time    2.88
    SETDIJ:  VPU time    0.15: CPU time    1.34
    EDDAV :  VPU time   29.24: CPU time  256.76
    DOS   :  VPU time    0.00: CPU time   -0.00
    CHARGE:  VPU time    0.66: CPU time    5.24
    MIXING:  VPU time    0.04: CPU time    0.32
    ------------------------------------------
      LOOP:  VPU time   30.42: CPU time  266.65

 eigenvalue-minimisations  :  4612
 total energy-change (2. order) : 0.5474434E-05  (-0.1503816E-05)
 number of electron   44.0000001 magnetization 
 augmentation part    28.8542312 magnetization 

 Broyden mixing:
  rms(total) = 0.51586E-03    rms(broyden)= 0.51586E-03
  rms(prec ) = 0.12322E-02
  weight for this iteration     100.00

 eigenvalues of (default mixing * dielectric matrix)
  average eigenvalue GAMMA=   1.4981
  2.6345  2.4359  0.6738  0.9262  1.1590  1.1590

 Free energy of the ion-electron system (eV)
  ---------------------------------------------------
  alpha Z        PSCENC =       389.03717917
  Ewald energy   TEWEN  =     -4265.66707610
  -1/2 Hartree   DENC   =     -1302.85052829
  -V(xc)+E(xc)   XCENC  =       170.39356931
  PAW double counting   =      4337.42568226    -4914.73724579
  entropy T*S    EENTRO =        -0.00014658
  eigenvalues    EBANDS =         7.74759489
  atomic energy  EATOM  =      5563.91755062
  ---------------------------------------------------
  free energy    TOTEN  =       -14.73342051 eV

  energy without entropy =      -14.73327393  energy(sigma->0) =      -14.73334722


--------------------------------------------------------------------------------------------------------




----------------------------------------- Iteration    1(  12)  ---------------------------------------


    POTLOK:  VPU time    0.62: CPU time    4.95
    SETDIJ:  VPU time    0.44: CPU time    3.52
    EDDAV :  VPU time   30.23: CPU time  220.85
    DOS   :  VPU time    0.00: CPU time   -0.00
    CHARGE:  VPU time    0.66: CPU time    3.97
    MIXING:  VPU time    0.05: CPU time    0.33
    ------------------------------------------
      LOOP:  VPU time   32.04: CPU time  233.81

 eigenvalue-minimisations  :  4612
 total energy-change (2. order) :-0.4773924E-05  (-0.1028071E-06)
 number of electron   44.0000001 magnetization 
 augmentation part    28.8547124 magnetization 

 Broyden mixing:
  rms(total) = 0.42418E-04    rms(broyden)= 0.42415E-04
  rms(prec ) = 0.92127E-04
  weight for this iteration     100.00

 eigenvalues of (default mixing * dielectric matrix)
  average eigenvalue GAMMA=   1.6241
  2.5968  2.5968  2.5770  0.6737  0.9502  0.9797  0.9948

 Free energy of the ion-electron system (eV)
  ---------------------------------------------------
  alpha Z        PSCENC =       389.03717917
  Ewald energy   TEWEN  =     -4265.66707610
  -1/2 Hartree   DENC   =     -1302.78816739
  -V(xc)+E(xc)   XCENC  =       170.39067878
  PAW double counting   =      4337.54176603    -4914.88956376
  entropy T*S    EENTRO =        -0.00014694
  eigenvalues    EBANDS =         7.72435431
  atomic energy  EATOM  =      5563.91755062
  ---------------------------------------------------
  free energy    TOTEN  =       -14.73342529 eV

  energy without entropy =      -14.73327835  energy(sigma->0) =      -14.73335182


--------------------------------------------------------------------------------------------------------




----------------------------------------- Iteration    1(  13)  ---------------------------------------


    POTLOK:  VPU time    0.40: CPU time    2.36
    SETDIJ:  VPU time    0.17: CPU time    1.02
    EDDAV :  VPU time   14.28: CPU time   65.98
    DOS   :  VPU time    0.00: CPU time   -0.00
    CHARGE:  VPU time    0.68: CPU time    2.72
    MIXING:  VPU time    0.02: CPU time    0.08
    ------------------------------------------
      LOOP:  VPU time   15.56: CPU time   72.23

 eigenvalue-minimisations  :  3620
 total energy-change (2. order) :-0.7592134E-06  (-0.2247779E-08)
 number of electron   44.0000001 magnetization 
 augmentation part    28.8546433 magnetization 

 Broyden mixing:
  rms(total) = 0.29411E-04    rms(broyden)= 0.29411E-04
  rms(prec ) = 0.62205E-04
  weight for this iteration     100.00

 eigenvalues of (default mixing * dielectric matrix)
  average eigenvalue GAMMA=   1.6110
  2.9528  2.6015  2.5238  0.6737  1.2184  1.0555  0.9313  0.9313

 Free energy of the ion-electron system (eV)
  ---------------------------------------------------
  alpha Z        PSCENC =       389.03717917
  Ewald energy   TEWEN  =     -4265.66707610
  -1/2 Hartree   DENC   =     -1302.79190380
  -V(xc)+E(xc)   XCENC  =       170.39081103
  PAW double counting   =      4337.56278551    -4914.91107602
  entropy T*S    EENTRO =        -0.00014687
  eigenvalues    EBANDS =         7.72845042
  atomic energy  EATOM  =      5563.91755062
  ---------------------------------------------------
  free energy    TOTEN  =       -14.73342604 eV

  energy without entropy =      -14.73327918  energy(sigma->0) =      -14.73335261


--------------------------------------------------------------------------------------------------------




----------------------------------------- Iteration    1(  14)  ---------------------------------------


    POTLOK:  VPU time    0.33: CPU time    1.31
    SETDIJ:  VPU time    0.26: CPU time    1.04
    EDDAV :  VPU time   13.81: CPU time   55.23
    DOS   :  VPU time    0.00: CPU time   -0.00
    CHARGE:  VPU time    0.59: CPU time    2.36
    MIXING:  VPU time    0.07: CPU time    0.31
    ------------------------------------------
      LOOP:  VPU time   15.07: CPU time   60.28

 eigenvalue-minimisations  :  2244
 total energy-change (2. order) :-0.7615199E-07  (-0.1007940E-08)
 number of electron   44.0000001 magnetization 
 augmentation part    28.8546854 magnetization 

 Broyden mixing:
  rms(total) = 0.35043E-05    rms(broyden)= 0.35041E-05
  rms(prec ) = 0.81590E-05
  weight for this iteration     100.00

 eigenvalues of (default mixing * dielectric matrix)
  average eigenvalue GAMMA=   1.6284
  2.8985  2.5566  2.5566  2.0959  0.6737  1.0171  0.9493  0.9493  0.9583

 Free energy of the ion-electron system (eV)
  ---------------------------------------------------
  alpha Z        PSCENC =       389.03717917
  Ewald energy   TEWEN  =     -4265.66707610
  -1/2 Hartree   DENC   =     -1302.79154082
  -V(xc)+E(xc)   XCENC  =       170.39077862
  PAW double counting   =      4337.56571127    -4914.91286709
  entropy T*S    EENTRO =        -0.00014690
  eigenvalues    EBANDS =         7.72698511
  atomic energy  EATOM  =      5563.91755062
  ---------------------------------------------------
  free energy    TOTEN  =       -14.73342612 eV

  energy without entropy =      -14.73327922  energy(sigma->0) =      -14.73335267


--------------------------------------------------------------------------------------------------------




----------------------------------------- Iteration    1(  15)  ---------------------------------------


    POTLOK:  VPU time    0.36: CPU time    1.41
    SETDIJ:  VPU time    0.15: CPU time    0.61
    EDDAV :  VPU time    7.73: CPU time   30.91
    DOS   :  VPU time    0.00: CPU time   -0.00
    CHARGE:  VPU time    0.67: CPU time    2.70
    MIXING:  VPU time    0.04: CPU time    0.18
    ------------------------------------------
      LOOP:  VPU time    8.96: CPU time   35.85

 eigenvalue-minimisations  :  2230
 total energy-change (2. order) : 0.1363060E-07  (-0.6732769E-10)
 number of electron   44.0000001 magnetization 
 augmentation part    28.8546861 magnetization 

 Broyden mixing:
  rms(total) = 0.16046E-05    rms(broyden)= 0.16046E-05
  rms(prec ) = 0.35890E-05
  weight for this iteration     100.00

 eigenvalues of (default mixing * dielectric matrix)
  average eigenvalue GAMMA=   1.5509
  2.9168  2.5575  2.5575  2.3297  0.6737  0.9979  0.9979  0.9358  0.9358  0.6066

 Free energy of the ion-electron system (eV)
  ---------------------------------------------------
  alpha Z        PSCENC =       389.03717917
  Ewald energy   TEWEN  =     -4265.66707610
  -1/2 Hartree   DENC   =     -1302.79130631
  -V(xc)+E(xc)   XCENC  =       170.39076852
  PAW double counting   =      4337.56446506    -4914.91178012
  entropy T*S    EENTRO =        -0.00014690
  eigenvalues    EBANDS =         7.72691995
  atomic energy  EATOM  =      5563.91755062
  ---------------------------------------------------
  free energy    TOTEN  =       -14.73342611 eV

  energy without entropy =      -14.73327921  energy(sigma->0) =      -14.73335266


--------------------------------------------------------------------------------------------------------




----------------------------------------- Iteration    1(  16)  ---------------------------------------


    POTLOK:  VPU time    0.24: CPU time    0.97
    SETDIJ:  VPU time    0.16: CPU time    0.64
    EDDAV :  VPU time   20.49: CPU time   66.79
    DOS   :  VPU time    0.00: CPU time   -0.00
    CHARGE:  VPU time    0.57: CPU time    1.71
    MIXING:  VPU time    0.00: CPU time    0.00
    ------------------------------------------
      LOOP:  VPU time   21.48: CPU time   70.15

 eigenvalue-minimisations  :  2218
 total energy-change (2. order) : 0.1548324E-07  (-0.1033215E-10)
 number of electron   44.0000001 magnetization 
 augmentation part    28.8546899 magnetization 

 Broyden mixing:
  rms(total) = 0.10578E-05    rms(broyden)= 0.10578E-05
  rms(prec ) = 0.19304E-05
  weight for this iteration     100.00

 eigenvalues of (default mixing * dielectric matrix)
  average eigenvalue GAMMA=   1.5692
  2.8581  2.5286  2.5286  2.4453  0.6737  1.2144  1.2144  1.0236  0.9422  0.9422
  0.8896

 Free energy of the ion-electron system (eV)
  ---------------------------------------------------
  alpha Z        PSCENC =       389.03717917
  Ewald energy   TEWEN  =     -4265.66707610
  -1/2 Hartree   DENC   =     -1302.79126116
  -V(xc)+E(xc)   XCENC  =       170.39076545
  PAW double counting   =      4337.56337262    -4914.91060852
  entropy T*S    EENTRO =        -0.00014690
  eigenvalues    EBANDS =         7.72679873
  atomic energy  EATOM  =      5563.91755062
  ---------------------------------------------------
  free energy    TOTEN  =       -14.73342609 eV

  energy without entropy =      -14.73327919  energy(sigma->0) =      -14.73335264


--------------------------------------------------------------------------------------------------------




----------------------------------------- Iteration    1(  17)  ---------------------------------------


    POTLOK:  VPU time    0.50: CPU time    1.48
    SETDIJ:  VPU time    0.13: CPU time    0.26
    EDDAV :  VPU time    9.84: CPU time   19.69
    DOS   :  VPU time    0.00: CPU time   -0.00
    ------------------------------------------
      LOOP:  VPU time   10.49: CPU time   21.46

 eigenvalue-minimisations  :  2210
 total energy-change (2. order) : 0.2928573E-09  (-0.1297681E-11)
 number of electron   44.0000001 magnetization 
 augmentation part    28.8546899 magnetization 

 Free energy of the ion-electron system (eV)
  ---------------------------------------------------
  alpha Z        PSCENC =       389.03717917
  Ewald energy   TEWEN  =     -4265.66707610
  -1/2 Hartree   DENC   =     -1302.79124890
  -V(xc)+E(xc)   XCENC  =       170.39076495
  PAW double counting   =      4337.56340876    -4914.91066265
  entropy T*S    EENTRO =        -0.00014690
  eigenvalues    EBANDS =         7.72680497
  atomic energy  EATOM  =      5563.91755062
  ---------------------------------------------------
  free energy    TOTEN  =       -14.73342609 eV

  energy without entropy =      -14.73327919  energy(sigma->0) =      -14.73335264


--------------------------------------------------------------------------------------------------------




 average (electrostatic) potential at core
  the test charge radii are     1.0053
  (the norm of the test charge is              1.0000)
       1 -40.5626       2 -40.5626       3 -40.5626       4 -40.5626
 
 
 
 E-fermi :   2.9334     XC(G=0): -12.1890     alpha+bet : -8.6587
   add alpha+bet to get absolut eigen values

 k-point   1 :       0.0000    0.0000    0.0000
  band No.  band energies     occupation 
      1      -5.6401      2.00000
      2      -1.3809      2.00000
      3      -1.3809      2.00000
      4      -1.3809      2.00000
      5      -0.9933      2.00000
      6      -0.9933      2.00000
      7      -0.9933      2.00000
      8       0.1841      2.00000
      9       0.1841      2.00000
     10       0.1841      2.00000
     11       0.8857      2.00000
     12       0.8857      2.00000
     13       1.3526      2.00000
     14       1.3526      2.00000
     15       1.3526      2.00000
     16       1.4833      2.00000
     17       1.4833      2.00000
     18       1.4833      2.00000
     19       1.4833      2.00000
     20       1.4833      2.00000
     21       1.4833      2.00000
     22       4.5166      0.00000
     23       4.5166      0.00000
     24       4.5166      0.00000
     25       9.3300      0.00000
     26       9.3300      0.00000

 k-point   2 :       0.0833    0.0000    0.0000
  band No.  band energies     occupation 
      1      -5.5618      2.00000
      2      -1.3834      2.00000
      3      -1.3463      2.00000
      4      -1.3463      2.00000
      5      -0.9741      2.00000
      6      -0.9730      2.00000
      7      -0.9730      2.00000
      8       0.1632      2.00000
      9       0.2012      2.00000
     10       0.2012      2.00000
     11       0.8668      2.00000
     12       0.8936      2.00000
     13       1.3282      2.00000
     14       1.3282      2.00000
     15       1.3445      2.00000
     16       1.3653      2.00000
     17       1.3653      2.00000
     18       1.4542      2.00000
     19       1.4542      2.00000
     20       1.4833      2.00000
     21       1.4833      2.00000
     22       3.9914      0.00000
     23       4.7060      0.00000
     24       4.7060      0.00000
     25       9.3626      0.00000
     26       9.3626      0.00000

 k-point   3 :       0.1667    0.0000    0.0000
  band No.  band energies     occupation 
      1      -5.3284      2.00000
      2      -1.4063      2.00000
      3      -1.2473      2.00000
      4      -1.2473      2.00000
      5      -0.9176      2.00000
      6      -0.9116      2.00000
      7      -0.9116      2.00000
      8       0.1020      2.00000
      9       0.2522      2.00000
     10       0.2522      2.00000
     11       0.8121      2.00000
     12       0.9165      2.00000
     13       1.0782      2.00000
     14       1.0782      2.00000
     15       1.2569      2.00000
     16       1.2569      2.00000
     17       1.3208      2.00000
     18       1.3710      2.00000
     19       1.3710      2.00000
     20       1.4834      2.00000
     21       1.4834      2.00000
     22       2.9227      1.86842
     23       5.2072      0.00000
     24       5.2072      0.00000
     25       9.4633      0.00000
     26       9.4633      0.00000

 k-point   4 :       0.2500    0.0000    0.0000
  band No.  band energies     occupation 
      1      -4.9448      2.00000
      2      -1.5058      2.00000
      3      -1.0995      2.00000
      4      -1.0995      2.00000
      5      -0.8272      2.00000
      6      -0.8080      2.00000
      7      -0.8080      2.00000
      8       0.0053      2.00000
      9       0.3356      2.00000
     10       0.3356      2.00000
     11       0.7274      2.00000
     12       0.7274      2.00000
     13       0.7287      2.00000
     14       0.9530      2.00000
     15       1.1471      2.00000
     16       1.1471      2.00000
     17       1.2441      2.00000
     18       1.2441      2.00000
     19       1.2832      2.00000
     20       1.4836      2.00000
     21       1.4836      2.00000
     22       1.8504      2.00000
     23       5.9136      0.00000
     24       5.9136      0.00000
     25       9.6406      0.00000
     26       9.6406      0.00000

 k-point   5 :       0.3333    0.0000    0.0000
  band No.  band energies     occupation 
      1      -4.4211      2.00000
      2      -1.7915      2.00000
      3      -0.9318      2.00000
      4      -0.9318      2.00000
      5      -0.7085      2.00000
      6      -0.6609      2.00000
      7      -0.6609      2.00000
      8      -0.1198      2.00000
      9       0.3759      2.00000
     10       0.3759      2.00000
     11       0.4490      2.00000
     12       0.4490      2.00000
     13       0.6302      2.00000
     14       1.0008      2.00000
     15       1.0174      2.00000
     16       1.0174      2.00000
     17       1.0426      2.00000
     18       1.0880      2.00000
     19       1.0880      2.00000
     20       1.2343      2.00000
     21       1.4837      2.00000
     22       1.4837      2.00000
     23       6.7599      0.00000
     24       6.7599      0.00000
     25       9.9080      0.00000
     26       9.9080      0.00000

 k-point   6 :       0.4167    0.0000    0.0000
  band No.  band energies     occupation 
      1      -3.7772      2.00000
      2      -2.3408      2.00000
      3      -0.7904      2.00000
      4      -0.7904      2.00000
      5      -0.5688      2.00000
      6      -0.4687      2.00000
      7      -0.4687      2.00000
      8      -0.2641      2.00000
      9       0.0525      2.00000
     10       0.0525      2.00000
     11       0.5412      2.00000
     12       0.5884      2.00000
     13       0.5884      2.00000
     14       0.6240      2.00000
     15       0.9038      2.00000
     16       0.9038      2.00000
     17       0.9178      2.00000
     18       0.9178      2.00000
     19       1.0567      2.00000
     20       1.1776      2.00000
     21       1.4838      2.00000
     22       1.4838      2.00000
     23       7.7144      0.00000
     24       7.7144      0.00000
     25       9.8885      0.00000
     26       9.8885      0.00000

 k-point   7 :       0.5000    0.0000    0.0000
  band No.  band energies     occupation 
      1      -3.0541      2.00000
      2      -3.0541      2.00000
      3      -0.7331      2.00000
      4      -0.7331      2.00000
      5      -0.4173      2.00000
      6      -0.4173      2.00000
      7      -0.2306      2.00000
      8      -0.2306      2.00000
      9      -0.2306      2.00000
     10      -0.2306      2.00000
     11       0.5081      2.00000
     12       0.5081      2.00000
     13       0.7475      2.00000
     14       0.7475      2.00000
     15       0.7475      2.00000
     16       0.7475      2.00000
     17       0.8565      2.00000
     18       0.8565      2.00000
     19       1.1170      2.00000
     20       1.1170      2.00000
     21       1.4839      2.00000
     22       1.4839      2.00000
     23       8.7607      0.00000
     24       8.7607      0.00000
     25       8.7607      0.00000
     26       8.7607      0.00000

 k-point   8 :       0.0833    0.0833    0.0000
  band No.  band energies     occupation 
      1      -5.4838      2.00000
      2      -1.3478      2.00000
      3      -1.3478      2.00000
      4      -1.3125      2.00000
      5      -0.9542      2.00000
      6      -0.9542      2.00000
      7      -0.9533      2.00000
      8       0.1517      2.00000
      9       0.2093      2.00000
     10       0.2166      2.00000
     11       0.8617      2.00000
     12       0.8892      2.00000
     13       1.2778      2.00000
     14       1.2927      2.00000
     15       1.2927      2.00000
     16       1.3047      2.00000
     17       1.3578      2.00000
     18       1.3578      2.00000
     19       1.4542      2.00000
     20       1.4542      2.00000
     21       1.4645      2.00000
     22       4.1759      0.00000
     23       4.1759      0.00000
     24       4.8840      0.00000
     25       9.3958      0.00000
     26      10.0597      0.00000

 k-point   9 :       0.1667    0.0833    0.0000
  band No.  band energies     occupation 
      1      -5.2513      2.00000
      2      -1.3679      2.00000
      3      -1.2462      2.00000
      4      -1.2162      2.00000
      5      -0.8988      2.00000
      6      -0.8939      2.00000
      7      -0.8939      2.00000
      8       0.0968      2.00000
      9       0.2553      2.00000
     10       0.2621      2.00000
     11       0.8144      2.00000
     12       0.9102      2.00000
     13       1.0207      2.00000
     14       1.0235      2.00000
     15       1.1898      2.00000
     16       1.2364      2.00000
     17       1.2651      2.00000
     18       1.3309      2.00000
     19       1.3708      2.00000
     20       1.4541      2.00000
     21       1.4545      2.00000
     22       3.1184      0.00000
     23       4.6508      0.00000
     24       5.3629      0.00000
     25       9.4982      0.00000
     26      10.1931      0.00000

 k-point  10 :       0.2500    0.0833    0.0000
  band No.  band energies     occupation 
      1      -4.8694      2.00000
      2      -1.4624      2.00000
      3      -1.0939      2.00000
      4      -1.0720      2.00000
      5      -0.8102      2.00000
      6      -0.7945      2.00000
      7      -0.7923      2.00000
      8       0.0035      2.00000
      9       0.3341      2.00000
     10       0.3373      2.00000
     11       0.6716      2.00000
     12       0.6954      2.00000
     13       0.7381      2.00000
     14       0.9511      2.00000
     15       1.0098      2.00000
     16       1.1307      2.00000
     17       1.1544      2.00000
     18       1.2437      2.00000
     19       1.2826      2.00000
     20       1.4522      2.00000
     21       1.4539      2.00000
     22       2.1034      2.00000
     23       5.3001      0.00000
     24       6.0495      0.00000
     25       9.6770      0.00000
     26      10.4263      0.00000

 k-point  11 :       0.3333    0.0833    0.0000
  band No.  band energies     occupation 
      1      -4.3482      2.00000
      2      -1.7413      2.00000
      3      -0.9201      2.00000
      4      -0.9062      2.00000
      5      -0.6938      2.00000
      6      -0.6564      2.00000
      7      -0.6482      2.00000
      8      -0.1183      2.00000
      9       0.3259      2.00000
     10       0.3597      2.00000
     11       0.4171      2.00000
     12       0.4499      2.00000
     13       0.6636      2.00000
     14       0.7342      2.00000
     15       1.0055      2.00000
     16       1.0059      2.00000
     17       1.0246      2.00000
     18       1.0874      2.00000
     19       1.1954      2.00000
     20       1.4489      2.00000
     21       1.4518      2.00000
     22       1.4535      2.00000
     23       6.0601      0.00000
     24       6.8812      0.00000
     25       9.8459      0.00000
     26      10.0158      0.00000

 k-point  12 :       0.4167    0.0833    0.0000
  band No.  band energies     occupation 
      1      -3.7079      2.00000
      2      -2.2833      2.00000
      3      -0.7711      2.00000
      4      -0.7631      2.00000
      5      -0.5571      2.00000
      6      -0.4805      2.00000
      7      -0.4601      2.00000
      8      -0.2592      2.00000
      9       0.0113      2.00000
     10       0.0473      2.00000
     11       0.4450      2.00000
     12       0.4950      2.00000
     13       0.5886      2.00000
     14       0.6778      2.00000
     15       0.8978      2.00000
     16       0.9089      2.00000
     17       0.9174      2.00000
     18       1.0042      2.00000
     19       1.0701      2.00000
     20       1.2305      2.00000
     21       1.4521      2.00000
     22       1.4531      2.00000
     23       6.9038      0.00000
     24       7.8254      0.00000
     25       8.8185      0.00000
     26       9.9875      0.00000

 k-point  13 :       0.5000    0.0833    0.0000
  band No.  band energies     occupation 
      1      -2.9899      2.00000
      2      -2.9899      2.00000
      3      -0.7069      2.00000
      4      -0.7069      2.00000
      5      -0.4089      2.00000
      6      -0.4089      2.00000
      7      -0.2595      2.00000
      8      -0.2595      2.00000
      9      -0.2278      2.00000
     10      -0.2278      2.00000
     11       0.4251      2.00000
     12       0.4251      2.00000
     13       0.7473      2.00000
     14       0.7473      2.00000
     15       0.8127      2.00000
     16       0.8127      2.00000
     17       0.8567      2.00000
     18       0.8567      2.00000
     19       1.1427      2.00000
     20       1.1427      2.00000
     21       1.4526      2.00000
     22       1.4526      2.00000
     23       7.8226      0.00000
     24       7.8226      0.00000
     25       8.8645      0.00000
     26       8.8645      0.00000

 k-point  14 :       0.1667    0.1667    0.0000
  band No.  band energies     occupation 
      1      -5.0217      2.00000
      2      -1.2578      2.00000
      3      -1.2578      2.00000
      4      -1.1276      2.00000
      5      -0.8419      2.00000
      6      -0.8419      2.00000
      7      -0.8406      2.00000
      8       0.0641      2.00000
      9       0.2827      2.00000
     10       0.2910      2.00000
     11       0.7974      2.00000
     12       0.8525      2.00000
     13       0.8752      2.00000
     14       0.8752      2.00000
     15       0.9175      2.00000
     16       1.1761      2.00000
     17       1.2611      2.00000
     18       1.2611      2.00000
     19       1.3701      2.00000
     20       1.3701      2.00000
     21       1.4089      2.00000
     22       3.5790      0.00000
     23       3.5790      0.00000
     24       5.7949      0.00000
     25       9.6035      0.00000
     26      10.9401      0.00000

 k-point  15 :       0.2500    0.1667    0.0000
  band No.  band energies     occupation 
      1      -4.6449      2.00000
      2      -1.3375      2.00000
      3      -1.0917      2.00000
      4      -0.9946      2.00000
      5      -0.7589      2.00000
      6      -0.7528      2.00000
      7      -0.7463      2.00000
      8      -0.0105      2.00000
      9       0.3331      2.00000
     10       0.3516      2.00000
     11       0.5265      2.00000
     12       0.5954      2.00000
     13       0.6645      2.00000
     14       0.7438      2.00000
     15       0.9657      2.00000
     16       1.0820      2.00000
     17       1.1561      2.00000
     18       1.2227      2.00000
     19       1.2425      2.00000
     20       1.3691      2.00000
     21       1.3828      2.00000
     22       2.5666      2.00000
     23       4.1698      0.00000
     24       6.4359      0.00000
     25       9.5718      0.00000
     26       9.8582      0.00000

 k-point  16 :       0.3333    0.1667    0.0000
  band No.  band energies     occupation 
      1      -4.1316      2.00000
      2      -1.5963      2.00000
      3      -0.8986      2.00000
      4      -0.8365      2.00000
      5      -0.6500      2.00000
      6      -0.6391      2.00000
      7      -0.6110      2.00000
      8      -0.1180      2.00000
      9       0.1967      2.00000
     10       0.3088      2.00000
     11       0.3657      2.00000
     12       0.4358      2.00000
     13       0.4573      2.00000
     14       0.6988      2.00000
     15       0.9705      2.00000
     16       1.0296      2.00000
     17       1.0415      2.00000
     18       1.0862      2.00000
     19       1.1395      2.00000
     20       1.3679      2.00000
     21       1.3715      2.00000
     22       1.8487      2.00000
     23       4.8451      0.00000
     24       7.2316      0.00000
     25       8.4333      0.00000
     26      10.1010      0.00000

 k-point  17 :       0.4167    0.1667    0.0000
  band No.  band energies     occupation 
      1      -3.5029      2.00000
      2      -2.1158      2.00000
      3      -0.7246      2.00000
      4      -0.6857      2.00000
      5      -0.5225      2.00000
      6      -0.5130      2.00000
      7      -0.4355      2.00000
      8      -0.2465      2.00000
      9      -0.0955      2.00000
     10       0.0305      2.00000
     11       0.3026      2.00000
     12       0.3459      2.00000
     13       0.5920      2.00000
     14       0.7308      2.00000
     15       0.8766      2.00000
     16       0.9119      2.00000
     17       0.9168      2.00000
     18       1.0038      2.00000
     19       1.1380      2.00000
     20       1.3668      2.00000
     21       1.3672      2.00000
     22       1.4581      2.00000
     23       5.5980      0.00000
     24       7.3780      0.00000
     25       8.1490      0.00000
     26      10.2788      0.00000

 k-point  18 :       0.5000    0.1667    0.0000
  band No.  band energies     occupation 
      1      -2.8014      2.00000
      2      -2.8014      2.00000
      3      -0.6340      2.00000
      4      -0.6340      2.00000
      5      -0.3847      2.00000
      6      -0.3847      2.00000
      7      -0.3389      2.00000
      8      -0.3389      2.00000
      9      -0.2205      2.00000
[...]
     21       1.9951      2.00000
     22       1.9951      2.00000
     23       3.2272      0.00000
     24       3.2272      0.00000
     25       7.3794      0.00000
     26       7.3794      0.00000

 k-point  74 :       0.5000    0.5000    0.2500
  band No.  band energies     occupation 
      1      -1.4674      2.00000
      2      -1.4674      2.00000
      3      -1.4674      2.00000
      4      -1.4674      2.00000
      5       0.0623      2.00000
      6       0.0623      2.00000
      7       0.0623      2.00000
      8       0.0623      2.00000
      9       0.3210      2.00000
     10       0.3210      2.00000
     11       0.3210      2.00000
     12       0.3210      2.00000
     13       0.4080      2.00000
     14       0.4080      2.00000
     15       0.4080      2.00000
     16       0.4080      2.00000
     17       1.1919      2.00000
     18       1.1919      2.00000
     19       1.1919      2.00000
     20       1.1919      2.00000
     21       2.5029      2.00000
     22       2.5029      2.00000
     23       2.5029      2.00000
     24       2.5029      2.00000
     25       8.1125      0.00000
     26       8.1125      0.00000

 k-point  75 :       0.3333    0.3333    0.3333
  band No.  band energies     occupation 
      1      -2.4788      2.00000
      2      -1.2203      2.00000
      3      -1.2203      2.00000
      4      -1.2203      2.00000
      5      -0.1284      2.00000
      6      -0.1284      2.00000
      7      -0.1284      2.00000
      8       0.2241      2.00000
      9       0.2571      2.00000
     10       0.2571      2.00000
     11       0.2811      2.00000
     12       0.2811      2.00000
     13       0.2811      2.00000
     14       0.4377      2.00000
     15       0.4377      2.00000
     16       0.4377      2.00000
     17       1.1387      2.00000
     18       1.1387      2.00000
     19       1.3812      2.00000
     20       1.3812      2.00000
     21       1.3812      2.00000
     22       3.3812      0.00000
     23       3.3812      0.00000
     24       3.3812      0.00000
     25       7.4630      0.00000
     26       7.4630      0.00000

 k-point  76 :       0.4167    0.3333    0.3333
  band No.  band energies     occupation 
      1      -2.1216      2.00000
      2      -1.4773      2.00000
      3      -1.2480      2.00000
      4      -1.2480      2.00000
      5      -0.0665      2.00000
      6      -0.0665      2.00000
      7       0.0197      2.00000
      8       0.2151      2.00000
      9       0.2525      2.00000
     10       0.3459      2.00000
     11       0.3482      2.00000
     12       0.3735      2.00000
     13       0.3735      2.00000
     14       0.3797      2.00000
     15       0.4268      2.00000
     16       0.4268      2.00000
     17       1.2456      2.00000
     18       1.2531      2.00000
     19       1.3563      2.00000
     20       1.3563      2.00000
     21       1.3712      2.00000
     22       2.4206      2.00000
     23       3.6477      0.00000
     24       3.6477      0.00000
     25       6.6845      0.00000
     26       6.6845      0.00000

 k-point  77 :       0.5000    0.3333    0.3333
  band No.  band energies     occupation 
      1      -1.7795      2.00000
      2      -1.7795      2.00000
      3      -1.2580      2.00000
      4      -1.2580      2.00000
      5      -0.0480      2.00000
      6      -0.0480      2.00000
      7       0.1387      2.00000
      8       0.1387      2.00000
      9       0.2827      2.00000
     10       0.2827      2.00000
     11       0.3573      2.00000
     12       0.3573      2.00000
     13       0.4033      2.00000
     14       0.4033      2.00000
     15       0.4869      2.00000
     16       0.4869      2.00000
     17       1.3250      2.00000
     18       1.3250      2.00000
     19       1.3379      2.00000
     20       1.3379      2.00000
     21       1.6857      2.00000
     22       1.6857      2.00000
     23       3.7776      0.00000
     24       3.7776      0.00000
     25       6.3804      0.00000
     26       6.3804      0.00000

 k-point  78 :       0.4167    0.4167    0.3333
  band No.  band energies     occupation 
      1      -1.8847      2.00000
      2      -1.4499      2.00000
      3      -1.4499      2.00000
      4      -1.3386      2.00000
      5       0.0064      2.00000
      6       0.0508      2.00000
      7       0.0508      2.00000
      8       0.1981      2.00000
      9       0.2214      2.00000
     10       0.2927      2.00000
     11       0.2927      2.00000
     12       0.3078      2.00000
     13       0.5758      2.00000
     14       0.5758      2.00000
     15       0.6051      2.00000
     16       0.6691      2.00000
     17       1.2129      2.00000
     18       1.3440      2.00000
     19       1.3503      2.00000
     20       1.3503      2.00000
     21       1.4569      2.00000
     22       2.7138      2.00000
     23       2.7138      2.00000
     24       3.4912      0.00000
     25       6.3245      0.00000
     26       7.1840      0.00000

 k-point  79 :       0.5000    0.4167    0.3333
  band No.  band energies     occupation 
      1      -1.6605      2.00000
      2      -1.6605      2.00000
      3      -1.4054      2.00000
      4      -1.4054      2.00000
      5       0.0465      2.00000
      6       0.0465      2.00000
      7       0.1409      2.00000
      8       0.1409      2.00000
      9       0.2391      2.00000
     10       0.2391      2.00000
     11       0.2782      2.00000
     12       0.2782      2.00000
     13       0.6816      2.00000
     14       0.6816      2.00000
     15       0.7012      2.00000
     16       0.7012      2.00000
     17       1.2945      2.00000
     18       1.2945      2.00000
     19       1.3267      2.00000
     20       1.3267      2.00000
     21       1.9325      2.00000
     22       1.9325      2.00000
     23       3.1140      0.00000
     24       3.1140      0.00000
     25       6.5468      0.00000
     26       6.5468      0.00000

 k-point  80 :       0.5000    0.5000    0.3333
  band No.  band energies     occupation 
      1      -1.5380      2.00000
      2      -1.5380      2.00000
      3      -1.5380      2.00000
      4      -1.5380      2.00000
      5       0.1133      2.00000
      6       0.1133      2.00000
      7       0.1133      2.00000
      8       0.1133      2.00000
      9       0.2349      2.00000
     10       0.2349      2.00000
     11       0.2349      2.00000
     12       0.2349      2.00000
     13       0.8011      2.00000
     14       0.8011      2.00000
     15       0.8011      2.00000
     16       0.8011      2.00000
     17       1.2849      2.00000
     18       1.2849      2.00000
     19       1.2849      2.00000
     20       1.2849      2.00000
     21       2.4298      2.00000
     22       2.4298      2.00000
     23       2.4298      2.00000
     24       2.4298      2.00000
     25       7.0981      0.00000
     26       7.0981      0.00000

 k-point  81 :       0.4167    0.4167    0.4167
  band No.  band energies     occupation 
      1      -1.7616      2.00000
      2      -1.4935      2.00000
      3      -1.4935      2.00000
      4      -1.4935      2.00000
      5       0.0930      2.00000
      6       0.0930      2.00000
      7       0.0930      2.00000
      8       0.1891      2.00000
      9       0.1891      2.00000
     10       0.2341      2.00000
     11       0.2341      2.00000
     12       0.2341      2.00000
     13       0.8482      2.00000
     14       0.8482      2.00000
     15       0.8482      2.00000
     16       1.2365      2.00000
     17       1.3013      2.00000
     18       1.3013      2.00000
     19       1.3691      2.00000
     20       1.3691      2.00000
     21       1.3691      2.00000
     22       2.7642      2.00000
     23       2.7642      2.00000
     24       2.7642      2.00000
     25       6.4792      0.00000
     26       6.4792      0.00000

 k-point  82 :       0.5000    0.4167    0.4167
  band No.  band energies     occupation 
      1      -1.6332      2.00000
      2      -1.6332      2.00000
      3      -1.5087      2.00000
      4      -1.5087      2.00000
      5       0.1094      2.00000
      6       0.1094      2.00000
      7       0.1550      2.00000
      8       0.1550      2.00000
      9       0.1935      2.00000
     10       0.1935      2.00000
     11       0.2121      2.00000
     12       0.2121      2.00000
     13       0.9720      2.00000
     14       0.9720      2.00000
     15       1.0795      2.00000
     16       1.0795      2.00000
     17       1.3547      2.00000
     18       1.3547      2.00000
     19       1.3576      2.00000
     20       1.3576      2.00000
     21       1.9697      2.00000
     22       1.9697      2.00000
     23       2.7892      2.00000
     24       2.7892      2.00000
     25       6.2220      0.00000
     26       6.2220      0.00000

 k-point  83 :       0.5000    0.5000    0.4167
  band No.  band energies     occupation 
      1      -1.5842      2.00000
      2      -1.5842      2.00000
      3      -1.5842      2.00000
      4      -1.5842      2.00000
      5       0.1491      2.00000
      6       0.1491      2.00000
      7       0.1491      2.00000
      8       0.1491      2.00000
      9       0.1805      2.00000
     10       0.1805      2.00000
     11       0.1805      2.00000
     12       0.1805      2.00000
     13       1.1795      2.00000
     14       1.1795      2.00000
     15       1.1795      2.00000
     16       1.1795      2.00000
     17       1.3444      2.00000
     18       1.3444      2.00000
     19       1.3444      2.00000
     20       1.3444      2.00000
     21       2.3133      2.00000
     22       2.3133      2.00000
     23       2.3133      2.00000
     24       2.3133      2.00000
     25       6.4181      0.00000
     26       6.4181      0.00000

 k-point  84 :       0.5000    0.5000    0.5000
  band No.  band energies     occupation 
      1      -1.6002      2.00000
      2      -1.6002      2.00000
      3      -1.6002      2.00000
      4      -1.6002      2.00000
      5       0.1619      2.00000
      6       0.1619      2.00000
      7       0.1619      2.00000
      8       0.1619      2.00000
      9       0.1619      2.00000
     10       0.1619      2.00000
     11       0.1619      2.00000
     12       0.1619      2.00000
     13       1.3648      2.00000
     14       1.3648      2.00000
     15       1.3648      2.00000
     16       1.3648      2.00000
     17       1.3648      2.00000
     18       1.3648      2.00000
     19       1.3648      2.00000
     20       1.3648      2.00000
     21       2.2319      2.00000
     22       2.2319      2.00000
     23       2.2319      2.00000
     24       2.2319      2.00000
     25       6.1746      0.00000
     26       6.1746      0.00000


--------------------------------------------------------------------------------------------------------


 soft charge-density along one line, spin component           1
         0         1         2         3         4         5         6         7         8         9
 total charge-density along one line
 
 pseudopotential strength for first ion, spin component:           1
 -6.892   0.000  -0.000   0.000  -0.000  -0.052  -0.000   0.000
  0.000  -6.892  -0.000   0.000  -0.000  -0.000  -0.052   0.000
 -0.000  -0.000  -6.875  -0.000   0.000   0.000   0.000  -0.059
  0.000   0.000  -0.000  -6.892   0.000  -0.000  -0.000   0.000
 -0.000  -0.000   0.000   0.000  -6.875   0.000   0.000  -0.000
 -0.052  -0.000   0.000  -0.000   0.000   1.591   0.000  -0.000
 -0.000  -0.052   0.000  -0.000   0.000   0.000   1.591  -0.000
  0.000   0.000  -0.059   0.000  -0.000  -0.000  -0.000   1.595
 -0.000  -0.000   0.000  -0.052  -0.000   0.000   0.000  -0.000
  0.000   0.000  -0.000  -0.000  -0.059  -0.000  -0.000   0.000
 -0.000  -0.000  -0.000  -0.000   0.000  -0.000  -0.000  -0.000
  0.000   0.000   0.000   0.000  -0.000  -0.000  -0.000  -0.000
  0.000   0.000  -0.000  -0.000  -0.000  -0.000  -0.000   0.000
 -0.000   0.000   0.000   0.000   0.000  -0.000  -0.000  -0.000
  0.000  -0.000  -0.000   0.000   0.000  -0.000  -0.000   0.000
 -0.000  -0.000   0.000   0.000   0.000   0.000   0.000  -0.000
  0.000  -0.000  -0.000  -0.000  -0.000  -0.000   0.000   0.000
 -0.000   0.000   0.000  -0.000  -0.000   0.000  -0.000  -0.000
 total augmentation occupancy for first ion, spin component:           1
  1.858  -0.008  -0.013  -0.004  -0.009  -0.004   0.006  -0.002  -0.000   0.009   0.033  -0.005   0.000   0.000   0.000   0.000
 -0.008   1.928  -0.001  -0.007  -0.005   0.006  -0.060   0.002   0.008  -0.002   0.048   0.006   0.000   0.000   0.000   0.000
 -0.013  -0.001   1.896   0.004  -0.014  -0.002   0.002  -0.035  -0.003   0.026  -0.010  -0.047   0.000  -0.000  -0.000   0.000
 -0.004  -0.007   0.004   1.916   0.002  -0.000   0.008  -0.003  -0.032   0.003   0.024   0.001  -0.000   0.000  -0.000  -0.000
 -0.009  -0.005  -0.014   0.002   1.927   0.009  -0.002   0.026   0.003  -0.100   0.057   0.031  -0.000   0.000  -0.000   0.000
 -0.004   0.006  -0.002  -0.000   0.009   0.076  -0.003   0.015   0.000  -0.006   0.018   0.013   0.000  -0.000  -0.000  -0.000
  0.006  -0.060   0.002   0.008  -0.002  -0.003   0.059  -0.003  -0.005   0.008  -0.014   0.009  -0.000   0.000  -0.000  -0.000
 -0.002   0.002  -0.035  -0.003   0.026   0.015  -0.003   0.063   0.000  -0.003   0.101  -0.012   0.000  -0.000  -0.000  -0.000
 -0.000   0.008  -0.003  -0.032   0.003   0.000  -0.005   0.000   0.047  -0.008   0.000   0.007   0.000  -0.000   0.000  -0.000
  0.009  -0.002   0.026   0.003  -0.100  -0.006   0.008  -0.003  -0.008   0.051  -0.072   0.014  -0.000   0.000  -0.000   0.000
  0.033   0.048  -0.010   0.024   0.057   0.018  -0.014   0.101   0.000  -0.072   1.133  -0.307  -0.000  -0.000   0.000  -0.000
 -0.005   0.006  -0.047   0.001   0.031   0.013   0.009  -0.012   0.007   0.014  -0.307   0.122  -0.000  -0.000   0.000  -0.000
  0.000   0.000   0.000  -0.000  -0.000   0.000  -0.000   0.000   0.000  -0.000  -0.000  -0.000   0.148   0.015  -0.013  -0.010
  0.000   0.000  -0.000   0.000   0.000  -0.000   0.000  -0.000  -0.000   0.000  -0.000  -0.000   0.015   0.103  -0.002  -0.001
  0.000   0.000  -0.000  -0.000  -0.000  -0.000  -0.000  -0.000   0.000  -0.000   0.000   0.000  -0.013  -0.002   0.225  -0.000
  0.000   0.000   0.000  -0.000   0.000  -0.000  -0.000  -0.000  -0.000   0.000  -0.000  -0.000  -0.010  -0.001  -0.000   0.001
  0.000   0.000  -0.000   0.000   0.000   0.000   0.000  -0.000   0.000  -0.000  -0.000   0.000  -0.001  -0.006  -0.001   0.000
  0.000  -0.000  -0.000  -0.000   0.000   0.000  -0.000   0.000  -0.000   0.000  -0.000   0.000  -0.000  -0.001  -0.016   0.000


------------------------ aborting loop because EDIFF is reached ----------------------------------------




--------------------------------------------------------------------------------------------------------


    CHARGE:  VPU time    1.41: CPU time    2.83
    FORLOC:  VPU time    0.00: CPU time    0.01
    FORNL :  VPU time    2.11: CPU time    3.49
    STRESS:  VPU time    3.30: CPU time    3.30
    FORCOR:  VPU time    0.09: CPU time    0.09
    FORHAR:  VPU time    0.02: CPU time    0.02
    MIXING:  VPU time    0.00: CPU time    0.00


--------------------------------------------------------------------------------------------------------



  FREE ENERGIE OF THE ION-ELECTRON SYSTEM (eV)
  ---------------------------------------------------
  free  energy   TOTEN  =       -14.733426 eV

  energy  without entropy=      -14.733279  energy(sigma->0) =      -14.733353
 

  FORCE on cell =-STRESS in cart. coord.  units (eV/reduce length):
  Direction    X        Y        Z        XY       YZ       ZX
  --------------------------------------------------------------------------------------
  Alpha Z    389.04    389.04    389.04
  Ewald    -1421.89  -1421.89  -1421.89      0.00     -0.00      0.00
  Hartree    434.26    434.26    434.26     -0.00     -0.00     -0.00
  E(xc)     -249.91   -249.91   -249.91      0.00     -0.00      0.00
  Local      457.61    457.61    457.61     -0.00     -0.00     -0.00
  n-local   -145.87   -151.40   -152.56      0.35      1.78      0.66
  augment    225.57    225.57    225.57     -0.00     -0.00     -0.00
  Kinetic    319.35    311.26    305.62     -2.84      0.07     -1.13
  -------------------------------------------------------------------------------------
  Total       -3.19     -3.19     -3.19      0.00      0.00     -0.00
  in kB      -97.24    -97.24    -97.24      0.00      0.00     -0.00
  external pressure =      -97.24 kB  Pullay stress =        0.00 kB


 VOLUME and BASIS-vectors are now :
 -----------------------------------------------------------------------------
  energy-cutoff  :      750.00
  volume of cell :       52.55
      direct lattice vectors                 reciprocal lattice vectors
     3.745508286  0.000000000  0.000000000     0.266986460  0.000000000  0.000000000
     0.000000000  3.745508286  0.000000000     0.000000000  0.266986460  0.000000000
     0.000000000  0.000000000  3.745508286     0.000000000  0.000000000  0.266986460

  length of vectors
     3.745508286  3.745508286  3.745508286     0.266986460  0.266986460  0.266986460


 FORCES acting on ions
    electron-ion (+dipol)            ewald-force                    non-local-force                 convergence-correction
 -----------------------------------------------------------------------------------------------
   -.463E-13 -.509E-13 -.105E-12   -.530E-14 -.529E-15 -.105E-13   0.000E+00 0.388E-25 -.517E-25   -.454E-13 -.217E-13 -.149E-13
   0.522E-12 0.365E-11 0.222E-11   0.135E-13 0.969E-14 -.105E-13   -.103E-24 0.129E-24 -.517E-25   0.377E-13 -.247E-13 -.540E-13
   0.524E-12 -.573E-13 0.762E-11   -.431E-14 -.865E-14 0.114E-13   0.155E-24 0.517E-25 0.129E-24   0.307E-13 -.396E-13 0.531E-15
   -.459E-13 0.518E-12 0.459E-12   -.648E-14 0.157E-14 0.114E-13   0.155E-24 0.000E+00 -.775E-25   -.395E-13 -.145E-13 0.172E-13
 -----------------------------------------------------------------------------------------------
   0.954E-12 0.406E-11 0.102E-10   -.257E-14 0.208E-14 0.182E-14   0.207E-24 0.220E-24 -.517E-25   -.164E-13 -.101E-12 -.511E-13
 
 
 POSITION                                       TOTAL-FORCE (eV/Angst)
 -----------------------------------------------------------------------------------
      0.00000      0.00000      0.00000         0.000000      0.000000      0.000000
      1.87275      1.87275      0.00000         0.000000      0.000000      0.000000
      1.87275      0.00000      1.87275         0.000000      0.000000      0.000000
      0.00000      1.87275      1.87275         0.000000     -0.000000      0.000000
 -----------------------------------------------------------------------------------
    total drift:                                0.000000      0.000000      0.000000


--------------------------------------------------------------------------------------------------------



 mean value of Nose-termostat <S>:     1.000 mean value of <T> :     0.000
 mean temperature <T/S>/<1/S>  :     0.000

     LOOP+:  VPU time  481.21: CPU time 4118.51
  
  
 General timing and accounting informations for this job:
 ========================================================
  
                  Total CPU time used (sec):      484.818
                            User time (sec):      287.639
                          System time (sec):      197.179
                         Elapsed time (sec):     4150.986
  
                   Maximum memory used (kb):      349756.
                   Average memory used (kb):           0.
  
                          Minor page faults:       137194
                          Major page faults:            0
                 Voluntary context switches:         1140
