<?xml version="1.0" encoding="ISO-8859-1"?>
<modeling>
 <generator>
  <i name="program" type="string">vasp</i>
  <i name="version" type="string">4.6.28 </i>
  <i name="subversion" type="string">25Jul05 complex  parallel</i>
  <i name="platform" type="string">LinuxIFC</i>
  <i name="date" type="string">2016 12 21</i>
  <i name="time" type="string">11:39:52</i>
 </generator>
 <incar>
  <i type="string" name="PREC">accurate</i>
  <i type="int" name="IALGO">    38</i>
  <i type="logical" name="ADDGRID"> T  </i>
  <i name="EDIFF">      0.00000001</i>
  <i type="int" name="IBRION">    -1</i>
  <i name="ENCUT">    750.00000000</i>
  <i type="logical" name="LREAL"> F  </i>
  <i type="int" name="ISMEAR">     0</i>
  <i name="SIGMA">      0.01000000</i>
  <i type="logical" name="LWAVE"> F  </i>
  <i type="logical" name="LCHARG"> F  </i>
 </incar>
 <kpoints>
  <generation param="Gamma">
   <v type="int" name="divisions">      12      12      12</v>
   <v name="usershift">      0.00000000      0.00000000      0.00000000</v>
   <v name="genvec1">      0.08333333      0.00000000      0.00000000</v>
   <v name="genvec2">      0.00000000      0.08333333      0.00000000</v>
   <v name="genvec3">      0.00000000      0.00000000      0.08333333</v>
   <v name="shift">      0.00000000      0.00000000      0.00000000</v>
  </generation>
  <varray name="kpointlist" >
   <v>       0.00000000      0.00000000      0.00000000</v>
   <v>       0.08333333      0.00000000      0.00000000</v>
   <v>       0.16666667      0.00000000      0.00000000</v>
   <v>       0.25000000      0.00000000      0.00000000</v>
   <v>       0.33333333      0.00000000      0.00000000</v>
   <v>       0.41666667      0.00000000      0.00000000</v>
   <v>       0.50000000      0.00000000      0.00000000</v>
   <v>       0.08333333      0.08333333      0.00000000</v>
   <v>       0.16666667      0.08333333      0.00000000</v>
   <v>       0.25000000      0.08333333      0.00000000</v>
   <v>       0.33333333      0.08333333      0.00000000</v>
   <v>       0.41666667      0.08333333      0.00000000</v>
   <v>       0.50000000      0.08333333      0.00000000</v>
   <v>       0.16666667      0.16666667      0.00000000</v>
   <v>       0.25000000      0.16666667      0.00000000</v>
   <v>       0.33333333      0.16666667      0.00000000</v>
   <v>       0.41666667      0.16666667      0.00000000</v>
   <v>       0.50000000      0.16666667      0.00000000</v>
   <v>       0.25000000      0.25000000      0.00000000</v>
   <v>       0.33333333      0.25000000      0.00000000</v>
   <v>       0.41666667      0.25000000      0.00000000</v>
   <v>       0.50000000      0.25000000      0.00000000</v>
   <v>       0.33333333      0.33333333      0.00000000</v>
   <v>       0.41666667      0.33333333      0.00000000</v>
   <v>       0.50000000      0.33333333      0.00000000</v>
   <v>       0.41666667      0.41666667      0.00000000</v>
   <v>       0.50000000      0.41666667      0.00000000</v>
   <v>       0.50000000      0.50000000      0.00000000</v>
   <v>       0.08333333      0.08333333      0.08333333</v>
   <v>       0.16666667      0.08333333      0.08333333</v>
   <v>       0.25000000      0.08333333      0.08333333</v>
   <v>       0.33333333      0.08333333      0.08333333</v>
   <v>       0.41666667      0.08333333      0.08333333</v>
   <v>       0.50000000      0.08333333      0.08333333</v>
   <v>       0.16666667      0.16666667      0.08333333</v>
   <v>       0.25000000      0.16666667      0.08333333</v>
   <v>       0.33333333      0.16666667      0.08333333</v>
   <v>       0.41666667      0.16666667      0.08333333</v>
   <v>       0.50000000      0.16666667      0.08333333</v>
   <v>       0.25000000      0.25000000      0.08333333</v>
   <v>       0.33333333      0.25000000      0.08333333</v>
   <v>       0.41666667      0.25000000      0.08333333</v>
   <v>       0.50000000      0.25000000      0.08333333</v>
   <v>       0.33333333      0.33333333      0.08333333</v>
   <v>       0.41666667      0.33333333      0.08333333</v>
   <v>       0.50000000      0.33333333      0.08333333</v>
   <v>       0.41666667      0.41666667      0.08333333</v>
   <v>       0.50000000      0.41666667      0.08333333</v>
   <v>       0.50000000      0.50000000      0.08333333</v>
   <v>       0.16666667      0.16666667      0.16666667</v>
   <v>       0.25000000      0.16666667      0.16666667</v>
   <v>       0.33333333      0.16666667      0.16666667</v>
   <v>       0.41666667      0.16666667      0.16666667</v>
   <v>       0.50000000      0.16666667      0.16666667</v>
   <v>       0.25000000      0.25000000      0.16666667</v>
   <v>       0.33333333      0.25000000      0.16666667</v>
   <v>       0.41666667      0.25000000      0.16666667</v>
   <v>       0.50000000      0.25000000      0.16666667</v>
   <v>       0.33333333      0.33333333      0.16666667</v>
   <v>       0.41666667      0.33333333      0.16666667</v>
   <v>       0.50000000      0.33333333      0.16666667</v>
   <v>       0.41666667      0.41666667      0.16666667</v>
   <v>       0.50000000      0.41666667      0.16666667</v>
   <v>       0.50000000      0.50000000      0.16666667</v>
   <v>       0.25000000      0.25000000      0.25000000</v>
   <v>       0.33333333      0.25000000      0.25000000</v>
   <v>       0.41666667      0.25000000      0.25000000</v>
   <v>       0.50000000      0.25000000      0.25000000</v>
   <v>       0.33333333      0.33333333      0.25000000</v>
   <v>       0.41666667      0.33333333      0.25000000</v>
   <v>       0.50000000      0.33333333      0.25000000</v>
   <v>       0.41666667      0.41666667      0.25000000</v>
   <v>       0.50000000      0.41666667      0.25000000</v>
   <v>       0.50000000      0.50000000      0.25000000</v>
   <v>       0.33333333      0.33333333      0.33333333</v>
   <v>       0.41666667      0.33333333      0.33333333</v>
   <v>       0.50000000      0.33333333      0.33333333</v>
   <v>       0.41666667      0.41666667      0.33333333</v>
   <v>       0.50000000      0.41666667      0.33333333</v>
   <v>       0.50000000      0.50000000      0.33333333</v>
   <v>       0.41666667      0.41666667      0.41666667</v>
   <v>       0.50000000      0.41666667      0.41666667</v>
   <v>       0.50000000      0.50000000      0.41666667</v>
   <v>       0.50000000      0.50000000      0.50000000</v>
  </varray>
  <varray name="weights" >
   <v>       0.00057870</v>
   <v>       0.00347222</v>
   <v>       0.00347222</v>
   <v>       0.00347222</v>
   <v>       0.00347222</v>
   <v>       0.00347222</v>
   <v>       0.00173611</v>
   <v>       0.00694444</v>
   <v>       0.01388889</v>
   <v>       0.01388889</v>
   <v>       0.01388889</v>
   <v>       0.01388889</v>
   <v>       0.00694444</v>
   <v>       0.00694444</v>
   <v>       0.01388889</v>
   <v>       0.01388889</v>
   <v>       0.01388889</v>
   <v>       0.00694444</v>
   <v>       0.00694444</v>
   <v>       0.01388889</v>
   <v>       0.01388889</v>
   <v>       0.00694444</v>
   <v>       0.00694444</v>
   <v>       0.01388889</v>
   <v>       0.00694444</v>
   <v>       0.00694444</v>
   <v>       0.00694444</v>
   <v>       0.00173611</v>
   <v>       0.00462963</v>
   <v>       0.01388889</v>
   <v>       0.01388889</v>
   <v>       0.01388889</v>
   <v>       0.01388889</v>
   <v>       0.00694444</v>
   <v>       0.01388889</v>
   <v>       0.02777778</v>
   <v>       0.02777778</v>
   <v>       0.02777778</v>
   <v>       0.01388889</v>
   <v>       0.01388889</v>
   <v>       0.02777778</v>
   <v>       0.02777778</v>
   <v>       0.01388889</v>
   <v>       0.01388889</v>
   <v>       0.02777778</v>
   <v>       0.01388889</v>
   <v>       0.01388889</v>
   <v>       0.01388889</v>
   <v>       0.00347222</v>
   <v>       0.00462963</v>
   <v>       0.01388889</v>
   <v>       0.01388889</v>
   <v>       0.01388889</v>
   <v>       0.00694444</v>
   <v>       0.01388889</v>
   <v>       0.02777778</v>
   <v>       0.02777778</v>
   <v>       0.01388889</v>
   <v>       0.01388889</v>
   <v>       0.02777778</v>
   <v>       0.01388889</v>
   <v>       0.01388889</v>
   <v>       0.01388889</v>
   <v>       0.00347222</v>
   <v>       0.00462963</v>
   <v>       0.01388889</v>
   <v>       0.01388889</v>
   <v>       0.00694444</v>
   <v>       0.01388889</v>
   <v>       0.02777778</v>
   <v>       0.01388889</v>
   <v>       0.01388889</v>
   <v>       0.01388889</v>
   <v>       0.00347222</v>
   <v>       0.00462963</v>
   <v>       0.01388889</v>
   <v>       0.00694444</v>
   <v>       0.01388889</v>
   <v>       0.01388889</v>
   <v>       0.00347222</v>
   <v>       0.00462963</v>
   <v>       0.00694444</v>
   <v>       0.00347222</v>
   <v>       0.00057870</v>
  </varray>
 </kpoints>
 <parameters>
  <separator name="general" >
   <i type="string" name="SYSTEM">unknown system</i>
   <i type="logical" name="LCOMPAT"> F  </i>
  </separator>
  <separator name="electronic" >
   <i type="string" name="PREC">accura</i>
   <i name="ENMAX">    750.00000000</i>
   <i name="ENAUG">    516.45600000</i>
   <i name="EDIFF">      0.00000001</i>
   <i type="int" name="IALGO">    38</i>
   <i type="int" name="IWAVPR">    10</i>
   <i type="int" name="NBANDS">    26</i>
   <i name="NELECT">     44.00000000</i>
   <separator name="electronic smearing" >
    <i type="int" name="ISMEAR">     0</i>
    <i name="SIGMA">      0.01000000</i>
   </separator>
   <separator name="electronic projectors" >
    <i type="logical" name="LREAL"> F  </i>
    <v name="ROPT">      0.00000000</v>
    <i type="int" name="LMAXPAW">  -100</i>
    <i type="int" name="LMAXMIX">     2</i>
   </separator>
   <separator name="electronic startup" >
    <i type="int" name="ISTART">     0</i>
    <i type="int" name="ICHARG">     2</i>
    <i type="int" name="INIWAV">     1</i>
   </separator>
   <separator name="electronic spin" >
    <i type="int" name="ISPIN">     1</i>
    <i type="logical" name="LNONCOLLINEAR"> F  </i>
    <v name="MAGMOM">      1.00000000      1.00000000      1.00000000      1.00000000</v>
    <i name="NUPDOWN">     -1.00000000</i>
    <i type="logical" name="LSORBIT"> F  </i>
    <v name="SAXIS">      0.00000000      0.00000000      1.00000000</v>
    <i type="logical" name="LSPIRAL"> F  </i>
    <v name="QSPIRAL">      0.00000000      0.00000000      0.00000000</v>
    <i type="logical" name="LZEROZ"> F  </i>
   </separator>
   <separator name="electronic exchange-correlation" >
    <i type="string" name="GGA">--</i>
    <i type="int" name="VOSKOWN">     0</i>
    <i type="logical" name="LASPH"> F  </i>
    <i type="logical" name="LMETAGGA"> F  </i>
    <i type="string" name="GGA2">--</i>
   </separator>
   <separator name="electronic convergence" >
    <i type="int" name="NELM">    60</i>
    <i type="int" name="NELMDL">     0</i>
    <i type="int" name="NELMIN">     2</i>
    <i name="ENINI">    750.00000000</i>
    <separator name="electronic convergence detail" >
     <i type="logical" name="LDIAG"> T  </i>
     <i name="WEIMIN">      0.00000000</i>
     <i name="EBREAK">      0.00000000</i>
     <i name="DEPER">      0.30000000</i>
     <i type="int" name="NRMM">     4</i>
     <i name="TIME">      0.10000000</i>
    </separator>
   </separator>
   <separator name="electronic mixer" >
    <i name="AMIX">      0.40000000</i>
    <i name="BMIX">      1.00000000</i>
    <i name="AMIN">      0.10000000</i>
    <i name="AMIX_MAG">      1.60000000</i>
    <i name="BMIX_MAG">      1.00000000</i>
    <separator name="electronic mixer details" >
     <i type="int" name="IMIX">     4</i>
     <i type="int" name="MAXMIX">   -45</i>
     <i name="WC">    100.00000000</i>
     <i type="int" name="INIMIX">     1</i>
     <i type="int" name="MIXPRE">     1</i>
     <i type="int" name="MREMOVE">     5</i>
    </separator>
   </separator>
   <separator name="electronic dipolcorrection" >
    <i type="int" name="IDIPOL">     0</i>
    <i type="logical" name="LDIPOL"> F  </i>
    <v name="DIPOL">   -100.00000000</v>
    <i name="EFIELD">      0.00000000</i>
   </separator>
  </separator>
  <separator name="grids" >
   <i type="int" name="NGX">    36</i>
   <i type="int" name="NGY">    36</i>
   <i type="int" name="NGZ">    36</i>
   <i type="int" name="NGXF">    72</i>
   <i type="int" name="NGYF">    72</i>
   <i type="int" name="NGZF">    72</i>
   <i type="logical" name="ADDGRID"> T  </i>
  </separator>
  <separator name="ionic" >
   <i type="int" name="NSW">     0</i>
   <i type="int" name="IBRION">    -1</i>
   <i type="int" name="ISIF">     2</i>
   <i name="PSTRESS">      0.00000000</i>
   <i name="EDIFFG">      0.00000010</i>
   <i type="int" name="NFREE">     0</i>
   <i name="POTIM">      0.50000000</i>
   <i name="SMASS">     -3.00000000</i>
  </separator>
  <separator name="ionic md" >
   <i name="TEBEG">      0.00010000</i>
   <i name="TEEND">      0.00010000</i>
   <i type="int" name="NBLOCK">     1</i>
   <i type="int" name="KBLOCK">     1</i>
   <i type="int" name="NPACO">   256</i>
   <i name="APACO">     16.00000000</i>
  </separator>
  <separator name="symmetry" >
   <i type="int" name="ISYM">     2</i>
   <i name="SYMPREC">      0.00001000</i>
  </separator>
  <separator name="dos" >
   <i type="logical" name="LORBIT"> F  </i>
   <v name="RWIGS">     -1.00000000</v>
   <i type="int" name="NEDOS">   301</i>
   <i name="EMIN">     10.00000000</i>
   <i name="EMAX">    -10.00000000</i>
  </separator>
  <separator name="writing" >
   <i type="int" name="NWRITE">     2</i>
   <i type="logical" name="LWAVE"> F  </i>
   <i type="logical" name="LCHARG"> F  </i>
   <i type="logical" name="LPARD"> F  </i>
   <i type="logical" name="LVTOT"> F  </i>
   <i type="logical" name="LELF"> F  </i>
   <i type="logical" name="LOPTICS"> F  </i>
   <i name="STM">      0.00000000</i>
  </separator>
  <separator name="performance" >
   <i type="int" name="NPAR">     2</i>
   <i type="int" name="NSIM">     4</i>
   <i type="int" name="NBLK">   256</i>
   <i type="logical" name="LPLANE"> T  </i>
   <i type="logical" name="LCRITICAL_MEM"> F  </i>
   <i type="logical" name="LSCALAPACK"> F  </i>
   <i type="logical" name="LSCALU"> F  </i>
   <i type="logical" name="LASYNC"> F  </i>
  </separator>
  <separator name="miscellaneous" >
   <i type="int" name="IDIOT">     3</i>
   <i type="logical" name="LMUSIC"> F  </i>
   <v name="POMASS">     63.54600000</v>
   <i type="logical" name="LCORR"> T  </i>
  </separator>
  <i type="logical" name="LREAL_COMPAT"> F  </i>
  <i type="logical" name="GGA_COMPAT"> T  </i>
  <i type="logical" name="LBERRY"> F  </i>
  <i type="int" name="ICORELEVEL">     0</i>
  <i type="logical" name="LDAU"> F  </i>
  <i type="int" name="I_CONSTRAINED_M">     0</i>
 </parameters>
 <atominfo>
  <atoms>       4</atoms>
  <types>       1</types>
  <array name="atoms" >
   <dimension dim="1">ion</dimension>
   <field type="string">element</field>
   <field type="int">atomtype</field>
   <set>
    <rc><c>Cu</c><c>   1</c></rc>
    <rc><c>Cu</c><c>   1</c></rc>
    <rc><c>Cu</c><c>   1</c></rc>
    <rc><c>Cu</c><c>   1</c></rc>
   </set>
  </array>
  <array name="atomtypes" >
   <dimension dim="1">type</dimension>
   <field type="int">atomspertype</field>
   <field type="string">element</field>
   <field>mass</field>
   <field>valence</field>
   <field type="string">pseudopotential</field>
   <set>
    <rc><c>   4</c><c>Cu</c><c>     63.54600000</c><c>     11.00000000</c><c> PAW_PBE Cu 05Jan2001                   </c></rc>
   </set>
  </array>
 </atominfo>
 <structure name="initialpos" >
  <crystal>
   <varray name="basis" >
    <v>       3.74550829      0.00000000      0.00000000</v>
    <v>       0.00000000      3.74550829      0.00000000</v>
    <v>       0.00000000      0.00000000      3.74550829</v>
   </varray>
   <i name="volume">     52.54510770</i>
   <varray name="rec_basis" >
    <v>       0.26698646      0.00000000      0.00000000</v>
    <v>       0.00000000      0.26698646      0.00000000</v>
    <v>       0.00000000      0.00000000      0.26698646</v>
   </varray>
  </crystal>
  <varray name="positions" >
   <v>       0.00000000      0.00000000      0.00000000</v>
   <v>       0.50000000      0.50000000      0.00000000</v>
   <v>       0.50000000      0.00000000      0.50000000</v>
   <v>       0.00000000      0.50000000      0.50000000</v>
  </varray>
 </structure>
 <calculation>
  <scstep>
   <time name="dav">   33.94  339.41</time>
   <time name="total">   34.70  346.90</time>
   <energy>
    <i name="alphaZ">    389.03717917</i>
    <i name="ewald">  -4265.66707610</i>
    <i name="hartreedc">  -1387.32969699</i>
    <i name="XCdc">    174.47803956</i>
    <i name="pawpsdc">   4328.20916945</i>
    <i name="pawaedc">  -4904.30802700</i>
    <i name="eentropy">     -0.00006155</i>
    <i name="bandstr">    418.15345739</i>
    <i name="atom">   5563.91755062</i>
    <i name="e_fr_energy">    316.49053455</i>
    <i name="e_wo_entrp">    316.49059609</i>
    <i name="e_0_energy">    316.49056532</i>
   </energy>
  </scstep>
  <scstep>
   <time name="dav">   33.26  332.57</time>
   <time name="total">   33.27  332.69</time>
   <energy>
    <i name="e_fr_energy">      1.11580958</i>
    <i name="e_wo_entrp">      1.11604552</i>
    <i name="e_0_energy">      1.11592755</i>
   </energy>
  </scstep>
  <scstep>
   <time name="dav">   32.25  322.41</time>
   <time name="total">   32.27  322.64</time>
   <energy>
    <i name="e_fr_energy">    -17.81443138</i>
    <i name="e_wo_entrp">    -17.81429258</i>
    <i name="e_0_energy">    -17.81436198</i>
   </energy>
  </scstep>
  <scstep>
   <time name="dav">   34.08  340.68</time>
   <time name="total">   34.08  340.80</time>
   <energy>
    <i name="e_fr_energy">    -18.03321243</i>
    <i name="e_wo_entrp">    -18.03309596</i>
    <i name="e_0_energy">    -18.03315419</i>
   </energy>
  </scstep>
  <scstep>
   <time name="dav">   34.48  344.76</time>
   <time name="total">   35.27  352.81</time>
   <energy>
    <i name="e_fr_energy">    -18.03429036</i>
    <i name="e_wo_entrp">    -18.03417400</i>
    <i name="e_0_energy">    -18.03423218</i>
   </energy>
  </scstep>
  <scstep>
   <time name="dav">   31.83  318.30</time>
   <time name="total">   33.30  332.98</time>
   <energy>
    <i name="e_fr_energy">    -16.27826091</i>
    <i name="e_wo_entrp">    -16.27822048</i>
    <i name="e_0_energy">    -16.27824070</i>
   </energy>
  </scstep>
  <scstep>
   <time name="dav">   35.78  357.78</time>
   <time name="total">   37.43  374.27</time>
   <energy>
    <i name="e_fr_energy">    -14.76468629</i>
    <i name="e_wo_entrp">    -14.76454721</i>
    <i name="e_0_energy">    -14.76461675</i>
   </energy>
  </scstep>
  <scstep>
   <time name="dav">   33.80  337.96</time>
   <time name="total">   35.21  352.12</time>
   <energy>
    <i name="e_fr_energy">    -14.74688125</i>
    <i name="e_wo_entrp">    -14.74674218</i>
    <i name="e_0_energy">    -14.74681172</i>
   </energy>
  </scstep>
  <scstep>
   <time name="dav">   31.88  296.95</time>
   <time name="total">   33.59  312.87</time>
   <energy>
    <i name="e_fr_energy">    -14.73335089</i>
    <i name="e_wo_entrp">    -14.73319818</i>
    <i name="e_0_energy">    -14.73327454</i>
   </energy>
  </scstep>
  <scstep>
   <time name="dav">   29.78  267.98</time>
   <time name="total">   31.13  280.20</time>
   <energy>
    <i name="e_fr_energy">    -14.73342599</i>
    <i name="e_wo_entrp">    -14.73327878</i>
    <i name="e_0_energy">    -14.73335239</i>
   </energy>
  </scstep>
  <scstep>
   <time name="dav">   29.24  256.76</time>
   <time name="total">   30.42  266.65</time>
   <energy>
    <i name="e_fr_energy">    -14.73342051</i>
    <i name="e_wo_entrp">    -14.73327393</i>
    <i name="e_0_energy">    -14.73334722</i>
   </energy>
  </scstep>
  <scstep>
   <time name="dav">   30.23  220.85</time>
   <time name="total">   32.04  233.81</time>
   <energy>
    <i name="e_fr_energy">    -14.73342529</i>
    <i name="e_wo_entrp">    -14.73327835</i>
    <i name="e_0_energy">    -14.73335182</i>
   </energy>
  </scstep>
  <scstep>
   <time name="dav">   14.28   65.98</time>
   <time name="total">   15.56   72.23</time>
   <energy>
    <i name="e_fr_energy">    -14.73342604</i>
    <i name="e_wo_entrp">    -14.73327918</i>
    <i name="e_0_energy">    -14.73335261</i>
   </energy>
  </scstep>
  <scstep>
   <time name="dav">   13.81   55.23</time>
   <time name="total">   15.07   60.28</time>
   <energy>
    <i name="e_fr_energy">    -14.73342612</i>
    <i name="e_wo_entrp">    -14.73327922</i>
    <i name="e_0_energy">    -14.73335267</i>
   </energy>
  </scstep>
  <scstep>
   <time name="dav">    7.73   30.91</time>
   <time name="total">    8.96   35.85</time>
   <energy>
    <i name="e_fr_energy">    -14.73342611</i>
    <i name="e_wo_entrp">    -14.73327921</i>
    <i name="e_0_energy">    -14.73335266</i>
   </energy>
  </scstep>
  <scstep>
   <time name="dav">   20.49   66.79</time>
   <time name="total">   21.48   70.15</time>
   <energy>
    <i name="e_fr_energy">    -14.73342609</i>
    <i name="e_wo_entrp">    -14.73327919</i>
    <i name="e_0_energy">    -14.73335264</i>
   </energy>
  </scstep>
  <scstep>
   <time name="dav">    9.84   19.69</time>
   <time name="total">   10.49   21.46</time>
   <energy>
    <i name="alphaZ">    389.03717917</i>
    <i name="ewald">  -4265.66707610</i>
    <i name="hartreedc">  -1302.79124890</i>
    <i name="XCdc">    170.39076495</i>
    <i name="pawpsdc">   4337.56340876</i>
    <i name="pawaedc">  -4914.91066265</i>
    <i name="eentropy">     -0.00014690</i>
    <i name="bandstr">      7.72680497</i>
    <i name="atom">   5563.91755062</i>
    <i name="e_fr_energy">    -14.73342609</i>
    <i name="e_wo_entrp">    -14.73327919</i>
    <i name="e_0_energy">    -14.73335264</i>
   </energy>
  </scstep>
  <structure>
   <crystal>
    <varray name="basis" >
     <v>       3.74550829      0.00000000      0.00000000</v>
     <v>       0.00000000      3.74550829      0.00000000</v>
     <v>       0.00000000      0.00000000      3.74550829</v>
    </varray>
    <i name="volume">     52.54510770</i>
    <varray name="rec_basis" >
     <v>       0.26698646      0.00000000      0.00000000</v>
     <v>       0.00000000      0.26698646      0.00000000</v>
     <v>       0.00000000      0.00000000      0.26698646</v>
    </varray>
   </crystal>
   <varray name="positions" >
    <v>       0.00000000      0.00000000      0.00000000</v>
    <v>       0.50000000      0.50000000      0.00000000</v>
    <v>       0.50000000      0.00000000      0.50000000</v>
    <v>       0.00000000      0.50000000      0.50000000</v>
   </varray>
  </structure>
  <varray name="forces" >
   <v>       0.00000000      0.00000000      0.00000000</v>
   <v>       0.00000000      0.00000000      0.00000000</v>
   <v>       0.00000000      0.00000000      0.00000000</v>
   <v>       0.00000000     -0.00000000      0.00000000</v>
  </varray>
  <varray name="stress" >
   <v>     -97.24072451     -0.00000000     -0.00000000</v>
   <v>       0.00000000    -97.24072451     -0.00000000</v>
   <v>       0.00000000      0.00000000    -97.24072451</v>
  </varray>
  <energy>
   <i name="e_fr_energy">    -14.73342609</i>
   <i name="e_wo_entrp">    -14.73335264</i>
   <i name="e_0_energy">     -0.00014690</i>
  </energy>
  <eigenvalues>
   <array>
    <dimension dim="1">band</dimension>
    <dimension dim="2">kpoint</dimension>
    <dimension dim="3">spin</dimension>
    <field>eigene</field>
    <field>occ</field>
    <set>
     <set comment="spin 1">
      <set comment="kpoint 1">
       <r>  -5.6401  1.0000</r>
       <r>  -1.3809  1.0000</r>
       <r>  -1.3809  1.0000</r>
       <r>  -1.3809  1.0000</r>
       <r>  -0.9933  1.0000</r>
       <r>  -0.9933  1.0000</r>
       <r>  -0.9933  1.0000</r>
       <r>   0.1841  1.0000</r>
       <r>   0.1841  1.0000</r>
       <r>   0.1841  1.0000</r>
       <r>   0.8857  1.0000</r>
       <r>   0.8857  1.0000</r>
       <r>   1.3526  1.0000</r>
       <r>   1.3526  1.0000</r>
       <r>   1.3526  1.0000</r>
       <r>   1.4833  1.0000</r>
       <r>   1.4833  1.0000</r>
       <r>   1.4833  1.0000</r>
       <r>   1.4833  1.0000</r>
       <r>   1.4833  1.0000</r>
       <r>   1.4833  1.0000</r>
       <r>   4.5166  0.0000</r>
       <r>   4.5166  0.0000</r>
       <r>   4.5166  0.0000</r>
       <r>   9.3300  0.0000</r>
       <r>   9.3300  0.0000</r>
      </set>
      <set comment="kpoint 2">
       <r>  -5.5618  1.0000</r>
       <r>  -1.3834  1.0000</r>
       <r>  -1.3463  1.0000</r>
       <r>  -1.3463  1.0000</r>
       <r>  -0.9741  1.0000</r>
       <r>  -0.9730  1.0000</r>
       <r>  -0.9730  1.0000</r>
       <r>   0.1632  1.0000</r>
       <r>   0.2012  1.0000</r>
       <r>   0.2012  1.0000</r>
       <r>   0.8668  1.0000</r>
       <r>   0.8936  1.0000</r>
       <r>   1.3282  1.0000</r>
       <r>   1.3282  1.0000</r>
       <r>   1.3445  1.0000</r>
       <r>   1.3653  1.0000</r>
       <r>   1.3653  1.0000</r>
       <r>   1.4542  1.0000</r>
       <r>   1.4542  1.0000</r>
       <r>   1.4833  1.0000</r>
       <r>   1.4833  1.0000</r>
       <r>   3.9914  0.0000</r>
       <r>   4.7060  0.0000</r>
       <r>   4.7060  0.0000</r>
       <r>   9.3626  0.0000</r>
       <r>   9.3626  0.0000</r>
      </set>
      <set comment="kpoint 3">
       <r>  -5.3284  1.0000</r>
       <r>  -1.4063  1.0000</r>
       <r>  -1.2473  1.0000</r>
       <r>  -1.2473  1.0000</r>
       <r>  -0.9176  1.0000</r>
       <r>  -0.9116  1.0000</r>
       <r>  -0.9116  1.0000</r>
       <r>   0.1020  1.0000</r>
       <r>   0.2522  1.0000</r>
       <r>   0.2522  1.0000</r>
       <r>   0.8121  1.0000</r>
       <r>   0.9165  1.0000</r>
       <r>   1.0782  1.0000</r>
       <r>   1.0782  1.0000</r>
       <r>   1.2569  1.0000</r>
       <r>   1.2569  1.0000</r>
       <r>   1.3208  1.0000</r>
       <r>   1.3710  1.0000</r>
       <r>   1.3710  1.0000</r>
       <r>   1.4834  1.0000</r>
       <r>   1.4834  1.0000</r>
       <r>   2.9227  0.9342</r>
       <r>   5.2072  0.0000</r>
       <r>   5.2072  0.0000</r>
       <r>   9.4633  0.0000</r>
       <r>   9.4633  0.0000</r>
      </set>
      <set comment="kpoint 4">
       <r>  -4.9448  1.0000</r>
       <r>  -1.5058  1.0000</r>
       <r>  -1.0995  1.0000</r>
       <r>  -1.0995  1.0000</r>
       <r>  -0.8272  1.0000</r>
       <r>  -0.8080  1.0000</r>
       <r>  -0.8080  1.0000</r>
       <r>   0.0053  1.0000</r>
       <r>   0.3356  1.0000</r>
       <r>   0.3356  1.0000</r>
       <r>   0.7274  1.0000</r>
       <r>   0.7274  1.0000</r>
       <r>   0.7287  1.0000</r>
       <r>   0.9530  1.0000</r>
       <r>   1.1471  1.0000</r>
       <r>   1.1471  1.0000</r>
       <r>   1.2441  1.0000</r>
       <r>   1.2441  1.0000</r>
       <r>   1.2832  1.0000</r>
       <r>   1.4836  1.0000</r>
       <r>   1.4836  1.0000</r>
       <r>   1.8504  1.0000</r>
       <r>   5.9136  0.0000</r>
       <r>   5.9136  0.0000</r>
       <r>   9.6406  0.0000</r>
       <r>   9.6406  0.0000</r>
      </set>
      <set comment="kpoint 5">
       <r>  -4.4211  1.0000</r>
       <r>  -1.7915  1.0000</r>
       <r>  -0.9318  1.0000</r>
       <r>  -0.9318  1.0000</r>
       <r>  -0.7085  1.0000</r>
       <r>  -0.6609  1.0000</r>
       <r>  -0.6609  1.0000</r>
       <r>  -0.1198  1.0000</r>
       <r>   0.3759  1.0000</r>
       <r>   0.3759  1.0000</r>
       <r>   0.4490  1.0000</r>
       <r>   0.4490  1.0000</r>
       <r>   0.6302  1.0000</r>
       <r>   1.0008  1.0000</r>
       <r>   1.0174  1.0000</r>
       <r>   1.0174  1.0000</r>
       <r>   1.0426  1.0000</r>
       <r>   1.0880  1.0000</r>
       <r>   1.0880  1.0000</r>
       <r>   1.2343  1.0000</r>
       <r>   1.4837  1.0000</r>
       <r>   1.4837  1.0000</r>
       <r>   6.7599  0.0000</r>
       <r>   6.7599  0.0000</r>
       <r>   9.9080  0.0000</r>
       <r>   9.9080  0.0000</r>
      </set>
      <set comment="kpoint 6">
       <r>  -3.7772  1.0000</r>
       <r>  -2.3408  1.0000</r>
       <r>  -0.7904  1.0000</r>
       <r>  -0.7904  1.0000</r>
       <r>  -0.5688  1.0000</r>
       <r>  -0.4687  1.0000</r>
       <r>  -0.4687  1.0000</r>
       <r>  -0.2641  1.0000</r>
       <r>   0.0525  1.0000</r>
       <r>   0.0525  1.0000</r>
       <r>   0.5412  1.0000</r>
       <r>   0.5884  1.0000</r>
       <r>   0.5884  1.0000</r>
       <r>   0.6240  1.0000</r>
       <r>   0.9038  1.0000</r>
       <r>   0.9038  1.0000</r>
       <r>   0.9178  1.0000</r>
       <r>   0.9178  1.0000</r>
       <r>   1.0567  1.0000</r>
       <r>   1.1776  1.0000</r>
       <r>   1.4838  1.0000</r>
       <r>   1.4838  1.0000</r>
       <r>   7.7144  0.0000</r>
       <r>   7.7144  0.0000</r>
       <r>   9.8885  0.0000</r>
       <r>   9.8885  0.0000</r>
      </set>
      <set comment="kpoint 7">
       <r>  -3.0541  1.0000</r>
       <r>  -3.0541  1.0000</r>
       <r>  -0.7331  1.0000</r>
       <r>  -0.7331  1.0000</r>
       <r>  -0.4173  1.0000</r>
       <r>  -0.4173  1.0000</r>
       <r>  -0.2306  1.0000</r>
       <r>  -0.2306  1.0000</r>
       <r>  -0.2306  1.0000</r>
       <r>  -0.2306  1.0000</r>
       <r>   0.5081  1.0000</r>
       <r>   0.5081  1.0000</r>
       <r>   0.7475  1.0000</r>
       <r>   0.7475  1.0000</r>
       <r>   0.7475  1.0000</r>
       <r>   0.7475  1.0000</r>
       <r>   0.8565  1.0000</r>
       <r>   0.8565  1.0000</r>
       <r>   1.1170  1.0000</r>
       <r>   1.1170  1.0000</r>
       <r>   1.4839  1.0000</r>
       <r>   1.4839  1.0000</r>
       <r>   8.7607  0.0000</r>
       <r>   8.7607  0.0000</r>
       <r>   8.7607  0.0000</r>
       <r>   8.7607  0.0000</r>
      </set>
      <set comment="kpoint 8">
       <r>  -5.4838  1.0000</r>
       <r>  -1.3478  1.0000</r>
       <r>  -1.3478  1.0000</r>
       <r>  -1.3125  1.0000</r>
       <r>  -0.9542  1.0000</r>
       <r>  -0.9542  1.0000</r>
       <r>  -0.9533  1.0000</r>
       <r>   0.1517  1.0000</r>
       <r>   0.2093  1.0000</r>
       <r>   0.2166  1.0000</r>
       <r>   0.8617  1.0000</r>
       <r>   0.8892  1.0000</r>
       <r>   1.2778  1.0000</r>
       <r>   1.2927  1.0000</r>
       <r>   1.2927  1.0000</r>
       <r>   1.3047  1.0000</r>
       <r>   1.3578  1.0000</r>
       <r>   1.3578  1.0000</r>
       <r>   1.4542  1.0000</r>
       <r>   1.4542  1.0000</r>
       <r>   1.4645  1.0000</r>
       <r>   4.1759  0.0000</r>
       <r>   4.1759  0.0000</r>
       <r>   4.8840  0.0000</r>
       <r>   9.3958  0.0000</r>
       <r>  10.0597  0.0000</r>
      </set>
      <set comment="kpoint 9">
       <r>  -5.2513  1.0000</r>
       <r>  -1.3679  1.0000</r>
       <r>  -1.2462  1.0000</r>
       <r>  -1.2162  1.0000</r>
       <r>  -0.8988  1.0000</r>
       <r>  -0.8939  1.0000</r>
       <r>  -0.8939  1.0000</r>
       <r>   0.0968  1.0000</r>
       <r>   0.2553  1.0000</r>
       <r>   0.2621  1.0000</r>
       <r>   0.8144  1.0000</r>
       <r>   0.9102  1.0000</r>
       <r>   1.0207  1.0000</r>
       <r>   1.0235  1.0000</r>
       <r>   1.1898  1.0000</r>
       <r>   1.2364  1.0000</r>
       <r>   1.2651  1.0000</r>
       <r>   1.3309  1.0000</r>
       <r>   1.3708  1.0000</r>
       <r>   1.4541  1.0000</r>
       <r>   1.4545  1.0000</r>
       <r>   3.1184  0.0000</r>
       <r>   4.6508  0.0000</r>
       <r>   5.3629  0.0000</r>
       <r>   9.4982  0.0000</r>
       <r>  10.1931  0.0000</r>
      </set>
      <set comment="kpoint 10">
       <r>  -4.8694  1.0000</r>
       <r>  -1.4624  1.0000</r>
       <r>  -1.0939  1.0000</r>
       <r>  -1.0720  1.0000</r>
       <r>  -0.8102  1.0000</r>
       <r>  -0.7945  1.0000</r>
       <r>  -0.7923  1.0000</r>
       <r>   0.0035  1.0000</r>
       <r>   0.3341  1.0000</r>
       <r>   0.3373  1.0000</r>
       <r>   0.6716  1.0000</r>
       <r>   0.6954  1.0000</r>
       <r>   0.7381  1.0000</r>
       <r>   0.9511  1.0000</r>
       <r>   1.0098  1.0000</r>
       <r>   1.1307  1.0000</r>
       <r>   1.1544  1.0000</r>
       <r>   1.2437  1.0000</r>
       <r>   1.2826  1.0000</r>
       <r>   1.4522  1.0000</r>
       <r>   1.4539  1.0000</r>
       <r>   2.1034  1.0000</r>
       <r>   5.3001  0.0000</r>
       <r>   6.0495  0.0000</r>
       <r>   9.6770  0.0000</r>
       <r>  10.4263  0.0000</r>
      </set>
      <set comment="kpoint 11">
       <r>  -4.3482  1.0000</r>
       <r>  -1.7413  1.0000</r>
       <r>  -0.9201  1.0000</r>
       <r>  -0.9062  1.0000</r>
       <r>  -0.6938  1.0000</r>
       <r>  -0.6564  1.0000</r>
       <r>  -0.6482  1.0000</r>
       <r>  -0.1183  1.0000</r>
       <r>   0.3259  1.0000</r>
       <r>   0.3597  1.0000</r>
       <r>   0.4171  1.0000</r>
       <r>   0.4499  1.0000</r>
       <r>   0.6636  1.0000</r>
       <r>   0.7342  1.0000</r>
       <r>   1.0055  1.0000</r>
       <r>   1.0059  1.0000</r>
       <r>   1.0246  1.0000</r>
       <r>   1.0874  1.0000</r>
       <r>   1.1954  1.0000</r>
       <r>   1.4489  1.0000</r>
       <r>   1.4518  1.0000</r>
       <r>   1.4535  1.0000</r>
       <r>   6.0601  0.0000</r>
       <r>   6.8812  0.0000</r>
       <r>   9.8459  0.0000</r>
       <r>  10.0158  0.0000</r>
      </set>
      <set comment="kpoint 12">
       <r>  -3.7079  1.0000</r>
       <r>  -2.2833  1.0000</r>
       <r>  -0.7711  1.0000</r>
       <r>  -0.7631  1.0000</r>
       <r>  -0.5571  1.0000</r>
       <r>  -0.4805  1.0000</r>
       <r>  -0.4601  1.0000</r>
       <r>  -0.2592  1.0000</r>
       <r>   0.0113  1.0000</r>
       <r>   0.0473  1.0000</r>
       <r>   0.4450  1.0000</r>
       <r>   0.4950  1.0000</r>
       <r>   0.5886  1.0000</r>
       <r>   0.6778  1.0000</r>
       <r>   0.8978  1.0000</r>
       <r>   0.9089  1.0000</r>
       <r>   0.9174  1.0000</r>
       <r>   1.0042  1.0000</r>
       <r>   1.0701  1.0000</r>
       <r>   1.2305  1.0000</r>
       <r>   1.4521  1.0000</r>
       <r>   1.4531  1.0000</r>
       <r>   6.9038  0.0000</r>
       <r>   7.8254  0.0000</r>
       <r>   8.8185  0.0000</r>
       <r>   9.9875  0.0000</r>
      </set>
      <set comment="kpoint 13">
       <r>  -2.9899  1.0000</r>
       <r>  -2.9899  1.0000</r>
       <r>  -0.7069  1.0000</r>
       <r>  -0.7069  1.0000</r>
       <r>  -0.4089  1.0000</r>
       <r>  -0.4089  1.0000</r>
       <r>  -0.2595  1.0000</r>
       <r>  -0.2595  1.0000</r>
       <r>  -0.2278  1.0000</r>
       <r>  -0.2278  1.0000</r>
       <r>   0.4251  1.0000</r>
       <r>   0.4251  1.0000</r>
       <r>   0.7473  1.0000</r>
       <r>   0.7473  1.0000</r>
       <r>   0.8127  1.0000</r>
       <r>   0.8127  1.0000</r>
       <r>   0.8567  1.0000</r>
       <r>   0.8567  1.0000</r>
       <r>   1.1427  1.0000</r>
       <r>   1.1427  1.0000</r>
       <r>   1.4526  1.0000</r>
       <r>   1.4526  1.0000</r>
       <r>   7.8226  0.0000</r>
       <r>   7.8226  0.0000</r>
       <r>   8.8645  0.0000</r>
       <r>   8.8645  0.0000</r>
      </set>
      <set comment="kpoint 14">
       <r>  -5.0217  1.0000</r>
       <r>  -1.2578  1.0000</r>
       <r>  -1.2578  1.0000</r>
       <r>  -1.1276  1.0000</r>
       <r>  -0.8419  1.0000</r>
       <r>  -0.8419  1.0000</r>
       <r>  -0.8406  1.0000</r>
       <r>   0.0641  1.0000</r>
       <r>   0.2827  1.0000</r>
       <r>   0.2910  1.0000</r>
       <r>   0.7974  1.0000</r>
       <r>   0.8525  1.0000</r>
       <r>   0.8752  1.0000</r>
       <r>   0.8752  1.0000</r>
       <r>   0.9175  1.0000</r>
       <r>   1.1761  1.0000</r>
       <r>   1.2611  1.0000</r>
       <r>   1.2611  1.0000</r>
       <r>   1.3701  1.0000</r>
       <r>   1.3701  1.0000</r>
       <r>   1.4089  1.0000</r>
       <r>   3.5790  0.0000</r>
       <r>   3.5790  0.0000</r>
       <r>   5.7949  0.0000</r>
       <r>   9.6035  0.0000</r>
       <r>  10.9401  0.0000</r>
      </set>
      <set comment="kpoint 15">
       <r>  -4.6449  1.0000</r>
       <r>  -1.3375  1.0000</r>
       <r>  -1.0917  1.0000</r>
       <r>  -0.9946  1.0000</r>
       <r>  -0.7589  1.0000</r>
       <r>  -0.7528  1.0000</r>
       <r>  -0.7463  1.0000</r>
       <r>  -0.0105  1.0000</r>
       <r>   0.3331  1.0000</r>
       <r>   0.3516  1.0000</r>
       <r>   0.5265  1.0000</r>
       <r>   0.5954  1.0000</r>
       <r>   0.6645  1.0000</r>
       <r>   0.7438  1.0000</r>
       <r>   0.9657  1.0000</r>
       <r>   1.0820  1.0000</r>
       <r>   1.1561  1.0000</r>
       <r>   1.2227  1.0000</r>
       <r>   1.2425  1.0000</r>
       <r>   1.3691  1.0000</r>
       <r>   1.3828  1.0000</r>
       <r>   2.5666  1.0000</r>
       <r>   4.1698  0.0000</r>
       <r>   6.4359  0.0000</r>
       <r>   9.5718  0.0000</r>
       <r>   9.8582  0.0000</r>
      </set>
      <set comment="kpoint 16">
       <r>  -4.1316  1.0000</r>
       <r>  -1.5963  1.0000</r>
       <r>  -0.8986  1.0000</r>
       <r>  -0.8365  1.0000</r>
       <r>  -0.6500  1.0000</r>
       <r>  -0.6391  1.0000</r>
       <r>  -0.6110  1.0000</r>
       <r>  -0.1180  1.0000</r>
       <r>   0.1967  1.0000</r>
       <r>   0.3088  1.0000</r>
       <r>   0.3657  1.0000</r>
       <r>   0.4358  1.0000</r>
       <r>   0.4573  1.0000</r>
       <r>   0.6988  1.0000</r>
       <r>   0.9705  1.0000</r>
       <r>   1.0296  1.0000</r>
       <r>   1.0415  1.0000</r>
       <r>   1.0862  1.0000</r>
       <r>   1.1395  1.0000</r>
       <r>   1.3679  1.0000</r>
       <r>   1.3715  1.0000</r>
       <r>   1.8487  1.0000</r>
       <r>   4.8451  0.0000</r>
       <r>   7.2316  0.0000</r>
       <r>   8.4333  0.0000</r>
       <r>  10.1010  0.0000</r>
      </set>
      <set comment="kpoint 17">
       <r>  -3.5029  1.0000</r>
       <r>  -2.1158  1.0000</r>
       <r>  -0.7246  1.0000</r>
       <r>  -0.6857  1.0000</r>
       <r>  -0.5225  1.0000</r>
       <r>  -0.5130  1.0000</r>
       <r>  -0.4355  1.0000</r>
       <r>  -0.2465  1.0000</r>
       <r>  -0.0955  1.0000</r>
       <r>   0.0305  1.0000</r>
       <r>   0.3026  1.0000</r>
       <r>   0.3459  1.0000</r>
       <r>   0.5920  1.0000</r>
       <r>   0.7308  1.0000</r>
       <r>   0.8766  1.0000</r>
       <r>   0.9119  1.0000</r>
       <r>   0.9168  1.0000</r>
       <r>   1.0038  1.0000</r>
       <r>   1.1380  1.0000</r>
       <r>   1.3668  1.0000</r>
       <r>   1.3672  1.0000</r>
       <r>   1.4581  1.0000</r>
       <r>   5.5980  0.0000</r>
       <r>   7.3780  0.0000</r>
       <r>   8.1490  0.0000</r>
       <r>  10.2788  0.0000</r>
      </set>
      <set comment="kpoint 18">
       <r>  -2.8014  1.0000</r>
       <r>  -2.8014  1.0000</r>
       <r>  -0.6340  1.0000</r>
       <r>  -0.6340  1.0000</r>
       <r>  -0.3847  1.0000</r>
       <r>  -0.3847  1.0000</r>
       <r>  -0.3389  1.0000</r>
       <r>  -0.3389  1.0000</r>
       <r>  -0.2205  1.0000</r>
       <r>  -0.2205  1.0000</r>
       <r>   0.2969  1.0000</r>
       <r>   0.2969  1.0000</r>
       <r>   0.7482  1.0000</r>
       <r>   0.7482  1.0000</r>
       <r>   0.8478  1.0000</r>
       <r>   0.8478  1.0000</r>
       <r>   0.8498  1.0000</r>
       <r>   0.8498  1.0000</r>
       <r>   1.2623  1.0000</r>
       <r>   1.2623  1.0000</r>
       <r>   1.3662  1.0000</r>
       <r>   1.3662  1.0000</r>
       <r>   6.4373  0.0000</r>
       <r>   6.4373  0.0000</r>
       <r>   9.1689  0.0000</r>
       <r>   9.1689  0.0000</r>
      </set>
      <set comment="kpoint 19">
       <r>  -4.2772  1.0000</r>
       <r>  -1.1475  1.0000</r>
       <r>  -1.1475  1.0000</r>
       <r>  -0.8819  1.0000</r>
       <r>  -0.6822  1.0000</r>
       <r>  -0.6730  1.0000</r>
       <r>  -0.6730  1.0000</r>
       <r>  -0.0532  1.0000</r>
       <r>   0.3351  1.0000</r>
       <r>   0.3357  1.0000</r>
       <r>   0.3357  1.0000</r>
       <r>   0.3977  1.0000</r>
       <r>   0.4293  1.0000</r>
       <r>   0.7141  1.0000</r>
       <r>   1.0042  1.0000</r>
       <r>   1.0307  1.0000</r>
       <r>   1.1252  1.0000</r>
       <r>   1.1252  1.0000</r>
       <r>   1.2410  1.0000</r>
       <r>   1.2410  1.0000</r>
       <r>   1.3182  1.0000</r>
       <r>   3.1029  0.0000</r>
       <r>   3.1029  0.0000</r>
       <r>   7.0269  0.0000</r>
       <r>   8.2825  0.0000</r>
       <r>  10.0259  0.0000</r>
      </set>
      <set comment="kpoint 20">
       <r>  -3.7785  1.0000</r>
       <r>  -1.3749  1.0000</r>
       <r>  -0.9224  1.0000</r>
       <r>  -0.7489  1.0000</r>
       <r>  -0.5945  1.0000</r>
       <r>  -0.5774  1.0000</r>
       <r>  -0.5523  1.0000</r>
       <r>  -0.1300  1.0000</r>
       <r>   0.0433  1.0000</r>
       <r>   0.1765  1.0000</r>
       <r>   0.2199  1.0000</r>
       <r>   0.3245  1.0000</r>
       <r>   0.4842  1.0000</r>
       <r>   0.6806  1.0000</r>
       <r>   0.9102  1.0000</r>
       <r>   1.0050  1.0000</r>
       <r>   1.0481  1.0000</r>
       <r>   1.0853  1.0000</r>
       <r>   1.1401  1.0000</r>
       <r>   1.2398  1.0000</r>
       <r>   1.2765  1.0000</r>
       <r>   2.2915  1.0000</r>
       <r>   3.7029  0.0000</r>
       <r>   7.0967  0.0000</r>
       <r>   7.7791  0.0000</r>
       <r>  10.3361  0.0000</r>
      </set>
      <set comment="kpoint 21">
       <r>  -3.1715  1.0000</r>
       <r>  -1.8557  1.0000</r>
       <r>  -0.7082  1.0000</r>
       <r>  -0.5985  1.0000</r>
       <r>  -0.5335  1.0000</r>
       <r>  -0.4663  1.0000</r>
       <r>  -0.3977  1.0000</r>
       <r>  -0.2323  1.0000</r>
       <r>  -0.2085  1.0000</r>
       <r>  -0.0015  1.0000</r>
       <r>   0.1331  1.0000</r>
       <r>   0.2711  1.0000</r>
       <r>   0.6062  1.0000</r>
       <r>   0.7040  1.0000</r>
       <r>   0.8328  1.0000</r>
       <r>   0.8890  1.0000</r>
       <r>   0.9182  1.0000</r>
       <r>   0.9282  1.0000</r>
       <r>   1.2401  1.0000</r>
       <r>   1.2542  1.0000</r>
       <r>   1.2839  1.0000</r>
       <r>   1.7772  1.0000</r>
       <r>   4.3803  0.0000</r>
       <r>   6.0570  0.0000</r>
       <r>   8.6621  0.0000</r>
       <r>  10.7483  0.0000</r>
      </set>
      <set comment="kpoint 22">
       <r>  -2.5014  1.0000</r>
       <r>  -2.5014  1.0000</r>
       <r>  -0.5647  1.0000</r>
       <r>  -0.5647  1.0000</r>
       <r>  -0.4204  1.0000</r>
       <r>  -0.4204  1.0000</r>
       <r>  -0.3480  1.0000</r>
       <r>  -0.3480  1.0000</r>
       <r>  -0.2119  1.0000</r>
       <r>  -0.2119  1.0000</r>
       <r>   0.1878  1.0000</r>
       <r>   0.1878  1.0000</r>
       <r>   0.7544  1.0000</r>
       <r>   0.7544  1.0000</r>
       <r>   0.7978  1.0000</r>
       <r>   0.7978  1.0000</r>
       <r>   0.8200  1.0000</r>
       <r>   0.8200  1.0000</r>
       <r>   1.2438  1.0000</r>
       <r>   1.2438  1.0000</r>
       <r>   1.4771  1.0000</r>
       <r>   1.4771  1.0000</r>
       <r>   5.1572  0.0000</r>
       <r>   5.1572  0.0000</r>
       <r>   9.6561  0.0000</r>
       <r>   9.6561  0.0000</r>
      </set>
      <set comment="kpoint 23">
       <r>  -3.3032  1.0000</r>
       <r>  -1.1111  1.0000</r>
       <r>  -1.1111  1.0000</r>
       <r>  -0.6828  1.0000</r>
       <r>  -0.5083  1.0000</r>
       <r>  -0.4770  1.0000</r>
       <r>  -0.4770  1.0000</r>
       <r>  -0.1652  1.0000</r>
       <r>  -0.0394  1.0000</r>
       <r>  -0.0394  1.0000</r>
       <r>   0.0953  1.0000</r>
       <r>   0.2851  1.0000</r>
       <r>   0.5443  1.0000</r>
       <r>   0.6396  1.0000</r>
       <r>   0.8323  1.0000</r>
       <r>   0.9351  1.0000</r>
       <r>   0.9351  1.0000</r>
       <r>   1.0865  1.0000</r>
       <r>   1.0865  1.0000</r>
       <r>   1.1959  1.0000</r>
       <r>   1.2911  1.0000</r>
       <r>   2.7904  1.0000</r>
       <r>   2.7904  1.0000</r>
       <r>   5.9183  0.0000</r>
       <r>   8.4903  0.0000</r>
       <r>  10.6825  0.0000</r>
      </set>
      <set comment="kpoint 24">
       <r>  -2.7327  1.0000</r>
       <r>  -1.5361  1.0000</r>
       <r>  -0.8600  1.0000</r>
       <r>  -0.6517  1.0000</r>
       <r>  -0.4130  1.0000</r>
       <r>  -0.3916  1.0000</r>
       <r>  -0.3516  1.0000</r>
       <r>  -0.2257  1.0000</r>
       <r>  -0.2079  1.0000</r>
       <r>  -0.0528  1.0000</r>
       <r>   0.0005  1.0000</r>
       <r>   0.2150  1.0000</r>
       <r>   0.6402  1.0000</r>
       <r>   0.6423  1.0000</r>
       <r>   0.7654  1.0000</r>
       <r>   0.8247  1.0000</r>
       <r>   0.8255  1.0000</r>
       <r>   0.9256  1.0000</r>
       <r>   1.0928  1.0000</r>
       <r>   1.1409  1.0000</r>
       <r>   1.4871  1.0000</r>
       <r>   2.1559  1.0000</r>
       <r>   3.3710  0.0000</r>
       <r>   4.9094  0.0000</r>
       <r>   9.3383  0.0000</r>
       <r>  11.1524  0.0000</r>
      </set>
      <set comment="kpoint 25">
       <r>  -2.1157  1.0000</r>
       <r>  -2.1157  1.0000</r>
       <r>  -0.6942  1.0000</r>
       <r>  -0.6942  1.0000</r>
       <r>  -0.3262  1.0000</r>
       <r>  -0.3262  1.0000</r>
       <r>  -0.3046  1.0000</r>
       <r>  -0.3046  1.0000</r>
       <r>  -0.2068  1.0000</r>
       <r>  -0.2068  1.0000</r>
       <r>   0.1067  1.0000</r>
       <r>   0.1067  1.0000</r>
       <r>   0.7113  1.0000</r>
       <r>   0.7113  1.0000</r>
       <r>   0.7570  1.0000</r>
       <r>   0.7570  1.0000</r>
       <r>   0.7730  1.0000</r>
       <r>   0.7730  1.0000</r>
       <r>   1.1089  1.0000</r>
       <r>   1.1089  1.0000</r>
       <r>   1.7528  1.0000</r>
       <r>   1.7528  1.0000</r>
       <r>   4.0667  0.0000</r>
       <r>   4.0667  0.0000</r>
       <r>  10.3046  0.0000</r>
       <r>  10.3046  0.0000</r>
      </set>
      <set comment="kpoint 26">
       <r>  -2.2198  1.0000</r>
       <r>  -1.2101  1.0000</r>
       <r>  -1.2101  1.0000</r>
       <r>  -0.7606  1.0000</r>
       <r>  -0.3038  1.0000</r>
       <r>  -0.3038  1.0000</r>
       <r>  -0.2802  1.0000</r>
       <r>  -0.2349  1.0000</r>
       <r>  -0.1243  1.0000</r>
       <r>  -0.0961  1.0000</r>
       <r>  -0.0961  1.0000</r>
       <r>   0.1486  1.0000</r>
       <r>   0.6006  1.0000</r>
       <r>   0.6960  1.0000</r>
       <r>   0.7102  1.0000</r>
       <r>   0.7265  1.0000</r>
       <r>   0.7265  1.0000</r>
       <r>   0.9448  1.0000</r>
       <r>   0.9448  1.0000</r>
       <r>   1.0478  1.0000</r>
       <r>   1.7466  1.0000</r>
       <r>   2.6162  1.0000</r>
       <r>   2.6162  1.0000</r>
       <r>   3.9570  0.0000</r>
       <r>  10.1549  0.0000</r>
       <r>  11.6686  0.0000</r>
      </set>
      <set comment="kpoint 27">
       <r>  -1.6877  1.0000</r>
       <r>  -1.6877  1.0000</r>
       <r>  -0.9405  1.0000</r>
       <r>  -0.9405  1.0000</r>
       <r>  -0.2623  1.0000</r>
       <r>  -0.2623  1.0000</r>
       <r>  -0.2112  1.0000</r>
       <r>  -0.2112  1.0000</r>
       <r>  -0.1774  1.0000</r>
       <r>  -0.1774  1.0000</r>
       <r>   0.0400  1.0000</r>
       <r>   0.0400  1.0000</r>
       <r>   0.6340  1.0000</r>
       <r>   0.6340  1.0000</r>
       <r>   0.6735  1.0000</r>
       <r>   0.6735  1.0000</r>
       <r>   0.8130  1.0000</r>
       <r>   0.8130  1.0000</r>
       <r>   0.9831  1.0000</r>
       <r>   0.9831  1.0000</r>
       <r>   2.0990  1.0000</r>
       <r>   2.0990  1.0000</r>
       <r>   3.2014  0.0000</r>
       <r>   3.2014  0.0000</r>
       <r>  11.0948  0.0000</r>
       <r>  11.0948  0.0000</r>
      </set>
      <set comment="kpoint 28">
       <r>  -1.2779  1.0000</r>
       <r>  -1.2779  1.0000</r>
       <r>  -1.2779  1.0000</r>
       <r>  -1.2779  1.0000</r>
       <r>  -0.2295  1.0000</r>
       <r>  -0.2295  1.0000</r>
       <r>  -0.2295  1.0000</r>
       <r>  -0.2295  1.0000</r>
       <r>  -0.0477  1.0000</r>
       <r>  -0.0477  1.0000</r>
       <r>  -0.0477  1.0000</r>
       <r>  -0.0477  1.0000</r>
       <r>   0.6167  1.0000</r>
       <r>   0.6167  1.0000</r>
       <r>   0.6167  1.0000</r>
       <r>   0.6167  1.0000</r>
       <r>   0.8823  1.0000</r>
       <r>   0.8823  1.0000</r>
       <r>   0.8823  1.0000</r>
       <r>   0.8823  1.0000</r>
       <r>   2.5607  1.0000</r>
       <r>   2.5607  1.0000</r>
       <r>   2.5607  1.0000</r>
       <r>   2.5607  1.0000</r>
       <r>  12.0113  0.0000</r>
       <r>  12.0113  0.0000</r>
      </set>
      <set comment="kpoint 29">
       <r>  -5.4061  1.0000</r>
       <r>  -1.3133  1.0000</r>
       <r>  -1.3133  1.0000</r>
       <r>  -1.3133  1.0000</r>
       <r>  -0.9348  1.0000</r>
       <r>  -0.9348  1.0000</r>
       <r>  -0.9348  1.0000</r>
       <r>   0.1412  1.0000</r>
       <r>   0.2237  1.0000</r>
       <r>   0.2237  1.0000</r>
       <r>   0.8716  1.0000</r>
       <r>   0.8716  1.0000</r>
       <r>   1.2376  1.0000</r>
       <r>   1.2376  1.0000</r>
       <r>   1.2376  1.0000</r>
       <r>   1.2832  1.0000</r>
       <r>   1.2832  1.0000</r>
       <r>   1.2832  1.0000</r>
       <r>   1.4508  1.0000</r>
       <r>   1.4508  1.0000</r>
       <r>   1.4508  1.0000</r>
       <r>   4.3462  0.0000</r>
       <r>   4.3462  0.0000</r>
       <r>   4.3462  0.0000</r>
       <r>  10.1038  0.0000</r>
       <r>  10.1038  0.0000</r>
      </set>
      <set comment="kpoint 30">
       <r>  -5.1746  1.0000</r>
       <r>  -1.3310  1.0000</r>
       <r>  -1.2147  1.0000</r>
       <r>  -1.2147  1.0000</r>
       <r>  -0.8803  1.0000</r>
       <r>  -0.8764  1.0000</r>
       <r>  -0.8764  1.0000</r>
       <r>   0.0914  1.0000</r>
       <r>   0.2628  1.0000</r>
       <r>   0.2664  1.0000</r>
       <r>   0.8218  1.0000</r>
       <r>   0.9007  1.0000</r>
       <r>   0.9724  1.0000</r>
       <r>   0.9724  1.0000</r>
       <r>   1.1154  1.0000</r>
       <r>   1.2187  1.0000</r>
       <r>   1.2218  1.0000</r>
       <r>   1.2218  1.0000</r>
       <r>   1.4138  1.0000</r>
       <r>   1.4418  1.0000</r>
       <r>   1.4418  1.0000</r>
       <r>   3.2876  0.0000</r>
       <r>   4.7947  0.0000</r>
       <r>   4.7947  0.0000</r>
       <r>  10.2394  0.0000</r>
       <r>  10.2394  0.0000</r>
      </set>
      <set comment="kpoint 31">
       <r>  -4.7944  1.0000</r>
       <r>  -1.4212  1.0000</r>
       <r>  -1.0669  1.0000</r>
       <r>  -1.0669  1.0000</r>
       <r>  -0.7932  1.0000</r>
       <r>  -0.7788  1.0000</r>
       <r>  -0.7788  1.0000</r>
       <r>   0.0023  1.0000</r>
       <r>   0.3326  1.0000</r>
       <r>   0.3369  1.0000</r>
       <r>   0.6436  1.0000</r>
       <r>   0.6436  1.0000</r>
       <r>   0.7518  1.0000</r>
       <r>   0.9045  1.0000</r>
       <r>   0.9468  1.0000</r>
       <r>   1.1148  1.0000</r>
       <r>   1.1249  1.0000</r>
       <r>   1.1249  1.0000</r>
       <r>   1.3611  1.0000</r>
       <r>   1.4343  1.0000</r>
       <r>   1.4343  1.0000</r>
       <r>   2.2786  1.0000</r>
       <r>   5.4214  0.0000</r>
       <r>   5.4214  0.0000</r>
       <r>  10.4753  0.0000</r>
       <r>  10.4753  0.0000</r>
      </set>
      <set comment="kpoint 32">
       <r>  -4.2760  1.0000</r>
       <r>  -1.6937  1.0000</r>
       <r>  -0.8960  1.0000</r>
       <r>  -0.8960  1.0000</r>
       <r>  -0.6788  1.0000</r>
       <r>  -0.6443  1.0000</r>
       <r>  -0.6443  1.0000</r>
       <r>  -0.1158  1.0000</r>
       <r>   0.3143  1.0000</r>
       <r>   0.3143  1.0000</r>
       <r>   0.4036  1.0000</r>
       <r>   0.4334  1.0000</r>
       <r>   0.6268  1.0000</r>
       <r>   0.6990  1.0000</r>
       <r>   0.9827  1.0000</r>
       <r>   1.0049  1.0000</r>
       <r>   1.0049  1.0000</r>
       <r>   1.0067  1.0000</r>
       <r>   1.2974  1.0000</r>
       <r>   1.4300  1.0000</r>
       <r>   1.4300  1.0000</r>
       <r>   1.5740  1.0000</r>
       <r>   6.1639  0.0000</r>
       <r>   6.1639  0.0000</r>
       <r>  10.0022  0.0000</r>
       <r>  10.0022  0.0000</r>
      </set>
      <set comment="kpoint 33">
       <r>  -3.6397  1.0000</r>
       <r>  -2.2280  1.0000</r>
       <r>  -0.7445  1.0000</r>
       <r>  -0.7445  1.0000</r>
       <r>  -0.5446  1.0000</r>
       <r>  -0.4783  1.0000</r>
       <r>  -0.4783  1.0000</r>
       <r>  -0.2530  1.0000</r>
       <r>   0.0157  1.0000</r>
       <r>   0.0157  1.0000</r>
       <r>   0.4089  1.0000</r>
       <r>   0.4252  1.0000</r>
       <r>   0.5527  1.0000</r>
       <r>   0.7502  1.0000</r>
       <r>   0.8366  1.0000</r>
       <r>   0.8969  1.0000</r>
       <r>   0.8969  1.0000</r>
       <r>   1.0762  1.0000</r>
       <r>   1.1700  1.0000</r>
       <r>   1.2261  1.0000</r>
       <r>   1.4280  1.0000</r>
       <r>   1.4280  1.0000</r>
       <r>   6.9900  0.0000</r>
       <r>   6.9900  0.0000</r>
       <r>   8.9275  0.0000</r>
       <r>   8.9275  0.0000</r>
      </set>
      <set comment="kpoint 34">
       <r>  -2.9274  1.0000</r>
       <r>  -2.9274  1.0000</r>
       <r>  -0.6801  1.0000</r>
       <r>  -0.6801  1.0000</r>
       <r>  -0.3994  1.0000</r>
       <r>  -0.3994  1.0000</r>
       <r>  -0.3252  1.0000</r>
       <r>  -0.3252  1.0000</r>
       <r>  -0.1863  1.0000</r>
       <r>  -0.1863  1.0000</r>
       <r>   0.3784  1.0000</r>
       <r>   0.3784  1.0000</r>
       <r>   0.6897  1.0000</r>
       <r>   0.6897  1.0000</r>
       <r>   0.8514  1.0000</r>
       <r>   0.8514  1.0000</r>
       <r>   0.9165  1.0000</r>
       <r>   0.9165  1.0000</r>
       <r>   1.1510  1.0000</r>
       <r>   1.1510  1.0000</r>
       <r>   1.4274  1.0000</r>
       <r>   1.4274  1.0000</r>
       <r>   7.7475  0.0000</r>
       <r>   7.7475  0.0000</r>
       <r>   8.0888  0.0000</r>
       <r>   8.0888  0.0000</r>
      </set>
      <set comment="kpoint 35">
       <r>  -4.9462  1.0000</r>
       <r>  -1.2255  1.0000</r>
       <r>  -1.2255  1.0000</r>
       <r>  -1.1254  1.0000</r>
       <r>  -0.8248  1.0000</r>
       <r>  -0.8248  1.0000</r>
       <r>  -0.8236  1.0000</r>
       <r>   0.0610  1.0000</r>
       <r>   0.2871  1.0000</r>
       <r>   0.2918  1.0000</r>
       <r>   0.8073  1.0000</r>
       <r>   0.8152  1.0000</r>
       <r>   0.8317  1.0000</r>
       <r>   0.8317  1.0000</r>
       <r>   0.9032  1.0000</r>
       <r>   1.1393  1.0000</r>
       <r>   1.1649  1.0000</r>
       <r>   1.1649  1.0000</r>
       <r>   1.4088  1.0000</r>
       <r>   1.4088  1.0000</r>
       <r>   1.4158  1.0000</r>
       <r>   3.7096  0.0000</r>
       <r>   3.7096  0.0000</r>
       <r>   5.1890  0.0000</r>
       <r>  10.3798  0.0000</r>
       <r>  11.0326  0.0000</r>
      </set>
      <set comment="kpoint 36">
       <r>  -4.5716  1.0000</r>
       <r>  -1.3033  1.0000</r>
       <r>  -1.0669  1.0000</r>
       <r>  -0.9919  1.0000</r>
       <r>  -0.7419  1.0000</r>
       <r>  -0.7368  1.0000</r>
       <r>  -0.7320  1.0000</r>
       <r>  -0.0091  1.0000</r>
       <r>   0.3315  1.0000</r>
       <r>   0.3448  1.0000</r>
       <r>   0.5060  1.0000</r>
       <r>   0.5533  1.0000</r>
       <r>   0.6217  1.0000</r>
       <r>   0.7690  1.0000</r>
       <r>   0.9555  1.0000</r>
       <r>   1.0501  1.0000</r>
       <r>   1.0614  1.0000</r>
       <r>   1.0902  1.0000</r>
       <r>   1.3592  1.0000</r>
       <r>   1.3880  1.0000</r>
       <r>   1.3898  1.0000</r>
       <r>   2.6789  1.0000</r>
       <r>   4.2733  0.0000</r>
       <r>   5.7621  0.0000</r>
       <r>   9.7244  0.0000</r>
       <r>  10.6347  0.0000</r>
      </set>
      <set comment="kpoint 37">
       <r>  -4.0617  1.0000</r>
       <r>  -1.5576  1.0000</r>
       <r>  -0.8815  1.0000</r>
       <r>  -0.8329  1.0000</r>
       <r>  -0.6332  1.0000</r>
       <r>  -0.6267  1.0000</r>
       <r>  -0.6063  1.0000</r>
       <r>  -0.1121  1.0000</r>
       <r>   0.1974  1.0000</r>
       <r>   0.2769  1.0000</r>
       <r>   0.3607  1.0000</r>
       <r>   0.4000  1.0000</r>
       <r>   0.4282  1.0000</r>
       <r>   0.7457  1.0000</r>
       <r>   0.9287  1.0000</r>
       <r>   0.9489  1.0000</r>
       <r>   0.9865  1.0000</r>
       <r>   1.0339  1.0000</r>
       <r>   1.2863  1.0000</r>
       <r>   1.3713  1.0000</r>
       <r>   1.3713  1.0000</r>
       <r>   1.9157  1.0000</r>
       <r>   4.9301  0.0000</r>
       <r>   6.4526  0.0000</r>
       <r>   8.5587  0.0000</r>
       <r>  10.2737  0.0000</r>
      </set>
      <set comment="kpoint 38">
       <r>  -3.4382  1.0000</r>
       <r>  -2.0683  1.0000</r>
       <r>  -0.7063  1.0000</r>
       <r>  -0.6731  1.0000</r>
       <r>  -0.5223  1.0000</r>
       <r>  -0.5066  1.0000</r>
       <r>  -0.4695  1.0000</r>
       <r>  -0.2363  1.0000</r>
       <r>  -0.0608  1.0000</r>
       <r>   0.0232  1.0000</r>
       <r>   0.2788  1.0000</r>
       <r>   0.3347  1.0000</r>
       <r>   0.5305  1.0000</r>
       <r>   0.7870  1.0000</r>
       <r>   0.8180  1.0000</r>
       <r>   0.8594  1.0000</r>
       <r>   0.8832  1.0000</r>
       <r>   1.1288  1.0000</r>
       <r>   1.1685  1.0000</r>
       <r>   1.3616  1.0000</r>
       <r>   1.3620  1.0000</r>
       <r>   1.4610  1.0000</r>
       <r>   5.6672  0.0000</r>
       <r>   7.0925  0.0000</r>
       <r>   7.6681  0.0000</r>
       <r>   9.2003  0.0000</r>
      </set>
      <set comment="kpoint 39">
       <r>  -2.7442  1.0000</r>
       <r>  -2.7442  1.0000</r>
       <r>  -0.6060  1.0000</r>
       <r>  -0.6060  1.0000</r>
       <r>  -0.4290  1.0000</r>
       <r>  -0.4290  1.0000</r>
       <r>  -0.3711  1.0000</r>
       <r>  -0.3711  1.0000</r>
       <r>  -0.1491  1.0000</r>
       <r>  -0.1491  1.0000</r>
       <r>   0.2808  1.0000</r>
       <r>   0.2808  1.0000</r>
       <r>   0.6513  1.0000</r>
       <r>   0.6513  1.0000</r>
       <r>   0.8295  1.0000</r>
       <r>   0.8295  1.0000</r>
       <r>   0.9835  1.0000</r>
       <r>   0.9835  1.0000</r>
       <r>   1.2477  1.0000</r>
       <r>   1.2477  1.0000</r>
       <r>   1.3589  1.0000</r>
       <r>   1.3589  1.0000</r>
       <r>   6.4797  0.0000</r>
       <r>   6.4797  0.0000</r>
       <r>   8.2374  0.0000</r>
       <r>   8.2374  0.0000</r>
      </set>
      <set comment="kpoint 40">
       <r>  -4.2069  1.0000</r>
       <r>  -1.1267  1.0000</r>
       <r>  -1.1267  1.0000</r>
       <r>  -0.8849  1.0000</r>
       <r>  -0.6647  1.0000</r>
       <r>  -0.6557  1.0000</r>
       <r>  -0.6557  1.0000</r>
       <r>  -0.0469  1.0000</r>
       <r>   0.3239  1.0000</r>
       <r>   0.3239  1.0000</r>
       <r>   0.3329  1.0000</r>
       <r>   0.3780  1.0000</r>
       <r>   0.3995  1.0000</r>
       <r>   0.7527  1.0000</r>
       <r>   0.9590  1.0000</r>
       <r>   1.0069  1.0000</r>
       <r>   1.0069  1.0000</r>
       <r>   1.0183  1.0000</r>
       <r>   1.3238  1.0000</r>
       <r>   1.3238  1.0000</r>
       <r>   1.3410  1.0000</r>
       <r>   3.1846  0.0000</r>
       <r>   3.1846  0.0000</r>
       <r>   6.2651  0.0000</r>
       <r>   8.4153  0.0000</r>
       <r>  10.9003  0.0000</r>
      </set>
      <set comment="kpoint 41">
       <r>  -3.7130  1.0000</r>
       <r>  -1.3536  1.0000</r>
       <r>  -0.9218  1.0000</r>
       <r>  -0.7636  1.0000</r>
       <r>  -0.5752  1.0000</r>
       <r>  -0.5558  1.0000</r>
       <r>  -0.5385  1.0000</r>
       <r>  -0.1175  1.0000</r>
       <r>   0.0597  1.0000</r>
       <r>   0.1729  1.0000</r>
       <r>   0.2088  1.0000</r>
       <r>   0.3222  1.0000</r>
       <r>   0.4379  1.0000</r>
       <r>   0.7446  1.0000</r>
       <r>   0.8682  1.0000</r>
       <r>   0.8846  1.0000</r>
       <r>   0.9268  1.0000</r>
       <r>   1.1270  1.0000</r>
       <r>   1.2363  1.0000</r>
       <r>   1.2888  1.0000</r>
       <r>   1.2999  1.0000</r>
       <r>   2.3378  1.0000</r>
       <r>   3.7673  0.0000</r>
       <r>   6.7300  0.0000</r>
       <r>   7.4246  0.0000</r>
       <r>  10.7060  0.0000</r>
      </set>
      <set comment="kpoint 42">
       <r>  -3.1135  1.0000</r>
       <r>  -1.8233  1.0000</r>
       <r>  -0.7287  1.0000</r>
       <r>  -0.6388  1.0000</r>
       <r>  -0.5113  1.0000</r>
       <r>  -0.4424  1.0000</r>
       <r>  -0.4259  1.0000</r>
       <r>  -0.2140  1.0000</r>
       <r>  -0.1321  1.0000</r>
       <r>   0.0222  1.0000</r>
       <r>   0.1324  1.0000</r>
       <r>   0.2688  1.0000</r>
       <r>   0.5184  1.0000</r>
       <r>   0.7490  1.0000</r>
       <r>   0.7956  1.0000</r>
       <r>   0.8121  1.0000</r>
       <r>   0.8364  1.0000</r>
       <r>   1.1109  1.0000</r>
       <r>   1.2681  1.0000</r>
       <r>   1.2687  1.0000</r>
       <r>   1.2734  1.0000</r>
       <r>   1.7831  1.0000</r>
       <r>   4.4326  0.0000</r>
       <r>   6.0633  0.0000</r>
       <r>   7.8251  0.0000</r>
       <r>   9.6322  0.0000</r>
      </set>
      <set comment="kpoint 43">
       <r>  -2.4545  1.0000</r>
       <r>  -2.4545  1.0000</r>
       <r>  -0.5986  1.0000</r>
       <r>  -0.5986  1.0000</r>
       <r>  -0.4561  1.0000</r>
       <r>  -0.4561  1.0000</r>
       <r>  -0.3255  1.0000</r>
       <r>  -0.3255  1.0000</r>
       <r>  -0.1238  1.0000</r>
       <r>  -0.1238  1.0000</r>
       <r>   0.1863  1.0000</r>
       <r>   0.1863  1.0000</r>
       <r>   0.6226  1.0000</r>
       <r>   0.6226  1.0000</r>
       <r>   0.7800  1.0000</r>
       <r>   0.7800  1.0000</r>
       <r>   0.9528  1.0000</r>
       <r>   0.9528  1.0000</r>
       <r>   1.2630  1.0000</r>
       <r>   1.2630  1.0000</r>
       <r>   1.4632  1.0000</r>
       <r>   1.4632  1.0000</r>
       <r>   5.1964  0.0000</r>
       <r>   5.1964  0.0000</r>
       <r>   8.6677  0.0000</r>
       <r>   8.6677  0.0000</r>
      </set>
      <set comment="kpoint 44">
       <r>  -3.2449  1.0000</r>
       <r>  -1.1194  1.0000</r>
       <r>  -1.1194  1.0000</r>
       <r>  -0.7232  1.0000</r>
       <r>  -0.4812  1.0000</r>
       <r>  -0.4470  1.0000</r>
       <r>  -0.4470  1.0000</r>
       <r>  -0.1436  1.0000</r>
       <r>  -0.0174  1.0000</r>
       <r>  -0.0174  1.0000</r>
       <r>   0.1130  1.0000</r>
       <r>   0.2853  1.0000</r>
       <r>   0.4621  1.0000</r>
       <r>   0.7362  1.0000</r>
       <r>   0.7818  1.0000</r>
       <r>   0.8238  1.0000</r>
       <r>   0.8238  1.0000</r>
       <r>   1.1859  1.0000</r>
       <r>   1.1859  1.0000</r>
       <r>   1.2323  1.0000</r>
       <r>   1.2757  1.0000</r>
       <r>   2.8262  1.0000</r>
       <r>   2.8262  1.0000</r>
       <r>   5.9101  0.0000</r>
       <r>   7.6878  0.0000</r>
       <r>  11.2886  0.0000</r>
      </set>
      <set comment="kpoint 45">
       <r>  -2.6859  1.0000</r>
       <r>  -1.5291  1.0000</r>
       <r>  -0.9079  1.0000</r>
       <r>  -0.7172  1.0000</r>
       <r>  -0.3858  1.0000</r>
       <r>  -0.3517  1.0000</r>
       <r>  -0.3268  1.0000</r>
       <r>  -0.1945  1.0000</r>
       <r>  -0.1444  1.0000</r>
       <r>   0.0031  1.0000</r>
       <r>   0.0139  1.0000</r>
       <r>   0.2175  1.0000</r>
       <r>   0.5065  1.0000</r>
       <r>   0.7008  1.0000</r>
       <r>   0.7143  1.0000</r>
       <r>   0.7505  1.0000</r>
       <r>   0.7896  1.0000</r>
       <r>   1.0560  1.0000</r>
       <r>   1.1560  1.0000</r>
       <r>   1.1807  1.0000</r>
       <r>   1.4701  1.0000</r>
       <r>   2.1607  1.0000</r>
       <r>   3.4010  0.0000</r>
       <r>   4.9291  0.0000</r>
       <r>   8.4022  0.0000</r>
       <r>  10.2121  0.0000</r>
      </set>
      <set comment="kpoint 46">
       <r>  -2.0864  1.0000</r>
       <r>  -2.0864  1.0000</r>
       <r>  -0.7690  1.0000</r>
       <r>  -0.7690  1.0000</r>
       <r>  -0.3165  1.0000</r>
       <r>  -0.3165  1.0000</r>
       <r>  -0.2659  1.0000</r>
       <r>  -0.2659  1.0000</r>
       <r>  -0.1107  1.0000</r>
       <r>  -0.1107  1.0000</r>
       <r>   0.1128  1.0000</r>
       <r>   0.1128  1.0000</r>
       <r>   0.5874  1.0000</r>
       <r>   0.5874  1.0000</r>
       <r>   0.7008  1.0000</r>
       <r>   0.7008  1.0000</r>
       <r>   0.9103  1.0000</r>
       <r>   0.9103  1.0000</r>
       <r>   1.1541  1.0000</r>
       <r>   1.1541  1.0000</r>
       <r>   1.7396  1.0000</r>
       <r>   1.7396  1.0000</r>
       <r>   4.0931  0.0000</r>
       <r>   4.0931  0.0000</r>
       <r>   9.2497  0.0000</r>
       <r>   9.2497  0.0000</r>
      </set>
      <set comment="kpoint 47">
       <r>  -2.1912  1.0000</r>
       <r>  -1.2387  1.0000</r>
       <r>  -1.2387  1.0000</r>
       <r>  -0.8346  1.0000</r>
       <r>  -0.2567  1.0000</r>
       <r>  -0.2404  1.0000</r>
       <r>  -0.2404  1.0000</r>
       <r>  -0.1879  1.0000</r>
       <r>  -0.0732  1.0000</r>
       <r>  -0.0732  1.0000</r>
       <r>  -0.0412  1.0000</r>
       <r>   0.1553  1.0000</r>
       <r>   0.5042  1.0000</r>
       <r>   0.6394  1.0000</r>
       <r>   0.6433  1.0000</r>
       <r>   0.6433  1.0000</r>
       <r>   0.8153  1.0000</r>
       <r>   1.0291  1.0000</r>
       <r>   1.0291  1.0000</r>
       <r>   1.0985  1.0000</r>
       <r>   1.7293  1.0000</r>
       <r>   2.6217  1.0000</r>
       <r>   2.6217  1.0000</r>
       <r>   3.9732  0.0000</r>
       <r>   9.1226  0.0000</r>
       <r>  10.9282  0.0000</r>
      </set>
      <set comment="kpoint 48">
       <r>  -1.6855  1.0000</r>
       <r>  -1.6855  1.0000</r>
       <r>  -1.0023  1.0000</r>
       <r>  -1.0023  1.0000</r>
       <r>  -0.2010  1.0000</r>
       <r>  -0.2010  1.0000</r>
       <r>  -0.1666  1.0000</r>
       <r>  -0.1666  1.0000</r>
       <r>  -0.1122  1.0000</r>
       <r>  -0.1122  1.0000</r>
       <r>   0.0509  1.0000</r>
       <r>   0.0509  1.0000</r>
       <r>   0.5495  1.0000</r>
       <r>   0.5495  1.0000</r>
       <r>   0.6104  1.0000</r>
       <r>   0.6104  1.0000</r>
       <r>   0.9041  1.0000</r>
       <r>   0.9041  1.0000</r>
       <r>   1.0437  1.0000</r>
       <r>   1.0437  1.0000</r>
       <r>   2.0874  1.0000</r>
       <r>   2.0874  1.0000</r>
       <r>   3.2110  0.0000</r>
       <r>   3.2110  0.0000</r>
       <r>   9.9659  0.0000</r>
       <r>   9.9659  0.0000</r>
      </set>
      <set comment="kpoint 49">
       <r>  -1.3096  1.0000</r>
       <r>  -1.3096  1.0000</r>
       <r>  -1.3096  1.0000</r>
       <r>  -1.3096  1.0000</r>
       <r>  -0.1478  1.0000</r>
       <r>  -0.1478  1.0000</r>
       <r>  -0.1478  1.0000</r>
       <r>  -0.1478  1.0000</r>
       <r>  -0.0321  1.0000</r>
       <r>  -0.0321  1.0000</r>
       <r>  -0.0321  1.0000</r>
       <r>  -0.0321  1.0000</r>
       <r>   0.5488  1.0000</r>
       <r>   0.5488  1.0000</r>
       <r>   0.5488  1.0000</r>
       <r>   0.5488  1.0000</r>
       <r>   0.9521  1.0000</r>
       <r>   0.9521  1.0000</r>
       <r>   0.9521  1.0000</r>
       <r>   0.9521  1.0000</r>
       <r>   2.5562  1.0000</r>
       <r>   2.5562  1.0000</r>
       <r>   2.5562  1.0000</r>
       <r>   2.5562  1.0000</r>
       <r>  10.8080  0.0000</r>
       <r>  10.8080  0.0000</r>
      </set>
      <set comment="kpoint 50">
       <r>  -4.7216  1.0000</r>
       <r>  -1.1343  1.0000</r>
       <r>  -1.1343  1.0000</r>
       <r>  -1.1343  1.0000</r>
       <r>  -0.7727  1.0000</r>
       <r>  -0.7727  1.0000</r>
       <r>  -0.7727  1.0000</r>
       <r>   0.0414  1.0000</r>
       <r>   0.3028  1.0000</r>
       <r>   0.3028  1.0000</r>
       <r>   0.6764  1.0000</r>
       <r>   0.6764  1.0000</r>
       <r>   0.6764  1.0000</r>
       <r>   0.8653  1.0000</r>
       <r>   0.8653  1.0000</r>
       <r>   1.0486  1.0000</r>
       <r>   1.0486  1.0000</r>
       <r>   1.0486  1.0000</r>
       <r>   1.4199  1.0000</r>
       <r>   1.4199  1.0000</r>
       <r>   1.4199  1.0000</r>
       <r>   4.0609  0.0000</r>
       <r>   4.0609  0.0000</r>
       <r>   4.0609  0.0000</r>
       <r>  11.3039  0.0000</r>
       <r>  11.3039  0.0000</r>
      </set>
      <set comment="kpoint 51">
       <r>  -4.3538  1.0000</r>
       <r>  -1.2082  1.0000</r>
       <r>  -1.0006  1.0000</r>
       <r>  -1.0006  1.0000</r>
       <r>  -0.6894  1.0000</r>
       <r>  -0.6863  1.0000</r>
       <r>  -0.6863  1.0000</r>
       <r>  -0.0111  1.0000</r>
       <r>   0.3300  1.0000</r>
       <r>   0.3348  1.0000</r>
       <r>   0.4381  1.0000</r>
       <r>   0.4381  1.0000</r>
       <r>   0.4828  1.0000</r>
       <r>   0.8243  1.0000</r>
       <r>   0.9306  1.0000</r>
       <r>   0.9398  1.0000</r>
       <r>   0.9663  1.0000</r>
       <r>   0.9663  1.0000</r>
       <r>   1.3981  1.0000</r>
       <r>   1.3981  1.0000</r>
       <r>   1.4033  1.0000</r>
       <r>   2.9824  0.0000</r>
       <r>   4.5627  0.0000</r>
       <r>   4.5627  0.0000</r>
       <r>  10.0018  0.0000</r>
       <r>  10.0018  0.0000</r>
      </set>
      <set comment="kpoint 52">
       <r>  -3.8549  1.0000</r>
       <r>  -1.4502  1.0000</r>
       <r>  -0.8460  1.0000</r>
       <r>  -0.8460  1.0000</r>
       <r>  -0.5803  1.0000</r>
       <r>  -0.5793  1.0000</r>
       <r>  -0.5793  1.0000</r>
       <r>  -0.0967  1.0000</r>
       <r>   0.1954  1.0000</r>
       <r>   0.1954  1.0000</r>
       <r>   0.2968  1.0000</r>
       <r>   0.3426  1.0000</r>
       <r>   0.3876  1.0000</r>
       <r>   0.8022  1.0000</r>
       <r>   0.8298  1.0000</r>
       <r>   0.8849  1.0000</r>
       <r>   0.8849  1.0000</r>
       <r>   1.0291  1.0000</r>
       <r>   1.3617  1.0000</r>
       <r>   1.3675  1.0000</r>
       <r>   1.3675  1.0000</r>
       <r>   2.1362  1.0000</r>
       <r>   5.1666  0.0000</r>
       <r>   5.1666  0.0000</r>
       <r>   8.8352  0.0000</r>
       <r>   8.8352  0.0000</r>
      </set>
      <set comment="kpoint 53">
       <r>  -3.2480  1.0000</r>
       <r>  -1.9336  1.0000</r>
       <r>  -0.6893  1.0000</r>
       <r>  -0.6893  1.0000</r>
       <r>  -0.5044  1.0000</r>
       <r>  -0.5044  1.0000</r>
       <r>  -0.4564  1.0000</r>
       <r>  -0.2058  1.0000</r>
       <r>   0.0094  1.0000</r>
       <r>   0.0094  1.0000</r>
       <r>   0.2134  1.0000</r>
       <r>   0.3021  1.0000</r>
       <r>   0.4630  1.0000</r>
       <r>   0.6757  1.0000</r>
       <r>   0.8068  1.0000</r>
       <r>   0.8068  1.0000</r>
       <r>   0.9423  1.0000</r>
       <r>   1.1240  1.0000</r>
       <r>   1.2976  1.0000</r>
       <r>   1.3449  1.0000</r>
       <r>   1.3449  1.0000</r>
       <r>   1.5548  1.0000</r>
       <r>   5.8314  0.0000</r>
       <r>   5.8314  0.0000</r>
       <r>   7.8346  0.0000</r>
       <r>   7.8346  0.0000</r>
      </set>
      <set comment="kpoint 54">
       <r>  -2.5782  1.0000</r>
       <r>  -2.5782  1.0000</r>
       <r>  -0.5763  1.0000</r>
       <r>  -0.5763  1.0000</r>
       <r>  -0.5244  1.0000</r>
       <r>  -0.5244  1.0000</r>
       <r>  -0.3286  1.0000</r>
       <r>  -0.3286  1.0000</r>
       <r>  -0.0579  1.0000</r>
       <r>  -0.0579  1.0000</r>
       <r>   0.2369  1.0000</r>
       <r>   0.2369  1.0000</r>
       <r>   0.5604  1.0000</r>
       <r>   0.5604  1.0000</r>
       <r>   0.7713  1.0000</r>
       <r>   0.7713  1.0000</r>
       <r>   1.1776  1.0000</r>
       <r>   1.1776  1.0000</r>
       <r>   1.2161  1.0000</r>
       <r>   1.2161  1.0000</r>
       <r>   1.3369  1.0000</r>
       <r>   1.3369  1.0000</r>
       <r>   6.2985  0.0000</r>
       <r>   6.2985  0.0000</r>
       <r>   7.2557  0.0000</r>
       <r>   7.2557  0.0000</r>
      </set>
      <set comment="kpoint 55">
       <r>  -3.9986  1.0000</r>
       <r>  -1.0741  1.0000</r>
       <r>  -1.0741  1.0000</r>
       <r>  -0.9136  1.0000</r>
       <r>  -0.6059  1.0000</r>
       <r>  -0.5999  1.0000</r>
       <r>  -0.5999  1.0000</r>
       <r>  -0.0312  1.0000</r>
       <r>   0.2850  1.0000</r>
       <r>   0.2850  1.0000</r>
       <r>   0.3199  1.0000</r>
       <r>   0.3274  1.0000</r>
       <r>   0.3426  1.0000</r>
       <r>   0.8441  1.0000</r>
       <r>   0.8521  1.0000</r>
       <r>   0.8521  1.0000</r>
       <r>   0.8556  1.0000</r>
       <r>   0.9866  1.0000</r>
       <r>   1.3787  1.0000</r>
       <r>   1.3886  1.0000</r>
       <r>   1.3886  1.0000</r>
       <r>   3.4181  0.0000</r>
       <r>   3.4181  0.0000</r>
       <r>   4.9898  0.0000</r>
       <r>   8.6966  0.0000</r>
       <r>  10.4364  0.0000</r>
      </set>
      <set comment="kpoint 56">
       <r>  -3.5200  1.0000</r>
       <r>  -1.3000  1.0000</r>
       <r>  -0.9313  1.0000</r>
       <r>  -0.8271  1.0000</r>
       <r>  -0.5063  1.0000</r>
       <r>  -0.4870  1.0000</r>
       <r>  -0.4854  1.0000</r>
       <r>  -0.0801  1.0000</r>
       <r>   0.1022  1.0000</r>
       <r>   0.1609  1.0000</r>
       <r>   0.1828  1.0000</r>
       <r>   0.3145  1.0000</r>
       <r>   0.3692  1.0000</r>
       <r>   0.7265  1.0000</r>
       <r>   0.7701  1.0000</r>
       <r>   0.7863  1.0000</r>
       <r>   0.8646  1.0000</r>
       <r>   1.0935  1.0000</r>
       <r>   1.3427  1.0000</r>
       <r>   1.3491  1.0000</r>
       <r>   1.3501  1.0000</r>
       <r>   2.4876  1.0000</r>
       <r>   3.9511  0.0000</r>
       <r>   5.4823  0.0000</r>
       <r>   7.5958  0.0000</r>
       <r>   9.2625  0.0000</r>
      </set>
      <set comment="kpoint 57">
       <r>  -2.9447  1.0000</r>
       <r>  -1.7356  1.0000</r>
       <r>  -0.8091  1.0000</r>
       <r>  -0.7577  1.0000</r>
       <r>  -0.4330  1.0000</r>
       <r>  -0.4025  1.0000</r>
       <r>  -0.3660  1.0000</r>
       <r>  -0.1562  1.0000</r>
       <r>   0.0029  1.0000</r>
       <r>   0.0776  1.0000</r>
       <r>   0.1292  1.0000</r>
       <r>   0.2603  1.0000</r>
       <r>   0.4213  1.0000</r>
       <r>   0.6057  1.0000</r>
       <r>   0.7057  1.0000</r>
       <r>   0.7219  1.0000</r>
       <r>   0.9696  1.0000</r>
       <r>   1.2261  1.0000</r>
       <r>   1.2738  1.0000</r>
       <r>   1.3102  1.0000</r>
       <r>   1.3129  1.0000</r>
       <r>   1.8253  1.0000</r>
       <r>   4.5694  0.0000</r>
       <r>   5.7431  0.0000</r>
       <r>   6.9885  0.0000</r>
       <r>   8.2372  0.0000</r>
      </set>
      <set comment="kpoint 58">
       <r>  -2.3215  1.0000</r>
       <r>  -2.3215  1.0000</r>
       <r>  -0.7414  1.0000</r>
       <r>  -0.7414  1.0000</r>
       <r>  -0.4018  1.0000</r>
       <r>  -0.4018  1.0000</r>
       <r>  -0.2532  1.0000</r>
       <r>  -0.2532  1.0000</r>
       <r>   0.0171  1.0000</r>
       <r>   0.0171  1.0000</r>
       <r>   0.1806  1.0000</r>
       <r>   0.1806  1.0000</r>
       <r>   0.5014  1.0000</r>
       <r>   0.5014  1.0000</r>
       <r>   0.6847  1.0000</r>
       <r>   0.6847  1.0000</r>
       <r>   1.1407  1.0000</r>
       <r>   1.1407  1.0000</r>
       <r>   1.2981  1.0000</r>
       <r>   1.2981  1.0000</r>
       <r>   1.4268  1.0000</r>
       <r>   1.4268  1.0000</r>
       <r>   5.2476  0.0000</r>
       <r>   5.2476  0.0000</r>
       <r>   7.3952  0.0000</r>
       <r>   7.3952  0.0000</r>
      </set>
      <set comment="kpoint 59">
       <r>  -3.0752  1.0000</r>
       <r>  -1.1446  1.0000</r>
       <r>  -1.1446  1.0000</r>
       <r>  -0.8366  1.0000</r>
       <r>  -0.4010  1.0000</r>
       <r>  -0.3594  1.0000</r>
       <r>  -0.3594  1.0000</r>
       <r>  -0.0753  1.0000</r>
       <r>   0.0450  1.0000</r>
       <r>   0.0450  1.0000</r>
       <r>   0.1579  1.0000</r>
       <r>   0.2841  1.0000</r>
       <r>   0.3666  1.0000</r>
       <r>   0.6700  1.0000</r>
       <r>   0.6700  1.0000</r>
       <r>   0.6724  1.0000</r>
       <r>   0.8740  1.0000</r>
       <r>   1.2323  1.0000</r>
       <r>   1.3000  1.0000</r>
       <r>   1.3019  1.0000</r>
       <r>   1.3019  1.0000</r>
       <r>   2.9367  0.3207</r>
       <r>   2.9367  0.3207</r>
       <r>   5.5455  0.0000</r>
       <r>   6.8979  0.0000</r>
       <r>   9.8360  0.0000</r>
      </set>
      <set comment="kpoint 60">
       <r>  -2.5529  1.0000</r>
       <r>  -1.5132  1.0000</r>
       <r>  -1.0159  1.0000</r>
       <r>  -0.8683  1.0000</r>
       <r>  -0.3083  1.0000</r>
       <r>  -0.2562  1.0000</r>
       <r>  -0.2338  1.0000</r>
       <r>  -0.0940  1.0000</r>
       <r>   0.0080  1.0000</r>
       <r>   0.0546  1.0000</r>
       <r>   0.1264  1.0000</r>
       <r>   0.2225  1.0000</r>
       <r>   0.3931  1.0000</r>
       <r>   0.5550  1.0000</r>
       <r>   0.6051  1.0000</r>
       <r>   0.6178  1.0000</r>
       <r>   0.9434  1.0000</r>
       <r>   1.2122  1.0000</r>
       <r>   1.2549  1.0000</r>
       <r>   1.2564  1.0000</r>
       <r>   1.4198  1.0000</r>
       <r>   2.1839  1.0000</r>
       <r>   3.4850  0.0000</r>
       <r>   4.9099  0.0000</r>
       <r>   7.1896  0.0000</r>
       <r>   8.7929  0.0000</r>
      </set>
      <set comment="kpoint 61">
       <r>  -2.0071  1.0000</r>
       <r>  -2.0071  1.0000</r>
       <r>  -0.9252  1.0000</r>
       <r>  -0.9252  1.0000</r>
       <r>  -0.2541  1.0000</r>
       <r>  -0.2541  1.0000</r>
       <r>  -0.1434  1.0000</r>
       <r>  -0.1434  1.0000</r>
       <r>   0.0715  1.0000</r>
       <r>   0.0715  1.0000</r>
       <r>   0.1287  1.0000</r>
       <r>   0.1287  1.0000</r>
       <r>   0.4584  1.0000</r>
       <r>   0.4584  1.0000</r>
       <r>   0.5857  1.0000</r>
       <r>   0.5857  1.0000</r>
       <r>   1.0781  1.0000</r>
       <r>   1.0781  1.0000</r>
       <r>   1.2366  1.0000</r>
       <r>   1.2366  1.0000</r>
       <r>   1.7023  1.0000</r>
       <r>   1.7023  1.0000</r>
       <r>   4.1475  0.0000</r>
       <r>   4.1475  0.0000</r>
       <r>   7.8995  0.0000</r>
       <r>   7.8995  0.0000</r>
      </set>
      <set comment="kpoint 62">
       <r>  -2.1131  1.0000</r>
       <r>  -1.3066  1.0000</r>
       <r>  -1.3066  1.0000</r>
       <r>  -0.9928  1.0000</r>
       <r>  -0.1891  1.0000</r>
       <r>  -0.1009  1.0000</r>
       <r>  -0.1009  1.0000</r>
       <r>  -0.0374  1.0000</r>
       <r>   0.0214  1.0000</r>
       <r>   0.0214  1.0000</r>
       <r>   0.1428  1.0000</r>
       <r>   0.1723  1.0000</r>
       <r>   0.3852  1.0000</r>
       <r>   0.5127  1.0000</r>
       <r>   0.5127  1.0000</r>
       <r>   0.5260  1.0000</r>
       <r>   0.9595  1.0000</r>
       <r>   1.1615  1.0000</r>
       <r>   1.1615  1.0000</r>
       <r>   1.1943  1.0000</r>
       <r>   1.6765  1.0000</r>
       <r>   2.6388  1.0000</r>
       <r>   2.6388  1.0000</r>
       <r>   3.9945  0.0000</r>
       <r>   7.7909  0.0000</r>
       <r>   9.4870  0.0000</r>
      </set>
      <set comment="kpoint 63">
       <r>  -1.6804  1.0000</r>
       <r>  -1.6804  1.0000</r>
       <r>  -1.1348  1.0000</r>
       <r>  -1.1348  1.0000</r>
       <r>  -0.1071  1.0000</r>
       <r>  -0.1071  1.0000</r>
       <r>  -0.0158  1.0000</r>
       <r>  -0.0158  1.0000</r>
       <r>   0.0796  1.0000</r>
       <r>   0.0796  1.0000</r>
       <r>   0.0987  1.0000</r>
       <r>   0.0987  1.0000</r>
       <r>   0.4269  1.0000</r>
       <r>   0.4269  1.0000</r>
       <r>   0.4927  1.0000</r>
       <r>   0.4927  1.0000</r>
       <r>   1.0459  1.0000</r>
       <r>   1.0459  1.0000</r>
       <r>   1.1535  1.0000</r>
       <r>   1.1535  1.0000</r>
       <r>   2.0524  1.0000</r>
       <r>   2.0524  1.0000</r>
       <r>   3.2314  0.0000</r>
       <r>   3.2314  0.0000</r>
       <r>   8.5668  0.0000</r>
       <r>   8.5668  0.0000</r>
      </set>
      <set comment="kpoint 64">
       <r>  -1.3841  1.0000</r>
       <r>  -1.3841  1.0000</r>
       <r>  -1.3841  1.0000</r>
       <r>  -1.3841  1.0000</r>
       <r>   0.0085  1.0000</r>
       <r>   0.0085  1.0000</r>
       <r>   0.0085  1.0000</r>
       <r>   0.0085  1.0000</r>
       <r>   0.0777  1.0000</r>
       <r>   0.0777  1.0000</r>
       <r>   0.0777  1.0000</r>
       <r>   0.0777  1.0000</r>
       <r>   0.4311  1.0000</r>
       <r>   0.4311  1.0000</r>
       <r>   0.4311  1.0000</r>
       <r>   0.4311  1.0000</r>
       <r>   1.0748  1.0000</r>
       <r>   1.0748  1.0000</r>
       <r>   1.0748  1.0000</r>
       <r>   1.0748  1.0000</r>
       <r>   2.5399  1.0000</r>
       <r>   2.5399  1.0000</r>
       <r>   2.5399  1.0000</r>
       <r>   2.5399  1.0000</r>
       <r>   9.3728  0.0000</r>
       <r>   9.3728  0.0000</r>
      </set>
      <set comment="kpoint 65">
       <r>  -3.6610  1.0000</r>
       <r>  -1.0130  1.0000</r>
       <r>  -1.0130  1.0000</r>
       <r>  -1.0130  1.0000</r>
       <r>  -0.5029  1.0000</r>
       <r>  -0.5029  1.0000</r>
       <r>  -0.5029  1.0000</r>
       <r>  -0.0170  1.0000</r>
       <r>   0.2198  1.0000</r>
       <r>   0.2198  1.0000</r>
       <r>   0.2198  1.0000</r>
       <r>   0.3196  1.0000</r>
       <r>   0.3196  1.0000</r>
       <r>   0.7327  1.0000</r>
       <r>   0.7327  1.0000</r>
       <r>   0.7327  1.0000</r>
       <r>   0.9570  1.0000</r>
       <r>   0.9570  1.0000</r>
       <r>   1.3987  1.0000</r>
       <r>   1.3987  1.0000</r>
       <r>   1.3987  1.0000</r>
       <r>   3.7754  0.0000</r>
       <r>   3.7754  0.0000</r>
       <r>   3.7754  0.0000</r>
       <r>   9.1259  0.0000</r>
       <r>   9.1259  0.0000</r>
      </set>
      <set comment="kpoint 66">
       <r>  -3.2114  1.0000</r>
       <r>  -1.2370  1.0000</r>
       <r>  -0.9620  1.0000</r>
       <r>  -0.9620  1.0000</r>
       <r>  -0.3882  1.0000</r>
       <r>  -0.3882  1.0000</r>
       <r>  -0.3699  1.0000</r>
       <r>  -0.0203  1.0000</r>
       <r>   0.1433  1.0000</r>
       <r>   0.1575  1.0000</r>
       <r>   0.1575  1.0000</r>
       <r>   0.2988  1.0000</r>
       <r>   0.3214  1.0000</r>
       <r>   0.6104  1.0000</r>
       <r>   0.6525  1.0000</r>
       <r>   0.6525  1.0000</r>
       <r>   0.9781  1.0000</r>
       <r>   1.0741  1.0000</r>
       <r>   1.3713  1.0000</r>
       <r>   1.3713  1.0000</r>
       <r>   1.3890  1.0000</r>
       <r>   2.7522  1.0000</r>
       <r>   4.2222  0.0000</r>
       <r>   4.2222  0.0000</r>
       <r>   7.9923  0.0000</r>
       <r>   7.9923  0.0000</r>
      </set>
      <set comment="kpoint 67">
       <r>  -2.6817  1.0000</r>
       <r>  -1.6176  1.0000</r>
       <r>  -0.9283  1.0000</r>
       <r>  -0.9283  1.0000</r>
       <r>  -0.3097  1.0000</r>
       <r>  -0.3097  1.0000</r>
       <r>  -0.2323  1.0000</r>
       <r>  -0.0526  1.0000</r>
       <r>   0.1252  1.0000</r>
       <r>   0.1422  1.0000</r>
       <r>   0.1422  1.0000</r>
       <r>   0.2440  1.0000</r>
       <r>   0.3525  1.0000</r>
       <r>   0.5011  1.0000</r>
       <r>   0.5961  1.0000</r>
       <r>   0.5961  1.0000</r>
       <r>   1.1207  1.0000</r>
       <r>   1.1839  1.0000</r>
       <r>   1.3346  1.0000</r>
       <r>   1.3346  1.0000</r>
       <r>   1.3478  1.0000</r>
       <r>   1.9720  1.0000</r>
       <r>   4.6953  0.0000</r>
       <r>   4.6953  0.0000</r>
       <r>   7.1021  0.0000</r>
       <r>   7.1021  0.0000</r>
      </set>
      <set comment="kpoint 68">
       <r>  -2.1248  1.0000</r>
       <r>  -2.1248  1.0000</r>
       <r>  -0.9161  1.0000</r>
       <r>  -0.9161  1.0000</r>
       <r>  -0.2888  1.0000</r>
       <r>  -0.2888  1.0000</r>
       <r>  -0.1213  1.0000</r>
       <r>  -0.1213  1.0000</r>
       <r>   0.1538  1.0000</r>
       <r>   0.1538  1.0000</r>
       <r>   0.1693  1.0000</r>
       <r>   0.1693  1.0000</r>
       <r>   0.4133  1.0000</r>
       <r>   0.4133  1.0000</r>
       <r>   0.5711  1.0000</r>
       <r>   0.5711  1.0000</r>
       <r>   1.2776  1.0000</r>
       <r>   1.2776  1.0000</r>
       <r>   1.3178  1.0000</r>
       <r>   1.3178  1.0000</r>
       <r>   1.4388  1.0000</r>
       <r>   1.4388  1.0000</r>
       <r>   4.9576  0.0000</r>
       <r>   4.9576  0.0000</r>
       <r>   6.6996  0.0000</r>
       <r>   6.6996  0.0000</r>
      </set>
      <set comment="kpoint 69">
       <r>  -2.8102  1.0000</r>
       <r>  -1.1821  1.0000</r>
       <r>  -1.1821  1.0000</r>
       <r>  -1.0061  1.0000</r>
       <r>  -0.2773  1.0000</r>
       <r>  -0.2370  1.0000</r>
       <r>  -0.2370  1.0000</r>
       <r>   0.0485  1.0000</r>
       <r>   0.1447  1.0000</r>
       <r>   0.1447  1.0000</r>
       <r>   0.2166  1.0000</r>
       <r>   0.2770  1.0000</r>
       <r>   0.2962  1.0000</r>
       <r>   0.5362  1.0000</r>
       <r>   0.5362  1.0000</r>
       <r>   0.5505  1.0000</r>
       <r>   1.0118  1.0000</r>
       <r>   1.1733  1.0000</r>
       <r>   1.3554  1.0000</r>
       <r>   1.3692  1.0000</r>
       <r>   1.3692  1.0000</r>
       <r>   3.1255  0.0000</r>
       <r>   3.1255  0.0000</r>
       <r>   4.4937  0.0000</r>
       <r>   7.0041  0.0000</r>
       <r>   8.5428  0.0000</r>
      </set>
      <set comment="kpoint 70">
       <r>  -2.3544  1.0000</r>
       <r>  -1.4960  1.0000</r>
       <r>  -1.1371  1.0000</r>
       <r>  -1.0523  1.0000</r>
       <r>  -0.1944  1.0000</r>
       <r>  -0.1606  1.0000</r>
       <r>  -0.0747  1.0000</r>
       <r>   0.0941  1.0000</r>
       <r>   0.1455  1.0000</r>
       <r>   0.2047  1.0000</r>
       <r>   0.2235  1.0000</r>
       <r>   0.2703  1.0000</r>
       <r>   0.3080  1.0000</r>
       <r>   0.4344  1.0000</r>
       <r>   0.4862  1.0000</r>
       <r>   0.4890  1.0000</r>
       <r>   1.0961  1.0000</r>
       <r>   1.3215  1.0000</r>
       <r>   1.3274  1.0000</r>
       <r>   1.3276  1.0000</r>
       <r>   1.3408  1.0000</r>
       <r>   2.2550  1.0000</r>
       <r>   3.5951  0.0000</r>
       <r>   4.5173  0.0000</r>
       <r>   6.5604  0.0000</r>
       <r>   7.5719  0.0000</r>
      </set>
      <set comment="kpoint 71">
       <r>  -1.8980  1.0000</r>
       <r>  -1.8980  1.0000</r>
       <r>  -1.0956  1.0000</r>
       <r>  -1.0956  1.0000</r>
       <r>  -0.1555  1.0000</r>
       <r>  -0.1555  1.0000</r>
       <r>   0.0621  1.0000</r>
       <r>   0.0621  1.0000</r>
       <r>   0.1608  1.0000</r>
       <r>   0.1608  1.0000</r>
       <r>   0.2761  1.0000</r>
       <r>   0.2761  1.0000</r>
       <r>   0.3561  1.0000</r>
       <r>   0.3561  1.0000</r>
       <r>   0.4642  1.0000</r>
       <r>   0.4642  1.0000</r>
       <r>   1.2356  1.0000</r>
       <r>   1.2356  1.0000</r>
       <r>   1.3048  1.0000</r>
       <r>   1.3048  1.0000</r>
       <r>   1.6571  1.0000</r>
       <r>   1.6571  1.0000</r>
       <r>   4.1201  0.0000</r>
       <r>   4.1201  0.0000</r>
       <r>   6.8464  0.0000</r>
       <r>   6.8464  0.0000</r>
      </set>
      <set comment="kpoint 72">
       <r>  -2.0047  1.0000</r>
       <r>  -1.3837  1.0000</r>
       <r>  -1.3837  1.0000</r>
       <r>  -1.1690  1.0000</r>
       <r>  -0.0940  1.0000</r>
       <r>  -0.0106  1.0000</r>
       <r>  -0.0106  1.0000</r>
       <r>   0.1858  1.0000</r>
       <r>   0.2451  1.0000</r>
       <r>   0.2566  1.0000</r>
       <r>   0.2566  1.0000</r>
       <r>   0.2882  1.0000</r>
       <r>   0.3655  1.0000</r>
       <r>   0.3999  1.0000</r>
       <r>   0.3999  1.0000</r>
       <r>   0.4086  1.0000</r>
       <r>   1.0960  1.0000</r>
       <r>   1.2764  1.0000</r>
       <r>   1.2764  1.0000</r>
       <r>   1.2828  1.0000</r>
       <r>   1.5864  1.0000</r>
       <r>   2.6691  1.0000</r>
       <r>   2.6691  1.0000</r>
       <r>   3.9053  0.0000</r>
       <r>   6.7677  0.0000</r>
       <r>   8.2166  0.0000</r>
      </set>
      <set comment="kpoint 73">
       <r>  -1.6736  1.0000</r>
       <r>  -1.6736  1.0000</r>
       <r>  -1.2776  1.0000</r>
       <r>  -1.2776  1.0000</r>
       <r>  -0.0305  1.0000</r>
       <r>  -0.0305  1.0000</r>
       <r>   0.1119  1.0000</r>
       <r>   0.1119  1.0000</r>
       <r>   0.2795  1.0000</r>
       <r>   0.2795  1.0000</r>
       <r>   0.3368  1.0000</r>
       <r>   0.3368  1.0000</r>
       <r>   0.3554  1.0000</r>
       <r>   0.3554  1.0000</r>
       <r>   0.3966  1.0000</r>
       <r>   0.3966  1.0000</r>
       <r>   1.1813  1.0000</r>
       <r>   1.1813  1.0000</r>
       <r>   1.2547  1.0000</r>
       <r>   1.2547  1.0000</r>
       <r>   1.9951  1.0000</r>
       <r>   1.9951  1.0000</r>
       <r>   3.2272  0.0000</r>
       <r>   3.2272  0.0000</r>
       <r>   7.3794  0.0000</r>
       <r>   7.3794  0.0000</r>
      </set>
      <set comment="kpoint 74">
       <r>  -1.4674  1.0000</r>
       <r>  -1.4674  1.0000</r>
       <r>  -1.4674  1.0000</r>
       <r>  -1.4674  1.0000</r>
       <r>   0.0623  1.0000</r>
       <r>   0.0623  1.0000</r>
       <r>   0.0623  1.0000</r>
       <r>   0.0623  1.0000</r>
       <r>   0.3210  1.0000</r>
       <r>   0.3210  1.0000</r>
       <r>   0.3210  1.0000</r>
       <r>   0.3210  1.0000</r>
       <r>   0.4080  1.0000</r>
       <r>   0.4080  1.0000</r>
       <r>   0.4080  1.0000</r>
       <r>   0.4080  1.0000</r>
       <r>   1.1919  1.0000</r>
       <r>   1.1919  1.0000</r>
       <r>   1.1919  1.0000</r>
       <r>   1.1919  1.0000</r>
       <r>   2.5029  1.0000</r>
       <r>   2.5029  1.0000</r>
       <r>   2.5029  1.0000</r>
       <r>   2.5029  1.0000</r>
       <r>   8.1125  0.0000</r>
       <r>   8.1125  0.0000</r>
      </set>
      <set comment="kpoint 75">
       <r>  -2.4788  1.0000</r>
       <r>  -1.2203  1.0000</r>
       <r>  -1.2203  1.0000</r>
       <r>  -1.2203  1.0000</r>
       <r>  -0.1284  1.0000</r>
       <r>  -0.1284  1.0000</r>
       <r>  -0.1284  1.0000</r>
       <r>   0.2241  1.0000</r>
       <r>   0.2571  1.0000</r>
       <r>   0.2571  1.0000</r>
       <r>   0.2811  1.0000</r>
       <r>   0.2811  1.0000</r>
       <r>   0.2811  1.0000</r>
       <r>   0.4377  1.0000</r>
       <r>   0.4377  1.0000</r>
       <r>   0.4377  1.0000</r>
       <r>   1.1387  1.0000</r>
       <r>   1.1387  1.0000</r>
       <r>   1.3812  1.0000</r>
       <r>   1.3812  1.0000</r>
       <r>   1.3812  1.0000</r>
       <r>   3.3812  0.0000</r>
       <r>   3.3812  0.0000</r>
       <r>   3.3812  0.0000</r>
       <r>   7.4630  0.0000</r>
       <r>   7.4630  0.0000</r>
      </set>
      <set comment="kpoint 76">
       <r>  -2.1216  1.0000</r>
       <r>  -1.4773  1.0000</r>
       <r>  -1.2480  1.0000</r>
       <r>  -1.2480  1.0000</r>
       <r>  -0.0665  1.0000</r>
       <r>  -0.0665  1.0000</r>
       <r>   0.0197  1.0000</r>
       <r>   0.2151  1.0000</r>
       <r>   0.2525  1.0000</r>
       <r>   0.3459  1.0000</r>
       <r>   0.3482  1.0000</r>
       <r>   0.3735  1.0000</r>
       <r>   0.3735  1.0000</r>
       <r>   0.3797  1.0000</r>
       <r>   0.4268  1.0000</r>
       <r>   0.4268  1.0000</r>
       <r>   1.2456  1.0000</r>
       <r>   1.2531  1.0000</r>
       <r>   1.3563  1.0000</r>
       <r>   1.3563  1.0000</r>
       <r>   1.3712  1.0000</r>
       <r>   2.4206  1.0000</r>
       <r>   3.6477  0.0000</r>
       <r>   3.6477  0.0000</r>
       <r>   6.6845  0.0000</r>
       <r>   6.6845  0.0000</r>
      </set>
      <set comment="kpoint 77">
       <r>  -1.7795  1.0000</r>
       <r>  -1.7795  1.0000</r>
       <r>  -1.2580  1.0000</r>
       <r>  -1.2580  1.0000</r>
       <r>  -0.0480  1.0000</r>
       <r>  -0.0480  1.0000</r>
       <r>   0.1387  1.0000</r>
       <r>   0.1387  1.0000</r>
       <r>   0.2827  1.0000</r>
       <r>   0.2827  1.0000</r>
       <r>   0.3573  1.0000</r>
       <r>   0.3573  1.0000</r>
       <r>   0.4033  1.0000</r>
       <r>   0.4033  1.0000</r>
       <r>   0.4869  1.0000</r>
       <r>   0.4869  1.0000</r>
       <r>   1.3250  1.0000</r>
       <r>   1.3250  1.0000</r>
       <r>   1.3379  1.0000</r>
       <r>   1.3379  1.0000</r>
       <r>   1.6857  1.0000</r>
       <r>   1.6857  1.0000</r>
       <r>   3.7776  0.0000</r>
       <r>   3.7776  0.0000</r>
       <r>   6.3804  0.0000</r>
       <r>   6.3804  0.0000</r>
      </set>
      <set comment="kpoint 78">
       <r>  -1.8847  1.0000</r>
       <r>  -1.4499  1.0000</r>
       <r>  -1.4499  1.0000</r>
       <r>  -1.3386  1.0000</r>
       <r>   0.0064  1.0000</r>
       <r>   0.0508  1.0000</r>
       <r>   0.0508  1.0000</r>
       <r>   0.1981  1.0000</r>
       <r>   0.2214  1.0000</r>
       <r>   0.2927  1.0000</r>
       <r>   0.2927  1.0000</r>
       <r>   0.3078  1.0000</r>
       <r>   0.5758  1.0000</r>
       <r>   0.5758  1.0000</r>
       <r>   0.6051  1.0000</r>
       <r>   0.6691  1.0000</r>
       <r>   1.2129  1.0000</r>
       <r>   1.3440  1.0000</r>
       <r>   1.3503  1.0000</r>
       <r>   1.3503  1.0000</r>
       <r>   1.4569  1.0000</r>
       <r>   2.7138  1.0000</r>
       <r>   2.7138  1.0000</r>
       <r>   3.4912  0.0000</r>
       <r>   6.3245  0.0000</r>
       <r>   7.1840  0.0000</r>
      </set>
      <set comment="kpoint 79">
       <r>  -1.6605  1.0000</r>
       <r>  -1.6605  1.0000</r>
       <r>  -1.4054  1.0000</r>
       <r>  -1.4054  1.0000</r>
       <r>   0.0465  1.0000</r>
       <r>   0.0465  1.0000</r>
       <r>   0.1409  1.0000</r>
       <r>   0.1409  1.0000</r>
       <r>   0.2391  1.0000</r>
       <r>   0.2391  1.0000</r>
       <r>   0.2782  1.0000</r>
       <r>   0.2782  1.0000</r>
       <r>   0.6816  1.0000</r>
       <r>   0.6816  1.0000</r>
       <r>   0.7012  1.0000</r>
       <r>   0.7012  1.0000</r>
       <r>   1.2945  1.0000</r>
       <r>   1.2945  1.0000</r>
       <r>   1.3267  1.0000</r>
       <r>   1.3267  1.0000</r>
       <r>   1.9325  1.0000</r>
       <r>   1.9325  1.0000</r>
       <r>   3.1140  0.0000</r>
       <r>   3.1140  0.0000</r>
       <r>   6.5468  0.0000</r>
       <r>   6.5468  0.0000</r>
      </set>
      <set comment="kpoint 80">
       <r>  -1.5380  1.0000</r>
       <r>  -1.5380  1.0000</r>
       <r>  -1.5380  1.0000</r>
       <r>  -1.5380  1.0000</r>
       <r>   0.1133  1.0000</r>
       <r>   0.1133  1.0000</r>
       <r>   0.1133  1.0000</r>
       <r>   0.1133  1.0000</r>
       <r>   0.2349  1.0000</r>
       <r>   0.2349  1.0000</r>
       <r>   0.2349  1.0000</r>
       <r>   0.2349  1.0000</r>
       <r>   0.8011  1.0000</r>
       <r>   0.8011  1.0000</r>
       <r>   0.8011  1.0000</r>
       <r>   0.8011  1.0000</r>
       <r>   1.2849  1.0000</r>
       <r>   1.2849  1.0000</r>
       <r>   1.2849  1.0000</r>
       <r>   1.2849  1.0000</r>
       <r>   2.4298  1.0000</r>
       <r>   2.4298  1.0000</r>
       <r>   2.4298  1.0000</r>
       <r>   2.4298  1.0000</r>
       <r>   7.0981  0.0000</r>
       <r>   7.0981  0.0000</r>
      </set>
      <set comment="kpoint 81">
       <r>  -1.7616  1.0000</r>
       <r>  -1.4935  1.0000</r>
       <r>  -1.4935  1.0000</r>
       <r>  -1.4935  1.0000</r>
       <r>   0.0930  1.0000</r>
       <r>   0.0930  1.0000</r>
       <r>   0.0930  1.0000</r>
       <r>   0.1891  1.0000</r>
       <r>   0.1891  1.0000</r>
       <r>   0.2341  1.0000</r>
       <r>   0.2341  1.0000</r>
       <r>   0.2341  1.0000</r>
       <r>   0.8482  1.0000</r>
       <r>   0.8482  1.0000</r>
       <r>   0.8482  1.0000</r>
       <r>   1.2365  1.0000</r>
       <r>   1.3013  1.0000</r>
       <r>   1.3013  1.0000</r>
       <r>   1.3691  1.0000</r>
       <r>   1.3691  1.0000</r>
       <r>   1.3691  1.0000</r>
       <r>   2.7642  1.0000</r>
       <r>   2.7642  1.0000</r>
       <r>   2.7642  1.0000</r>
       <r>   6.4792  0.0000</r>
       <r>   6.4792  0.0000</r>
      </set>
      <set comment="kpoint 82">
       <r>  -1.6332  1.0000</r>
       <r>  -1.6332  1.0000</r>
       <r>  -1.5087  1.0000</r>
       <r>  -1.5087  1.0000</r>
       <r>   0.1094  1.0000</r>
       <r>   0.1094  1.0000</r>
       <r>   0.1550  1.0000</r>
       <r>   0.1550  1.0000</r>
       <r>   0.1935  1.0000</r>
       <r>   0.1935  1.0000</r>
       <r>   0.2121  1.0000</r>
       <r>   0.2121  1.0000</r>
       <r>   0.9720  1.0000</r>
       <r>   0.9720  1.0000</r>
       <r>   1.0795  1.0000</r>
       <r>   1.0795  1.0000</r>
       <r>   1.3547  1.0000</r>
       <r>   1.3547  1.0000</r>
       <r>   1.3576  1.0000</r>
       <r>   1.3576  1.0000</r>
       <r>   1.9697  1.0000</r>
       <r>   1.9697  1.0000</r>
       <r>   2.7892  1.0000</r>
       <r>   2.7892  1.0000</r>
       <r>   6.2220  0.0000</r>
       <r>   6.2220  0.0000</r>
      </set>
      <set comment="kpoint 83">
       <r>  -1.5842  1.0000</r>
       <r>  -1.5842  1.0000</r>
       <r>  -1.5842  1.0000</r>
       <r>  -1.5842  1.0000</r>
       <r>   0.1491  1.0000</r>
       <r>   0.1491  1.0000</r>
       <r>   0.1491  1.0000</r>
       <r>   0.1491  1.0000</r>
       <r>   0.1805  1.0000</r>
       <r>   0.1805  1.0000</r>
       <r>   0.1805  1.0000</r>
       <r>   0.1805  1.0000</r>
       <r>   1.1795  1.0000</r>
       <r>   1.1795  1.0000</r>
       <r>   1.1795  1.0000</r>
       <r>   1.1795  1.0000</r>
       <r>   1.3444  1.0000</r>
       <r>   1.3444  1.0000</r>
       <r>   1.3444  1.0000</r>
       <r>   1.3444  1.0000</r>
       <r>   2.3133  1.0000</r>
       <r>   2.3133  1.0000</r>
       <r>   2.3133  1.0000</r>
       <r>   2.3133  1.0000</r>
       <r>   6.4181  0.0000</r>
       <r>   6.4181  0.0000</r>
      </set>
      <set comment="kpoint 84">
       <r>  -1.6002  1.0000</r>
       <r>  -1.6002  1.0000</r>
       <r>  -1.6002  1.0000</r>
       <r>  -1.6002  1.0000</r>
       <r>   0.1619  1.0000</r>
       <r>   0.1619  1.0000</r>
       <r>   0.1619  1.0000</r>
       <r>   0.1619  1.0000</r>
       <r>   0.1619  1.0000</r>
       <r>   0.1619  1.0000</r>
       <r>   0.1619  1.0000</r>
       <r>   0.1619  1.0000</r>
       <r>   1.3648  1.0000</r>
       <r>   1.3648  1.0000</r>
       <r>   1.3648  1.0000</r>
       <r>   1.3648  1.0000</r>
       <r>   1.3648  1.0000</r>
       <r>   1.3648  1.0000</r>
       <r>   1.3648  1.0000</r>
       <r>   1.3648  1.0000</r>
       <r>   2.2319  1.0000</r>
       <r>   2.2319  1.0000</r>
       <r>   2.2319  1.0000</r>
       <r>   2.2319  1.0000</r>
       <r>   6.1746  0.0000</r>
       <r>   6.1746  0.0000</r>
      </set>
     </set>
    </set>
   </array>
  </eigenvalues>
 </calculation>
 <structure name="finalpos" >
  <crystal>
   <varray name="basis" >
    <v>       3.74550829      0.00000000      0.00000000</v>
    <v>       0.00000000      3.74550829      0.00000000</v>
    <v>       0.00000000      0.00000000      3.74550829</v>
   </varray>
   <i name="volume">     52.54510770</i>
   <varray name="rec_basis" >
    <v>       0.26698646      0.00000000      0.00000000</v>
    <v>       0.00000000      0.26698646      0.00000000</v>
    <v>       0.00000000      0.00000000      0.26698646</v>
   </varray>
  </crystal>
  <varray name="positions" >
   <v>       0.00000000      0.00000000      0.00000000</v>
   <v>       0.50000000      0.50000000      0.00000000</v>
   <v>       0.50000000      0.00000000      0.50000000</v>
   <v>       0.00000000      0.50000000      0.50000000</v>
  </varray>
 </structure>
</modeling>
