   4   4   0   0
  0.1202155E+02  0.3636416E-09  0.3636416E-09  0.3636416E-09  0.5000000E-15
  1.000000000000000E-004
  CAR 
 unknown system                          
     26.48752041     -7.10015611  301      3.63904669      1.00000000
     -7.100  0.0000E+00  0.0000E+00
     -6.988  0.0000E+00  0.0000E+00
     -6.876  0.0000E+00  0.0000E+00
     -6.764  0.0000E+00  0.0000E+00
     -6.652  0.0000E+00  0.0000E+00
     -6.540  0.0000E+00  0.0000E+00
     -6.428  0.0000E+00  0.0000E+00
     -6.316  0.0000E+00  0.0000E+00
     -6.204  0.0000E+00  0.0000E+00
     -6.093  0.0000E+00  0.0000E+00
     -5.981  0.0000E+00  0.0000E+00
     -5.869  0.0000E+00  0.0000E+00
     -5.757  0.0000E+00  0.0000E+00
     -5.645  0.0000E+00  0.0000E+00
     -5.533  0.6580E-02  0.7367E-03
     -5.421  0.7812E-01  0.1385E-01
     -5.309  0.3898E-01  0.2404E-01
     -5.197  0.3040E+00  0.5809E-01
     -5.085  0.5165E-01  0.6482E-01
     -4.973  0.2320E+00  0.9375E-01
     -4.861  0.1597E+00  0.1250E+00
     -4.749  0.1585E+00  0.1482E+00
     -4.637  0.1154E-04  0.1829E+00
     -4.525  0.3125E+00  0.2223E+00
     -4.413  0.1562E+00  0.2660E+00
     -4.301  0.3124E+00  0.3185E+00
     -4.189  0.3128E-06  0.3360E+00
     -4.077  0.3510E+00  0.3753E+00
     -3.965  0.6764E+00  0.4511E+00
     -3.853  0.4682E+00  0.5036E+00
     -3.741  0.3125E+00  0.5386E+00
     -3.629  0.3962E+00  0.5830E+00
     -3.517  0.3203E+00  0.6532E+00
     -3.406  0.1967E+00  0.6962E+00
     -3.294  0.8409E-02  0.7451E+00
     -3.182  0.7972E+00  0.8509E+00
     -3.070  0.1515E+00  0.9011E+00
     -2.958  0.4682E+00  0.9890E+00
     -2.846  0.1136E+00  0.1008E+01
     -2.734  0.4708E+00  0.1122E+01
     -2.622  0.8006E+00  0.1220E+01
     -2.510  0.4614E+00  0.1322E+01
     -2.398  0.4547E+00  0.1374E+01
     -2.286  0.3125E+00  0.1445E+01
     -2.174  0.8222E+00  0.1555E+01
     -2.062  0.8055E+00  0.1697E+01
     -1.950  0.1144E+01  0.1840E+01
     -1.838  0.7670E+00  0.1926E+01
     -1.726  0.8035E+00  0.2035E+01
     -1.614  0.1186E+01  0.2244E+01
     -1.502  0.1245E+01  0.2430E+01
     -1.390  0.1020E+01  0.2580E+01
     -1.278  0.2163E+01  0.2941E+01
     -1.166  0.3509E+01  0.3362E+01
     -1.054  0.3085E+01  0.3802E+01
     -0.942  0.3731E+01  0.4373E+01
     -0.830  0.3669E+01  0.4934E+01
     -0.718  0.3608E+01  0.5540E+01
     -0.607  0.4734E+01  0.6276E+01
     -0.495  0.5967E+01  0.7240E+01
     -0.383  0.7913E+01  0.8341E+01
     -0.271  0.6704E+01  0.9383E+01
     -0.159  0.5075E+01  0.1032E+02
     -0.047  0.7018E+01  0.1134E+02
      0.065  0.5838E+01  0.1225E+02
      0.177  0.6920E+01  0.1335E+02
      0.289  0.8457E+01  0.1460E+02
      0.401  0.1006E+02  0.1599E+02
      0.513  0.8482E+01  0.1741E+02
      0.625  0.1209E+02  0.1921E+02
      0.737  0.1335E+02  0.2113E+02
      0.849  0.1399E+02  0.2314E+02
      0.961  0.9319E+01  0.2466E+02
      1.073  0.7688E+01  0.2600E+02
      1.185  0.7714E+01  0.2709E+02
      1.297  0.9447E+01  0.2862E+02
      1.409  0.1216E+02  0.3041E+02
      1.521  0.1100E+02  0.3206E+02
      1.633  0.8737E+01  0.3351E+02
      1.745  0.1014E+02  0.3505E+02
      1.857  0.1190E+02  0.3666E+02
      1.969  0.1733E+02  0.3911E+02
      2.080  0.1311E+02  0.4128E+02
      2.192  0.1878E+01  0.4189E+02
      2.304  0.2344E+01  0.4219E+02
      2.416  0.8242E+00  0.4230E+02
      2.528  0.1401E+01  0.4248E+02
      2.640  0.1071E+01  0.4270E+02
      2.752  0.8793E+00  0.4282E+02
      2.864  0.1044E+01  0.4298E+02
      2.976  0.1590E+01  0.4318E+02
      3.088  0.8905E+00  0.4328E+02
      3.200  0.1935E+00  0.4336E+02
      3.312  0.1767E+01  0.4361E+02
      3.424  0.4690E+00  0.4375E+02
      3.536  0.8135E+00  0.4388E+02
      3.648  0.9245E+00  0.4401E+02
      3.760  0.7192E+00  0.4409E+02
      3.872  0.6428E+00  0.4423E+02
      3.984  0.3150E+00  0.4437E+02
      4.096  0.1135E+01  0.4455E+02
      4.208  0.1376E+00  0.4470E+02
      4.320  0.6250E+00  0.4477E+02
      4.432  0.4687E+00  0.4486E+02
      4.544  0.9420E+00  0.4498E+02
      4.656  0.1756E+01  0.4520E+02
      4.767  0.4974E+00  0.4527E+02
      4.879  0.8980E+00  0.4541E+02
      4.991  0.5015E+00  0.4549E+02
      5.103  0.1072E+01  0.4562E+02
      5.215  0.4666E+00  0.4571E+02
      5.327  0.3584E+00  0.4577E+02
      5.439  0.6251E+00  0.4595E+02
      5.551  0.1094E+01  0.4609E+02
      5.663  0.4698E+00  0.4619E+02
      5.775  0.3839E+00  0.4628E+02
      5.887  0.6699E+00  0.4637E+02
      5.999  0.1928E+00  0.4648E+02
      6.111  0.6381E+00  0.4658E+02
      6.223  0.2334E+00  0.4662E+02
      6.335  0.1227E+01  0.4679E+02
      6.447  0.7812E-01  0.4687E+02
      6.559  0.4687E+00  0.4692E+02
      6.671  0.1094E+01  0.4704E+02
      6.783  0.6238E+00  0.4715E+02
      6.895  0.1562E+00  0.4718E+02
      7.007  0.3581E+00  0.4722E+02
      7.119  0.7026E+00  0.4731E+02
      7.231  0.9374E+00  0.4742E+02
      7.343  0.2316E+00  0.4744E+02
      7.455  0.1074E+01  0.4762E+02
      7.566  0.6873E+00  0.4772E+02
      7.678  0.9281E+00  0.4785E+02
      7.790  0.5799E+00  0.4793E+02
      7.902  0.8092E+00  0.4808E+02
      8.014  0.7310E+00  0.4822E+02
      8.126  0.3156E+00  0.4831E+02
      8.238  0.1236E+01  0.4849E+02
      8.350  0.1428E+01  0.4866E+02
      8.462  0.4687E+00  0.4874E+02
      8.574  0.9298E+00  0.4885E+02
      8.686  0.1094E+01  0.4898E+02
      8.798  0.1149E+01  0.4913E+02
      8.910  0.7054E+00  0.4925E+02
      9.022  0.3572E+00  0.4935E+02
      9.134  0.1230E+01  0.4955E+02
      9.246  0.4237E+00  0.4960E+02
      9.358  0.6386E+00  0.4968E+02
      9.470  0.1197E+01  0.4983E+02
      9.582  0.1075E+01  0.5001E+02
      9.694  0.3076E+00  0.5006E+02
      9.806  0.8586E+00  0.5019E+02
      9.918  0.7814E+00  0.5028E+02
     10.030  0.5449E+00  0.5039E+02
     10.142  0.9354E+00  0.5053E+02
     10.253  0.7778E+00  0.5062E+02
     10.365  0.4687E+00  0.5071E+02
     10.477  0.3906E+00  0.5079E+02
     10.589  0.6606E+00  0.5088E+02
     10.701  0.9455E+00  0.5101E+02
     10.813  0.1283E+01  0.5119E+02
     10.925  0.6701E+00  0.5129E+02
     11.037  0.6719E+00  0.5141E+02
     11.149  0.8027E+00  0.5155E+02
     11.261  0.1210E+01  0.5169E+02
     11.373  0.9630E+00  0.5184E+02
     11.485  0.1209E+01  0.5201E+02
     11.597  0.7043E+00  0.5216E+02
     11.709  0.1379E+01  0.5233E+02
     11.821  0.1212E+01  0.5247E+02
     11.933  0.8620E+00  0.5259E+02
     12.045  0.1505E+01  0.5276E+02
     12.157  0.4688E+00  0.5291E+02
     12.269  0.7575E+00  0.5305E+02
     12.381  0.1373E+01  0.5325E+02
     12.493  0.7308E+00  0.5341E+02
     12.605  0.9511E+00  0.5352E+02
     12.717  0.6477E+00  0.5374E+02
     12.829  0.9381E+00  0.5386E+02
     12.940  0.6278E+00  0.5400E+02
     13.052  0.8159E+00  0.5414E+02
     13.164  0.2036E+01  0.5441E+02
     13.276  0.1058E+01  0.5456E+02
     13.388  0.1366E+01  0.5473E+02
     13.500  0.1650E+01  0.5493E+02
     13.612  0.2048E+00  0.5496E+02
     13.724  0.1709E+01  0.5525E+02
     13.836  0.1406E+01  0.5541E+02
     13.948  0.4060E+00  0.5546E+02
     14.060  0.4908E+00  0.5554E+02
     14.172  0.1758E+01  0.5578E+02
     14.284  0.1593E+01  0.5603E+02
     14.396  0.1110E+01  0.5619E+02
     14.508  0.7026E+00  0.5636E+02
     14.620  0.1161E+01  0.5658E+02
     14.732  0.9103E+00  0.5672E+02
     14.844  0.1267E+01  0.5687E+02
     14.956  0.1083E+01  0.5707E+02
     15.068  0.7752E+00  0.5724E+02
     15.180  0.5188E+00  0.5730E+02
     15.292  0.1428E+01  0.5757E+02
     15.404  0.1625E+01  0.5777E+02
     15.516  0.1250E+01  0.5795E+02
     15.628  0.5358E+00  0.5806E+02
     15.739  0.5462E+00  0.5824E+02
     15.851  0.9402E+00  0.5838E+02
     15.963  0.1070E+01  0.5853E+02
     16.075  0.1525E+01  0.5886E+02
     16.187  0.1078E+01  0.5902E+02
     16.299  0.1297E+01  0.5920E+02
     16.411  0.1171E+01  0.5939E+02
     16.523  0.1384E+01  0.5956E+02
     16.635  0.6437E+00  0.5974E+02
     16.747  0.1227E+01  0.5998E+02
     16.859  0.1251E+01  0.6018E+02
     16.971  0.5811E+00  0.6027E+02
     17.083  0.1398E+01  0.6053E+02
     17.195  0.1729E+01  0.6079E+02
     17.307  0.1094E+01  0.6093E+02
     17.419  0.9419E+00  0.6103E+02
     17.531  0.1585E+01  0.6124E+02
     17.643  0.6241E+00  0.6135E+02
     17.755  0.1012E+01  0.6150E+02
     17.867  0.1371E+01  0.6168E+02
     17.979  0.4698E+00  0.6178E+02
     18.091  0.2140E+00  0.6189E+02
     18.203  0.7845E+00  0.6205E+02
     18.315  0.1108E+01  0.6219E+02
     18.426  0.9352E+00  0.6235E+02
     18.538  0.0000E+00  0.6238E+02
     18.650  0.2228E-02  0.6238E+02
     18.762  0.6767E+00  0.6248E+02
     18.874  0.3199E+00  0.6253E+02
     18.986  0.1574E+00  0.6264E+02
     19.098  0.1094E+01  0.6278E+02
     19.210  0.4687E+00  0.6283E+02
     19.322  0.2220E+00  0.6285E+02
     19.434  0.6259E+00  0.6293E+02
     19.546  0.3125E+00  0.6299E+02
     19.658  0.2207E+00  0.6301E+02
     19.770  0.6227E+00  0.6310E+02
     19.882  0.1031E+01  0.6322E+02
     19.994  0.0000E+00  0.6322E+02
     20.106  0.4304E+00  0.6327E+02
     20.218  0.0000E+00  0.6333E+02
     20.330  0.1562E+00  0.6335E+02
     20.442  0.1563E+00  0.6336E+02
     20.554  0.3086E-02  0.6337E+02
     20.666  0.6640E+00  0.6346E+02
     20.778  0.1606E-02  0.6346E+02
     20.890  0.6250E+00  0.6355E+02
     21.002  0.6352E-01  0.6356E+02
     21.113  0.3125E+00  0.6360E+02
     21.225  0.2567E-01  0.6360E+02
     21.337  0.4318E-06  0.6362E+02
     21.449  0.1562E+00  0.6364E+02
     21.561  0.5160E+00  0.6369E+02
     21.673  0.0000E+00  0.6371E+02
     21.785  0.1562E+00  0.6372E+02
     21.897  0.0000E+00  0.6372E+02
     22.009  0.3122E+00  0.6376E+02
     22.121  0.0000E+00  0.6376E+02
     22.233  0.3125E+00  0.6379E+02
     22.345  0.5663E-01  0.6380E+02
     22.457  0.0000E+00  0.6382E+02
     22.569  0.3125E+00  0.6385E+02
     22.681  0.1562E+00  0.6387E+02
     22.793  0.0000E+00  0.6387E+02
     22.905  0.0000E+00  0.6387E+02
     23.017  0.8676E-06  0.6387E+02
     23.129  0.0000E+00  0.6389E+02
     23.241  0.7548E-02  0.6389E+02
     23.353  0.2488E+00  0.6393E+02
     23.465  0.0000E+00  0.6394E+02
     23.577  0.1219E-10  0.6394E+02
     23.689  0.1562E+00  0.6396E+02
     23.801  0.0000E+00  0.6396E+02
     23.912  0.0000E+00  0.6396E+02
     24.024  0.0000E+00  0.6396E+02
     24.136  0.8211E-05  0.6396E+02
     24.248  0.1741E-04  0.6397E+02
     24.360  0.1562E+00  0.6400E+02
     24.472  0.0000E+00  0.6400E+02
     24.584  0.0000E+00  0.6400E+02
     24.696  0.0000E+00  0.6400E+02
     24.808  0.0000E+00  0.6400E+02
     24.920  0.1111E-09  0.6400E+02
     25.032  0.2604E-01  0.6400E+02
     25.144  0.0000E+00  0.6400E+02
     25.256  0.0000E+00  0.6400E+02
     25.368  0.0000E+00  0.6400E+02
     25.480  0.0000E+00  0.6400E+02
     25.592  0.0000E+00  0.6400E+02
     25.704  0.0000E+00  0.6400E+02
     25.816  0.0000E+00  0.6400E+02
     25.928  0.0000E+00  0.6400E+02
     26.040  0.0000E+00  0.6400E+02
     26.152  0.0000E+00  0.6400E+02
     26.264  0.0000E+00  0.6400E+02
     26.376  0.0000E+00  0.6400E+02
     26.488  0.0000E+00  0.6400E+02
