 vasp.4.6.28 25Jul05 complex 
 executed on             LinuxIFC date 2016.07.06  18:02:23
 running on    8 nodes
 distr:  one band on    1 nodes,    8 groups


--------------------------------------------------------------------------------------------------------


 INCAR:
 POTCAR:   PAW_PBE Cu 05Jan2001                   
 POTCAR:   PAW_PBE Cu 05Jan2001                   
   VRHFIN =Cu: d10 p1                                                           
   LEXCH  = PE                                                                  
   EATOM  =  1390.9800 eV,  102.2341 Ry                                         
                                                                                
   TITEL  = PAW_PBE Cu 05Jan2001                                                
   LULTRA =        F    use ultrasoft PP ?                                      
   IUNSCR =        1    unscreen: 0-lin 1-nonlin 2-no                           
   RPACOR =    2.000    partial core radius                                     
   POMASS =   63.546; ZVAL   =   11.000    mass and valenz                      
   RCORE  =    2.300    outmost cutoff radius                                   
   RWIGS  =    2.480; RWIGS  =    1.312    wigner-seitz radius (au A)           
   ENMAX  =  273.214; ENMIN  =  204.910 eV                                      
   RCLOC  =    1.712    cutoff for local pot                                    
   LCOR   =        T    correct aug charges                                     
   LPAW   =        T    paw PP                                                  
   EAUG   =  516.456                                                            
   DEXC   =    -.008                                                            
   RMAX   =    2.789    core radius for proj-oper                               
   RAUG   =    1.300    factor for augmentation sphere                          
   RDEP   =    2.302    radius for radial grids                                 
   QCUT   =   -4.481; QGAM   =    8.962    optimization parameters              
                                                                                
   Description                                                                  
     l     E      TYP  RCUT    TYP  RCUT                                        
     2   .000     23  2.300                                                     
     2   .000     23  2.300                                                     
     0   .000     23  2.300                                                     
     0   .000     23  2.300                                                     
     1  -.200     23  2.300                                                     
     1   .000     23  2.300                                                     
     3   .000      7   .000                                                     
  local pseudopotential read in
  partial core-charges read in
  atomic valenz-charges read in
  non local Contribution for L=           2  read in
    real space projection operators read in
  non local Contribution for L=           2  read in
    real space projection operators read in
  non local Contribution for L=           0  read in
    real space projection operators read in
  non local Contribution for L=           0  read in
    real space projection operators read in
  non local Contribution for L=           1  read in
    real space projection operators read in
  non local Contribution for L=           1  read in
    real space projection operators read in
    PAW grid and wavefunctions read in
 
   number of l-projection  operators is LMAX  =           6
   number of lm-projection operators is LMMAX =          18
 
 PAW_PBE Cu 05Jan2001                   :
 energy of atom  1       EATOM=-1390.9800
 kinetic energy error for atom=    0.0032 (will be added to EATOM!!)
 
 EXHCAR: internal setup
 exchange correlation table for  LEXCH =        8
   RHO(1)=    0.500       N(1)  =     2000
   RHO(2)=  100.500       N(2)  =     4000
 
 POSCAR: Cu                                      
  positions in direct lattice
  velocities in cartesian coordinates
 


--------------------------------------------------------------------------------------------------------


 ion  position               nearest neighbor table
   1  0.000  0.000  0.000-   2 2.57   3 2.57   4 2.57   3 2.57   4 2.57   2 2.57   4 2.57   4 2.57
                             2 2.57   3 2.57   3 2.57   2 2.57
   2  0.500  0.500  0.000-   1 2.57   3 2.57   4 2.57   3 2.57   4 2.57   1 2.57   3 2.57   3 2.57
                             1 2.57   4 2.57   4 2.57   1 2.57
   3  0.500  0.000  0.500-   1 2.57   2 2.57   4 2.57   1 2.57   2 2.57   2 2.57   4 2.57   2 2.57
                             1 2.57   4 2.57   1 2.57   4 2.57
   4  0.000  0.500  0.500-   1 2.57   2 2.57   3 2.57   1 2.57   2 2.57   1 2.57   3 2.57   1 2.57
                             2 2.57   3 2.57   2 2.57   3 2.57
 
  LATTYP: Found a simple cubic cell.
 ALAT       =     3.6364158117
  
  Lattice vectors:
  
 A1 = (   3.6364158117,   0.0000000000,   0.0000000000)
 A2 = (   0.0000000000,   3.6364158117,   0.0000000000)
 A3 = (   0.0000000000,   0.0000000000,   3.6364158117)
 Subroutine PRICEL returns following result:
 
  LATTYP: Found a face centered cubic cell.
 ALAT       =     3.6364158117
  
  Lattice vectors:
  
 A1 = (   1.8182079059,   1.8182079059,   0.0000000000)
 A2 = (   1.8182079059,   0.0000000000,  -1.8182079059)
 A3 = (   0.0000000000,   1.8182079059,  -1.8182079059)
 
   4 primitive cells build up your supercell.
 

Analysis of symmetry for initial positions (statically):

 Routine SETGRP: Setting up the symmetry group for a 
 simple cubic supercell.


 Subroutine GETGRP returns: Found 48 space group operations
 (whereof 48 operations were pure point group operations)
 out of a pool of 48 trial point group operations.


The static configuration has the point symmetry O_h .

Analysis of symmetry for dynamics (positions and initial velocities):

 Subroutine DYNSYM returns: Found 48 space group operations
 (whereof 48 operations were pure point group operations)
 out of a pool of 48 trial space group operations
 (whereof 48 operations were pure point group operations)
 and found also     4 'primitive' translations


The dynamic configuration has the point symmetry O_h .
 
 
 KPOINTS: Automatic mesh                          

Automatic generation of k-mesh.
 generate k-points for:  14  14  14
 
 Subroutine IBZKPT returns following result:
 ===========================================
 
 Found    120 irreducible k-points:
 
 Following reciprocal coordinates:
            Coordinates               Weight
  0.000000  0.000000  0.000000      1.000000
  0.071429  0.000000  0.000000      6.000000
  0.142857  0.000000  0.000000      6.000000
  0.214286  0.000000  0.000000      6.000000
  0.285714  0.000000  0.000000      6.000000
  0.357143  0.000000  0.000000      6.000000
  0.428571  0.000000  0.000000      6.000000
  0.500000  0.000000  0.000000      3.000000
  0.071429  0.071429  0.000000     12.000000
  0.142857  0.071429  0.000000     24.000000
  0.214286  0.071429  0.000000     24.000000
  0.285714  0.071429  0.000000     24.000000
  0.357143  0.071429  0.000000     24.000000
  0.428571  0.071429  0.000000     24.000000
  0.500000  0.071429  0.000000     12.000000
  0.142857  0.142857  0.000000     12.000000
  0.214286  0.142857  0.000000     24.000000
  0.285714  0.142857  0.000000     24.000000
  0.357143  0.142857  0.000000     24.000000
  0.428571  0.142857  0.000000     24.000000
  0.500000  0.142857  0.000000     12.000000
  0.214286  0.214286  0.000000     12.000000
  0.285714  0.214286  0.000000     24.000000
  0.357143  0.214286  0.000000     24.000000
  0.428571  0.214286  0.000000     24.000000
  0.500000  0.214286  0.000000     12.000000
  0.285714  0.285714  0.000000     12.000000
  0.357143  0.285714  0.000000     24.000000
  0.428571  0.285714  0.000000     24.000000
  0.500000  0.285714  0.000000     12.000000
  0.357143  0.357143  0.000000     12.000000
  0.428571  0.357143  0.000000     24.000000
  0.500000  0.357143  0.000000     12.000000
  0.428571  0.428571  0.000000     12.000000
  0.500000  0.428571  0.000000     12.000000
  0.500000  0.500000  0.000000      3.000000
  0.071429  0.071429  0.071429      8.000000
  0.142857  0.071429  0.071429     24.000000
  0.214286  0.071429  0.071429     24.000000
  0.285714  0.071429  0.071429     24.000000
  0.357143  0.071429  0.071429     24.000000
  0.428571  0.071429  0.071429     24.000000
  0.500000  0.071429  0.071429     12.000000
  0.142857  0.142857  0.071429     24.000000
  0.214286  0.142857  0.071429     48.000000
  0.285714  0.142857  0.071429     48.000000
  0.357143  0.142857  0.071429     48.000000
  0.428571  0.142857  0.071429     48.000000
  0.500000  0.142857  0.071429     24.000000
  0.214286  0.214286  0.071429     24.000000
  0.285714  0.214286  0.071429     48.000000
  0.357143  0.214286  0.071429     48.000000
  0.428571  0.214286  0.071429     48.000000
  0.500000  0.214286  0.071429     24.000000
  0.285714  0.285714  0.071429     24.000000
  0.357143  0.285714  0.071429     48.000000
  0.428571  0.285714  0.071429     48.000000
  0.500000  0.285714  0.071429     24.000000
  0.357143  0.357143  0.071429     24.000000
  0.428571  0.357143  0.071429     48.000000
  0.500000  0.357143  0.071429     24.000000
  0.428571  0.428571  0.071429     24.000000
  0.500000  0.428571  0.071429     24.000000
  0.500000  0.500000  0.071429      6.000000
  0.142857  0.142857  0.142857      8.000000
  0.214286  0.142857  0.142857     24.000000
  0.285714  0.142857  0.142857     24.000000
  0.357143  0.142857  0.142857     24.000000
  0.428571  0.142857  0.142857     24.000000
  0.500000  0.142857  0.142857     12.000000
  0.214286  0.214286  0.142857     24.000000
  0.285714  0.214286  0.142857     48.000000
  0.357143  0.214286  0.142857     48.000000
  0.428571  0.214286  0.142857     48.000000
  0.500000  0.214286  0.142857     24.000000
  0.285714  0.285714  0.142857     24.000000
  0.357143  0.285714  0.142857     48.000000
  0.428571  0.285714  0.142857     48.000000
  0.500000  0.285714  0.142857     24.000000
  0.357143  0.357143  0.142857     24.000000
  0.428571  0.357143  0.142857     48.000000
  0.500000  0.357143  0.142857     24.000000
  0.428571  0.428571  0.142857     24.000000
  0.500000  0.428571  0.142857     24.000000
  0.500000  0.500000  0.142857      6.000000
  0.214286  0.214286  0.214286      8.000000
  0.285714  0.214286  0.214286     24.000000
  0.357143  0.214286  0.214286     24.000000
  0.428571  0.214286  0.214286     24.000000
  0.500000  0.214286  0.214286     12.000000
  0.285714  0.285714  0.214286     24.000000
  0.357143  0.285714  0.214286     48.000000
  0.428571  0.285714  0.214286     48.000000
  0.500000  0.285714  0.214286     24.000000
  0.357143  0.357143  0.214286     24.000000
  0.428571  0.357143  0.214286     48.000000
  0.500000  0.357143  0.214286     24.000000
  0.428571  0.428571  0.214286     24.000000
  0.500000  0.428571  0.214286     24.000000
  0.500000  0.500000  0.214286      6.000000
  0.285714  0.285714  0.285714      8.000000
  0.357143  0.285714  0.285714     24.000000
  0.428571  0.285714  0.285714     24.000000
  0.500000  0.285714  0.285714     12.000000
  0.357143  0.357143  0.285714     24.000000
  0.428571  0.357143  0.285714     48.000000
  0.500000  0.357143  0.285714     24.000000
  0.428571  0.428571  0.285714     24.000000
  0.500000  0.428571  0.285714     24.000000
  0.500000  0.500000  0.285714      6.000000
  0.357143  0.357143  0.357143      8.000000
  0.428571  0.357143  0.357143     24.000000
  0.500000  0.357143  0.357143     12.000000
  0.428571  0.428571  0.357143     24.000000
  0.500000  0.428571  0.357143     24.000000
  0.500000  0.500000  0.357143      6.000000
  0.428571  0.428571  0.428571      8.000000
  0.500000  0.428571  0.428571     12.000000
  0.500000  0.500000  0.428571      6.000000
  0.500000  0.500000  0.500000      1.000000
 
 Following cartesian coordinates:
            Coordinates               Weight
  0.000000  0.000000  0.000000      1.000000
  0.019643  0.000000  0.000000      6.000000
  0.039285  0.000000  0.000000      6.000000
  0.058928  0.000000  0.000000      6.000000
  0.078570  0.000000  0.000000      6.000000
  0.098213  0.000000  0.000000      6.000000
  0.117855  0.000000  0.000000      6.000000
  0.137498  0.000000  0.000000      3.000000
  0.019643  0.019643  0.000000     12.000000
  0.039285  0.019643  0.000000     24.000000
  0.058928  0.019643  0.000000     24.000000
  0.078570  0.019643  0.000000     24.000000
  0.098213  0.019643  0.000000     24.000000
  0.117855  0.019643  0.000000     24.000000
  0.137498  0.019643  0.000000     12.000000
  0.039285  0.039285  0.000000     12.000000
  0.058928  0.039285  0.000000     24.000000
  0.078570  0.039285  0.000000     24.000000
  0.098213  0.039285  0.000000     24.000000
  0.117855  0.039285  0.000000     24.000000
  0.137498  0.039285  0.000000     12.000000
  0.058928  0.058928  0.000000     12.000000
  0.078570  0.058928  0.000000     24.000000
  0.098213  0.058928  0.000000     24.000000
  0.117855  0.058928  0.000000     24.000000
  0.137498  0.058928  0.000000     12.000000
  0.078570  0.078570  0.000000     12.000000
  0.098213  0.078570  0.000000     24.000000
  0.117855  0.078570  0.000000     24.000000
  0.137498  0.078570  0.000000     12.000000
  0.098213  0.098213  0.000000     12.000000
  0.117855  0.098213  0.000000     24.000000
  0.137498  0.098213  0.000000     12.000000
  0.117855  0.117855  0.000000     12.000000
  0.137498  0.117855  0.000000     12.000000
  0.137498  0.137498  0.000000      3.000000
  0.019643  0.019643  0.019643      8.000000
  0.039285  0.019643  0.019643     24.000000
  0.058928  0.019643  0.019643     24.000000
  0.078570  0.019643  0.019643     24.000000
  0.098213  0.019643  0.019643     24.000000
  0.117855  0.019643  0.019643     24.000000
  0.137498  0.019643  0.019643     12.000000
  0.039285  0.039285  0.019643     24.000000
  0.058928  0.039285  0.019643     48.000000
  0.078570  0.039285  0.019643     48.000000
  0.098213  0.039285  0.019643     48.000000
  0.117855  0.039285  0.019643     48.000000
  0.137498  0.039285  0.019643     24.000000
  0.058928  0.058928  0.019643     24.000000
  0.078570  0.058928  0.019643     48.000000
  0.098213  0.058928  0.019643     48.000000
  0.117855  0.058928  0.019643     48.000000
  0.137498  0.058928  0.019643     24.000000
  0.078570  0.078570  0.019643     24.000000
  0.098213  0.078570  0.019643     48.000000
  0.117855  0.078570  0.019643     48.000000
  0.137498  0.078570  0.019643     24.000000
  0.098213  0.098213  0.019643     24.000000
  0.117855  0.098213  0.019643     48.000000
  0.137498  0.098213  0.019643     24.000000
  0.117855  0.117855  0.019643     24.000000
  0.137498  0.117855  0.019643     24.000000
  0.137498  0.137498  0.019643      6.000000
  0.039285  0.039285  0.039285      8.000000
  0.058928  0.039285  0.039285     24.000000
  0.078570  0.039285  0.039285     24.000000
  0.098213  0.039285  0.039285     24.000000
  0.117855  0.039285  0.039285     24.000000
  0.137498  0.039285  0.039285     12.000000
  0.058928  0.058928  0.039285     24.000000
  0.078570  0.058928  0.039285     48.000000
  0.098213  0.058928  0.039285     48.000000
  0.117855  0.058928  0.039285     48.000000
  0.137498  0.058928  0.039285     24.000000
  0.078570  0.078570  0.039285     24.000000
  0.098213  0.078570  0.039285     48.000000
  0.117855  0.078570  0.039285     48.000000
  0.137498  0.078570  0.039285     24.000000
  0.098213  0.098213  0.039285     24.000000
  0.117855  0.098213  0.039285     48.000000
  0.137498  0.098213  0.039285     24.000000
  0.117855  0.117855  0.039285     24.000000
  0.137498  0.117855  0.039285     24.000000
  0.137498  0.137498  0.039285      6.000000
  0.058928  0.058928  0.058928      8.000000
  0.078570  0.058928  0.058928     24.000000
  0.098213  0.058928  0.058928     24.000000
  0.117855  0.058928  0.058928     24.000000
  0.137498  0.058928  0.058928     12.000000
  0.078570  0.078570  0.058928     24.000000
  0.098213  0.078570  0.058928     48.000000
  0.117855  0.078570  0.058928     48.000000
  0.137498  0.078570  0.058928     24.000000
  0.098213  0.098213  0.058928     24.000000
  0.117855  0.098213  0.058928     48.000000
  0.137498  0.098213  0.058928     24.000000
  0.117855  0.117855  0.058928     24.000000
  0.137498  0.117855  0.058928     24.000000
  0.137498  0.137498  0.058928      6.000000
  0.078570  0.078570  0.078570      8.000000
  0.098213  0.078570  0.078570     24.000000
  0.117855  0.078570  0.078570     24.000000
  0.137498  0.078570  0.078570     12.000000
  0.098213  0.098213  0.078570     24.000000
  0.117855  0.098213  0.078570     48.000000
  0.137498  0.098213  0.078570     24.000000
  0.117855  0.117855  0.078570     24.000000
  0.137498  0.117855  0.078570     24.000000
  0.137498  0.137498  0.078570      6.000000
  0.098213  0.098213  0.098213      8.000000
  0.117855  0.098213  0.098213     24.000000
  0.137498  0.098213  0.098213     12.000000
  0.117855  0.117855  0.098213     24.000000
  0.137498  0.117855  0.098213     24.000000
  0.137498  0.137498  0.098213      6.000000
  0.117855  0.117855  0.117855      8.000000
  0.137498  0.117855  0.117855     12.000000
  0.137498  0.137498  0.117855      6.000000
  0.137498  0.137498  0.137498      1.000000
 


--------------------------------------------------------------------------------------------------------




 Dimension of arrays:
   k-Points           NKPTS =    120   number of bands    NBANDS=     32
   number of dos      NEDOS =    301   number of ions     NIONS =      4
   non local maximal  LDIM  =      6   non local SUM 2l+1 LMDIM =     18
   total plane-waves  NPLWV =  21952
   max r-space proj   IRMAX =      1   max aug-charges    IRDMAX= 128362
   dimension x,y,z NGX =    28 NGY =   28 NGZ =   28
   dimension x,y,z NGXF=    56 NGYF=   56 NGZF=   56
   support grid    NGXF=   112 NGYF=  112 NGZF=  112
   ions per type =               4
 NGX,Y,Z   is equivalent  to a cutoff of  12.80, 12.80, 12.80 a.u.
 NGXF,Y,Z  is equivalent  to a cutoff of  25.60, 25.60, 25.60 a.u.


 I would recommend the setting:
   dimension x,y,z NGX =    27 NGY =   27 NGZ =   27
 SYSTEM =  unknown system                          
 POSCAR =  Cu                                      

 Startparameter for this run:
   NWRITE =      2    write-flag & timer
   PREC   = accura    medium, high low
   ISTART =      0    job   : 0-new  1-cont  2-samecut
   ICHARG =      2    charge: 1-file 2-atom 10-const
   ISPIN  =      1    spin polarized calculation?
   LNONCOLLINEAR =      F non collinear calculations
   LSORBIT =      F    spin-orbit coupling
   INIWAV =      1    electr: 0-lowe 1-rand  2-diag
   LASPH  =      F    aspherical Exc in radial PAW
   METAGGA=      F    non-selfconsistent MetaGGA calc.

 Electronic Relaxation 1
   ENCUT  =  500.0 eV  36.75 Ry    6.06 a.u.   6.63  6.63  6.63*2*pi/ulx,y,z
   ENINI  =  500.0     initial cutoff
   ENAUG  =  516.5 eV  augmentation charge cutoff
   NELM   =     60;   NELMIN=  2; NELMDL=  0     # of ELM steps 
   EDIFF  = 0.1E-07   stopping-criterion for ELM
   LREAL  =      F    real-space projection
   LCOMPAT=      F    compatible to vasp.4.4
   LREAL_COMPAT= F    compatible to vasp.4.5.1-3
   GGA_COMPAT  = T    GGA compatible to vasp.4.4-vasp.4.6
   LMAXPAW     = -100 max onsite density
   LMAXMIX     =    2 max onsite mixed and CHGCAR
   VOSKOWN=      0    Vosko Wilk Nusair interpolation
   ROPT   =    0.00000
 Ionic relaxation
   EDIFFG = 0.1E-06   stopping-criterion for IOM
   NSW    =      0    number of steps for IOM
   NBLOCK =      1;   KBLOCK =      1    inner block; outer block 
   IBRION =     -1    ionic relax: 0-MD 1-quasi-New 2-CG
   NFREE  =      0    steps in history (QN), initial steepest desc. (CG)
   ISIF   =      2    stress and relaxation
   IWAVPR =     10    prediction:  0-non 1-charg 2-wave 3-comb
   ISYM   =      2    0-nonsym 1-usesym 2-fastsym
   LCORR  =      T    Harris-Foulkes like correction to forces

   POTIM  =   0.50    time-step for ionic-motion
   TEIN   =    0.0    initial temperature
   TEBEG  =    0.0;   TEEND  =   0.0 temperature during run
   SMASS  =  -3.00    Nose mass-parameter (am)
   estimated Nose-frequenzy (Omega)   =  0.10E-29 period in steps =****** mass=  -0.302E-27a.u.
   NPACO  =    256;   APACO  = 16.0  distance and # of slots for P.C.
   PSTRESS=    0.0 pullay stress

  Mass of Ions in am
   POMASS =  63.55
  Ionic Valenz
   ZVAL   =  11.00
  Atomic Wigner-Seitz radii
   RWIGS  =  -1.00
   NELECT =      44.0000    total number of electrons
   NUPDOWN=      -1.0000    fix difference up-down

 DOS related values:
   EMIN   =  10.00;   EMAX   =-10.00  energy-range for DOS
   ISMEAR =     0;   SIGMA  =   0.01  broadening in eV -4-tet -1-fermi 0-gaus

 Electronic relaxation 2 (details)
   IALGO  =     38    algorithm
   LDIAG  =      T    sub-space diagonalisation
   IMIX   =      4    mixing-type and parameters
     AMIX     =   0.40;   BMIX     =  1.00
     AMIX_MAG =   1.60;   BMIX_MAG =  1.00
     AMIN     =   0.10
     WC   =   100.;   INIMIX=   1;  MIXPRE=   1

 Intra band minimization:
   WEIMIN = 0.0000     energy-eigenvalue tresh-hold
   EBREAK =  0.96E-10  absolut break condition
   DEPER  =   0.30     relativ break condition  

   TIME   =   0.10     timestep for ELM

  volume/ion in A,a.u.               =      12.02        81.13
  Fermi-wavevector in a.u.,eV,Ry     =   1.589347 34.368661  2.526025

 Second variation
   LSECVAR=     F    do a second variation
 
 Write flags
   LWAVE  =      F    write WAVECAR
   LCHARG =      F    write CHGCAR
   LVTOT  =      F    write LOCPOT, local potential
   LELF   =      F    write electronic localiz. function (ELF)
   LORBIT =      0    0 simple, 1 ext, 2 COOP (PROOUT)


 Dipole corrections
   IDIPOL =      0    1-x, 2-y, 3-z
   LDIPOL =      F    correct potential



--------------------------------------------------------------------------------------------------------


 Static calculation
 charge density will be updated during run
 non-spin polarized calculation
 Variant of blocked Davidson
 Davidson routine will perform the subspace rotation
 performe sub-space diagonalisation
    after iterative eigenvector-optimisation
 modified Broyden-mixing scheme, WC =      100.0
 initial mixing is a Kerker type mixing with AMIX =  0.4000 and BMIX =      1.0000
 Hartree-type preconditioning will be used
 using additional bands           10
 reciprocal scheme for non local part
 use partial core corrections
 calculate Harris-corrections to forces 
   (improved forces if not selfconsistent)
 use gradient corrections 
 use of overlap-Matrix (Vanderbilt PP)
 Gauss-broadening in eV      SIGMA  =   0.01


--------------------------------------------------------------------------------------------------------


  energy-cutoff  :      500.00
  volume of cell :       48.09
      direct lattice vectors                 reciprocal lattice vectors
     3.636415812  0.000000000  0.000000000     0.274996054  0.000000000  0.000000000
     0.000000000  3.636415812  0.000000000     0.000000000  0.274996054  0.000000000
     0.000000000  0.000000000  3.636415812     0.000000000  0.000000000  0.274996054

  length of vectors
     3.636415812  3.636415812  3.636415812     0.274996054  0.274996054  0.274996054


 
 k-points in units of 2pi/SCALE and weight: Automatic mesh                          
   0.00000000  0.00000000  0.00000000       0.000
   0.01964258  0.00000000  0.00000000       0.002
   0.03928515  0.00000000  0.00000000       0.002
   0.05892773  0.00000000  0.00000000       0.002
   0.07857030  0.00000000  0.00000000       0.002
   0.09821288  0.00000000  0.00000000       0.002
   0.11785545  0.00000000  0.00000000       0.002
   0.13749803  0.00000000  0.00000000       0.001
   0.01964258  0.01964258  0.00000000       0.004
   0.03928515  0.01964258  0.00000000       0.009
   0.05892773  0.01964258  0.00000000       0.009
   0.07857030  0.01964258  0.00000000       0.009
   0.09821288  0.01964258  0.00000000       0.009
   0.11785545  0.01964258  0.00000000       0.009
   0.13749803  0.01964258  0.00000000       0.004
   0.03928515  0.03928515  0.00000000       0.004
   0.05892773  0.03928515  0.00000000       0.009
   0.07857030  0.03928515  0.00000000       0.009
   0.09821288  0.03928515  0.00000000       0.009
   0.11785545  0.03928515  0.00000000       0.009
   0.13749803  0.03928515  0.00000000       0.004
   0.05892773  0.05892773  0.00000000       0.004
   0.07857030  0.05892773  0.00000000       0.009
   0.09821288  0.05892773  0.00000000       0.009
   0.11785545  0.05892773  0.00000000       0.009
   0.13749803  0.05892773  0.00000000       0.004
   0.07857030  0.07857030  0.00000000       0.004
   0.09821288  0.07857030  0.00000000       0.009
   0.11785545  0.07857030  0.00000000       0.009
   0.13749803  0.07857030  0.00000000       0.004
   0.09821288  0.09821288  0.00000000       0.004
   0.11785545  0.09821288  0.00000000       0.009
   0.13749803  0.09821288  0.00000000       0.004
   0.11785545  0.11785545  0.00000000       0.004
   0.13749803  0.11785545  0.00000000       0.004
   0.13749803  0.13749803  0.00000000       0.001
   0.01964258  0.01964258  0.01964258       0.003
   0.03928515  0.01964258  0.01964258       0.009
   0.05892773  0.01964258  0.01964258       0.009
   0.07857030  0.01964258  0.01964258       0.009
   0.09821288  0.01964258  0.01964258       0.009
   0.11785545  0.01964258  0.01964258       0.009
   0.13749803  0.01964258  0.01964258       0.004
   0.03928515  0.03928515  0.01964258       0.009
   0.05892773  0.03928515  0.01964258       0.017
   0.07857030  0.03928515  0.01964258       0.017
   0.09821288  0.03928515  0.01964258       0.017
   0.11785545  0.03928515  0.01964258       0.017
   0.13749803  0.03928515  0.01964258       0.009
   0.05892773  0.05892773  0.01964258       0.009
   0.07857030  0.05892773  0.01964258       0.017
   0.09821288  0.05892773  0.01964258       0.017
   0.11785545  0.05892773  0.01964258       0.017
   0.13749803  0.05892773  0.01964258       0.009
   0.07857030  0.07857030  0.01964258       0.009
   0.09821288  0.07857030  0.01964258       0.017
   0.11785545  0.07857030  0.01964258       0.017
   0.13749803  0.07857030  0.01964258       0.009
   0.09821288  0.09821288  0.01964258       0.009
   0.11785545  0.09821288  0.01964258       0.017
   0.13749803  0.09821288  0.01964258       0.009
   0.11785545  0.11785545  0.01964258       0.009
   0.13749803  0.11785545  0.01964258       0.009
   0.13749803  0.13749803  0.01964258       0.002
   0.03928515  0.03928515  0.03928515       0.003
   0.05892773  0.03928515  0.03928515       0.009
   0.07857030  0.03928515  0.03928515       0.009
   0.09821288  0.03928515  0.03928515       0.009
   0.11785545  0.03928515  0.03928515       0.009
   0.13749803  0.03928515  0.03928515       0.004
   0.05892773  0.05892773  0.03928515       0.009
   0.07857030  0.05892773  0.03928515       0.017
   0.09821288  0.05892773  0.03928515       0.017
   0.11785545  0.05892773  0.03928515       0.017
   0.13749803  0.05892773  0.03928515       0.009
   0.07857030  0.07857030  0.03928515       0.009
   0.09821288  0.07857030  0.03928515       0.017
   0.11785545  0.07857030  0.03928515       0.017
   0.13749803  0.07857030  0.03928515       0.009
   0.09821288  0.09821288  0.03928515       0.009
   0.11785545  0.09821288  0.03928515       0.017
   0.13749803  0.09821288  0.03928515       0.009
   0.11785545  0.11785545  0.03928515       0.009
   0.13749803  0.11785545  0.03928515       0.009
   0.13749803  0.13749803  0.03928515       0.002
   0.05892773  0.05892773  0.05892773       0.003
   0.07857030  0.05892773  0.05892773       0.009
   0.09821288  0.05892773  0.05892773       0.009
   0.11785545  0.05892773  0.05892773       0.009
   0.13749803  0.05892773  0.05892773       0.004
   0.07857030  0.07857030  0.05892773       0.009
   0.09821288  0.07857030  0.05892773       0.017
   0.11785545  0.07857030  0.05892773       0.017
   0.13749803  0.07857030  0.05892773       0.009
   0.09821288  0.09821288  0.05892773       0.009
   0.11785545  0.09821288  0.05892773       0.017
   0.13749803  0.09821288  0.05892773       0.009
   0.11785545  0.11785545  0.05892773       0.009
   0.13749803  0.11785545  0.05892773       0.009
   0.13749803  0.13749803  0.05892773       0.002
   0.07857030  0.07857030  0.07857030       0.003
   0.09821288  0.07857030  0.07857030       0.009
   0.11785545  0.07857030  0.07857030       0.009
   0.13749803  0.07857030  0.07857030       0.004
   0.09821288  0.09821288  0.07857030       0.009
   0.11785545  0.09821288  0.07857030       0.017
   0.13749803  0.09821288  0.07857030       0.009
   0.11785545  0.11785545  0.07857030       0.009
   0.13749803  0.11785545  0.07857030       0.009
   0.13749803  0.13749803  0.07857030       0.002
   0.09821288  0.09821288  0.09821288       0.003
   0.11785545  0.09821288  0.09821288       0.009
   0.13749803  0.09821288  0.09821288       0.004
   0.11785545  0.11785545  0.09821288       0.009
   0.13749803  0.11785545  0.09821288       0.009
   0.13749803  0.13749803  0.09821288       0.002
   0.11785545  0.11785545  0.11785545       0.003
   0.13749803  0.11785545  0.11785545       0.004
   0.13749803  0.13749803  0.11785545       0.002
   0.13749803  0.13749803  0.13749803       0.000
 
 k-points in reciprocal lattice and weights: Automatic mesh                          
   0.00000000  0.00000000  0.00000000       0.000
   0.07142857  0.00000000  0.00000000       0.002
   0.14285714  0.00000000  0.00000000       0.002
   0.21428571  0.00000000  0.00000000       0.002
   0.28571429  0.00000000  0.00000000       0.002
   0.35714286  0.00000000  0.00000000       0.002
   0.42857143  0.00000000  0.00000000       0.002
   0.50000000  0.00000000  0.00000000       0.001
   0.07142857  0.07142857  0.00000000       0.004
   0.14285714  0.07142857  0.00000000       0.009
   0.21428571  0.07142857  0.00000000       0.009
   0.28571429  0.07142857  0.00000000       0.009
   0.35714286  0.07142857  0.00000000       0.009
   0.42857143  0.07142857  0.00000000       0.009
   0.50000000  0.07142857  0.00000000       0.004
   0.14285714  0.14285714  0.00000000       0.004
   0.21428571  0.14285714  0.00000000       0.009
   0.28571429  0.14285714  0.00000000       0.009
   0.35714286  0.14285714  0.00000000       0.009
   0.42857143  0.14285714  0.00000000       0.009
   0.50000000  0.14285714  0.00000000       0.004
   0.21428571  0.21428571  0.00000000       0.004
   0.28571429  0.21428571  0.00000000       0.009
   0.35714286  0.21428571  0.00000000       0.009
   0.42857143  0.21428571  0.00000000       0.009
   0.50000000  0.21428571  0.00000000       0.004
   0.28571429  0.28571429  0.00000000       0.004
   0.35714286  0.28571429  0.00000000       0.009
   0.42857143  0.28571429  0.00000000       0.009
   0.50000000  0.28571429  0.00000000       0.004
   0.35714286  0.35714286  0.00000000       0.004
   0.42857143  0.35714286  0.00000000       0.009
   0.50000000  0.35714286  0.00000000       0.004
   0.42857143  0.42857143  0.00000000       0.004
   0.50000000  0.42857143  0.00000000       0.004
   0.50000000  0.50000000  0.00000000       0.001
   0.07142857  0.07142857  0.07142857       0.003
   0.14285714  0.07142857  0.07142857       0.009
   0.21428571  0.07142857  0.07142857       0.009
   0.28571429  0.07142857  0.07142857       0.009
   0.35714286  0.07142857  0.07142857       0.009
   0.42857143  0.07142857  0.07142857       0.009
   0.50000000  0.07142857  0.07142857       0.004
   0.14285714  0.14285714  0.07142857       0.009
   0.21428571  0.14285714  0.07142857       0.017
   0.28571429  0.14285714  0.07142857       0.017
   0.35714286  0.14285714  0.07142857       0.017
   0.42857143  0.14285714  0.07142857       0.017
   0.50000000  0.14285714  0.07142857       0.009
   0.21428571  0.21428571  0.07142857       0.009
   0.28571429  0.21428571  0.07142857       0.017
   0.35714286  0.21428571  0.07142857       0.017
   0.42857143  0.21428571  0.07142857       0.017
   0.50000000  0.21428571  0.07142857       0.009
   0.28571429  0.28571429  0.07142857       0.009
   0.35714286  0.28571429  0.07142857       0.017
   0.42857143  0.28571429  0.07142857       0.017
   0.50000000  0.28571429  0.07142857       0.009
   0.35714286  0.35714286  0.07142857       0.009
   0.42857143  0.35714286  0.07142857       0.017
   0.50000000  0.35714286  0.07142857       0.009
   0.42857143  0.42857143  0.07142857       0.009
   0.50000000  0.42857143  0.07142857       0.009
   0.50000000  0.50000000  0.07142857       0.002
   0.14285714  0.14285714  0.14285714       0.003
   0.21428571  0.14285714  0.14285714       0.009
   0.28571429  0.14285714  0.14285714       0.009
   0.35714286  0.14285714  0.14285714       0.009
   0.42857143  0.14285714  0.14285714       0.009
   0.50000000  0.14285714  0.14285714       0.004
   0.21428571  0.21428571  0.14285714       0.009
   0.28571429  0.21428571  0.14285714       0.017
   0.35714286  0.21428571  0.14285714       0.017
   0.42857143  0.21428571  0.14285714       0.017
   0.50000000  0.21428571  0.14285714       0.009
   0.28571429  0.28571429  0.14285714       0.009
   0.35714286  0.28571429  0.14285714       0.017
   0.42857143  0.28571429  0.14285714       0.017
   0.50000000  0.28571429  0.14285714       0.009
   0.35714286  0.35714286  0.14285714       0.009
   0.42857143  0.35714286  0.14285714       0.017
   0.50000000  0.35714286  0.14285714       0.009
   0.42857143  0.42857143  0.14285714       0.009
   0.50000000  0.42857143  0.14285714       0.009
   0.50000000  0.50000000  0.14285714       0.002
   0.21428571  0.21428571  0.21428571       0.003
   0.28571429  0.21428571  0.21428571       0.009
   0.35714286  0.21428571  0.21428571       0.009
   0.42857143  0.21428571  0.21428571       0.009
   0.50000000  0.21428571  0.21428571       0.004
   0.28571429  0.28571429  0.21428571       0.009
   0.35714286  0.28571429  0.21428571       0.017
   0.42857143  0.28571429  0.21428571       0.017
   0.50000000  0.28571429  0.21428571       0.009
   0.35714286  0.35714286  0.21428571       0.009
   0.42857143  0.35714286  0.21428571       0.017
   0.50000000  0.35714286  0.21428571       0.009
   0.42857143  0.42857143  0.21428571       0.009
   0.50000000  0.42857143  0.21428571       0.009
   0.50000000  0.50000000  0.21428571       0.002
   0.28571429  0.28571429  0.28571429       0.003
   0.35714286  0.28571429  0.28571429       0.009
   0.42857143  0.28571429  0.28571429       0.009
   0.50000000  0.28571429  0.28571429       0.004
   0.35714286  0.35714286  0.28571429       0.009
   0.42857143  0.35714286  0.28571429       0.017
   0.50000000  0.35714286  0.28571429       0.009
   0.42857143  0.42857143  0.28571429       0.009
   0.50000000  0.42857143  0.28571429       0.009
   0.50000000  0.50000000  0.28571429       0.002
   0.35714286  0.35714286  0.35714286       0.003
   0.42857143  0.35714286  0.35714286       0.009
   0.50000000  0.35714286  0.35714286       0.004
   0.42857143  0.42857143  0.35714286       0.009
   0.50000000  0.42857143  0.35714286       0.009
   0.50000000  0.50000000  0.35714286       0.002
   0.42857143  0.42857143  0.42857143       0.003
   0.50000000  0.42857143  0.42857143       0.004
   0.50000000  0.50000000  0.42857143       0.002
   0.50000000  0.50000000  0.50000000       0.000
 
 position of ions in fractional coordinates (direct lattice) 
   0.00000000  0.00000000  0.00000000
   0.50000000  0.50000000  0.00000000
   0.50000000  0.00000000  0.50000000
   0.00000000  0.50000000  0.50000000
 
 position of ions in cartesian coordinates  (Angst):
   0.00000000  0.00000000  0.00000000
   1.81820791  1.81820791  0.00000000
   1.81820791  0.00000000  1.81820791
   0.00000000  1.81820791  1.81820791
 


--------------------------------------------------------------------------------------------------------


 k-point  1 :  0.00000.00000.0000  plane waves:   1213
 k-point  2 :  0.07140.00000.0000  plane waves:   1225
 k-point  3 :  0.14290.00000.0000  plane waves:   1241
 k-point  4 :  0.21430.00000.0000  plane waves:   1237
 k-point  5 :  0.28570.00000.0000  plane waves:   1229
 k-point  6 :  0.35710.00000.0000  plane waves:   1209
 k-point  7 :  0.42860.00000.0000  plane waves:   1218
 k-point  8 :  0.50000.00000.0000  plane waves:   1222
 k-point  9 :  0.07140.07140.0000  plane waves:   1225
 k-point 10 :  0.14290.07140.0000  plane waves:   1236
 k-point 11 :  0.21430.07140.0000  plane waves:   1242
 k-point 12 :  0.28570.07140.0000  plane waves:   1226
 k-point 13 :  0.35710.07140.0000  plane waves:   1214
 k-point 14 :  0.42860.07140.0000  plane waves:   1215
 k-point 15 :  0.50000.07140.0000  plane waves:   1218
 k-point 16 :  0.14290.14290.0000  plane waves:   1235
 k-point 17 :  0.21430.14290.0000  plane waves:   1240
 k-point 18 :  0.28570.14290.0000  plane waves:   1219
 k-point 19 :  0.35710.14290.0000  plane waves:   1215
 k-point 20 :  0.42860.14290.0000  plane waves:   1217
 k-point 21 :  0.50000.14290.0000  plane waves:   1210
 k-point 22 :  0.21430.21430.0000  plane waves:   1229
 k-point 23 :  0.28570.21430.0000  plane waves:   1217
 k-point 24 :  0.35710.21430.0000  plane waves:   1216
 k-point 25 :  0.42860.21430.0000  plane waves:   1222
 k-point 26 :  0.50000.21430.0000  plane waves:   1218
 k-point 27 :  0.28570.28570.0000  plane waves:   1217
 k-point 28 :  0.35710.28570.0000  plane waves:   1228
 k-point 29 :  0.42860.28570.0000  plane waves:   1220
 k-point 30 :  0.50000.28570.0000  plane waves:   1230
 k-point 31 :  0.35710.35710.0000  plane waves:   1214
 k-point 32 :  0.42860.35710.0000  plane waves:   1219
 k-point 33 :  0.50000.35710.0000  plane waves:   1222
 k-point 34 :  0.42860.42860.0000  plane waves:   1222
 k-point 35 :  0.50000.42860.0000  plane waves:   1218
 k-point 36 :  0.50000.50000.0000  plane waves:   1228
 k-point 37 :  0.07140.07140.0714  plane waves:   1234
 k-point 38 :  0.14290.07140.0714  plane waves:   1234
 k-point 39 :  0.21430.07140.0714  plane waves:   1237
 k-point 40 :  0.28570.07140.0714  plane waves:   1227
 k-point 41 :  0.35710.07140.0714  plane waves:   1216
 k-point 42 :  0.42860.07140.0714  plane waves:   1220
 k-point 43 :  0.50000.07140.0714  plane waves:   1208
 k-point 44 :  0.14290.14290.0714  plane waves:   1237
 k-point 45 :  0.21430.14290.0714  plane waves:   1234
 k-point 46 :  0.28570.14290.0714  plane waves:   1225
 k-point 47 :  0.35710.14290.0714  plane waves:   1220
 k-point 48 :  0.42860.14290.0714  plane waves:   1219
 k-point 49 :  0.50000.14290.0714  plane waves:   1218
 k-point 50 :  0.21430.21430.0714  plane waves:   1229
 k-point 51 :  0.28570.21430.0714  plane waves:   1221
 k-point 52 :  0.35710.21430.0714  plane waves:   1222
 k-point 53 :  0.42860.21430.0714  plane waves:   1220
 k-point 54 :  0.50000.21430.0714  plane waves:   1214
 k-point 55 :  0.28570.28570.0714  plane waves:   1220
 k-point 56 :  0.35710.28570.0714  plane waves:   1223
 k-point 57 :  0.42860.28570.0714  plane waves:   1214
 k-point 58 :  0.50000.28570.0714  plane waves:   1224
 k-point 59 :  0.35710.35710.0714  plane waves:   1208
 k-point 60 :  0.42860.35710.0714  plane waves:   1217
 k-point 61 :  0.50000.35710.0714  plane waves:   1222
 k-point 62 :  0.42860.42860.0714  plane waves:   1222
 k-point 63 :  0.50000.42860.0714  plane waves:   1224
 k-point 64 :  0.50000.50000.0714  plane waves:   1228
 k-point 65 :  0.14290.14290.1429  plane waves:   1231
 k-point 66 :  0.21430.14290.1429  plane waves:   1231
 k-point 67 :  0.28570.14290.1429  plane waves:   1221
 k-point 68 :  0.35710.14290.1429  plane waves:   1217
 k-point 69 :  0.42860.14290.1429  plane waves:   1222
 k-point 70 :  0.50000.14290.1429  plane waves:   1214
 k-point 71 :  0.21430.21430.1429  plane waves:   1222
 k-point 72 :  0.28570.21430.1429  plane waves:   1222
 k-point 73 :  0.35710.21430.1429  plane waves:   1221
 k-point 74 :  0.42860.21430.1429  plane waves:   1216
 k-point 75 :  0.50000.21430.1429  plane waves:   1218
 k-point 76 :  0.28570.28570.1429  plane waves:   1218
 k-point 77 :  0.35710.28570.1429  plane waves:   1221
 k-point 78 :  0.42860.28570.1429  plane waves:   1220
 k-point 79 :  0.50000.28570.1429  plane waves:   1224
 k-point 80 :  0.35710.35710.1429  plane waves:   1219
 k-point 81 :  0.42860.35710.1429  plane waves:   1220
 k-point 82 :  0.50000.35710.1429  plane waves:   1212
 k-point 83 :  0.42860.42860.1429  plane waves:   1216
 k-point 84 :  0.50000.42860.1429  plane waves:   1216
 k-point 85 :  0.50000.50000.1429  plane waves:   1224
 k-point 86 :  0.21430.21430.2143  plane waves:   1226
 k-point 87 :  0.28570.21430.2143  plane waves:   1220
 k-point 88 :  0.35710.21430.2143  plane waves:   1225
 k-point 89 :  0.42860.21430.2143  plane waves:   1221
 k-point 90 :  0.50000.21430.2143  plane waves:   1222
 k-point 91 :  0.28570.28570.2143  plane waves:   1228
 k-point 92 :  0.35710.28570.2143  plane waves:   1216
 k-point 93 :  0.42860.28570.2143  plane waves:   1217
 k-point 94 :  0.50000.28570.2143  plane waves:   1220
 k-point 95 :  0.35710.35710.2143  plane waves:   1219
 k-point 96 :  0.42860.35710.2143  plane waves:   1218
 k-point 97 :  0.50000.35710.2143  plane waves:   1214
 k-point 98 :  0.42860.42860.2143  plane waves:   1213
 k-point 99 :  0.50000.42860.2143  plane waves:   1220
 k-point ** :  0.50000.50000.2143  plane waves:   1208
 k-point ** :  0.28570.28570.2857  plane waves:   1217
 k-point ** :  0.35710.28570.2857  plane waves:   1218
 k-point ** :  0.42860.28570.2857  plane waves:   1221
 k-point ** :  0.50000.28570.2857  plane waves:   1206
 k-point ** :  0.35710.35710.2857  plane waves:   1220
 k-point ** :  0.42860.35710.2857  plane waves:   1215
 k-point ** :  0.50000.35710.2857  plane waves:   1210
 k-point ** :  0.42860.42860.2857  plane waves:   1222
 k-point ** :  0.50000.42860.2857  plane waves:   1216
 k-point ** :  0.50000.50000.2857  plane waves:   1212
 k-point ** :  0.35710.35710.3571  plane waves:   1223
 k-point ** :  0.42860.35710.3571  plane waves:   1213
 k-point ** :  0.50000.35710.3571  plane waves:   1214
 k-point ** :  0.42860.42860.3571  plane waves:   1227
 k-point ** :  0.50000.42860.3571  plane waves:   1220
 k-point ** :  0.50000.50000.3571  plane waves:   1220
 k-point ** :  0.42860.42860.4286  plane waves:   1217
 k-point ** :  0.50000.42860.4286  plane waves:   1228
 k-point ** :  0.50000.50000.4286  plane waves:   1216
 k-point ** :  0.50000.50000.5000  plane waves:   1208

 maximum and minimum number of plane-waves per node :   1242  1206

 maximum number of plane-waves:   1242
 maximal index in each direction: 
   IXMAX=  6   IYMAX=  6   IZMAX=  6
   IXMIN= -7   IYMIN= -7   IZMIN= -7

 NGX is ok and might be reduce to  28
 NGY is ok and might be reduce to  28
 NGZ is ok and might be reduce to  28

 parallel 3dFFT wavefunction:
    minimum data exchange during FFTs selected (reduces bandwidth)
 parallel 3dFFT charge:
    minimum data exchange during FFTs selected (reduces bandwidth)

 For storing wavefunctions   75.02 MBYTES are necessary
 For predicting wavefunctions    1.61 MBYTES are necessary
Broyden mixing: mesh for mixing (old mesh)
   NGX = 13   NGY = 13   NGZ = 13
  (NGX  = 56   NGY  = 56   NGZ  = 56)
 gives a total of   2197 points
 initial charge density was supplied:
 charge density of overlapping atoms calculated
 number of electron   44.0000000 magnetization 
 keeping initial charge density in first step


--------------------------------------------------------------------------------------------------------


 Maximum index for augmentation-charges        15435 (set IRDMAX)


--------------------------------------------------------------------------------------------------------


 First call to EWALD:  gamma=   0.487
 Maximum number of real-space cells 3x 3x 3
 Maximum number of reciprocal cells 3x 3x 3

    FEWALD:  VPU time    0.00: CPU time    0.00


----------------------------------------- Iteration    1(   1)  ---------------------------------------


    POTLOK:  VPU time    0.02: CPU time    0.02
    SETDIJ:  VPU time    0.02: CPU time    0.02
    EDDAV :  VPU time    1.90: CPU time    1.92
    DOS   :  VPU time    0.00: CPU time   -0.00
    ------------------------------------------
      LOOP:  VPU time    1.95: CPU time    1.96

 eigenvalue-minimisations  :  7960
 total energy-change (2. order) : 0.2768765E+03  (-0.2024662E+04)
 number of electron   44.0000000 magnetization 
 augmentation part    44.0000000 magnetization 

 Free energy of the ion-electron system (eV)
  ---------------------------------------------------
  alpha Z        PSCENC =       425.11142968
  Ewald energy   TEWEN  =     -4393.63708839
  -1/2 Hartree   DENC   =     -1318.48477470
  -V(xc)+E(xc)   XCENC  =       175.41198469
  PAW double counting   =      4328.20916945    -4904.30802700
  entropy T*S    EENTRO =        -0.00010515
  eigenvalues    EBANDS =       400.66656711
  atomic energy  EATOM  =      5563.90732063
  ---------------------------------------------------
  free energy    TOTEN  =       276.87647632 eV

  energy without entropy =      276.87658148  energy(sigma->0) =      276.87652890


--------------------------------------------------------------------------------------------------------




----------------------------------------- Iteration    1(   2)  ---------------------------------------


    EDDAV :  VPU time    1.84: CPU time    1.84
    DOS   :  VPU time    0.00: CPU time   -0.00
    ------------------------------------------
      LOOP:  VPU time    1.85: CPU time    1.85

 eigenvalue-minimisations  :  7720
 total energy-change (2. order) :-0.2765926E+03  (-0.2619041E+03)
 number of electron   44.0000000 magnetization 
 augmentation part    44.0000000 magnetization 

 Free energy of the ion-electron system (eV)
  ---------------------------------------------------
  alpha Z        PSCENC =       425.11142968
  Ewald energy   TEWEN  =     -4393.63708839
  -1/2 Hartree   DENC   =     -1318.48477470
  -V(xc)+E(xc)   XCENC  =       175.41198469
  PAW double counting   =      4328.20916945    -4904.30802700
  entropy T*S    EENTRO =        -0.00008743
  eigenvalues    EBANDS =       124.07390972
  atomic energy  EATOM  =      5563.90732063
  ---------------------------------------------------
  free energy    TOTEN  =         0.28383665 eV

  energy without entropy =        0.28392408  energy(sigma->0) =        0.28388037


--------------------------------------------------------------------------------------------------------




----------------------------------------- Iteration    1(   3)  ---------------------------------------


    EDDAV :  VPU time    2.01: CPU time    2.01
    DOS   :  VPU time    0.00: CPU time   -0.00
    ------------------------------------------
      LOOP:  VPU time    2.01: CPU time    2.01

 eigenvalue-minimisations  :  8608
 total energy-change (2. order) :-0.1841930E+02  (-0.1803850E+02)
 number of electron   44.0000000 magnetization 
 augmentation part    44.0000000 magnetization 

 Free energy of the ion-electron system (eV)
  ---------------------------------------------------
  alpha Z        PSCENC =       425.11142968
  Ewald energy   TEWEN  =     -4393.63708839
  -1/2 Hartree   DENC   =     -1318.48477470
  -V(xc)+E(xc)   XCENC  =       175.41198469
  PAW double counting   =      4328.20916945    -4904.30802700
  entropy T*S    EENTRO =        -0.00014899
  eigenvalues    EBANDS =       105.65467168
  atomic energy  EATOM  =      5563.90732063
  ---------------------------------------------------
  free energy    TOTEN  =       -18.13546295 eV

  energy without entropy =      -18.13531395  energy(sigma->0) =      -18.13538845


--------------------------------------------------------------------------------------------------------




----------------------------------------- Iteration    1(   4)  ---------------------------------------


    EDDAV :  VPU time    1.97: CPU time    1.97
    DOS   :  VPU time    0.00: CPU time   -0.00
    ------------------------------------------
      LOOP:  VPU time    1.97: CPU time    1.97

 eigenvalue-minimisations  :  8368
 total energy-change (2. order) :-0.2011081E+00  (-0.2010136E+00)
 number of electron   44.0000000 magnetization 
 augmentation part    44.0000000 magnetization 

 Free energy of the ion-electron system (eV)
  ---------------------------------------------------
  alpha Z        PSCENC =       425.11142968
  Ewald energy   TEWEN  =     -4393.63708839
  -1/2 Hartree   DENC   =     -1318.48477470
  -V(xc)+E(xc)   XCENC  =       175.41198469
  PAW double counting   =      4328.20916945    -4904.30802700
  entropy T*S    EENTRO =        -0.00015185
  eigenvalues    EBANDS =       105.45356642
  atomic energy  EATOM  =      5563.90732063
  ---------------------------------------------------
  free energy    TOTEN  =       -18.33657106 eV

  energy without entropy =      -18.33641922  energy(sigma->0) =      -18.33649514


--------------------------------------------------------------------------------------------------------




----------------------------------------- Iteration    1(   5)  ---------------------------------------


    EDDAV :  VPU time    2.02: CPU time    2.02
    DOS   :  VPU time    0.00: CPU time   -0.00
    CHARGE:  VPU time    0.11: CPU time    0.11
    MIXING:  VPU time    0.00: CPU time    0.00
    ------------------------------------------
      LOOP:  VPU time    2.13: CPU time    2.14

 eigenvalue-minimisations  :  8664
 total energy-change (2. order) :-0.3648685E-03  (-0.3648650E-03)
 number of electron   44.0000000 magnetization 
 augmentation part    26.7844544 magnetization 

 Broyden mixing:
  rms(total) = 0.13923E+01    rms(broyden)= 0.13923E+01
  rms(prec ) = 0.33325E+01
  weight for this iteration     100.00

 Free energy of the ion-electron system (eV)
  ---------------------------------------------------
  alpha Z        PSCENC =       425.11142968
  Ewald energy   TEWEN  =     -4393.63708839
  -1/2 Hartree   DENC   =     -1318.48477470
  -V(xc)+E(xc)   XCENC  =       175.41198469
  PAW double counting   =      4328.20916945    -4904.30802700
  entropy T*S    EENTRO =        -0.00015185
  eigenvalues    EBANDS =       105.45320155
  atomic energy  EATOM  =      5563.90732063
  ---------------------------------------------------
  free energy    TOTEN  =       -18.33693593 eV

  energy without entropy =      -18.33678409  energy(sigma->0) =      -18.33686001


--------------------------------------------------------------------------------------------------------




----------------------------------------- Iteration    1(   6)  ---------------------------------------


    POTLOK:  VPU time    0.01: CPU time    0.01
    SETDIJ:  VPU time    0.02: CPU time    0.02
    EDDAV :  VPU time    1.96: CPU time    1.96
    DOS   :  VPU time   -0.00: CPU time   -0.00
    CHARGE:  VPU time    0.11: CPU time    0.11
    MIXING:  VPU time    0.00: CPU time    0.00
    ------------------------------------------
      LOOP:  VPU time    2.10: CPU time    2.10

 eigenvalue-minimisations  :  8368
 total energy-change (2. order) : 0.2149600E+01  (-0.2376764E+01)
 number of electron   44.0000000 magnetization 
 augmentation part    29.8440979 magnetization 

 Broyden mixing:
  rms(total) = 0.63459E+00    rms(broyden)= 0.63455E+00
  rms(prec ) = 0.13805E+01
  weight for this iteration     100.00

 eigenvalues of (default mixing * dielectric matrix)
  average eigenvalue GAMMA=   0.6887
  0.6887

 Free energy of the ion-electron system (eV)
  ---------------------------------------------------
  alpha Z        PSCENC =       425.11142968
  Ewald energy   TEWEN  =     -4393.63708839
  -1/2 Hartree   DENC   =     -1219.08330828
  -V(xc)+E(xc)   XCENC  =       170.37939121
  PAW double counting   =      4230.25778461    -4774.08374400
  entropy T*S    EENTRO =        -0.00009035
  eigenvalues    EBANDS =       -19.03903058
  atomic energy  EATOM  =      5563.90732063
  ---------------------------------------------------
  free energy    TOTEN  =       -16.18733547 eV

  energy without entropy =      -16.18724511  energy(sigma->0) =      -16.18729029


--------------------------------------------------------------------------------------------------------




----------------------------------------- Iteration    1(   7)  ---------------------------------------


    POTLOK:  VPU time    0.01: CPU time    0.01
    SETDIJ:  VPU time    0.02: CPU time    0.02
    EDDAV :  VPU time    2.00: CPU time    2.00
    DOS   :  VPU time   -0.00: CPU time   -0.00
    CHARGE:  VPU time    0.11: CPU time    0.11
    MIXING:  VPU time    0.00: CPU time    0.00
    ------------------------------------------
      LOOP:  VPU time    2.14: CPU time    2.14

 eigenvalue-minimisations  :  8680
 total energy-change (2. order) : 0.1261692E+01  (-0.4457221E+00)
 number of electron   44.0000000 magnetization 
 augmentation part    28.7018732 magnetization 

 Broyden mixing:
  rms(total) = 0.11570E+00    rms(broyden)= 0.11568E+00
  rms(prec ) = 0.29093E+00
  weight for this iteration     100.00

 eigenvalues of (default mixing * dielectric matrix)
  average eigenvalue GAMMA=   1.3056
  1.9614  0.6497

 Free energy of the ion-electron system (eV)
  ---------------------------------------------------
  alpha Z        PSCENC =       425.11142968
  Ewald energy   TEWEN  =     -4393.63708839
  -1/2 Hartree   DENC   =     -1246.94319784
  -V(xc)+E(xc)   XCENC  =       171.85109321
  PAW double counting   =      4314.20747722    -4881.96921157
  entropy T*S    EENTRO =        -0.00009600
  eigenvalues    EBANDS =        32.54663007
  atomic energy  EATOM  =      5563.90732063
  ---------------------------------------------------
  free energy    TOTEN  =       -14.92564298 eV

  energy without entropy =      -14.92554698  energy(sigma->0) =      -14.92559498


--------------------------------------------------------------------------------------------------------




----------------------------------------- Iteration    1(   8)  ---------------------------------------


    POTLOK:  VPU time    0.01: CPU time    0.01
    SETDIJ:  VPU time    0.02: CPU time    0.02
    EDDAV :  VPU time    1.93: CPU time    1.93
    DOS   :  VPU time    0.00: CPU time   -0.00
    CHARGE:  VPU time    0.11: CPU time    0.11
    MIXING:  VPU time    0.00: CPU time    0.00
    ------------------------------------------
      LOOP:  VPU time    2.07: CPU time    2.07

 eigenvalue-minimisations  :  8272
 total energy-change (2. order) : 0.3781751E-01  (-0.3624812E-02)
 number of electron   44.0000000 magnetization 
 augmentation part    28.6888520 magnetization 

 Broyden mixing:
  rms(total) = 0.65175E-01    rms(broyden)= 0.65173E-01
  rms(prec ) = 0.15909E+00
  weight for this iteration     100.00

 eigenvalues of (default mixing * dielectric matrix)
  average eigenvalue GAMMA=   1.3913
  0.6747  0.9897  2.5095

 Free energy of the ion-electron system (eV)
  ---------------------------------------------------
  alpha Z        PSCENC =       425.11142968
  Ewald energy   TEWEN  =     -4393.63708839
  -1/2 Hartree   DENC   =     -1236.05808152
  -V(xc)+E(xc)   XCENC  =       171.35166908
  PAW double counting   =      4367.38323686    -4944.80554450
  entropy T*S    EENTRO =        -0.00009623
  eigenvalues    EBANDS =        31.85932892
  atomic energy  EATOM  =      5563.90732063
  ---------------------------------------------------
  free energy    TOTEN  =       -14.88782547 eV

  energy without entropy =      -14.88772924  energy(sigma->0) =      -14.88777736


--------------------------------------------------------------------------------------------------------




----------------------------------------- Iteration    1(   9)  ---------------------------------------


    POTLOK:  VPU time    0.02: CPU time    0.02
    SETDIJ:  VPU time    0.02: CPU time    0.02
    EDDAV :  VPU time    2.05: CPU time    2.05
    DOS   :  VPU time    0.00: CPU time   -0.00
    CHARGE:  VPU time    0.11: CPU time    0.11
    MIXING:  VPU time    0.00: CPU time    0.00
    ------------------------------------------
      LOOP:  VPU time    2.20: CPU time    2.20

 eigenvalue-minimisations  :  8936
 total energy-change (2. order) : 0.8561672E-02  (-0.1283169E-02)
 number of electron   44.0000000 magnetization 
 augmentation part    28.7695473 magnetization 

 Broyden mixing:
  rms(total) = 0.19534E-02    rms(broyden)= 0.19508E-02
  rms(prec ) = 0.24509E-02
  weight for this iteration     100.00

 eigenvalues of (default mixing * dielectric matrix)
  average eigenvalue GAMMA=   1.6050
  0.6773  0.9275  2.6849  2.1303

 Free energy of the ion-electron system (eV)
  ---------------------------------------------------
  alpha Z        PSCENC =       425.11142968
  Ewald energy   TEWEN  =     -4393.63708839
  -1/2 Hartree   DENC   =     -1230.55777504
  -V(xc)+E(xc)   XCENC  =       171.08635798
  PAW double counting   =      4379.96237009    -4958.89551090
  entropy T*S    EENTRO =        -0.00012980
  eigenvalues    EBANDS =        28.14376196
  atomic energy  EATOM  =      5563.90732063
  ---------------------------------------------------
  free energy    TOTEN  =       -14.87926380 eV

  energy without entropy =      -14.87913399  energy(sigma->0) =      -14.87919889


--------------------------------------------------------------------------------------------------------




----------------------------------------- Iteration    1(  10)  ---------------------------------------


    POTLOK:  VPU time    0.01: CPU time    0.01
    SETDIJ:  VPU time    0.02: CPU time    0.02
    EDDAV :  VPU time    1.91: CPU time    1.91
    DOS   :  VPU time    0.00: CPU time   -0.00
    CHARGE:  VPU time    0.11: CPU time    0.11
    MIXING:  VPU time    0.00: CPU time    0.00
    ------------------------------------------
      LOOP:  VPU time    2.05: CPU time    2.06

 eigenvalue-minimisations  :  8184
 total energy-change (2. order) :-0.8255235E-04  (-0.5416346E-04)
 number of electron   44.0000000 magnetization 
 augmentation part    28.7712167 magnetization 

 Broyden mixing:
  rms(total) = 0.12669E-02    rms(broyden)= 0.12668E-02
  rms(prec ) = 0.25155E-02
  weight for this iteration     100.00

 eigenvalues of (default mixing * dielectric matrix)
  average eigenvalue GAMMA=   1.5220
  0.6753  0.9568  0.9568  2.5104  2.5104

 Free energy of the ion-electron system (eV)
  ---------------------------------------------------
  alpha Z        PSCENC =       425.11142968
  Ewald energy   TEWEN  =     -4393.63708839
  -1/2 Hartree   DENC   =     -1230.57737333
  -V(xc)+E(xc)   XCENC  =       171.08716621
  PAW double counting   =      4381.32911528    -4960.18282789
  entropy T*S    EENTRO =        -0.00013064
  eigenvalues    EBANDS =        28.08304210
  atomic energy  EATOM  =      5563.90732063
  ---------------------------------------------------
  free energy    TOTEN  =       -14.87934635 eV

  energy without entropy =      -14.87921570  energy(sigma->0) =      -14.87928103


--------------------------------------------------------------------------------------------------------




----------------------------------------- Iteration    1(  11)  ---------------------------------------


    POTLOK:  VPU time    0.01: CPU time    0.01
    SETDIJ:  VPU time    0.02: CPU time    0.02
    EDDAV :  VPU time    2.07: CPU time    2.07
    DOS   :  VPU time    0.00: CPU time   -0.00
    CHARGE:  VPU time    0.11: CPU time    0.11
    MIXING:  VPU time    0.00: CPU time    0.00
    ------------------------------------------
      LOOP:  VPU time    2.22: CPU time    2.22

 eigenvalue-minimisations  :  9072
 total energy-change (2. order) : 0.2777557E-05  (-0.1974049E-05)
 number of electron   44.0000000 magnetization 
 augmentation part    28.7694848 magnetization 

 Broyden mixing:
  rms(total) = 0.64602E-03    rms(broyden)= 0.64598E-03
  rms(prec ) = 0.15694E-02
  weight for this iteration     100.00

 eigenvalues of (default mixing * dielectric matrix)
  average eigenvalue GAMMA=   1.5111
  2.5583  2.5583  0.6756  0.9810  0.9810  1.3126

 Free energy of the ion-electron system (eV)
  ---------------------------------------------------
  alpha Z        PSCENC =       425.11142968
  Ewald energy   TEWEN  =     -4393.63708839
  -1/2 Hartree   DENC   =     -1230.72957587
  -V(xc)+E(xc)   XCENC  =       171.09422003
  PAW double counting   =      4382.29883501    -4961.07290129
  entropy T*S    EENTRO =        -0.00013007
  eigenvalues    EBANDS =        28.14854670
  atomic energy  EATOM  =      5563.90732063
  ---------------------------------------------------
  free energy    TOTEN  =       -14.87934357 eV

  energy without entropy =      -14.87921350  energy(sigma->0) =      -14.87927853


--------------------------------------------------------------------------------------------------------




----------------------------------------- Iteration    1(  12)  ---------------------------------------


    POTLOK:  VPU time    0.01: CPU time    0.01
    SETDIJ:  VPU time    0.02: CPU time    0.02
    EDDAV :  VPU time    2.02: CPU time    2.02
    DOS   :  VPU time    0.00: CPU time   -0.00
    CHARGE:  VPU time    0.11: CPU time    0.11
    MIXING:  VPU time    0.00: CPU time    0.00
    ------------------------------------------
      LOOP:  VPU time    2.16: CPU time    2.16

 eigenvalue-minimisations  :  8768
 total energy-change (2. order) :-0.4374442E-05  (-0.1003127E-06)
 number of electron   44.0000000 magnetization 
 augmentation part    28.7702622 magnetization 

 Broyden mixing:
  rms(total) = 0.10947E-03    rms(broyden)= 0.10946E-03
  rms(prec ) = 0.27564E-03
  weight for this iteration     100.00

 eigenvalues of (default mixing * dielectric matrix)
  average eigenvalue GAMMA=   1.6022
  2.5799  2.4987  2.4987  0.6756  0.9880  0.9880  0.9865

 Free energy of the ion-electron system (eV)
  ---------------------------------------------------
  alpha Z        PSCENC =       425.11142968
  Ewald energy   TEWEN  =     -4393.63708839
  -1/2 Hartree   DENC   =     -1230.65282996
  -V(xc)+E(xc)   XCENC  =       171.09050839
  PAW double counting   =      4382.66401801    -4961.47342046
  entropy T*S    EENTRO =        -0.00013050
  eigenvalues    EBANDS =        28.11084464
  atomic energy  EATOM  =      5563.90732063
  ---------------------------------------------------
  free energy    TOTEN  =       -14.87934795 eV

  energy without entropy =      -14.87921744  energy(sigma->0) =      -14.87928269


--------------------------------------------------------------------------------------------------------




----------------------------------------- Iteration    1(  13)  ---------------------------------------


    POTLOK:  VPU time    0.01: CPU time    0.01
    SETDIJ:  VPU time    0.02: CPU time    0.02
    EDDAV :  VPU time    1.83: CPU time    1.83
    DOS   :  VPU time    0.00: CPU time   -0.00
    CHARGE:  VPU time    0.11: CPU time    0.11
    MIXING:  VPU time    0.00: CPU time    0.00
    ------------------------------------------
      LOOP:  VPU time    1.97: CPU time    1.98

 eigenvalue-minimisations  :  7640
 total energy-change (2. order) :-0.4287222E-06  (-0.3389214E-08)
 number of electron   44.0000000 magnetization 
 augmentation part    28.7701802 magnetization 

 Broyden mixing:
  rms(total) = 0.52553E-04    rms(broyden)= 0.52552E-04
  rms(prec ) = 0.13266E-03
  weight for this iteration     100.00

 eigenvalues of (default mixing * dielectric matrix)
  average eigenvalue GAMMA=   1.5737
  2.7161  2.5179  2.5179  0.6756  1.1969  0.9792  0.9930  0.9930

 Free energy of the ion-electron system (eV)
  ---------------------------------------------------
  alpha Z        PSCENC =       425.11142968
  Ewald energy   TEWEN  =     -4393.63708839
  -1/2 Hartree   DENC   =     -1230.65686037
  -V(xc)+E(xc)   XCENC  =       171.09067227
  PAW double counting   =      4382.69431430    -4961.50406421
  entropy T*S    EENTRO =        -0.00013046
  eigenvalues    EBANDS =        28.11505816
  atomic energy  EATOM  =      5563.90732063
  ---------------------------------------------------
  free energy    TOTEN  =       -14.87934837 eV

  energy without entropy =      -14.87921792  energy(sigma->0) =      -14.87928315


--------------------------------------------------------------------------------------------------------




----------------------------------------- Iteration    1(  14)  ---------------------------------------


    POTLOK:  VPU time    0.01: CPU time    0.01
    SETDIJ:  VPU time    0.02: CPU time    0.02
    EDDAV :  VPU time    1.37: CPU time    1.37
    DOS   :  VPU time    0.00: CPU time   -0.00
    CHARGE:  VPU time    0.10: CPU time    0.11
    MIXING:  VPU time    0.00: CPU time    0.00
    ------------------------------------------
      LOOP:  VPU time    1.51: CPU time    1.51

 eigenvalue-minimisations  :  4808
 total energy-change (2. order) :-0.1193384E-06  (-0.6018875E-09)
 number of electron   44.0000000 magnetization 
 augmentation part    28.7701212 magnetization 

 Broyden mixing:
  rms(total) = 0.40222E-05    rms(broyden)= 0.40183E-05
  rms(prec ) = 0.92605E-05
  weight for this iteration     100.00

 eigenvalues of (default mixing * dielectric matrix)
  average eigenvalue GAMMA=   1.5538
  2.5213  2.5213  2.4670  1.7626  0.6755  1.0509  1.0509  0.9674  0.9674

 Free energy of the ion-electron system (eV)
  ---------------------------------------------------
  alpha Z        PSCENC =       425.11142968
  Ewald energy   TEWEN  =     -4393.63708839
  -1/2 Hartree   DENC   =     -1230.66133623
  -V(xc)+E(xc)   XCENC  =       171.09086285
  PAW double counting   =      4382.71112968    -4961.51959868
  entropy T*S    EENTRO =        -0.00013043
  eigenvalues    EBANDS =        28.11806239
  atomic energy  EATOM  =      5563.90732063
  ---------------------------------------------------
  free energy    TOTEN  =       -14.87934849 eV

  energy without entropy =      -14.87921807  energy(sigma->0) =      -14.87928328


--------------------------------------------------------------------------------------------------------




----------------------------------------- Iteration    1(  15)  ---------------------------------------


    POTLOK:  VPU time    0.01: CPU time    0.01
    SETDIJ:  VPU time    0.02: CPU time    0.02
    EDDAV :  VPU time    1.33: CPU time    1.33
    DOS   :  VPU time    0.00: CPU time   -0.00
    CHARGE:  VPU time    0.11: CPU time    0.11
    MIXING:  VPU time    0.00: CPU time    0.00
    ------------------------------------------
      LOOP:  VPU time    1.47: CPU time    1.47

 eigenvalue-minimisations  :  4544
 total energy-change (2. order) : 0.3667901E-07  (-0.1326013E-09)
 number of electron   44.0000000 magnetization 
 augmentation part    28.7701188 magnetization 

 Broyden mixing:
  rms(total) = 0.16574E-05    rms(broyden)= 0.16571E-05
  rms(prec ) = 0.35925E-05
  weight for this iteration     100.00

 eigenvalues of (default mixing * dielectric matrix)
  average eigenvalue GAMMA=   1.5250
  2.5237  2.5237  2.5351  2.4615  0.6755  1.0264  1.0264  0.9543  0.9543  0.5687

 Free energy of the ion-electron system (eV)
  ---------------------------------------------------
  alpha Z        PSCENC =       425.11142968
  Ewald energy   TEWEN  =     -4393.63708839
  -1/2 Hartree   DENC   =     -1230.66155451
  -V(xc)+E(xc)   XCENC  =       171.09087458
  PAW double counting   =      4382.70736595    -4961.51576565
  entropy T*S    EENTRO =        -0.00013042
  eigenvalues    EBANDS =        28.11819967
  atomic energy  EATOM  =      5563.90732063
  ---------------------------------------------------
  free energy    TOTEN  =       -14.87934846 eV

  energy without entropy =      -14.87921803  energy(sigma->0) =      -14.87928324


--------------------------------------------------------------------------------------------------------




----------------------------------------- Iteration    1(  16)  ---------------------------------------


    POTLOK:  VPU time    0.01: CPU time    0.01
    SETDIJ:  VPU time    0.02: CPU time    0.02
    EDDAV :  VPU time    1.29: CPU time    1.29
    DOS   :  VPU time    0.00: CPU time   -0.00
    ------------------------------------------
      LOOP:  VPU time    1.32: CPU time    1.33

 eigenvalue-minimisations  :  4352
 total energy-change (2. order) :-0.4189133E-08  (-0.8067857E-11)
 number of electron   44.0000000 magnetization 
 augmentation part    28.7701188 magnetization 

 Free energy of the ion-electron system (eV)
  ---------------------------------------------------
  alpha Z        PSCENC =       425.11142968
  Ewald energy   TEWEN  =     -4393.63708839
  -1/2 Hartree   DENC   =     -1230.66130347
  -V(xc)+E(xc)   XCENC  =       171.09086289
  PAW double counting   =      4382.70714019    -4961.51577913
  entropy T*S    EENTRO =        -0.00013042
  eigenvalues    EBANDS =        28.11819956
  atomic energy  EATOM  =      5563.90732063
  ---------------------------------------------------
  free energy    TOTEN  =       -14.87934846 eV

  energy without entropy =      -14.87921804  energy(sigma->0) =      -14.87928325


--------------------------------------------------------------------------------------------------------




 average (electrostatic) potential at core
  the test charge radii are     1.0053
  (the norm of the test charge is              1.0000)
       1 -40.0419       2 -40.0419       3 -40.0419       4 -40.0419
 
 
 
 E-fermi :   3.6390     XC(G=0): -12.6973     alpha+bet : -9.4615
   add alpha+bet to get absolut eigen values

 k-point   1 :       0.0000    0.0000    0.0000
  band No.  band energies     occupation 
      1      -5.5734      2.00000
      2      -1.1513      2.00000
      3      -1.1513      2.00000
      4      -1.1513      2.00000
      5      -0.7105      2.00000
      6      -0.7105      2.00000
      7      -0.7105      2.00000
      8       0.6427      2.00000
      9       0.6427      2.00000
     10       0.6427      2.00000
     11       1.4482      2.00000
     12       1.4482      2.00000
     13       1.9831      2.00000
     14       1.9831      2.00000
     15       1.9831      2.00000
     16       2.1331      2.00000
     17       2.1331      2.00000
     18       2.1331      2.00000
     19       2.1331      2.00000
     20       2.1331      2.00000
     21       2.1331      2.00000
     22       5.1652      0.00000
     23       5.1652      0.00000
     24       5.1652      0.00000
     25      10.6362      0.00000
     26      10.6362      0.00000
     27      10.6362      0.00000
     28      16.6711      0.00000
     29      16.6711      0.00000
     30      16.6711      0.00000
     31      16.6711      0.00000
     32      16.6711      0.00000

 k-point   2 :       0.0714    0.0000    0.0000
  band No.  band energies     occupation 
      1      -5.5121      2.00000
      2      -1.1518      2.00000
      3      -1.1229      2.00000
      4      -1.1229      2.00000
      5      -0.6944      2.00000
      6      -0.6934      2.00000
      7      -0.6934      2.00000
      8       0.6249      2.00000
      9       0.6571      2.00000
     10       0.6571      2.00000
     11       1.4319      2.00000
     12       1.4547      2.00000
     13       1.9622      2.00000
     14       1.9622      2.00000
     15       1.9763      2.00000
     16       2.0268      2.00000
     17       2.0268      2.00000
     18       2.1084      2.00000
     19       2.1084      2.00000
     20       2.1332      2.00000
     21       2.1332      2.00000
     22       4.7707      0.00000
     23       5.3265      0.00000
     24       5.3265      0.00000
     25      10.6593      0.00000
     26      10.6593      0.00000
     27      11.1532      0.00000
     28      16.2388      0.00000
     29      16.2388      0.00000
     30      16.3954      0.00000
     31      16.3954      0.00000
     32      16.7607      0.00000

 k-point   3 :       0.1429    0.0000    0.0000
  band No.  band energies     occupation 
      1      -5.3291      2.00000
      2      -1.1617      2.00000
      3      -1.0404      2.00000
      4      -1.0404      2.00000
      5      -0.6467      2.00000
      6      -0.6422      2.00000
      7      -0.6422      2.00000
      8       0.5724      2.00000
      9       0.6999      2.00000
     10       0.6999      2.00000
     11       1.3847      2.00000
     12       1.4741      2.00000
     13       1.7606      2.00000
     14       1.7606      2.00000
     15       1.9008      2.00000
     16       1.9008      2.00000
     17       1.9561      2.00000
     18       2.0366      2.00000
     19       2.0366      2.00000
     20       2.1333      2.00000
     21       2.1333      2.00000
     22       3.8856      0.00000
     23       5.7573      0.00000
     24       5.7573      0.00000
     25      10.7302      0.00000
     26      10.7302      0.00000
     27      12.4126      0.00000
     28      15.2780      0.00000
     29      15.2780      0.00000
     30      15.7221      0.00000
     31      15.7221      0.00000
     32      17.0267      0.00000

 k-point   4 :       0.2143    0.0000    0.0000
  band No.  band energies     occupation 
      1      -5.0274      2.00000
      2      -1.2106      2.00000
      3      -0.9131      2.00000
      4      -0.9131      2.00000
      5      -0.5695      2.00000
      6      -0.5560      2.00000
      7      -0.5560      2.00000
      8       0.4882      2.00000
      9       0.7704      2.00000
     10       0.7704      2.00000
     11       1.3107      2.00000
     12       1.4230      2.00000
     13       1.4231      2.00000
     14       1.5054      2.00000
     15       1.8038      2.00000
     16       1.8038      2.00000
     17       1.9237      2.00000
     18       1.9248      2.00000
     19       1.9248      2.00000
     20       2.1334      2.00000
     21       2.1334      2.00000
     22       2.8998      2.00000
     23       6.3685      0.00000
     24       6.3685      0.00000
     25      10.8537      0.00000
     26      10.8537      0.00000
     27      14.0485      0.00000
     28      14.1560      0.00000
     29      14.1560      0.00000
     30      14.8973      0.00000
     31      14.8973      0.00000
     32      17.4610      0.00000

 k-point   5 :       0.2857    0.0000    0.0000
  band No.  band energies     occupation 
      1      -4.6128      2.00000
      2      -1.3577      2.00000
      3      -0.7574      2.00000
      4      -0.7574      2.00000
      5      -0.4663      2.00000
      6      -0.4341      2.00000
      7      -0.4341      2.00000
      8       0.3772      2.00000
      9       0.8671      2.00000
     10       0.8671      2.00000
     11       1.0718      2.00000
     12       1.0718      2.00000
     13       1.2179      2.00000
     14       1.5472      2.00000
     15       1.6816      2.00000
     16       1.6816      2.00000
     17       1.7830      2.00000
     18       1.7830      2.00000
     19       1.8807      2.00000
     20       2.0311      2.00000
     21       2.1336      2.00000
     22       2.1336      2.00000
     23       7.1012      0.00000
     24       7.1012      0.00000
     25      11.0368      0.00000
     26      11.0368      0.00000
     27      13.0107      0.00000
     28      13.0107      0.00000
     29      14.0735      0.00000
     30      14.0735      0.00000
     31      15.8922      0.00000
     32      18.0520      0.00000

 k-point   6 :       0.3571    0.0000    0.0000
  band No.  band energies     occupation 
      1      -4.0955      2.00000
      2      -1.6815      2.00000
      3      -0.5995      2.00000
      4      -0.5995      2.00000
      5      -0.3415      2.00000
      6      -0.2753      2.00000
      7      -0.2753      2.00000
      8       0.2454      2.00000
      9       0.7356      2.00000
     10       0.7356      2.00000
     11       0.9878      2.00000
     12       0.9878      2.00000
     13       1.1194      2.00000
     14       1.4174      2.00000
     15       1.5536      2.00000
     16       1.5536      2.00000
     17       1.5973      2.00000
     18       1.6222      2.00000
     19       1.6222      2.00000
     20       1.8294      2.00000
     21       2.1337      2.00000
     22       2.1337      2.00000
     23       7.9248      0.00000
     24       7.9248      0.00000
     25      11.2880      0.00000
     26      11.2880      0.00000
     27      11.8897      0.00000
     28      11.8897      0.00000
     29      13.3245      0.00000
     30      13.3245      0.00000
     31      17.8669      0.00000
     32      18.7861      0.00000

 k-point   7 :       0.4286    0.0000    0.0000
  band No.  band energies     occupation 
      1      -3.4938      2.00000
      2      -2.2038      2.00000
      3      -0.4762      2.00000
      4      -0.4762      2.00000
      5      -0.2010      2.00000
      6      -0.0788      2.00000
      7      -0.0788      2.00000
      8       0.1000      2.00000
      9       0.4283      2.00000
     10       0.4283      2.00000
     11       1.0372      2.00000
     12       1.1019      2.00000
     13       1.1291      2.00000
     14       1.1291      2.00000
     15       1.4510      2.00000
     16       1.4510      2.00000
     17       1.4535      2.00000
     18       1.4535      2.00000
     19       1.6535      2.00000
     20       1.7725      2.00000
     21       2.1338      2.00000
     22       2.1338      2.00000
     23       8.8235      0.00000
     24       8.8235      0.00000
     25      10.8124      0.00000
     26      10.8124      0.00000
     27      11.6085      0.00000
     28      11.6085      0.00000
     29      12.6917      0.00000
     30      12.6917      0.00000
     31      19.6493      0.00000
     32      19.6493      0.00000

 k-point   8 :       0.5000    0.0000    0.0000
  band No.  band energies     occupation 
      1      -2.8418      2.00000
      2      -2.8418      2.00000
      3      -0.4285      2.00000
      4      -0.4285      2.00000
      5      -0.0514      2.00000
      6      -0.0514      2.00000
      7       0.1560      2.00000
      8       0.1560      2.00000
      9       0.1560      2.00000
     10       0.1560      2.00000
     11       1.0090      2.00000
     12       1.0090      2.00000
     13       1.2865      2.00000
     14       1.2865      2.00000
     15       1.2865      2.00000
     16       1.2865      2.00000
     17       1.4106      2.00000
     18       1.4106      2.00000
     19       1.7128      2.00000
     20       1.7128      2.00000
     21       2.1339      2.00000
     22       2.1339      2.00000
     23       9.7882      0.00000
     24       9.7882      0.00000
     25       9.7882      0.00000
     26       9.7882      0.00000
     27      11.8739      0.00000
     28      11.8739      0.00000
     29      12.3200      0.00000
     30      12.3200      0.00000
     31      20.6282      0.00000
     32      20.6282      0.00000

 k-point   9 :       0.0714    0.0714    0.0000
  band No.  band energies     occupation 
      1      -5.4510      2.00000
      2      -1.1228      2.00000
      3      -1.1228      2.00000
      4      -1.0949      2.00000
      5      -0.6776      2.00000
      6      -0.6776      2.00000
      7      -0.6768      2.00000
      8       0.6148      2.00000
      9       0.6639      2.00000
     10       0.6704      2.00000
     11       1.4274      2.00000
[...]
     24       3.9209      0.00000
     25       8.2227      0.00000
     26       8.2227      0.00000
     27       8.2227      0.00000
     28      11.1550      0.00000
     29      20.2914      0.00000
     30      20.2914      0.00000
     31      20.2914      0.00000
     32      22.2955      0.00000

 k-point 112 :       0.4286    0.3571    0.3571
  band No.  band energies     occupation 
      1      -1.7098      2.00000
      2      -1.2422      2.00000
      3      -1.0611      2.00000
      4      -1.0611      2.00000
      5       0.4143      2.00000
      6       0.4143      2.00000
      7       0.4925      2.00000
      8       0.6594      2.00000
      9       0.6936      2.00000
     10       0.7710      2.00000
     11       0.7978      2.00000
     12       0.7978      2.00000
     13       0.9771      2.00000
     14       1.0262      2.00000
     15       1.0262      2.00000
     16       1.0596      2.00000
     17       1.8934      2.00000
     18       1.9283      2.00000
     19       1.9893      2.00000
     20       1.9893      2.00000
     21       2.0030      2.00000
     22       3.0747      2.00000
     23       4.0635      0.00000
     24       4.0635      0.00000
     25       7.6520      0.00000
     26       7.6520      0.00000
     27       8.7660      0.00000
     28      10.2400      0.00000
     29      20.8135      0.00000
     30      20.8135      0.00000
     31      22.1811      0.00000
     32      22.1969      0.00000

 k-point 113 :       0.5000    0.3571    0.3571
  band No.  band energies     occupation 
      1      -1.4680      2.00000
      2      -1.4680      2.00000
      3      -1.0716      2.00000
      4      -1.0716      2.00000
      5       0.4302      2.00000
      6       0.4302      2.00000
      7       0.5918      2.00000
      8       0.5918      2.00000
      9       0.7179      2.00000
     10       0.7179      2.00000
     11       0.7803      2.00000
     12       0.7803      2.00000
     13       1.0673      2.00000
     14       1.0673      2.00000
     15       1.0922      2.00000
     16       1.0922      2.00000
     17       1.9631      2.00000
     18       1.9631      2.00000
     19       1.9734      2.00000
     20       1.9734      2.00000
     21       2.3800      2.00000
     22       2.3800      2.00000
     23       4.1248      0.00000
     24       4.1248      0.00000
     25       7.4450      0.00000
     26       7.4450      0.00000
     27       9.4424      0.00000
     28       9.4424      0.00000
     29      21.2324      0.00000
     30      21.2324      0.00000
     31      21.7468      0.00000
     32      21.7468      0.00000

 k-point 114 :       0.4286    0.4286    0.3571
  band No.  band energies     occupation 
      1      -1.5488      2.00000
      2      -1.2276      2.00000
      3      -1.2276      2.00000
      4      -1.1389      2.00000
      5       0.4777      2.00000
      6       0.5164      2.00000
      7       0.5164      2.00000
      8       0.6452      2.00000
      9       0.6652      2.00000
     10       0.7255      2.00000
     11       0.7255      2.00000
     12       0.7382      2.00000
     13       1.2043      2.00000
     14       1.2043      2.00000
     15       1.2155      2.00000
     16       1.3549      2.00000
     17       1.8659      2.00000
     18       1.9790      2.00000
     19       1.9845      2.00000
     20       1.9845      2.00000
     21       2.1208      2.00000
     22       3.2822      2.00000
     23       3.2822      2.00000
     24       3.8692      0.00000
     25       7.4071      0.00000
     26       8.0424      0.00000
     27       8.0424      0.00000
     28       9.3643      0.00000
     29      21.3695      0.00000
     30      22.5166      0.00000
     31      22.5166      0.00000
     32      23.0479      0.00000

 k-point 115 :       0.5000    0.4286    0.3571
  band No.  band energies     occupation 
      1      -1.3891      2.00000
      2      -1.3891      2.00000
      3      -1.1942      2.00000
      4      -1.1942      2.00000
      5       0.5128      2.00000
      6       0.5128      2.00000
      7       0.5945      2.00000
      8       0.5945      2.00000
      9       0.6800      2.00000
     10       0.6800      2.00000
     11       0.7128      2.00000
     12       0.7128      2.00000
     13       1.2980      2.00000
     14       1.2980      2.00000
     15       1.3539      2.00000
     16       1.3539      2.00000
     17       1.9369      2.00000
     18       1.9369      2.00000
     19       1.9642      2.00000
     20       1.9642      2.00000
     21       2.5863      2.00000
     22       2.5863      2.00000
     23       3.5727      2.00000
     24       3.5727      2.00000
     25       7.5635      0.00000
     26       7.5635      0.00000
     27       8.6266      0.00000
     28       8.6266      0.00000
     29      21.9871      0.00000
     30      21.9871      0.00000
     31      23.3463      0.00000
     32      23.3473      0.00000

 k-point 116 :       0.5000    0.5000    0.3571
  band No.  band energies     occupation 
      1      -1.2992      2.00000
      2      -1.2992      2.00000
      3      -1.2992      2.00000
      4      -1.2992      2.00000
      5       0.5707      2.00000
      6       0.5707      2.00000
      7       0.5707      2.00000
      8       0.5707      2.00000
      9       0.6761      2.00000
     10       0.6761      2.00000
     11       0.6761      2.00000
     12       0.6761      2.00000
     13       1.4293      2.00000
     14       1.4293      2.00000
     15       1.4293      2.00000
     16       1.4293      2.00000
     17       1.9287      2.00000
     18       1.9287      2.00000
     19       1.9287      2.00000
     20       1.9287      2.00000
     21       3.0092      2.00000
     22       3.0092      2.00000
     23       3.0092      2.00000
     24       3.0092      2.00000
     25       7.9864      0.00000
     26       7.9864      0.00000
     27       7.9864      0.00000
     28       7.9864      0.00000
     29      22.6458      0.00000
     30      22.6458      0.00000
     31      22.6458      0.00000
     32      22.6458      0.00000

 k-point 117 :       0.4286    0.4286    0.4286
  band No.  band energies     occupation 
      1      -1.4680      2.00000
      2      -1.2660      2.00000
      3      -1.2660      2.00000
      4      -1.2660      2.00000
      5       0.5540      2.00000
      6       0.5540      2.00000
      7       0.5540      2.00000
      8       0.6378      2.00000
      9       0.6378      2.00000
     10       0.6753      2.00000
     11       0.6753      2.00000
     12       0.6753      2.00000
     13       1.4716      2.00000
     14       1.4716      2.00000
     15       1.4716      2.00000
     16       1.9118      2.00000
     17       1.9427      2.00000
     18       1.9427      2.00000
     19       2.0006      2.00000
     20       2.0006      2.00000
     21       2.0006      2.00000
     22       3.2481      2.00000
     23       3.2481      2.00000
     24       3.2481      2.00000
     25       7.5195      0.00000
     26       7.5195      0.00000
     27       7.5195      0.00000
     28       8.5575      0.00000
     29      23.2525      0.00000
     30      23.2525      0.00000
     31      23.2525      0.00000
     32      24.2724      0.00000

 k-point 118 :       0.5000    0.4286    0.4286
  band No.  band energies     occupation 
      1      -1.3750      2.00000
      2      -1.3750      2.00000
      3      -1.2792      2.00000
      4      -1.2792      2.00000
      5       0.5686      2.00000
      6       0.5686      2.00000
      7       0.6080      2.00000
      8       0.6080      2.00000
      9       0.6412      2.00000
     10       0.6412      2.00000
     11       0.6567      2.00000
     12       0.6567      2.00000
     13       1.5905      2.00000
     14       1.5905      2.00000
     15       1.7153      2.00000
     16       1.7153      2.00000
     17       1.9884      2.00000
     18       1.9884      2.00000
     19       1.9908      2.00000
     20       1.9908      2.00000
     21       2.5672      2.00000
     22       2.5672      2.00000
     23       3.2316      2.00000
     24       3.2316      2.00000
     25       7.3363      0.00000
     26       7.3363      0.00000
     27       7.9294      0.00000
     28       7.9294      0.00000
     29      23.6218      0.00000
     30      23.6218      0.00000
     31      24.1638      0.00000
     32      24.1638      0.00000

 k-point 119 :       0.5000    0.5000    0.4286
  band No.  band energies     occupation 
      1      -1.3394      2.00000
      2      -1.3394      2.00000
      3      -1.3394      2.00000
      4      -1.3394      2.00000
      5       0.6031      2.00000
      6       0.6031      2.00000
      7       0.6031      2.00000
      8       0.6031      2.00000
      9       0.6301      2.00000
     10       0.6301      2.00000
     11       0.6301      2.00000
     12       0.6301      2.00000
     13       1.8022      2.00000
     14       1.8022      2.00000
     15       1.8022      2.00000
     16       1.8022      2.00000
     17       1.9796      2.00000
     18       1.9796      2.00000
     19       1.9796      2.00000
     20       1.9796      2.00000
     21       2.8221      2.00000
     22       2.8221      2.00000
     23       2.8221      2.00000
     24       2.8221      2.00000
     25       7.4790      0.00000
     26       7.4790      0.00000
     27       7.4790      0.00000
     28       7.4790      0.00000
     29      24.3337      0.00000
     30      24.3337      0.00000
     31      24.3337      0.00000
     32      24.3337      0.00000

 k-point 120 :       0.5000    0.5000    0.5000
  band No.  band energies     occupation 
      1      -1.3531      2.00000
      2      -1.3531      2.00000
      3      -1.3531      2.00000
      4      -1.3531      2.00000
      5       0.6145      2.00000
      6       0.6145      2.00000
      7       0.6145      2.00000
      8       0.6145      2.00000
      9       0.6145      2.00000
     10       0.6145      2.00000
     11       0.6145      2.00000
     12       0.6145      2.00000
     13       1.9970      2.00000
     14       1.9970      2.00000
     15       1.9970      2.00000
     16       1.9970      2.00000
     17       1.9970      2.00000
     18       1.9970      2.00000
     19       1.9970      2.00000
     20       1.9970      2.00000
     21       2.6960      2.00000
     22       2.6960      2.00000
     23       2.6960      2.00000
     24       2.6960      2.00000
     25       7.3029      0.00000
     26       7.3029      0.00000
     27       7.3029      0.00000
     28       7.3029      0.00000
     29      24.9608      0.00000
     30      24.9608      0.00000
     31      24.9608      0.00000
     32      24.9608      0.00000


--------------------------------------------------------------------------------------------------------


 soft charge-density along one line, spin component           1
         0         1         2         3         4         5         6         7         8         9
 total charge-density along one line
 
 pseudopotential strength for first ion, spin component:           1
 -6.509   0.000  -0.000   0.000   0.000  -0.225  -0.000   0.000
  0.000  -6.509  -0.000   0.000  -0.000  -0.000  -0.225   0.000
 -0.000  -0.000  -6.491  -0.000   0.000   0.000   0.000  -0.233
  0.000   0.000  -0.000  -6.509   0.000  -0.000  -0.000   0.000
  0.000  -0.000   0.000   0.000  -6.491  -0.000   0.000  -0.000
 -0.225  -0.000   0.000  -0.000  -0.000   1.669   0.000  -0.000
 -0.000  -0.225   0.000  -0.000   0.000   0.000   1.669  -0.000
  0.000   0.000  -0.233   0.000  -0.000  -0.000  -0.000   1.672
 -0.000  -0.000   0.000  -0.225  -0.000   0.000   0.000  -0.000
 -0.000   0.000  -0.000  -0.000  -0.233   0.000  -0.000   0.000
 -0.000  -0.000  -0.000  -0.000   0.000  -0.000  -0.000  -0.000
  0.000   0.000   0.000   0.000  -0.000  -0.000  -0.000  -0.000
  0.000   0.000  -0.000  -0.000  -0.000  -0.000  -0.000   0.000
 -0.000   0.000   0.000   0.000   0.000  -0.000  -0.000  -0.000
  0.000  -0.000  -0.000   0.000   0.000  -0.000  -0.000   0.000
 -0.000  -0.000   0.000   0.000   0.000   0.000   0.000  -0.000
  0.000  -0.000  -0.000  -0.000  -0.000  -0.000   0.000   0.000
 -0.000   0.000   0.000  -0.000  -0.000   0.000  -0.000  -0.000
 total augmentation occupancy for first ion, spin component:           1
  1.863  -0.009  -0.014  -0.005  -0.010   0.015   0.007  -0.001   0.001   0.011   0.036  -0.004   0.000   0.000  -0.000   0.000
 -0.009   1.933  -0.001  -0.007  -0.005   0.007  -0.050   0.002   0.009  -0.002   0.048   0.007  -0.000   0.000  -0.000  -0.000
 -0.014  -0.001   1.900   0.004  -0.014  -0.001   0.002  -0.020  -0.003   0.030  -0.007  -0.054  -0.000   0.000  -0.000  -0.000
 -0.005  -0.007   0.004   1.922   0.002   0.001   0.009  -0.003  -0.018   0.004   0.025   0.001   0.000   0.000  -0.000   0.000
 -0.010  -0.005  -0.014   0.002   1.930   0.011  -0.002   0.030   0.004  -0.096   0.058   0.037   0.000  -0.000  -0.000   0.000
  0.015   0.007  -0.001   0.001   0.011   0.096  -0.003   0.019  -0.000  -0.008   0.019   0.017   0.000  -0.000  -0.000   0.000
  0.007  -0.050   0.002   0.009  -0.002  -0.003   0.076  -0.004  -0.006   0.010  -0.016   0.011   0.000  -0.000   0.000  -0.000
 -0.001   0.002  -0.020  -0.003   0.030   0.019  -0.004   0.081   0.000  -0.003   0.116  -0.015   0.000   0.000  -0.000   0.000
  0.001   0.009  -0.003  -0.018   0.004  -0.000  -0.006   0.000   0.060  -0.010   0.001   0.009   0.000   0.000  -0.000   0.000
  0.011  -0.002   0.030   0.004  -0.096  -0.008   0.010  -0.003  -0.010   0.064  -0.083   0.017  -0.000  -0.000  -0.000  -0.000
  0.036   0.048  -0.007   0.025   0.058   0.019  -0.016   0.116   0.001  -0.083   1.200  -0.352   0.000  -0.000   0.000   0.000
 -0.004   0.007  -0.054   0.001   0.037   0.017   0.011  -0.015   0.009   0.017  -0.352   0.149   0.000   0.000  -0.000   0.000
  0.000  -0.000  -0.000   0.000   0.000   0.000   0.000   0.000   0.000  -0.000   0.000   0.000   0.174   0.017  -0.015  -0.012
  0.000   0.000   0.000   0.000  -0.000  -0.000  -0.000   0.000   0.000  -0.000  -0.000   0.000   0.017   0.124  -0.002  -0.002
 -0.000  -0.000  -0.000  -0.000  -0.000  -0.000   0.000  -0.000  -0.000  -0.000   0.000  -0.000  -0.015  -0.002   0.265  -0.001
  0.000  -0.000  -0.000   0.000   0.000   0.000  -0.000   0.000   0.000  -0.000   0.000   0.000  -0.012  -0.002  -0.001   0.001
  0.000   0.000   0.000   0.000   0.000  -0.000  -0.000  -0.000   0.000   0.000  -0.000   0.000  -0.002  -0.008  -0.001   0.000
 -0.000  -0.000  -0.000   0.000  -0.000   0.000  -0.000   0.000   0.000  -0.000   0.000  -0.000  -0.001  -0.001  -0.019   0.000


------------------------ aborting loop because EDIFF is reached ----------------------------------------




--------------------------------------------------------------------------------------------------------


    CHARGE:  VPU time    0.11: CPU time    0.11
    FORLOC:  VPU time    0.00: CPU time    0.00
    FORNL :  VPU time    0.30: CPU time    0.30
    STRESS:  VPU time    0.77: CPU time    0.77
    FORCOR:  VPU time    0.01: CPU time    0.01
    FORHAR:  VPU time    0.00: CPU time    0.00
    MIXING:  VPU time    0.00: CPU time    0.00


--------------------------------------------------------------------------------------------------------



  FREE ENERGIE OF THE ION-ELECTRON SYSTEM (eV)
  ---------------------------------------------------
  free  energy   TOTEN  =       -14.879348 eV

  energy  without entropy=      -14.879218  energy(sigma->0) =      -14.879283
 

  FORCE on cell =-STRESS in cart. coord.  units (eV/reduce length):
  Direction    X        Y        Z        XY       YZ       ZX
  --------------------------------------------------------------------------------------
  Alpha Z    425.11    425.11    425.11
  Ewald    -1464.55  -1464.55  -1464.55     -0.00      0.00      0.00
  Hartree    410.22    410.22    410.22     -0.00     -0.00     -0.00
  E(xc)     -250.55   -250.55   -250.55      0.00      0.00      0.00
  Local      485.85    485.85    485.85     -0.00      0.00      0.00
  n-local   -142.13   -148.04   -149.25      0.36      1.80      0.65
  augment    226.15    226.15    226.15     -0.00     -0.00     -0.00
  Kinetic    321.97    313.29    307.44     -3.03     -0.07     -1.31
  -------------------------------------------------------------------------------------
  Total       -0.00     -0.00     -0.00      0.00     -0.00      0.00
  in kB       -0.01     -0.01     -0.01      0.00     -0.00      0.00
  external pressure =       -0.01 kB  Pullay stress =        0.00 kB


 VOLUME and BASIS-vectors are now :
 -----------------------------------------------------------------------------
  energy-cutoff  :      500.00
  volume of cell :       48.09
      direct lattice vectors                 reciprocal lattice vectors
     3.636415812  0.000000000  0.000000000     0.274996054  0.000000000  0.000000000
     0.000000000  3.636415812  0.000000000     0.000000000  0.274996054  0.000000000
     0.000000000  0.000000000  3.636415812     0.000000000  0.000000000  0.274996054

  length of vectors
     3.636415812  3.636415812  3.636415812     0.274996054  0.274996054  0.274996054


 FORCES acting on ions
    electron-ion (+dipol)            ewald-force                    non-local-force                 convergence-correction
 -----------------------------------------------------------------------------------------------
   -.521E-13 -.401E-13 -.514E-13   0.668E-14 -.121E-13 -.134E-13   0.194E-25 -.295E-26 -.259E-25   -.110E-13 -.210E-13 -.488E-14
   0.482E-12 0.356E-11 0.223E-11   0.702E-14 0.112E-13 -.133E-13   0.654E-26 0.407E-26 0.171E-25   -.136E-13 -.184E-14 -.891E-15
   0.481E-12 -.419E-13 0.750E-11   0.546E-14 -.985E-14 0.135E-13   0.384E-26 0.112E-25 0.276E-26   -.348E-13 0.628E-14 -.804E-13
   -.529E-13 0.495E-12 0.481E-12   -.165E-13 0.134E-13 0.136E-13   -.103E-25 0.165E-25 0.253E-25   -.331E-13 0.112E-13 -.903E-13
 -----------------------------------------------------------------------------------------------
   0.858E-12 0.398E-11 0.102E-10   0.271E-14 0.267E-14 0.364E-15   0.194E-25 0.288E-25 0.192E-25   -.925E-13 -.533E-14 -.177E-12
 
 
 POSITION                                       TOTAL-FORCE (eV/Angst)
 -----------------------------------------------------------------------------------
      0.00000      0.00000      0.00000        -0.000000      0.000000      0.000000
      1.81821      1.81821      0.00000        -0.000000     -0.000000      0.000000
      1.81821      0.00000      1.81821        -0.000000     -0.000000     -0.000000
      0.00000      1.81821      1.81821         0.000000     -0.000000      0.000000
 -----------------------------------------------------------------------------------
    total drift:                                0.000000      0.000000      0.000000


--------------------------------------------------------------------------------------------------------



 mean value of Nose-termostat <S>:     1.000 mean value of <T> :     0.000
 mean temperature <T/S>/<1/S>  :     0.000

     LOOP+:  VPU time   32.35: CPU time   32.39
  
  
 General timing and accounting informations for this job:
 ========================================================
  
                  Total CPU time used (sec):       33.510
                            User time (sec):       22.421
                          System time (sec):       11.089
                         Elapsed time (sec):       33.567
  
                   Maximum memory used (kb):      430968.
                   Average memory used (kb):           0.
  
                          Minor page faults:        54652
                          Major page faults:            0
                 Voluntary context switches:          931
