   4   4   0   0
  0.2353470E+02  0.4549073E-09  0.4549073E-09  0.4549073E-09  0.5000000E-15
  1.000000000000000E-004
  CAR 
 unknown system                          
     17.63681070     -5.70438531  301      2.28429468      1.00000000
     -5.704  0.0000E+00  0.0000E+00
     -5.627  0.0000E+00  0.0000E+00
     -5.549  0.0000E+00  0.0000E+00
     -5.471  0.0000E+00  0.0000E+00
     -5.393  0.0000E+00  0.0000E+00
     -5.315  0.0000E+00  0.0000E+00
     -5.238  0.0000E+00  0.0000E+00
     -5.160  0.0000E+00  0.0000E+00
     -5.082  0.0000E+00  0.0000E+00
     -5.004  0.0000E+00  0.0000E+00
     -4.926  0.0000E+00  0.0000E+00
     -4.849  0.0000E+00  0.0000E+00
     -4.771  0.0000E+00  0.0000E+00
     -4.693  0.6979E-15  0.5430E-16
     -4.615  0.1933E-01  0.1504E-02
     -4.537  0.1209E+00  0.1096E-01
     -4.460  0.1888E+00  0.2577E-01
     -4.382  0.2205E+00  0.4344E-01
     -4.304  0.2633E+00  0.6454E-01
     -4.226  0.3041E+00  0.8911E-01
     -4.148  0.3407E+00  0.1168E+00
     -4.071  0.3502E+00  0.1455E+00
     -3.993  0.3892E+00  0.1771E+00
     -3.915  0.4421E+00  0.2125E+00
     -3.837  0.4573E+00  0.2487E+00
     -3.759  0.5325E+00  0.2906E+00
     -3.681  0.5410E+00  0.3332E+00
     -3.604  0.5712E+00  0.3787E+00
     -3.526  0.5854E+00  0.4257E+00
     -3.448  0.6774E+00  0.4790E+00
     -3.370  0.6863E+00  0.5328E+00
     -3.292  0.6999E+00  0.5891E+00
     -3.215  0.8022E+00  0.6519E+00
     -3.137  0.8848E+00  0.7221E+00
     -3.059  0.8388E+00  0.7886E+00
     -2.981  0.1073E+01  0.8740E+00
     -2.903  0.1076E+01  0.9593E+00
     -2.826  0.1203E+01  0.1055E+01
     -2.748  0.1464E+01  0.1171E+01
     -2.670  0.1931E+01  0.1325E+01
     -2.592  0.3203E+01  0.1579E+01
     -2.514  0.3582E+01  0.1862E+01
     -2.437  0.3779E+01  0.2161E+01
     -2.359  0.4474E+01  0.2515E+01
     -2.281  0.6131E+01  0.3002E+01
     -2.203  0.8217E+01  0.3653E+01
     -2.125  0.1037E+02  0.4479E+01
     -2.048  0.1195E+02  0.5432E+01
     -1.970  0.1153E+02  0.6349E+01
     -1.892  0.1084E+02  0.7213E+01
     -1.814  0.1004E+02  0.8012E+01
     -1.736  0.9716E+01  0.8787E+01
     -1.659  0.9114E+01  0.9513E+01
     -1.581  0.7589E+01  0.1012E+02
     -1.503  0.8021E+01  0.1075E+02
     -1.425  0.1117E+02  0.1164E+02
     -1.347  0.1331E+02  0.1270E+02
     -1.270  0.1514E+02  0.1391E+02
     -1.192  0.1384E+02  0.1501E+02
     -1.114  0.1330E+02  0.1607E+02
     -1.036  0.1432E+02  0.1721E+02
     -0.958  0.1636E+02  0.1851E+02
     -0.881  0.2172E+02  0.2023E+02
     -0.803  0.2109E+02  0.2192E+02
     -0.725  0.1516E+02  0.2313E+02
     -0.647  0.1155E+02  0.2406E+02
     -0.569  0.1125E+02  0.2495E+02
     -0.492  0.1179E+02  0.2589E+02
     -0.414  0.1304E+02  0.2693E+02
     -0.336  0.1444E+02  0.2808E+02
     -0.258  0.1438E+02  0.2923E+02
     -0.180  0.1632E+02  0.3053E+02
     -0.102  0.1338E+02  0.3160E+02
     -0.025  0.1264E+02  0.3260E+02
      0.053  0.1164E+02  0.3354E+02
      0.131  0.1212E+02  0.3450E+02
      0.209  0.1202E+02  0.3547E+02
      0.287  0.1338E+02  0.3653E+02
      0.364  0.1639E+02  0.3783E+02
      0.442  0.2183E+02  0.3957E+02
      0.520  0.1633E+02  0.4088E+02
      0.598  0.8882E+01  0.4160E+02
      0.676  0.2981E+01  0.4184E+02
      0.753  0.1588E+01  0.4197E+02
      0.831  0.1498E+01  0.4208E+02
      0.909  0.1207E+01  0.4218E+02
      0.987  0.1313E+01  0.4229E+02
      1.065  0.1560E+01  0.4241E+02
      1.142  0.9784E+00  0.4249E+02
      1.220  0.1618E+01  0.4262E+02
      1.298  0.9800E+00  0.4270E+02
      1.376  0.1546E+01  0.4282E+02
      1.454  0.1111E+01  0.4291E+02
      1.531  0.1412E+01  0.4302E+02
      1.609  0.1177E+01  0.4311E+02
      1.687  0.1373E+01  0.4322E+02
      1.765  0.1167E+01  0.4332E+02
      1.843  0.1356E+01  0.4343E+02
      1.920  0.1214E+01  0.4352E+02
      1.998  0.1381E+01  0.4363E+02
      2.076  0.1195E+01  0.4373E+02
      2.154  0.1261E+01  0.4383E+02
      2.232  0.1325E+01  0.4394E+02
      2.309  0.1269E+01  0.4404E+02
      2.387  0.1327E+01  0.4415E+02
      2.465  0.1308E+01  0.4425E+02
      2.543  0.1296E+01  0.4436E+02
      2.621  0.1303E+01  0.4446E+02
      2.698  0.1420E+01  0.4457E+02
      2.776  0.1452E+01  0.4469E+02
      2.854  0.1364E+01  0.4480E+02
      2.932  0.1325E+01  0.4490E+02
      3.010  0.1337E+01  0.4501E+02
      3.087  0.1346E+01  0.4511E+02
      3.165  0.1543E+01  0.4524E+02
      3.243  0.1253E+01  0.4534E+02
      3.321  0.1404E+01  0.4545E+02
      3.399  0.1338E+01  0.4556E+02
      3.476  0.1285E+01  0.4566E+02
      3.554  0.1422E+01  0.4577E+02
      3.632  0.1334E+01  0.4588E+02
      3.710  0.1398E+01  0.4599E+02
      3.788  0.1325E+01  0.4610E+02
      3.866  0.1445E+01  0.4621E+02
      3.943  0.1433E+01  0.4632E+02
      4.021  0.1837E+01  0.4647E+02
      4.099  0.2002E+01  0.4663E+02
      4.177  0.2018E+01  0.4679E+02
      4.255  0.1813E+01  0.4693E+02
      4.332  0.1837E+01  0.4708E+02
      4.410  0.1650E+01  0.4721E+02
      4.488  0.1711E+01  0.4734E+02
      4.566  0.1644E+01  0.4747E+02
      4.644  0.1572E+01  0.4760E+02
      4.721  0.1261E+01  0.4770E+02
      4.799  0.1672E+01  0.4783E+02
      4.877  0.1340E+01  0.4794E+02
      4.955  0.1428E+01  0.4805E+02
      5.033  0.1245E+01  0.4815E+02
      5.110  0.1382E+01  0.4826E+02
      5.188  0.1203E+01  0.4836E+02
      5.266  0.1220E+01  0.4846E+02
      5.344  0.1162E+01  0.4855E+02
      5.422  0.1102E+01  0.4864E+02
      5.499  0.1087E+01  0.4872E+02
      5.577  0.8690E+00  0.4879E+02
      5.655  0.9235E+00  0.4887E+02
      5.733  0.9841E+00  0.4894E+02
      5.811  0.8749E+00  0.4902E+02
      5.888  0.1142E+01  0.4911E+02
      5.966  0.1520E+01  0.4923E+02
      6.044  0.1578E+01  0.4936E+02
      6.122  0.1029E+01  0.4944E+02
      6.200  0.1230E+01  0.4954E+02
      6.277  0.1788E+01  0.4968E+02
      6.355  0.2149E+01  0.4985E+02
      6.433  0.1592E+01  0.4998E+02
      6.511  0.1568E+01  0.5011E+02
      6.589  0.1557E+01  0.5023E+02
      6.666  0.1598E+01  0.5036E+02
      6.744  0.2203E+01  0.5053E+02
      6.822  0.1705E+01  0.5066E+02
      6.900  0.1626E+01  0.5079E+02
      6.978  0.1403E+01  0.5091E+02
      7.055  0.1696E+01  0.5104E+02
      7.133  0.1588E+01  0.5117E+02
      7.211  0.2081E+01  0.5133E+02
      7.289  0.1509E+01  0.5145E+02
      7.367  0.1100E+01  0.5154E+02
      7.444  0.1588E+01  0.5167E+02
      7.522  0.1470E+01  0.5179E+02
      7.600  0.1373E+01  0.5190E+02
      7.678  0.1472E+01  0.5201E+02
      7.756  0.1347E+01  0.5212E+02
      7.834  0.1135E+01  0.5221E+02
      7.911  0.1351E+01  0.5232E+02
      7.989  0.1414E+01  0.5244E+02
      8.067  0.1380E+01  0.5255E+02
      8.145  0.1494E+01  0.5266E+02
      8.223  0.1759E+01  0.5281E+02
      8.300  0.1508E+01  0.5293E+02
      8.378  0.1459E+01  0.5304E+02
      8.456  0.1232E+01  0.5314E+02
      8.534  0.1793E+01  0.5328E+02
      8.612  0.1566E+01  0.5341E+02
      8.689  0.1573E+01  0.5353E+02
      8.767  0.1586E+01  0.5366E+02
      8.845  0.1213E+01  0.5376E+02
      8.923  0.2148E+01  0.5393E+02
      9.001  0.1370E+01  0.5404E+02
      9.078  0.1506E+01  0.5416E+02
      9.156  0.1523E+01  0.5428E+02
      9.234  0.1299E+01  0.5439E+02
      9.312  0.2234E+01  0.5456E+02
      9.390  0.1508E+01  0.5468E+02
      9.467  0.1369E+01  0.5479E+02
      9.545  0.1533E+01  0.5491E+02
      9.623  0.1675E+01  0.5505E+02
      9.701  0.1705E+01  0.5518E+02
      9.779  0.1557E+01  0.5531E+02
      9.856  0.1859E+01  0.5546E+02
      9.934  0.1233E+01  0.5555E+02
     10.012  0.1580E+01  0.5568E+02
     10.090  0.1697E+01  0.5582E+02
     10.168  0.1999E+01  0.5597E+02
     10.245  0.1701E+01  0.5611E+02
     10.323  0.1663E+01  0.5624E+02
     10.401  0.1683E+01  0.5638E+02
     10.479  0.2076E+01  0.5654E+02
     10.557  0.1812E+01  0.5669E+02
     10.634  0.2050E+01  0.5685E+02
     10.712  0.1802E+01  0.5699E+02
     10.790  0.2090E+01  0.5716E+02
     10.868  0.1835E+01  0.5731E+02
     10.946  0.2075E+01  0.5747E+02
     11.023  0.2384E+01  0.5766E+02
     11.101  0.1987E+01  0.5782E+02
     11.179  0.1934E+01  0.5797E+02
     11.257  0.2484E+01  0.5817E+02
     11.335  0.1970E+01  0.5833E+02
     11.412  0.2441E+01  0.5852E+02
     11.490  0.2574E+01  0.5873E+02
     11.568  0.2262E+01  0.5891E+02
     11.646  0.2147E+01  0.5908E+02
     11.724  0.2246E+01  0.5926E+02
     11.802  0.2159E+01  0.5943E+02
     11.879  0.2473E+01  0.5963E+02
     11.957  0.2255E+01  0.5981E+02
     12.035  0.1825E+01  0.5995E+02
     12.113  0.2255E+01  0.6013E+02
     12.191  0.1989E+01  0.6029E+02
     12.268  0.2210E+01  0.6046E+02
     12.346  0.2326E+01  0.6064E+02
     12.424  0.1943E+01  0.6080E+02
     12.502  0.1667E+01  0.6093E+02
     12.580  0.2430E+01  0.6112E+02
     12.657  0.1869E+01  0.6127E+02
     12.735  0.1984E+01  0.6143E+02
     12.813  0.1786E+01  0.6157E+02
     12.891  0.1869E+01  0.6172E+02
     12.969  0.1635E+01  0.6185E+02
     13.046  0.1489E+01  0.6197E+02
     13.124  0.1455E+01  0.6209E+02
     13.202  0.1212E+01  0.6218E+02
     13.280  0.1484E+01  0.6230E+02
     13.358  0.9269E+00  0.6238E+02
     13.435  0.1082E+01  0.6246E+02
     13.513  0.1298E+01  0.6256E+02
     13.591  0.8836E+00  0.6263E+02
     13.669  0.1063E+01  0.6272E+02
     13.747  0.1025E+01  0.6280E+02
     13.824  0.6626E+00  0.6286E+02
     13.902  0.1074E+01  0.6294E+02
     13.980  0.7341E+00  0.6300E+02
     14.058  0.5871E+00  0.6305E+02
     14.136  0.9384E+00  0.6312E+02
     14.213  0.6159E+00  0.6317E+02
     14.291  0.4560E+00  0.6321E+02
     14.369  0.8300E+00  0.6327E+02
     14.447  0.5281E+00  0.6332E+02
     14.525  0.4845E+00  0.6335E+02
     14.602  0.6952E+00  0.6341E+02
     14.680  0.4469E+00  0.6345E+02
     14.758  0.3666E+00  0.6348E+02
     14.836  0.5119E+00  0.6352E+02
     14.914  0.4138E+00  0.6355E+02
     14.991  0.4568E+00  0.6359E+02
     15.069  0.3470E+00  0.6362E+02
     15.147  0.3913E+00  0.6365E+02
     15.225  0.4248E+00  0.6368E+02
     15.303  0.3068E+00  0.6370E+02
     15.380  0.2291E+00  0.6372E+02
     15.458  0.4600E+00  0.6376E+02
     15.536  0.2330E+00  0.6378E+02
     15.614  0.2989E+00  0.6380E+02
     15.692  0.2501E+00  0.6382E+02
     15.770  0.1889E+00  0.6384E+02
     15.847  0.3218E+00  0.6386E+02
     15.925  0.1353E+00  0.6388E+02
     16.003  0.2524E+00  0.6390E+02
     16.081  0.1753E+00  0.6391E+02
     16.159  0.1896E+00  0.6392E+02
     16.236  0.1471E+00  0.6394E+02
     16.314  0.1896E+00  0.6395E+02
     16.392  0.1247E+00  0.6396E+02
     16.470  0.2199E+00  0.6398E+02
     16.548  0.2326E+00  0.6400E+02
     16.625  0.1393E-01  0.6400E+02
     16.703  0.0000E+00  0.6400E+02
     16.781  0.0000E+00  0.6400E+02
     16.859  0.0000E+00  0.6400E+02
     16.937  0.0000E+00  0.6400E+02
     17.014  0.0000E+00  0.6400E+02
     17.092  0.0000E+00  0.6400E+02
     17.170  0.0000E+00  0.6400E+02
     17.248  0.0000E+00  0.6400E+02
     17.326  0.0000E+00  0.6400E+02
     17.403  0.0000E+00  0.6400E+02
     17.481  0.0000E+00  0.6400E+02
     17.559  0.0000E+00  0.6400E+02
     17.637  0.0000E+00  0.6400E+02
