    4    4    1    1
  0.2353470E+02  0.4549073E-09  0.4549073E-09  0.4549073E-09  0.5000000E-15
  1.000000000000000E-004
  CAR 
 unknown system                          
   44 1330   32
 
  0.0000000E+00  0.0000000E+00  0.0000000E+00  0.2143347E-04
   1       -4.6434
   2       -2.4142
   3       -2.4142
   4       -2.4142
   5       -2.2518
   6       -2.2518
   7       -2.2518
   8       -1.0761
   9       -1.0761
  10       -1.0761
  11       -0.2293
  12       -0.2293
  13        0.4157
  14        0.4157
  15        0.4157
  16        0.6235
  17        0.6235
  18        0.6235
  19        0.6235
  20        0.6235
  21        0.6235
  22        4.1089
  23        4.1089
  24        4.1089
  25        5.9177
  26        5.9177
  27        5.9177
  28       11.3858
  29       11.3858
  30       11.3858
  31       11.3858
  32       11.3858
 
  0.2777778E-01  0.0000000E+00  0.0000000E+00  0.1286008E-03
   1       -4.6366
   2       -2.4123
   3       -2.4103
   4       -2.4103
   5       -2.2498
   6       -2.2487
   7       -2.2487
   8       -1.0786
   9       -1.0737
  10       -1.0737
  11       -0.2319
  12       -0.2281
  13        0.4122
  14        0.4122
  15        0.4144
  16        0.6100
  17        0.6100
  18        0.6190
  19        0.6190
  20        0.6235
  21        0.6235
  22        3.9970
  23        4.1280
  24        4.1280
  25        5.9146
  26        5.9146
  27        6.0419
  28       11.3673
  29       11.3673
  30       11.3676
  31       11.3676
  32       11.3980
 
  0.5555556E-01  0.0000000E+00  0.0000000E+00  0.1286008E-03
   1       -4.6162
   2       -2.4068
   3       -2.3986
   4       -2.3986
   5       -2.2438
   6       -2.2394
   7       -2.2394
   8       -1.0861
   9       -1.0664
  10       -1.0664
  11       -0.2397
  12       -0.2247
  13        0.4015
  14        0.4015
  15        0.4105
  16        0.5706
  17        0.5706
  18        0.6056
  19        0.6056
  20        0.6235
  21        0.6235
  22        3.7235
  23        4.1844
  24        4.1844
  25        5.9052
  26        5.9052
  27        6.3520
  28       11.3123
  29       11.3123
  30       11.3150
  31       11.3150
  32       11.4344
 
  0.8333333E-01  0.0000000E+00  0.0000000E+00  0.1286008E-03
   1       -4.5823
   2       -2.3977
   3       -2.3793
   4       -2.3793
   5       -2.2338
   6       -2.2240
   7       -2.2240
   8       -1.0986
   9       -1.0542
  10       -1.0542
  11       -0.2525
  12       -0.2189
  13        0.3837
  14        0.3837
  15        0.4041
  16        0.5077
  17        0.5077
  18        0.5836
  19        0.5836
  20        0.6235
  21        0.6235
  22        3.3770
  23        4.2754
  24        4.2754
  25        5.8898
  26        5.8898
  27        6.7597
  28       11.2227
  29       11.2227
  30       11.2334
  31       11.2334
  32       11.4949
 
  0.1111111E+00  0.0000000E+00  0.0000000E+00  0.1286008E-03
   1       -4.5349
   2       -2.3855
   3       -2.3526
   4       -2.3526
   5       -2.2199
   6       -2.2024
   7       -2.2024
   8       -1.1158
   9       -1.0373
  10       -1.0373
  11       -0.2702
  12       -0.2109
  13        0.3591
  14        0.3591
  15        0.3952
  16        0.4249
  17        0.4249
  18        0.5533
  19        0.5533
  20        0.6236
  21        0.6236
  22        3.0038
  23        4.3975
  24        4.3975
  25        5.8689
  26        5.8689
  27        7.2189
  28       11.1011
  29       11.1011
  30       11.1302
  31       11.1302
  32       11.5788
 
  0.1388889E+00  0.0000000E+00  0.0000000E+00  0.1286008E-03
   1       -4.4743
   2       -2.3707
   3       -2.3188
   4       -2.3188
   5       -2.2022
   6       -2.1747
   7       -2.1747
   8       -1.1377
   9       -1.0156
  10       -1.0156
  11       -0.2925
  12       -0.2006
  13        0.3260
  14        0.3260
  15        0.3278
  16        0.3278
  17        0.3838
  18        0.5152
  19        0.5152
  20        0.6236
  21        0.6236
  22        2.6244
  23        4.5468
  24        4.5468
  25        5.8431
  26        5.8431
  27        7.7094
  28       10.9508
  29       10.9508
  30       11.0131
  31       11.0131
  32       11.6857
 
  0.1666667E+00  0.0000000E+00  0.0000000E+00  0.1286008E-03
   1       -4.4005
   2       -2.3540
   3       -2.2784
   4       -2.2784
   5       -2.1808
   6       -2.1408
   7       -2.1408
   8       -1.1640
   9       -0.9892
  10       -0.9892
  11       -0.3190
  12       -0.1883
  13        0.2149
  14        0.2149
  15        0.2902
  16        0.2902
  17        0.3702
  18        0.4700
  19        0.4700
  20        0.6237
  21        0.6237
  22        2.2485
  23        4.7192
  24        4.7192
  25        5.8131
  26        5.8131
  27        8.2219
  28       10.7753
  29       10.7753
  30       10.8891
  31       10.8891
  32       11.8147
 
  0.1944444E+00  0.0000000E+00  0.0000000E+00  0.1286008E-03
   1       -4.3140
   2       -2.3365
   3       -2.2320
   4       -2.2320
   5       -2.1557
   6       -2.1008
   7       -2.1008
   8       -1.1943
   9       -0.9581
  10       -0.9581
  11       -0.3492
  12       -0.1738
  13        0.0950
  14        0.0950
  15        0.2466
  16        0.2466
  17        0.3543
  18        0.4184
  19        0.4184
  20        0.6238
  21        0.6238
  22        1.8818
  23        4.9113
  24        4.9113
  25        5.7799
  26        5.7799
  27        8.7515
  28       10.5780
  29       10.5780
  30       10.7639
  31       10.7639
  32       11.9651
 
  0.2222222E+00  0.0000000E+00  0.0000000E+00  0.1286008E-03
   1       -4.2150
   2       -2.3194
   3       -2.1804
   4       -2.1804
   5       -2.1272
   6       -2.0547
   7       -2.0547
   8       -1.2285
   9       -0.9225
  10       -0.9225
  11       -0.3826
  12       -0.1574
  13       -0.0310
  14       -0.0310
  15        0.1978
  16        0.1978
  17        0.3364
  18        0.3611
  19        0.3611
  20        0.6238
  21        0.6238
  22        1.5279
  23        5.1200
  24        5.1200
  25        5.7445
  26        5.7445
  27        9.2953
  28       10.3622
  29       10.3622
  30       10.6420
  31       10.6420
  32       12.1358
 
  0.2500000E+00  0.0000000E+00  0.0000000E+00  0.1286008E-03
   1       -4.1041
   2       -2.3045
   3       -2.1244
   4       -2.1244
   5       -2.0953
   6       -2.0025
   7       -2.0025
   8       -1.2662
   9       -0.8825
  10       -0.8825
  11       -0.4183
  12       -0.1605
  13       -0.1605
  14       -0.1392
  15        0.1444
  16        0.1444
  17        0.2989
  18        0.2989
  19        0.3166
  20        0.6239
  21        0.6239
  22        1.1900
  23        5.3427
  24        5.3427
  25        5.7080
  26        5.7080
  27        9.8513
  28       10.1310
  29       10.1310
  30       10.5268
  31       10.5268
  32       12.3258
 
  0.2777778E+00  0.0000000E+00  0.0000000E+00  0.1286008E-03
   1       -3.9818
   2       -2.2939
   3       -2.0652
   4       -2.0652
   5       -2.0603
   6       -1.9443
   7       -1.9443
   8       -1.3070
   9       -0.8382
  10       -0.8382
  11       -0.4555
  12       -0.2917
  13       -0.2917
  14       -0.1192
  15        0.0876
  16        0.0876
  17        0.2327
  18        0.2327
  19        0.2951
  20        0.6240
  21        0.6240
  22        0.8709
  23        5.5773
  24        5.5773
  25        5.6715
  26        5.6715
  27        9.8869
  28        9.8869
  29       10.4183
  30       10.4206
  31       10.4206
  32       12.5341
 
  0.3055556E+00  0.0000000E+00  0.0000000E+00  0.1286008E-03
   1       -3.8489
   2       -2.2906
   3       -2.0224
   4       -2.0042
   5       -2.0042
   6       -1.8801
   7       -1.8801
   8       -1.3505
   9       -0.7898
  10       -0.7898
  11       -0.4932
  12       -0.4231
  13       -0.4231
  14       -0.0976
  15        0.0287
  16        0.0287
  17        0.1632
  18        0.1632
  19        0.2720
  20        0.5740
  21        0.6240
  22        0.6240
  23        5.6362
  24        5.6362
  25        5.8219
  26        5.8219
  27        9.6325
  28        9.6325
  29       10.3250
  30       10.3250
  31       10.9950
  32       12.7595
 
  0.3333333E+00  0.0000000E+00  0.0000000E+00  0.1286008E-03
   1       -3.7064
   2       -2.2982
   3       -1.9819
   4       -1.9432
   5       -1.9432
   6       -1.8099
   7       -1.8099
   8       -1.3963
   9       -0.7374
  10       -0.7374
  11       -0.5533
  12       -0.5533
  13       -0.5297
  14       -0.0746
  15       -0.0306
  16       -0.0306
  17        0.0912
  18        0.0912
  19        0.2476
  20        0.3030
  21        0.6241
  22        0.6241
  23        5.6030
  24        5.6030
  25        6.0750
  26        6.0750
  27        9.3697
  28        9.3697
  29       10.2412
  30       10.2412
  31       11.5801
  32       13.0009
 
  0.3611111E+00  0.0000000E+00  0.0000000E+00  0.1286008E-03
   1       -3.5558
   2       -2.3208
   3       -1.9388
   4       -1.8842
   5       -1.8842
   6       -1.7339
   7       -1.7339
   8       -1.4441
   9       -0.6816
  10       -0.6816
  11       -0.6813
  12       -0.6813
  13       -0.5636
  14       -0.0883
  15       -0.0883
  16       -0.0503
  17        0.0175
  18        0.0175
  19        0.0621
  20        0.2220
  21        0.6242
  22        0.6242
  23        5.5732
  24        5.5732
  25        6.3353
  26        6.3353
  27        9.1003
  28        9.1003
  29       10.1698
  30       10.1698
  31       12.1722
  32       13.2571
 
  0.3888889E+00  0.0000000E+00  0.0000000E+00  0.1286008E-03
   1       -3.3988
   2       -2.3630
   3       -1.8936
   4       -1.8297
   5       -1.8297
   6       -1.6520
   7       -1.6520
   8       -1.4934
   9       -0.8069
  10       -0.8069
  11       -0.6216
  12       -0.6216
  13       -0.5924
  14       -0.1442
  15       -0.1417
  16       -0.1417
  17       -0.0572
  18       -0.0572
  19       -0.0249
  20        0.1954
  21        0.6242
  22        0.6242
  23        5.5474
  24        5.5474
  25        6.6016
  26        6.6016
  27        8.8261
  28        8.8261
  29       10.1112
  30       10.1112
  31       12.7695
  32       13.5270
 
  0.4166667E+00  0.0000000E+00  0.0000000E+00  0.1286008E-03
   1       -3.2379
   2       -2.4285
   3       -1.8466
   4       -1.7826
   5       -1.7826
   6       -1.5645
   7       -1.5645
   8       -1.5438
   9       -0.9289
  10       -0.9289
  11       -0.6134
  12       -0.5587
  13       -0.5587
  14       -0.3125
  15       -0.1881
  16       -0.1881
  17       -0.1322
  18       -0.1322
  19        0.0015
  20        0.1682
  21        0.6242
  22        0.6242
  23        5.5266
  24        5.5266
  25        6.8728
  26        6.8728
  27        8.5483
  28        8.5483
  29       10.0655
  30       10.0655
  31       13.3691
  32       13.8094
 
  0.4444444E+00  0.0000000E+00  0.0000000E+00  0.1286008E-03
   1       -3.0762
   2       -2.5192
   3       -1.7980
   4       -1.7459
   5       -1.7459
   6       -1.5948
   7       -1.4714
   8       -1.4714
   9       -1.0468
  10       -1.0468
  11       -0.6229
  12       -0.4928
  13       -0.4928
  14       -0.4411
  15       -0.2243
  16       -0.2243
  17       -0.2070
  18       -0.2070
  19        0.0286
  20        0.1404
  21        0.6243
  22        0.6243
  23        5.5113
  24        5.5113
  25        7.1480
  26        7.1480
  27        8.2683
  28        8.2683
  29       10.0329
  30       10.0329
  31       13.9674
  32       14.1029
 
  0.4722222E+00  0.0000000E+00  0.0000000E+00  0.1286008E-03
   1       -2.9181
   2       -2.6339
   3       -1.7481
   4       -1.7225
   5       -1.7225
   6       -1.6462
   7       -1.3728
   8       -1.3728
   9       -1.1603
  10       -1.1603
  11       -0.6162
  12       -0.5314
  13       -0.4243
  14       -0.4243
  15       -0.2809
  16       -0.2809
  17       -0.2474
  18       -0.2474
  19        0.0562
  20        0.1124
  21        0.6243
  22        0.6243
  23        5.5019
  24        5.5019
  25        7.4261
  26        7.4261
  27        7.9872
  28        7.9872
  29       10.0133
  30       10.0133
  31       14.4064
  32       14.4106
 
  0.5000000E+00  0.0000000E+00  0.0000000E+00  0.6430041E-04
   1       -2.7687
   2       -2.7687
   3       -1.7144
   4       -1.7144
   5       -1.6974
   6       -1.6974
   7       -1.2691
   8       -1.2691
   9       -1.2691
  10       -1.2691
  11       -0.5878
  12       -0.5878
  13       -0.3535
  14       -0.3535
  15       -0.3535
  16       -0.3535
  17       -0.2554
  18       -0.2554
  19        0.0842
  20        0.0842
  21        0.6243
  22        0.6243
  23        5.4988
  24        5.4988
  25        7.7061
  26        7.7061
  27        7.7061
  28        7.7061
  29       10.0068
  30       10.0068
  31       14.7185
  32       14.7185
 
  0.2777778E-01  0.2777778E-01  0.0000000E+00  0.2572016E-03
   1       -4.6298
   2       -2.4084
   3       -2.4084
   4       -2.4065
   5       -2.2467
   6       -2.2467
   7       -2.2455
   8       -1.0796
   9       -1.0728
  10       -1.0713
  11       -0.2326
  12       -0.2288
  13        0.4086
  14        0.4107
  15        0.4107
  16        0.5998
  17        0.6056
  18        0.6056
  19        0.6190
  20        0.6190
  21        0.6204
  22        4.0153
  23        4.0153
  24        4.1470
  25        5.9113
  26        6.0395
  27        6.0395
  28       11.2910
  29       11.3794
  30       11.3794
  31       11.3798
  32       11.3798
 
  0.5555556E-01  0.2777778E-01  0.0000000E+00  0.5144033E-03
   1       -4.6094
   2       -2.4028
   3       -2.3967
   4       -2.3950
   5       -2.2407
   6       -2.2374
   7       -2.2361
   8       -1.0863
   9       -1.0662
  10       -1.0640
  11       -0.2396
  12       -0.2261
  13        0.3980
  14        0.3996
  15        0.4064
  16        0.5623
  17        0.5665
  18        0.5924
  19        0.6056
  20        0.6189
  21        0.6190
  22        3.7408
  23        4.0693
  24        4.2030
  25        5.9018
  26        6.0323
  27        6.3505
  28       11.1837
  29       11.3244
  30       11.3272
  31       11.4134
  32       11.4159
 
  0.8333333E-01  0.2777778E-01  0.0000000E+00  0.5144033E-03
   1       -4.5755
   2       -2.3937
   3       -2.3774
   4       -2.3761
   5       -2.2307
   6       -2.2220
   7       -2.2204
   8       -1.0986
   9       -1.0543
  10       -1.0520
  11       -0.2523
  12       -0.2203
  13        0.3803
  14        0.3806
  15        0.3992
  16        0.5004
  17        0.5046
  18        0.5708
  19        0.5836
  20        0.6185
  21        0.6190
  22        3.3939
  23        4.1561
  24        4.2935
  25        5.8862
  26        6.0210
  27        6.7585
  28       11.0512
  29       11.2346
  30       11.2458
  31       11.3814
  32       11.4764
 
  0.1111111E+00  0.2777778E-01  0.0000000E+00  0.5144033E-03
   1       -4.5282
   2       -2.3815
   3       -2.3506
   4       -2.3499
   5       -2.2169
   6       -2.2005
   7       -2.1984
   8       -1.1157
   9       -1.0374
  10       -1.0352
  11       -0.2699
  12       -0.2122
  13        0.3521
  14        0.3559
  15        0.3891
  16        0.4183
  17        0.4254
  18        0.5412
  19        0.5532
  20        0.6184
  21        0.6191
  22        3.0210
  23        4.2715
  24        4.4150
  25        5.8649
  26        6.0063
  27        7.2173
  28       10.8989
  29       11.1129
  30       11.1429
  31       11.3164
  32       11.5598
 
  0.1388889E+00  0.2777778E-01  0.0000000E+00  0.5144033E-03
   1       -4.4676
   2       -2.3667
   3       -2.3168
   4       -2.3168
   5       -2.1992
   6       -2.1728
   7       -2.1702
   8       -1.1375
   9       -1.0157
  10       -1.0137
  11       -0.2920
  12       -0.2019
  13        0.2991
  14        0.3202
  15        0.3247
  16        0.3481
  17        0.3756
  18        0.5044
  19        0.5152
  20        0.6184
  21        0.6191
  22        2.6423
  23        4.4108
  24        4.5635
  25        5.8386
  26        5.9898
  27        7.7069
  28       10.7315
  29       10.9624
  30       11.0262
  31       11.2237
  32       11.6677
 
  0.1666667E+00  0.2777778E-01  0.0000000E+00  0.5144033E-03
   1       -4.3940
   2       -2.3500
   3       -2.2773
   4       -2.2764
   5       -2.1778
   6       -2.1390
   7       -2.1356
   8       -1.1636
   9       -0.9893
  10       -0.9876
  11       -0.3184
  12       -0.1893
  13        0.2001
  14        0.2099
  15        0.2873
  16        0.2983
  17        0.3582
  18        0.4618
  19        0.4699
  20        0.6184
  21        0.6191
  22        2.2677
  23        4.5686
  24        4.7353
  25        5.8081
  26        5.9735
  27        8.2179
  28       10.5524
  29       10.7867
  30       10.9029
  31       11.1098
  32       11.7959
 
  0.1944444E+00  0.2777778E-01  0.0000000E+00  0.5144033E-03
   1       -4.3075
   2       -2.3324
   3       -2.2318
   4       -2.2299
   5       -2.1528
   6       -2.0990
   7       -2.0949
   8       -1.1939
   9       -0.9583
  10       -0.9569
  11       -0.3483
  12       -0.1747
  13        0.0827
  14        0.0906
  15        0.2439
  16        0.2521
  17        0.3348
  18        0.4160
  19        0.4183
  20        0.6185
  21        0.6192
  22        1.9028
  23        4.7388
  24        4.9267
  25        5.7742
  26        5.9608
  27        8.7455
  28       10.3632
  29       10.5892
  30       10.7785
  31       10.9821
  32       11.9456
 
  0.2222222E+00  0.2777778E-01  0.0000000E+00  0.5144033E-03
   1       -4.2087
   2       -2.3152
   3       -2.1813
   4       -2.1782
   5       -2.1244
   6       -2.0530
   7       -2.0480
   8       -1.2280
   9       -0.9227
  10       -0.9218
  11       -0.3814
  12       -0.1581
  13       -0.0421
  14       -0.0346
  15        0.1953
  16        0.2023
  17        0.3005
  18        0.3610
  19        0.3727
  20        0.6186
  21        0.6192
  22        1.5516
  23        4.9139
  24        5.1348
  25        5.7379
  26        5.9573
  27        9.2866
  28       10.1645
  29       10.3733
  30       10.6578
  31       10.8480
  32       12.1155
 
  0.2500000E+00  0.2777778E-01  0.0000000E+00  0.5144033E-03
   1       -4.0979
   2       -2.3002
   3       -2.1263
   4       -2.1221
   5       -2.0926
   6       -2.0009
   7       -1.9951
   8       -1.2656
   9       -0.8827
  10       -0.8825
  11       -0.4166
  12       -0.1710
  13       -0.1635
  14       -0.1395
  15        0.1422
  16        0.1485
  17        0.2502
  18        0.2988
  19        0.3374
  20        0.6187
  21        0.6193
  22        1.2175
  23        5.0833
  24        5.3569
  25        5.7003
  26        5.9720
  27        9.8392
  28        9.9559
  29       10.1419
  30       10.5441
  31       10.7143
  32       12.3069
 
  0.2777778E+00  0.2777778E-01  0.0000000E+00  0.5144033E-03
   1       -3.9757
   2       -2.2895
   3       -2.0679
   4       -2.0628
   5       -2.0577
   6       -1.9427
   7       -1.9365
   8       -1.3062
   9       -0.8392
  10       -0.8384
  11       -0.4531
  12       -0.3016
  13       -0.2942
  14       -0.1193
  15        0.0857
  16        0.0915
  17        0.1859
  18        0.2326
  19        0.3081
  20        0.6188
  21        0.6193
  22        0.9045
  23        5.2313
  24        5.5909
  25        5.6625
  26        6.0196
  27        9.7367
  28        9.8978
  29       10.4013
  30       10.4397
  31       10.5869
  32       12.5125
 
  0.3055556E+00  0.2777778E-01  0.0000000E+00  0.5144033E-03
   1       -3.8430
   2       -2.2861
   3       -2.0199
   4       -2.0075
   5       -2.0018
   6       -1.8786
   7       -1.8722
   8       -1.3496
   9       -0.7923
  10       -0.7900
  11       -0.4894
  12       -0.4324
  13       -0.4251
  14       -0.0974
  15        0.0271
  16        0.0324
  17        0.1108
  18        0.1631
  19        0.2802
  20        0.6182
  21        0.6189
  22        0.6194
  23        5.3408
  24        5.6256
  25        5.8351
  26        6.1165
  27        9.5070
  28        9.6433
  29       10.3463
  30       10.4700
  31       10.9712
  32       12.7377
 
  0.3333333E+00  0.2777778E-01  0.0000000E+00  0.5144033E-03
   1       -3.7007
   2       -2.2936
   3       -1.9794
   4       -1.9464
   5       -1.9406
   6       -1.8086
   7       -1.8025
   8       -1.3953
   9       -0.7428
  10       -0.7376
  11       -0.5621
  12       -0.5549
  13       -0.5234
  14       -0.0740
  15       -0.0320
  16       -0.0271
  17        0.0229
  18        0.0911
  19        0.2494
  20        0.3698
  21        0.6190
  22        0.6194
  23        5.4060
  24        5.5907
  25        6.0878
  26        6.2679
  27        9.2673
  28        9.3805
  29       10.2651
  30       10.3663
  31       11.5460
  32       12.9773
 
  0.3611111E+00  0.2777778E-01  0.0000000E+00  0.5144033E-03
   1       -3.5502
   2       -2.3161
   3       -1.9365
   4       -1.8868
   5       -1.8814
   6       -1.7327
   7       -1.7276
   8       -1.4430
   9       -0.6934
  10       -0.6897
  11       -0.6827
  12       -0.6815
  13       -0.5508
  14       -0.0893
  15       -0.0866
  16       -0.0850
  17       -0.0493
  18        0.0174
  19        0.1518
  20        0.2370
  21        0.6190
  22        0.6194
  23        5.4375
  24        5.5586
  25        6.3477
  26        6.4630
  27        9.0189
  28        9.1111
  29       10.1967
  30       10.2773
  31       12.1216
  32       13.2326
 
  0.3888889E+00  0.2777778E-01  0.0000000E+00  0.5144033E-03
   1       -3.3934
   2       -2.3583
   3       -1.8914
   4       -1.8312
   5       -1.8268
   6       -1.6510
   7       -1.6474
   8       -1.4921
   9       -0.8143
  10       -0.8078
  11       -0.6544
  12       -0.6218
  13       -0.5594
  14       -0.2217
  15       -0.1424
  16       -0.1387
  17       -0.0573
  18       -0.0235
  19        0.0127
  20        0.2039
  21        0.6191
  22        0.6194
  23        5.4500
  24        5.5303
  25        6.6137
  26        6.6869
  27        8.7634
  28        8.8368
  29       10.1415
  30       10.2034
  31       12.6897
  32       13.5014
 
  0.4166667E+00  0.2777778E-01  0.0000000E+00  0.5144033E-03
   1       -3.2326
   2       -2.4238
   3       -1.8444
   4       -1.7829
   5       -1.7797
   6       -1.5636
   7       -1.5619
   8       -1.5424
   9       -0.9354
  10       -0.9294
  11       -0.6436
  12       -0.5589
  13       -0.5286
  14       -0.3587
  15       -0.1884
  16       -0.1854
  17       -0.1324
  18       -0.0914
  19        0.0033
  20        0.1746
  21        0.6192
  22        0.6194
  23        5.4538
  24        5.5063
  25        6.8846
  26        6.9286
  27        8.5025
  28        8.5591
  29       10.1000
  30       10.1448
  31       13.2326
  32       13.7818
 
  0.4444444E+00  0.2777778E-01  0.0000000E+00  0.5144033E-03
   1       -3.0712
   2       -2.5144
   3       -1.7959
   4       -1.7450
   5       -1.7430
   6       -1.5933
   7       -1.4708
   8       -1.4707
   9       -1.0523
  10       -1.0470
  11       -0.6443
  12       -0.4930
  13       -0.4729
  14       -0.4719
  15       -0.2241
  16       -0.2221
  17       -0.2072
  18       -0.1790
  19        0.0309
  20        0.1456
  21        0.6193
  22        0.6194
  23        5.4552
  24        5.4870
  25        7.1595
  26        7.1815
  27        8.2381
  28        8.2792
  29       10.0721
  30       10.1013
  31       13.7186
  32       14.0735
 
  0.4722222E+00  0.2777778E-01  0.0000000E+00  0.5144033E-03
   1       -2.9132
   2       -2.6291
   3       -1.7462
   4       -1.7207
   5       -1.7197
   6       -1.6445
   7       -1.3741
   8       -1.3723
   9       -1.1646
  10       -1.1602
  11       -0.6358
  12       -0.5559
  13       -0.4244
  14       -0.4058
  15       -0.2811
  16       -0.2592
  17       -0.2468
  18       -0.2457
  19        0.0591
  20        0.1167
  21        0.6193
  22        0.6194
  23        5.4576
  24        5.4726
  25        7.4374
  26        7.4415
  27        7.9719
  28        7.9982
  29       10.0581
  30       10.0725
  31       14.1292
  32       14.3748
 
  0.5000000E+00  0.2777778E-01  0.0000000E+00  0.2572016E-03
   1       -2.7639
   2       -2.7639
   3       -1.7120
   4       -1.7120
   5       -1.6956
   6       -1.6956
   7       -1.2720
   8       -1.2720
   9       -1.2688
  10       -1.2688
  11       -0.6086
  12       -0.6086
  13       -0.3537
  14       -0.3537
  15       -0.3346
  16       -0.3346
  17       -0.2542
  18       -0.2542
  19        0.0878
  20        0.0878
  21        0.6194
  22        0.6194
  23        5.4630
  24        5.4630
  25        7.7057
  26        7.7057
  27        7.7173
  28        7.7173
  29       10.0582
  30       10.0582
  31       14.4886
  32       14.4890
 
  0.5555556E-01  0.5555556E-01  0.0000000E+00  0.2572016E-03
   1       -4.5891
   2       -2.3911
   3       -2.3911
   4       -2.3842
   5       -2.2315
   6       -2.2315
   7       -2.2262
   8       -1.0899
   9       -1.0628
  10       -1.0570
  11       -0.2424
  12       -0.2272
  13        0.3875
  14        0.3938
  15        0.3938
  16        0.5319
  17        0.5542
  18        0.5542
  19        0.6056
  20        0.6056
  21        0.6113
  22        3.7916
  23        3.7916
  24        4.2579
  25        5.8918
  26        6.3463
  27        6.3463
  28       11.0297
  29       11.3605
  30       11.3605
  31       11.3639
  32       11.3639
 
  0.8333333E-01  0.5555556E-01  0.0000000E+00  0.5144033E-03
   1       -4.5553
   2       -2.3819
   3       -2.3717
   4       -2.3664
   5       -2.2216
   6       -2.2161
   7       -2.2096
   8       -1.1001
   9       -1.0528
  10       -1.0453
  11       -0.2529
  12       -0.2233
  13        0.3702
  14        0.3711
  15        0.3838
  16        0.4754
  17        0.4953
  18        0.5344
  19        0.5835
  20        0.6056
  21        0.6070
  22        3.4435
  23        3.8727
  24        4.3469
  25        5.8754
  26        6.3399
  27        6.7551
  28       10.8577
  29       11.2704
  30       11.2829
  31       11.4203
  32       11.4248
 
  0.1111111E+00  0.5555556E-01  0.0000000E+00  0.5144033E-03
   1       -4.5081
   2       -2.3696
   3       -2.3448
   4       -2.3417
   5       -2.2079
   6       -2.1947
   7       -2.1865
   8       -1.1162
   9       -1.0368
  10       -1.0290
  11       -0.2695
  12       -0.2155
  13        0.3326
  14        0.3461
  15        0.3691
  16        0.3971
  17        0.4254
  18        0.5079
  19        0.5532
  20        0.6050
  21        0.6056
  22        3.0711
  23        3.9796
  24        4.4666
  25        5.8531
  26        6.3326
  27        7.2126
  28       10.6733
  29       11.1482
  30       11.1808
  31       11.4952
  32       11.5041
 
  0.1388889E+00  0.5555556E-01  0.0000000E+00  0.5144033E-03
   1       -4.4477
   2       -2.3546
   3       -2.3109
   4       -2.3106
   5       -2.1903
   6       -2.1671
   7       -2.1568
   8       -1.1374
   9       -1.0155
  10       -1.0081
  11       -0.2911
  12       -0.2050
  13        0.2644
  14        0.3020
  15        0.3155
  16        0.3483
  17        0.3628
  18        0.4763
  19        0.5151
  20        0.6041
  21        0.6056
  22        2.6944
  23        4.1069
  24        4.6132
  25        5.8254
  26        6.3258
  27        7.6992
  28       10.4810
  29       10.9972
  30       11.0656
  31       11.4469
  32       11.6095
 
  0.1666667E+00  0.5555556E-01  0.0000000E+00  0.5144033E-03
   1       -4.3743
   2       -2.3378
   3       -2.2734
   4       -2.2703
   5       -2.1690
   6       -2.1334
   7       -2.1205
   8       -1.1631
   9       -0.9894
  10       -0.9828
  11       -0.3168
  12       -0.1921
  13        0.1656
  14        0.1942
  15        0.2786
  16        0.3126
  17        0.3195
  18        0.4421
  19        0.4698
  20        0.6036
  21        0.6056
  22        2.3231
  23        4.2492
  24        4.7829
  25        5.7930
  26        6.3219
  27        8.2059
  28       10.2840
  29       10.8209
  30       10.9443
  31       11.3706
  32       11.7373
 
  0.1944444E+00  0.5555556E-01  0.0000000E+00  0.5144033E-03
   1       -4.2882
   2       -2.3200
   3       -2.2306
   4       -2.2237
   5       -2.1442
   6       -2.0937
   7       -2.0779
   8       -1.1929
   9       -0.9585
  10       -0.9533
  11       -0.3461
  12       -0.1769
  13        0.0505
  14        0.0773
  15        0.2359
  16        0.2643
  17        0.2803
  18        0.4081
  19        0.4181
  20        0.6034
  21        0.6056
  22        1.9629
  23        4.4006
  24        4.9724
  25        5.7568
  26        6.3239
  27        8.7275
  28       10.0844
  29       10.6229
  30       10.8227
  31       11.2706
  32       11.8870
 
  0.2222222E+00  0.5555556E-01  0.0000000E+00  0.5144033E-03
   1       -4.1896
   2       -2.3026
   3       -2.1827
   4       -2.1717
   5       -2.1159
   6       -2.0478
   7       -2.0292
   8       -1.2266
   9       -0.9230
  10       -0.9196
  11       -0.3782
  12       -0.1596
  13       -0.0729
  14       -0.0459
  15        0.1881
  16        0.2133
  17        0.2293
  18        0.3608
  19        0.3758
  20        0.6034
  21        0.6056
  22        1.6181
  23        4.5551
  24        5.1786
  25        5.7178
  26        6.3357
  27        9.2607
  28        9.8832
  29       10.4065
  30       10.7056
  31       11.1538
  32       12.0545
 
  0.2500000E+00  0.5555556E-01  0.0000000E+00  0.5144033E-03
   1       -4.0792
   2       -2.2873
   3       -2.1303
   4       -2.1154
   5       -2.0844
   6       -1.9960
   7       -1.9748
   8       -1.2638
   9       -0.8831
  10       -0.8822
  11       -0.4121