       N       E                     dE             d eps       ncg     rms          rms(c)
DAV:   1     0.557969144878E+03    0.55797E+03   -0.30057E+04 85120   0.221E+03
DAV:   2     0.914696601633E+01   -0.54882E+03   -0.50197E+03 85136   0.467E+02
DAV:   3    -0.121364294858E+02   -0.21283E+02   -0.20716E+02100448   0.106E+02
DAV:   4    -0.123724663738E+02   -0.23604E+00   -0.23581E+00 92112   0.102E+01
DAV:   5    -0.123743415218E+02   -0.18751E-02   -0.18749E-02101600   0.853E-01    0.476E+00
DAV:   6    -0.116396207962E+02    0.73472E+00   -0.20797E+00 95256   0.125E+01    0.113E+00
DAV:   7    -0.116258193897E+02    0.13801E-01   -0.67521E-02 93344   0.161E+00    0.626E-01
DAV:   8    -0.116237558483E+02    0.20635E-02   -0.62318E-03 93920   0.707E-01    0.458E-02
DAV:   9    -0.116238728334E+02   -0.11699E-03   -0.20812E-04 99824   0.990E-02    0.255E-02
DAV:  10    -0.116238817708E+02   -0.89373E-05   -0.24066E-05 94584   0.302E-02    0.261E-03
DAV:  11    -0.116238827131E+02   -0.94238E-06   -0.10277E-06 98760   0.734E-03    0.133E-03
DAV:  12    -0.116238822427E+02    0.47050E-06   -0.11587E-07 95472   0.309E-03    0.127E-04
DAV:  13    -0.116238822417E+02    0.95633E-09   -0.78887E-10 62936   0.239E-04
   1 F= -.11623882E+02 E0= -.11623846E+02  d E =-.721098E-04
