   4   4   0   0
  0.1648304E+02  0.4039855E-09  0.4039855E-09  0.4039855E-09  0.5000000E-15
  1.000000000000000E-004
  CAR 
 unknown system                          
     20.66256599     -4.26388063  301      8.01831197      1.00000000
     -4.264  0.0000E+00  0.0000E+00
     -4.181  0.0000E+00  0.0000E+00
     -4.098  0.0000E+00  0.0000E+00
     -4.015  0.0000E+00  0.0000E+00
     -3.932  0.0000E+00  0.0000E+00
     -3.848  0.0000E+00  0.0000E+00
     -3.765  0.0000E+00  0.0000E+00
     -3.682  0.0000E+00  0.0000E+00
     -3.599  0.0000E+00  0.0000E+00
     -3.516  0.0000E+00  0.0000E+00
     -3.433  0.0000E+00  0.0000E+00
     -3.350  0.0000E+00  0.0000E+00
     -3.267  0.0000E+00  0.0000E+00
     -3.184  0.1953E-16  0.1623E-17
     -3.101  0.1909E-01  0.1586E-02
     -3.018  0.1162E+00  0.1137E-01
     -2.934  0.1851E+00  0.2689E-01
     -2.851  0.2132E+00  0.4487E-01
     -2.768  0.2578E+00  0.6690E-01
     -2.685  0.2721E+00  0.9060E-01
     -2.602  0.3377E+00  0.1190E+00
     -2.519  0.3150E+00  0.1467E+00
     -2.436  0.3549E+00  0.1771E+00
     -2.353  0.4020E+00  0.2118E+00
     -2.270  0.3986E+00  0.2454E+00
     -2.187  0.4482E+00  0.2838E+00
     -2.104  0.4294E+00  0.3202E+00
     -2.021  0.4523E+00  0.3596E+00
     -1.937  0.5062E+00  0.4021E+00
     -1.854  0.4883E+00  0.4456E+00
     -1.771  0.5110E+00  0.4888E+00
     -1.688  0.5366E+00  0.5365E+00
     -1.605  0.5235E+00  0.5814E+00
     -1.522  0.5826E+00  0.6323E+00
     -1.439  0.5529E+00  0.6796E+00
     -1.356  0.5877E+00  0.7311E+00
     -1.273  0.6256E+00  0.7842E+00
     -1.190  0.6241E+00  0.8381E+00
     -1.107  0.6208E+00  0.8905E+00
     -1.023  0.6623E+00  0.9483E+00
     -0.940  0.7096E+00  0.1008E+01
     -0.857  0.6490E+00  0.1065E+01
     -0.774  0.6494E+00  0.1120E+01
     -0.691  0.7392E+00  0.1184E+01
     -0.608  0.6940E+00  0.1243E+01
     -0.525  0.7924E+00  0.1312E+01
     -0.442  0.6576E+00  0.1369E+01
     -0.359  0.7302E+00  0.1433E+01
     -0.276  0.8337E+00  0.1503E+01
     -0.193  0.7306E+00  0.1565E+01
     -0.109  0.8523E+00  0.1637E+01
     -0.026  0.7567E+00  0.1702E+01
      0.057  0.9306E+00  0.1779E+01
      0.140  0.6913E+00  0.1846E+01
      0.223  0.7398E+00  0.1912E+01
      0.306  0.8818E+00  0.1992E+01
      0.389  0.8186E+00  0.2066E+01
      0.472  0.7751E+00  0.2137E+01
      0.555  0.8700E+00  0.2215E+01
      0.638  0.8137E+00  0.2289E+01
      0.721  0.8413E+00  0.2370E+01
      0.804  0.8622E+00  0.2449E+01
      0.888  0.7955E+00  0.2521E+01
      0.971  0.1013E+01  0.2609E+01
      1.054  0.8349E+00  0.2685E+01
      1.137  0.9083E+00  0.2763E+01
      1.220  0.1047E+01  0.2853E+01
      1.303  0.9254E+00  0.2931E+01
      1.386  0.9935E+00  0.3017E+01
      1.469  0.1039E+01  0.3106E+01
      1.552  0.9362E+00  0.3185E+01
      1.635  0.1094E+01  0.3279E+01
      1.718  0.9073E+00  0.3362E+01
      1.802  0.1008E+01  0.3452E+01
      1.885  0.9812E+00  0.3537E+01
      1.968  0.1101E+01  0.3633E+01
      2.051  0.1011E+01  0.3720E+01
      2.134  0.1006E+01  0.3809E+01
      2.217  0.1142E+01  0.3908E+01
      2.300  0.9753E+00  0.3996E+01
      2.383  0.1129E+01  0.4092E+01
      2.466  0.1055E+01  0.4184E+01
      2.549  0.1226E+01  0.4286E+01
      2.632  0.9375E+00  0.4368E+01
      2.716  0.1265E+01  0.4480E+01
      2.799  0.1027E+01  0.4572E+01
      2.882  0.1136E+01  0.4674E+01
      2.965  0.1140E+01  0.4773E+01
      3.048  0.1173E+01  0.4876E+01
      3.131  0.1201E+01  0.4979E+01
      3.214  0.1115E+01  0.5077E+01
      3.297  0.1280E+01  0.5186E+01
      3.380  0.1170E+01  0.5290E+01
      3.463  0.1134E+01  0.5395E+01
      3.546  0.1116E+01  0.5499E+01
      3.629  0.1304E+01  0.5614E+01
      3.713  0.1149E+01  0.5714E+01
      3.796  0.1073E+01  0.5807E+01
      3.879  0.1402E+01  0.5928E+01
      3.962  0.1152E+01  0.6030E+01
      4.045  0.1309E+01  0.6143E+01
      4.128  0.1226E+01  0.6251E+01
      4.211  0.1285E+01  0.6364E+01
      4.294  0.1255E+01  0.6477E+01
      4.377  0.1285E+01  0.6593E+01
      4.460  0.1275E+01  0.6707E+01
      4.543  0.1263E+01  0.6818E+01
      4.627  0.1313E+01  0.6932E+01
      4.710  0.1346E+01  0.7047E+01
      4.793  0.1518E+01  0.7179E+01
      4.876  0.1327E+01  0.7297E+01
      4.959  0.1372E+01  0.7418E+01
      5.042  0.1293E+01  0.7534E+01
      5.125  0.1601E+01  0.7673E+01
      5.208  0.1433E+01  0.7802E+01
      5.291  0.1305E+01  0.7916E+01
      5.374  0.1526E+01  0.8049E+01
      5.457  0.1457E+01  0.8178E+01
      5.541  0.1337E+01  0.8295E+01
      5.624  0.1471E+01  0.8423E+01
      5.707  0.1367E+01  0.8546E+01
      5.790  0.1347E+01  0.8668E+01
      5.873  0.1336E+01  0.8787E+01
      5.956  0.1299E+01  0.8905E+01
      6.039  0.1346E+01  0.9024E+01
      6.122  0.1315E+01  0.9140E+01
      6.205  0.1268E+01  0.9252E+01
      6.288  0.1337E+01  0.9369E+01
      6.371  0.1310E+01  0.9484E+01
      6.454  0.1235E+01  0.9594E+01
      6.538  0.1525E+01  0.9725E+01
      6.621  0.1301E+01  0.9838E+01
      6.704  0.1424E+01  0.9965E+01
      6.787  0.1311E+01  0.1008E+02
      6.870  0.1580E+01  0.1022E+02
      6.953  0.1210E+01  0.1033E+02
      7.036  0.1606E+01  0.1047E+02
      7.119  0.1531E+01  0.1060E+02
      7.202  0.1572E+01  0.1074E+02
      7.285  0.1507E+01  0.1087E+02
      7.368  0.1299E+01  0.1099E+02
      7.452  0.1547E+01  0.1112E+02
      7.535  0.1470E+01  0.1125E+02
      7.618  0.1258E+01  0.1137E+02
      7.701  0.1513E+01  0.1150E+02
      7.784  0.1401E+01  0.1162E+02
      7.867  0.1489E+01  0.1175E+02
      7.950  0.1621E+01  0.1189E+02
      8.033  0.1514E+01  0.1203E+02
      8.116  0.1570E+01  0.1216E+02
      8.199  0.1465E+01  0.1229E+02
      8.282  0.1477E+01  0.1243E+02
      8.366  0.1613E+01  0.1257E+02
      8.449  0.1758E+01  0.1272E+02
      8.532  0.1426E+01  0.1285E+02
      8.615  0.1686E+01  0.1299E+02
      8.698  0.1485E+01  0.1313E+02
      8.781  0.1790E+01  0.1328E+02
      8.864  0.1436E+01  0.1341E+02
      8.947  0.1482E+01  0.1354E+02
      9.030  0.1687E+01  0.1369E+02
      9.113  0.1666E+01  0.1383E+02
      9.196  0.1568E+01  0.1397E+02
      9.279  0.1615E+01  0.1411E+02
      9.363  0.1672E+01  0.1426E+02
      9.446  0.1558E+01  0.1440E+02
      9.529  0.1538E+01  0.1454E+02
      9.612  0.1544E+01  0.1467E+02
      9.695  0.1761E+01  0.1483E+02
      9.778  0.1821E+01  0.1499E+02
      9.861  0.1687E+01  0.1514E+02
      9.944  0.1477E+01  0.1526E+02
     10.027  0.1545E+01  0.1540E+02
     10.110  0.1845E+01  0.1556E+02
     10.193  0.1961E+01  0.1573E+02
     10.277  0.1669E+01  0.1588E+02
     10.360  0.1515E+01  0.1601E+02
     10.443  0.1568E+01  0.1615E+02
     10.526  0.1782E+01  0.1631E+02
     10.609  0.1873E+01  0.1647E+02
     10.692  0.1840E+01  0.1663E+02
     10.775  0.1536E+01  0.1677E+02
     10.858  0.1864E+01  0.1693E+02
     10.941  0.1704E+01  0.1708E+02
     11.024  0.1881E+01  0.1725E+02
     11.107  0.1584E+01  0.1738E+02
     11.191  0.1867E+01  0.1755E+02
     11.274  0.1972E+01  0.1772E+02
     11.357  0.1804E+01  0.1787E+02
     11.440  0.1634E+01  0.1802E+02
     11.523  0.1845E+01  0.1818E+02
     11.606  0.1913E+01  0.1834E+02
     11.689  0.1897E+01  0.1851E+02
     11.772  0.1698E+01  0.1866E+02
     11.855  0.1832E+01  0.1882E+02
     11.938  0.1925E+01  0.1900E+02
     12.021  0.1876E+01  0.1916E+02
     12.104  0.1901E+01  0.1932E+02
     12.188  0.1948E+01  0.1949E+02
     12.271  0.1714E+01  0.1965E+02
     12.354  0.1722E+01  0.1980E+02
     12.437  0.2078E+01  0.1999E+02
     12.520  0.1842E+01  0.2015E+02
     12.603  0.1996E+01  0.2032E+02
     12.686  0.2024E+01  0.2050E+02
     12.769  0.1937E+01  0.2067E+02
     12.852  0.1838E+01  0.2083E+02
     12.935  0.1946E+01  0.2100E+02
     13.018  0.2180E+01  0.2119E+02
     13.102  0.1823E+01  0.2135E+02
     13.185  0.2195E+01  0.2154E+02
     13.268  0.2034E+01  0.2172E+02
     13.351  0.2046E+01  0.2190E+02
     13.434  0.2040E+01  0.2209E+02
     13.517  0.1798E+01  0.2225E+02
     13.600  0.2315E+01  0.2245E+02
     13.683  0.2329E+01  0.2265E+02
     13.766  0.2500E+01  0.2287E+02
     13.849  0.2174E+01  0.2306E+02
     13.932  0.1821E+01  0.2322E+02
     14.016  0.2414E+01  0.2343E+02
     14.099  0.2137E+01  0.2362E+02
     14.182  0.2240E+01  0.2382E+02
     14.265  0.2016E+01  0.2399E+02
     14.348  0.2165E+01  0.2418E+02
     14.431  0.2244E+01  0.2438E+02
     14.514  0.2056E+01  0.2456E+02
     14.597  0.2035E+01  0.2474E+02
     14.680  0.1969E+01  0.2491E+02
     14.763  0.2041E+01  0.2509E+02
     14.846  0.2031E+01  0.2527E+02
     14.929  0.2148E+01  0.2546E+02
     15.013  0.1804E+01  0.2562E+02
     15.096  0.2181E+01  0.2581E+02
     15.179  0.1956E+01  0.2599E+02
     15.262  0.1972E+01  0.2616E+02
     15.345  0.2011E+01  0.2634E+02
     15.428  0.2057E+01  0.2651E+02
     15.511  0.2148E+01  0.2670E+02
     15.594  0.1879E+01  0.2686E+02
     15.677  0.2033E+01  0.2704E+02
     15.760  0.2167E+01  0.2723E+02
     15.843  0.1784E+01  0.2739E+02
     15.927  0.2042E+01  0.2757E+02
     16.010  0.2105E+01  0.2776E+02
     16.093  0.1810E+01  0.2792E+02
     16.176  0.1857E+01  0.2808E+02
     16.259  0.2101E+01  0.2826E+02
     16.342  0.1780E+01  0.2842E+02
     16.425  0.2096E+01  0.2861E+02
     16.508  0.1895E+01  0.2878E+02
     16.591  0.1763E+01  0.2893E+02
     16.674  0.2023E+01  0.2911E+02
     16.757  0.1793E+01  0.2926E+02
     16.841  0.1987E+01  0.2944E+02
     16.924  0.1599E+01  0.2958E+02
     17.007  0.1945E+01  0.2974E+02
     17.090  0.1650E+01  0.2989E+02
     17.173  0.1697E+01  0.3004E+02
     17.256  0.1543E+01  0.3018E+02
     17.339  0.1584E+01  0.3031E+02
     17.422  0.1525E+01  0.3045E+02
     17.505  0.1449E+01  0.3057E+02
     17.588  0.1277E+01  0.3069E+02
     17.671  0.1425E+01  0.3081E+02
     17.754  0.1199E+01  0.3092E+02
     17.838  0.1189E+01  0.3102E+02
     17.921  0.9761E+00  0.3111E+02
     18.004  0.1034E+01  0.3120E+02
     18.087  0.9723E+00  0.3129E+02
     18.170  0.9726E+00  0.3137E+02
     18.253  0.1000E+01  0.3146E+02
     18.336  0.8266E+00  0.3153E+02
     18.419  0.7613E+00  0.3160E+02
     18.502  0.7858E+00  0.3167E+02
     18.585  0.7711E+00  0.3173E+02
     18.668  0.6149E+00  0.3179E+02
     18.752  0.5451E+00  0.3184E+02
     18.835  0.5207E+00  0.3188E+02
     18.918  0.3728E+00  0.3191E+02
     19.001  0.2811E+00  0.3194E+02
     19.084  0.1723E+00  0.3195E+02
     19.167  0.1727E+00  0.3197E+02
     19.250  0.1384E+00  0.3198E+02
     19.333  0.7627E-01  0.3199E+02
     19.416  0.8679E-01  0.3200E+02
     19.499  0.2870E-01  0.3200E+02
     19.582  0.1238E-01  0.3200E+02
     19.666  0.0000E+00  0.3200E+02
     19.749  0.0000E+00  0.3200E+02
     19.832  0.0000E+00  0.3200E+02
     19.915  0.0000E+00  0.3200E+02
     19.998  0.0000E+00  0.3200E+02
     20.081  0.0000E+00  0.3200E+02
     20.164  0.0000E+00  0.3200E+02
     20.247  0.0000E+00  0.3200E+02
     20.330  0.0000E+00  0.3200E+02
     20.413  0.0000E+00  0.3200E+02
     20.496  0.0000E+00  0.3200E+02
     20.579  0.0000E+00  0.3200E+02
     20.663  0.0000E+00  0.3200E+02
