    4    4    1    1
  0.1648304E+02  0.4039855E-09  0.4039855E-09  0.4039855E-09  0.5000000E-15
  1.000000000000000E-004
  CAR 
 unknown system                          
   12 1330   16
 
  0.0000000E+00  0.0000000E+00  0.0000000E+00  0.2143347E-04
   1       -3.1309
   2        5.0843
   3        5.0843
   4        5.0843
   5        6.4098
   6        6.4098
   7        6.4098
   8       13.2687
   9       13.2687
  10       13.2687
  11       13.6099
  12       13.6099
  13       13.6099
  14       13.6099
  15       13.6099
  16       13.6099
 
  0.2777778E-01  0.0000000E+00  0.0000000E+00  0.1286008E-03
   1       -3.1239
   2        4.9347
   3        5.0907
   4        5.0907
   5        6.4166
   6        6.4166
   7        6.5716
   8       12.9498
   9       12.9498
  10       13.2756
  11       13.5549
  12       13.5549
  13       13.6158
  14       13.6158
  15       13.9417
  16       13.9417
 
  0.5555556E-01  0.0000000E+00  0.0000000E+00  0.1286008E-03
   1       -3.1029
   2        4.6044
   3        5.1100
   4        5.1100
   5        6.4369
   6        6.4369
   7        6.9382
   8       12.5184
   9       12.5184
  10       13.2964
  11       13.4010
  12       13.4010
  13       13.6336
  14       13.6336
  15       14.4120
  16       14.4120
 
  0.8333333E-01  0.0000000E+00  0.0000000E+00  0.1286008E-03
   1       -3.0679
   2        4.2161
   3        5.1420
   4        5.1420
   5        6.4707
   6        6.4707
   7        7.3871
   8       12.0902
   9       12.0902
  10       13.1735
  11       13.1735
  12       13.3309
  13       13.6633
  14       13.6633
  15       14.9049
  16       14.9049
 
  0.1111111E+00  0.0000000E+00  0.0000000E+00  0.1286008E-03
   1       -3.0189
   2        3.8127
   3        5.1868
   4        5.1868
   5        6.5179
   6        6.5179
   7        7.8752
   8       11.6726
   9       11.6726
  10       12.8979
  11       12.8979
  12       13.3792
  13       13.7049
  14       13.7049
  15       15.4130
  16       15.4130
 
  0.1388889E+00  0.0000000E+00  0.0000000E+00  0.1286008E-03
   1       -2.9560
   2        3.4092
   3        5.2445
   4        5.2445
   5        6.5785
   6        6.5785
   7        8.3878
   8       11.2669
   9       11.2669
  10       12.5936
  11       12.5936
  12       13.4413
  13       13.7583
  14       13.7583
  15       15.9350
  16       15.9350
 
  0.1666667E+00  0.0000000E+00  0.0000000E+00  0.1286008E-03
   1       -2.8791
   2        3.0114
   3        5.3149
   4        5.3149
   5        6.6524
   6        6.6524
   7        8.9187
   8       10.8738
   9       10.8738
  10       12.2741
  11       12.2741
  12       13.5172
  13       13.8237
  14       13.8237
  15       16.4702
  16       16.4702
 
  0.1944444E+00  0.0000000E+00  0.0000000E+00  0.1286008E-03
   1       -2.7883
   2        2.6222
   3        5.3982
   4        5.3982
   5        6.7394
   6        6.7394
   7        9.4652
   8       10.4934
   9       10.4934
  10       11.9478
  11       11.9478
  12       13.6068
  13       13.9009
  14       13.9009
  15       17.0183
  16       17.0183
 
  0.2222222E+00  0.0000000E+00  0.0000000E+00  0.1286008E-03
   1       -2.6836
   2        2.2431
   3        5.4943
   4        5.4943
   5        6.8392
   6        6.8392
   7       10.0257
   8       10.1259
   9       10.1259
  10       11.6207
  11       11.6207
  12       13.7102
  13       13.9900
  14       13.9900
  15       17.4956
  16       17.5792
 
  0.2500000E+00  0.0000000E+00  0.0000000E+00  0.1286008E-03
   1       -2.5650
   2        1.8751
   3        5.6033
   4        5.6033
   5        6.9517
   6        6.9517
   7        9.7712
   8        9.7712
   9       10.5993
  10       11.2967
  11       11.2967
  12       13.8273
  13       14.0910
  14       14.0910
  15       17.6013
  16       17.9315
 
  0.2777778E+00  0.0000000E+00  0.0000000E+00  0.1286008E-03
   1       -2.4326
   2        1.5187
   3        5.7251
   4        5.7251
   5        7.0764
   6        7.0764
   7        9.4295
   8        9.4295
   9       10.9787
  10       10.9787
  11       11.1852
  12       13.9581
  13       14.2039
  14       14.2039
  15       17.6197
  16       17.6197
 
  0.3055556E+00  0.0000000E+00  0.0000000E+00  0.1286008E-03
   1       -2.2864
   2        1.1743
   3        5.8598
   4        5.8598
   5        7.2128
   6        7.2128
   7        9.1008
   8        9.1008
   9       10.6691
  10       10.6691
  11       11.7831
  12       14.1025
  13       14.3288
  14       14.3288
  15       17.3195
  16       17.3208
 
  0.3333333E+00  0.0000000E+00  0.0000000E+00  0.1286008E-03
   1       -2.1265
   2        0.8423
   3        6.0073
   4        6.0073
   5        7.3600
   6        7.3600
   7        8.7851
   8        8.7851
   9       10.3701
  10       10.3701
  11       12.3925
  12       14.2604
  13       14.4655
  14       14.4655
  15       17.0303
  16       17.0303
 
  0.3611111E+00  0.0000000E+00  0.0000000E+00  0.1286008E-03
   1       -1.9528
   2        0.5228
   3        6.1677
   4        6.1677
   5        7.5165
   6        7.5165
   7        8.4824
   8        8.4824
   9       10.0838
  10       10.0838
  11       13.0132
  12       14.4320
  13       14.6141
  14       14.6141
  15       16.7523
  16       16.7527
 
  0.3888889E+00  0.0000000E+00  0.0000000E+00  0.1286008E-03
   1       -1.7655
   2        0.2160
   3        6.3410
   4        6.3410
   5        7.6798
   6        7.6798
   7        8.1926
   8        8.1926
   9        9.8136
  10        9.8136
  11       13.6448
  12       14.6170
  13       14.7747
  14       14.7747
  15       16.4857
  16       16.4871
 
  0.4166667E+00  0.0000000E+00  0.0000000E+00  0.1286008E-03
   1       -1.5647
   2       -0.0779
   3        6.5272
   4        6.5272
   5        7.8451
   6        7.8451
   7        7.9158
   8        7.9158
   9        9.5648
  10        9.5648
  11       14.2871
  12       14.8154
  13       14.9471
  14       14.9471
  15       16.2307
  16       16.2309
 
  0.4444444E+00  0.0000000E+00  0.0000000E+00  0.1286008E-03
   1       -1.3503
   2       -0.3588
   3        6.7263
   4        6.7263
   5        7.6520
   6        7.6520
   7        8.0019
   8        8.0019
   9        9.3480
  10        9.3480
  11       14.9397
  12       15.0270
  13       15.1314
  14       15.1314
  15       15.9873
  16       15.9873
 
  0.4722222E+00  0.0000000E+00  0.0000000E+00  0.1286008E-03
   1       -1.1224
   2       -0.6266
   3        6.9383
   4        6.9383
   5        7.4012
   6        7.4012
   7        8.1272
   8        8.1272
   9        9.1867
  10        9.1867
  11       15.2519
  12       15.3276
  13       15.3276
  14       15.6023
  15       15.7406
  16       15.7556
 
  0.5000000E+00  0.0000000E+00  0.0000000E+00  0.6430041E-04
   1       -0.8811
   2       -0.8811
   3        7.1633
   4        7.1633
   5        7.1633
   6        7.1633
   7        8.1786
   8        8.1786
   9        9.1233
  10        9.1233
  11       15.4898
  12       15.4898
  13       15.5357
  14       15.5357
  15       15.5357
  16       15.5357
 
  0.2777778E-01  0.2777778E-01  0.0000000E+00  0.2572016E-03
   1       -3.1169
   2        4.9411
   3        4.9411
   4        5.0971
   5        6.4234
   6        6.5783
   7        6.5783
   8       12.7328
   9       12.9564
  10       12.9564
  11       13.5608
  12       13.5608
  13       13.6218
  14       13.9480
  15       13.9480
  16       14.0481
 
  0.5555556E-01  0.2777778E-01  0.0000000E+00  0.5144033E-03
   1       -3.0959
   2        4.6110
   3        4.9605
   4        5.1164
   5        6.4436
   6        6.5984
   7        6.9448
   8       12.3480
   9       12.5249
  10       12.9762
  11       13.4070
  12       13.5273
  13       13.5787
  14       13.9667
  15       14.4086
  16       14.4183
 
  0.8333333E-01  0.2777778E-01  0.0000000E+00  0.5144033E-03
   1       -3.0609
   2        4.2226
   3        4.9928
   4        5.1484
   5        6.4774
   6        6.6320
   7        7.3937
   8       11.9396
   9       12.0967
  10       13.0091
  11       13.1796
  12       13.3107
  13       13.6085
  14       13.9980
  15       14.8662
  16       14.9112
 
  0.1111111E+00  0.2777778E-01  0.0000000E+00  0.5144033E-03
   1       -3.0119
   2        3.8194
   3        5.0380
   4        5.1932
   5        6.5246
   6        6.6788
   7        7.8817
   8       11.5324
   9       11.6790
  10       12.9040
  11       13.0365
  12       13.0552
  13       13.6502
  14       14.0418
  15       15.3579
  16       15.4194
 
  0.1388889E+00  0.2777778E-01  0.0000000E+00  0.5144033E-03
   1       -2.9490
   2        3.4158
   3        5.0960
   4        5.2509
   5        6.5852
   6        6.7390
   7        8.3942
   8       11.1331
   9       11.2734
  10       12.5999
  11       12.7317
  12       13.1145
  13       13.7039
  14       14.0981
  15       15.8703
  16       15.9414
 
  0.1666667E+00  0.2777778E-01  0.0000000E+00  0.5144033E-03
   1       -2.8721
   2        3.0181
   3        5.1670
   4        5.3213
   5        6.6590
   6        6.8123
   7        8.9251
   8       10.7441
   9       10.8802
  10       12.2805
  11       12.4110
  12       13.1868
  13       13.7695
  14       14.1670
  15       16.3992
  16       16.4766
 
  0.1944444E+00  0.2777778E-01  0.0000000E+00  0.5144033E-03
   1       -2.7813
   2        2.6289
   3        5.2509
   4        5.4046
   5        6.7458
   6        6.8986
   7        9.4715
   8       10.3665
   9       10.4999
  10       11.9543
  11       12.0836
  12       13.2722
  13       13.8470
  14       14.2484
  15       16.9426
  16       17.0247
 
  0.2222222E+00  0.2777778E-01  0.0000000E+00  0.5144033E-03
   1       -2.6766
   2        2.2499
   3        5.3477
   4        5.5007
   5        6.8456
   6        6.9977
   7       10.0011
   8       10.0319
   9       10.1323
  10       11.6273
  11       11.7556
  12       13.3706
  13       13.9364
  14       14.3425
  15       17.5330
  16       17.5762
 
  0.2500000E+00  0.2777778E-01  0.0000000E+00  0.5144033E-03
   1       -2.5580
   2        1.8819
   3        5.4573
   4        5.6097
   5        6.9578
   6        7.1094
   7        9.6481
   8        9.7777
   9       10.6053
  10       11.3035
  11       11.4308
  12       13.4820
  13       14.0378
  14       14.4492
  15       17.5916
  16       17.6652
 
  0.2777778E+00  0.2777778E-01  0.0000000E+00  0.5144033E-03
   1       -2.4257
   2        1.5255
   3        5.5799
   4        5.7315
   5        7.0821
   6        7.2332
   7        9.3080
   8        9.4360
   9       10.9857
  10       11.1122
  11       11.1911
  12       13.6063
  13       14.1512
  14       14.5686
  15       17.2670
  16       17.5670
 
  0.3055556E+00  0.2777778E-01  0.0000000E+00  0.5144033E-03
   1       -2.2795
   2        1.1811
   3        5.7153
   4        5.8662
   5        7.2176
   6        7.3685
   7        8.9812
   8        9.1073
   9       10.6765
  10       10.8019
  11       11.7887
  12       13.7434
  13       14.2766
  14       14.7006
  15       16.9523
  16       17.2673
 
  0.3333333E+00  0.2777778E-01  0.0000000E+00  0.5144033E-03
   1       -2.1195
   2        0.8491
   3        5.8635
   4        6.0137
   5        7.3631
   6        7.5145
   7        8.6683
   8        8.7916
   9       10.3779
  10       10.5018
  11       12.3978
  12       13.8933
  13       14.4139
  14       14.8454
  15       16.6479
  16       16.9783
 
  0.3611111E+00  0.2777778E-01  0.0000000E+00  0.5144033E-03
   1       -1.9459
   2        0.5296
   3        6.0246
   4        6.1741
   5        7.5154
   6        7.6696
   7        8.3714
   8        8.4888
   9       10.0925
  10       10.2141
  11       13.0180
  12       14.0559
  13       14.5634
  14       15.0029
  15       16.3543
  16       16.7003
 
  0.3888889E+00  0.2777778E-01  0.0000000E+00  0.5144033E-03
   1       -1.7586
   2        0.2228
   3        6.1984
   4        6.3474
   5        7.6624
   6        7.8309
   7        8.1005
   8        8.1991
   9        9.8237
  10        9.9415
  11       13.6486
  12       14.2311
  13       14.7252
  14       15.1732
  15       16.0716
  16       16.4336
 
  0.4166667E+00  0.2777778E-01  0.0000000E+00  0.5144033E-03
   1       -1.5578
   2       -0.0711
   3        6.3850
   4        6.5336
   5        7.6987
   6        7.9223
   7        7.9572
   8        7.9928
   9        9.5779
  10        9.6881
  11       14.2885
  12       14.4188
  13       14.9003
  14       15.3563
  15       15.8002
  16       16.1782
 
  0.4444444E+00  0.2777778E-01  0.0000000E+00  0.5144033E-03
   1       -1.3434
   2       -0.3519
   3        6.5842
   4        6.7327
   5        7.4938
   6        7.6585
   7        8.0641
   8        8.1427
   9        9.3680
  10        9.4626
  11       14.6189
  12       14.9250
  13       15.1010
  14       15.5403
  15       15.5522
  16       15.9343
 
  0.4722222E+00  0.2777778E-01  0.0000000E+00  0.5144033E-03
   1       -1.1155
   2       -0.6197
   3        6.7958
   4        6.9447
   5        7.2537
   6        7.4076
   7        8.1965
   8        8.2521
   9        9.2229
  10        9.2834
  11       14.8312
  12       15.2663
  13       15.2921
  14       15.6188
  15       15.7018
  16       15.7609
 
  0.5000000E+00  0.2777778E-01  0.0000000E+00  0.2572016E-03
   1       -0.8742
   2       -0.8742
   3        7.0194
   4        7.0194
   5        7.1697
   6        7.1697
   7        8.2747
   8        8.2747
   9        9.1896
  10        9.1896
  11       15.0556
  12       15.0556
  13       15.4801
  14       15.4801
  15       15.9823
  16       15.9823
 
  0.5555556E-01  0.5555556E-01  0.0000000E+00  0.2572016E-03
   1       -3.0749
   2        4.6305
   3        4.6305
   4        5.1356
   5        6.4639
   6        6.9647
   7        6.9647
   8       12.0033
   9       12.5444
  10       12.5444
  11       13.4251
  12       13.4251
  13       13.6577
  14       14.4373
  15       14.4373
  16       14.4947
 
  0.8333333E-01  0.5555556E-01  0.0000000E+00  0.5144033E-03
   1       -3.0399
   2        4.2424
   3        4.6632
   4        5.1676
   5        6.4976
   6        6.9978
   7        7.4134
   8       11.6160
   9       12.1162
  10       12.5770
  11       13.1979
  12       13.4552
  13       13.5669
  14       14.4690
  15       14.7945
  16       14.9302
 
  0.1111111E+00  0.5555556E-01  0.0000000E+00  0.5144033E-03
   1       -2.9909
   2        3.8392
   3        4.7088
   4        5.2124
   5        6.5447
   6        7.0441
   7        7.9012
   8       11.2212
   9       11.6985
  10       12.6226
  11       12.9226
  12       13.3342
  13       13.4973
  14       14.5132
  15       15.2222
  16       15.4385
 
  0.1388889E+00  0.5555556E-01  0.0000000E+00  0.5144033E-03
   1       -2.9280
   2        3.4358
   3        4.7675
   4        5.2701
   5        6.6051
   6        7.1035
   7        8.4135
   8       10.8298
   9       11.2928
  10       12.6188
  11       12.6811
  12       13.0438
  13       13.5515
  14       14.5702
  15       15.7037
  16       15.9604
 
  0.1666667E+00  0.5555556E-01  0.0000000E+00  0.5144033E-03
   1       -2.8512
   2        3.0381
   3        4.8393
   4        5.3405
   5        6.6787
   6        7.1759
   7        8.9441
   8       10.4462
   9       10.8996
  10       12.2996
  11       12.7287
  12       12.7527
  13       13.6178
  14       14.6398
  15       16.2144
  16       16.4956
 
  0.1944444E+00  0.5555556E-01  0.0000000E+00  0.5144033E-03
   1       -2.7604
   2        2.6490
   3        4.9240
   4        5.4238
   5        6.7652
   6        7.2612
   7        9.4903
   8       10.0726
   9       10.5192
  10       11.9738
  11       12.4037
  12       12.8372
  13       13.6961
  14       14.7221
  15       16.7457
  16       17.0437
 
  0.2222222E+00  0.5555556E-01  0.0000000E+00  0.5144033E-03
   1       -2.6557
   2        2.2701
   3        5.0217
   4        5.5200
   5        6.8644
   6        7.3591
   7        9.7101
   8       10.0504
   9       10.1517
  10       11.6473
  11       12.0766
  12       12.9347
  13       13.7864
  14       14.8171
  15       17.2939
  16       17.5067
 
  0.2500000E+00  0.5555556E-01  0.0000000E+00  0.5144033E-03
   1       -2.5371
   2        1.9021
   3        5.1324
   4        5.6289
   5        6.9758
   6        7.4693
   7        9.3599
   8        9.7970
   9       10.6234
  10       11.3239
  11       11.7522
  12       13.0451
  13       13.8889
  14       14.9247
  15       17.1668
  16       17.7294
 
  0.2777778E+00  0.5555556E-01  0.0000000E+00  0.5144033E-03
   1       -2.4048
   2        1.5458
   3        5.2561
   4        5.7508
   5        7.0986
   6        7.5914
   7        9.0227
   8        9.4553
   9       11.0069
  10       11.2086
  11       11.4334
  12       13.1683
  13       14.0035
  14       15.0451
  15       16.8378
  16       17.4198
 
  0.3055556E+00  0.5555556E-01  0.0000000E+00  0.5144033E-03
   1       -2.2586
   2        1.2015
   3        5.3926
   4        5.8854
   5        7.2313
   6        7.7246
   7        8.7002
   8        9.1266
   9       10.6986
  10       11.1227
  11       11.8055
  12       13.3044
  13       14.1303
  14       15.1781
  15       16.5194
  16       17.1210
 
  0.3333333E+00  0.5555556E-01  0.0000000E+00  0.5144033E-03
   1       -2.0987
   2        0.8695
   3        5.5421
   4        6.0330
   5        7.3701
   6        7.8679
   7        8.3956
   8        8.8109
   9       10.4016
  10       10.8217
  11       12.4135
  12       13.4532
  13       14.2695
  14       15.3238
  15       16.2120
  16       16.8325
 
  0.3611111E+00  0.5555556E-01  0.0000000E+00  0.5144033E-03
   1       -1.9251
   2        0.5501
   3        5.7043
   4        6.1934
   5        7.5020
   6        8.0191
   7        8.1214
   8        8.5081
   9       10.1189
  10       10.5322
  11       13.0318
  12       13.6149
  13       14.4216
  14       15.4822
  15       15.9158
  16       16.5546
 
  0.3888889E+00  0.5555556E-01  0.0000000E+00  0.5144033E-03
   1       -1.7378
   2        0.2433
   3        5.8793
   4        6.3667
   5        7.5583
   6        7.9450
   7        8.1742
   8        8.2184
   9        9.8554
  10       10.2560
  11       13.6588
  12       13.7891
  13       14.5879
  14       15.6312
  15       15.6533
  16       16.2875
 
  0.4166667E+00  0.5555556E-01  0.0000000E+00  0.5144033E-03
   1       -1.5370
   2       -0.0505
   3        6.0669
   4        6.5529
   5        7.4105
   6        7.9416
   7        7.9930
   8        8.3240
   9        9.6206
  10        9.9960
  11       13.9761
  12       14.2876
  13       14.7748
  14       15.3584
  15       15.8370
  16       16.0314
 
  0.4444444E+00  0.5555556E-01  0.0000000E+00  0.5144033E-03
   1       -1.3226
   2       -0.3314
   3        6.2669
   4        6.7520
   5        7.1773
   6        7.6778
   7        8.1416
   8        8.4470
   9        9.4368
  10        9.7570
  11       14.1756
  12       14.8377
  13       15.0626
  14       15.0974
  15       15.7863
  16       16.0332
 
  0.4722222E+00  0.5555556E-01  0.0000000E+00  0.5144033E-03
   1       -1.0948
   2       -0.5991
   3        6.4791
   4        6.9367
   5        6.9640
   6        7.4269
   7        8.3032
   8        8.4979
   9        9.3496
  10        9.5493
  11       14.3875
  12       14.8486
  13       15.1071
  14       15.5518
  15       15.6529
  16       16.2420
 
  0.5000000E+00  0.5555556E-01  0.0000000E+00  0.2572016E-03
   1       -0.8536
   2       -0.8536
   3        6.7028
   4        6.7028
   5        7.1890
   6        7.1890
   7        8.4392
   8        8.4392
   9        9.3975
  10        9.3975
  11       14.6119
  12       14.6119
  13       15.3271
  14       15.3271
  15       16.3138
  16       16.3138
 
  0.8333333E-01  0.8333333E-01  0.0000000E+00  0.2572016E-03
   1       -3.0049
   2        4.2753
   3        4.2753
   4        5.1996
   5        6.5312
   6        7.4461
   7        7.4461
   8       11.2408
   9       12.1486
  10       12.1486
  11       13.2284
  12       13.2284
  13       13.7176
  14       14.8284
  15       14.9620
  16       14.9620
 
  0.1111111E+00  0.8333333E-01  0.0000000E+00  0.5144033E-03
   1       -2.9560
   2        3.8723
   3        4.3213
   4        5.2445
   5        6.5781
   6        7.4919
   7        7.9337
   8       10.8532
   9       11.7308
  10       12.1940
  11       12.9536
  12       13.2711
  13       13.6368
  14       15.0064
  15       15.0864
  16       15.4702
 
  0.1388889E+00  0.8333333E-01  0.0000000E+00  0.5144033E-03
   1       -2.8931
   2        3.4691
   3        4.3805
   4        5.3021
   5        6.6383
   6        7.5507
   7        8.4456
   8       10.4666
   9       11.3251
  10       12.2524
  11       12.6502
  12       13.3260
  13       13.4059
  14       15.0635
  15       15.4950
  16       15.9922
 
  0.1666667E+00  0.8333333E-01  0.0000000E+00  0.5144033E-03
   1       -2.8162
   2        3.0715
   3        4.4528
   4        5.3726
   5        6.7114
   6        7.6222
   7        8.9758
   8       10.0863
   9       10.9319
  10       12.3237
  11       12.3316
  12       13.1151
  13       13.3932
  14       15.1334
  15       15.9714
  16       16.5274
 
  0.1944444E+00  0.8333333E-01  0.0000000E+00  0.5144033E-03
   1       -2.7255
   2        2.6825
   3        4.5382
   4        5.4559
   5        6.7973
   6        7.7065
   7        9.5215
   8        9.7152
   9       10.5515
  10       12.0064
  11       12.4079
  12       12.8014
  13       13.4725
  14       15.2159
  15       16.4836
  16       17.0754
 
  0.2222222E+00  0.8333333E-01  0.0000000E+00  0.5144033E-03
   1       -2.6208
   2        2.3037
   3        4.6367
   4        5.5520
   5        6.8955
   6        7.8031
   7        9.3551
   8       10.0811
   9       10.1839
  10       11.6806
  11       12.4803
  12       12.5051
  13       13.5642
  14       15.3111
  15       17.0194
  16       17.0899
 
  0.2500000E+00  0.8333333E-01  0.0000000E+00  0.5144033E-03
   1       -2.5023
   2        1.9358
   3        4.7482
   4        5.6610
   5        7.0051
   6        7.9117
   7        9.0075
   8        9.8293
   9       10.6533
  10       11.3582
  11       12.1593
  12       12.6151
  13       13.6682
  14       15.4190
  15       16.7475
  16       17.5107
 
  0.2777778E+00  0.8333333E-01  0.0000000E+00  0.5144033E-03
   1       -2.3700
   2        1.5796
   3        4.8728
   4        5.7828
   5        7.1246
   6        8.0317
   7        8.6743
   8        9.4876
   9       11.0424
  10       11.2376
  11       11.8427
  12       12.7380
  13       13.7847
  14       15.5395
  15       16.4157
  16       17.2023
 
  0.3055556E+00  0.8333333E-01  0.0000000E+00  0.5144033E-03
   1       -2.2238
   2        1.2354
   3        5.0103
   4        5.9175
   5        7.2500
   6        8.1622
   7        8.3598
   8        9.1589
   9       10.7361
  10       11.5331
  11       11.8330
  12       12.8738
  13       13.9139
  14       15.6727
  15       16.0950
  16       16.9046
 
  0.3333333E+00  0.8333333E-01  0.0000000E+00  0.5144033E-03
   1       -2.0640
   2        0.9035
   3        5.1607
   4        6.0650
   5        7.3681
   6        8.0768
   7        8.3014
   8        8.8431
   9       10.4423
  10       11.2325
  11       12.4387
  12       13.0224
  13       14.0564
  14       15.7858
  15       15.8186
  16       16.6165
 
  0.3611111E+00  0.8333333E-01  0.0000000E+00  0.5144033E-03
   1       -1.8904
   2        0.5841
   3        5.3241
   4        6.2255
   5        7.4207
   6        7.8833
   7        8.4458
   8        8.5403
   9       10.1654
  10       10.9425
  11       13.0528
  12       13.1837
  13       14.2137
  14       15.4881
  15       15.9771
  16       16.3384
 
  0.3888889E+00  0.8333333E-01  0.0000000E+00  0.5144033E-03
   1       -1.7032
   2        0.2775
   3        5.5002
   4        6.3988
   5        7.2914
   6        7.8951
   7        8.2506
   8        8.5879
   9        9.9136
  10       10.6645
  11       13.3578
  12       13.6695
  13       14.3911
  14       15.2023
  15       16.0708
  16       16.1481
 
  0.4166667E+00  0.8333333E-01  0.0000000E+00  0.5144033E-03
   1       -1.5024
   2       -0.0163
   3        5.6889
   4        6.5850
   5        7.0590
   6        7.9738
   7        8.0320
   8        8.7093
   9        9.7062
  10       10.4004
  11       13.5446
  12       14.2562
  13       14.6210
  14       14.9285
  15       15.8138
  16       16.3317
 
  0.4444444E+00  0.8333333E-01  0.0000000E+00  0.5144033E-03
   1       -1.2881
   2       -0.2971
   3        5.8902
   4        6.7841
   5        6.8102
   6        7.7099
   7        8.2051
   8        8.7669
   9        9.5865
  10       10.1530
  11       13.7440
  12       14.6453
  13       14.6669
  14       15.0706
  15       15.5673
  16       16.5277
 
  0.4722222E+00  0.8333333E-01  0.0000000E+00  0.5144033E-03
   1       -1.0603
   2       -0.5647
   3        6.1037
   4        6.5651
   5        6.9962
   6        7.4591
   7        8.3894
   8        8.7123
   9        9.6035
  10        9.9273
  11       13.9560
  12       14.4176
  13       14.8821
  14       15.3310
  15       15.6941
  16       16.7360
 
  0.5000000E+00  0.8333333E-01  0.0000000E+00  0.2572016E-03
   1       -0.8191
   2       -0.8191
   3        6.3289
   4        6.3289
   5        7.2211
   6        7.2211
   7        8.5685
   8        8.5685
   9        9.7348
  10        9.7348
  11       14.1806
  12       14.1806
  13       15.1039
  14       15.1039
  15       16.3537
  16       16.3537
 
  0.1111111E+00  0.1111111E+00  0.0000000E+00  0.2572016E-03
   1       -2.9071
   2        3.9187
   3        3.9187
   4        5.2893
   5        6.6247
   6        7.9790
   7        7.9790
   8       10.4700
   9       11.7762
  10       11.7762
  11       12.9969
  12       12.9969
  13       13.8014
  14       15.0859
  15       15.5147
  16       15.5147
 
  0.1388889E+00  0.1111111E+00  0.0000000E+00  0.5144033E-03
   1       -2.8442
   2        3.5156
   3        3.9782
   4        5.3470
   5        6.6844
   6        8.0371
   7        8.4904
   8       10.0861
   9       11.3704
  10       11.8344
  11       12.6943
  12       13.0527
  13       13.7325
  14       15.3229
  15       15.5719
  16       16.0367
 
  0.1666667E+00  0.1111111E+00  0.0000000E+00  0.5144033E-03
   1       -2.7674
   2        3.1183
   3        4.0509
   4        5.4174
   5        6.7569
   6        8.1078
   7        9.0201
   8        9.7079
   9       10.9772
  10       11.9056
  11       12.3764
  12       13.1209
  13       13.5099
  14       15.6417
  15       15.7241
  16       16.5718
 
  0.1944444E+00  0.1111111E+00  0.0000000E+00  0.5144033E-03
   1       -2.6766
   2        2.7295
   3        4.1368
   4        5.5007
   5        6.8417
   6        8.1909
   7        9.3387
   8        9.5651
   9       10.5967
  10       11.9897
  11       12.0521
  12       13.2016
  13       13.2255
  14       15.7243
  15       16.2016
  16       17.0386
 
  0.2222222E+00  0.1111111E+00  0.0000000E+00  0.5144033E-03
   1       -2.5720
   2        2.3508
   3        4.2359
   4        5.5969
   5        6.9380
   6        8.2861
   7        8.9809
   8       10.1237
   9       10.2291
  10       11.7274
  11       12.0867
  12       12.9188
  13       13.2948
  14       15.8195
  15       16.6827
  16       16.7190
 
  0.2500000E+00  0.1111111E+00  0.0000000E+00  0.5144033E-03
   1       -2.4535
   2        1.9831
   3        4.3481
   4        5.7059
   5        7.0441
   6        8.3928
   7        8.6370
   8        9.8744
   9       10.6948
  10       11.4065
  11       12.1966
  12       12.6058
  13       13.4008
  14       15.9274
  15       16.3378
  16       17.2611
 
  0.2777778E+00  0.1111111E+00  0.0000000E+00  0.5144033E-03
   1       -2.3212
   2        1.6270
   3        4.4734
   4        5.8277
   5        7.1560
   6        8.3116
   7        8.5102
   8        9.5327
   9       11.0929
  10       11.2773
  11       12.2940
  12       12.3194
  13       13.5199
  14       16.0040
  15       16.0480
  16       16.9392
 
  0.3055556E+00  0.1111111E+00  0.0000000E+00  0.5144033E-03
   1       -2.1752
   2        1.2829
   3        4.6117
   4        5.9624
   5        7.2607
   6        8.0178
   7        8.6367
   8        9.2040
   9       10.7899
  10       11.8701
  11       11.9874
  12       12.4550
  13       13.6526
  14       15.6817
  15       16.1811
  16       16.6421
 
  0.3333333E+00  0.1111111E+00  0.0000000E+00  0.5144033E-03
   1       -2.0153
   2        0.9511
   3        4.7630
   4        6.1099
   5        7.3048
   6        7.8092
   7        8.7692
   8        8.8882
   9       10.5021
  10       11.6887
  11       12.4712
  12       12.6034
  13       13.8007
  14       15.3710
  15       16.3269
  16       16.3542
 
  0.3611111E+00  0.1111111E+00  0.0000000E+00  0.5144033E-03
   1       -1.8418
   2        0.6319
   3        4.9273
   4        6.2704
   5        7.1786
   6        7.7951
   7        8.5854
   8        8.9009
   9       10.2370
  10       11.3995
  11       12.7647
  12       13.0751
  13       13.9691
  14       15.0723
  15       16.0758
  16       16.4852
 
  0.3888889E+00  0.1111111E+00  0.0000000E+00  0.5144033E-03
   1       -1.6547
   2        0.3253
   3        5.1044
   4        6.4437
   5        6.9416
   6        7.9157
   7        8.2956
   8        9.0150
   9       10.0124
  10       11.1213
  11       12.9387
  12       13.6601
  13       14.1792
  14       14.7856
  15       15.8076
  16       16.6559
 
  0.4166667E+00  0.1111111E+00  0.0000000E+00  0.5144033E-03
   1       -1.4540