   4   4   0   0
  0.1963156E+02  0.4282246E-09  0.4282246E-09  0.4282246E-09  0.5000000E-15
  1.000000000000000E-004
  CAR 
 unknown system                          
     17.16888407     -4.67973210  301      6.27951838      1.00000000
     -4.680  0.0000E+00  0.0000E+00
     -4.607  0.0000E+00  0.0000E+00
     -4.534  0.0000E+00  0.0000E+00
     -4.461  0.0000E+00  0.0000E+00
     -4.388  0.0000E+00  0.0000E+00
     -4.316  0.0000E+00  0.0000E+00
     -4.243  0.0000E+00  0.0000E+00
     -4.170  0.0000E+00  0.0000E+00
     -4.097  0.0000E+00  0.0000E+00
     -4.024  0.0000E+00  0.0000E+00
     -3.951  0.0000E+00  0.0000E+00
     -3.879  0.0000E+00  0.0000E+00
     -3.806  0.0000E+00  0.0000E+00
     -3.733  0.1664E-13  0.1212E-14
     -3.660  0.2167E-01  0.1578E-02
     -3.587  0.1316E+00  0.1122E-01
     -3.514  0.2061E+00  0.2632E-01
     -3.442  0.2399E+00  0.4403E-01
     -3.369  0.2858E+00  0.6522E-01
     -3.296  0.3276E+00  0.8916E-01
     -3.223  0.3633E+00  0.1158E+00
     -3.150  0.3811E+00  0.1437E+00
     -3.078  0.3873E+00  0.1723E+00
     -3.005  0.4825E+00  0.2075E+00
     -2.932  0.4394E+00  0.2396E+00
     -2.859  0.5130E+00  0.2771E+00
     -2.786  0.4474E+00  0.3101E+00
     -2.713  0.5999E+00  0.3538E+00
     -2.641  0.5053E+00  0.3909E+00
     -2.568  0.5934E+00  0.4342E+00
     -2.495  0.5564E+00  0.4755E+00
     -2.422  0.6326E+00  0.5216E+00
     -2.349  0.6342E+00  0.5680E+00
     -2.276  0.6373E+00  0.6147E+00
     -2.204  0.6813E+00  0.6648E+00
     -2.131  0.7054E+00  0.7169E+00
     -2.058  0.6521E+00  0.7646E+00
     -1.985  0.7415E+00  0.8191E+00
     -1.912  0.6866E+00  0.8694E+00
     -1.839  0.7874E+00  0.9275E+00
     -1.767  0.7394E+00  0.9825E+00
     -1.694  0.7112E+00  0.1035E+01
     -1.621  0.8409E+00  0.1096E+01
     -1.548  0.8358E+00  0.1157E+01
     -1.475  0.7862E+00  0.1215E+01
     -1.402  0.7765E+00  0.1272E+01
     -1.330  0.9424E+00  0.1340E+01
     -1.257  0.8003E+00  0.1399E+01
     -1.184  0.8966E+00  0.1464E+01
     -1.111  0.8796E+00  0.1529E+01
     -1.038  0.9488E+00  0.1598E+01
     -0.965  0.8489E+00  0.1660E+01
     -0.893  0.9654E+00  0.1730E+01
     -0.820  0.9373E+00  0.1799E+01
     -0.747  0.9351E+00  0.1867E+01
     -0.674  0.9363E+00  0.1936E+01
     -0.601  0.1002E+01  0.2010E+01
     -0.528  0.9712E+00  0.2081E+01
     -0.456  0.1014E+01  0.2155E+01
     -0.383  0.9975E+00  0.2228E+01
     -0.310  0.1069E+01  0.2306E+01
     -0.237  0.9965E+00  0.2380E+01
     -0.164  0.1079E+01  0.2459E+01
     -0.092  0.9655E+00  0.2530E+01
     -0.019  0.1210E+01  0.2618E+01
      0.054  0.9472E+00  0.2689E+01
      0.127  0.1070E+01  0.2767E+01
      0.200  0.1197E+01  0.2855E+01
      0.273  0.1044E+01  0.2932E+01
      0.345  0.1154E+01  0.3016E+01
      0.418  0.1195E+01  0.3105E+01
      0.491  0.1029E+01  0.3181E+01
      0.564  0.1222E+01  0.3271E+01
      0.637  0.1136E+01  0.3354E+01
      0.710  0.1205E+01  0.3443E+01
      0.782  0.1072E+01  0.3522E+01
      0.855  0.1277E+01  0.3615E+01
      0.928  0.1219E+01  0.3705E+01
      1.001  0.1178E+01  0.3791E+01
      1.074  0.1259E+01  0.3884E+01
      1.147  0.1166E+01  0.3969E+01
      1.219  0.1222E+01  0.4059E+01
      1.292  0.1477E+01  0.4167E+01
      1.365  0.1178E+01  0.4254E+01
      1.438  0.1201E+01  0.4342E+01
      1.511  0.1292E+01  0.4437E+01
      1.584  0.1391E+01  0.4538E+01
      1.656  0.1265E+01  0.4631E+01
      1.729  0.1343E+01  0.4729E+01
      1.802  0.1207E+01  0.4818E+01
      1.875  0.1520E+01  0.4928E+01
      1.948  0.1286E+01  0.5023E+01
      2.021  0.1407E+01  0.5126E+01
      2.093  0.1378E+01  0.5227E+01
      2.166  0.1333E+01  0.5324E+01
      2.239  0.1475E+01  0.5432E+01
      2.312  0.1379E+01  0.5533E+01
      2.385  0.1445E+01  0.5639E+01
      2.457  0.1284E+01  0.5734E+01
      2.530  0.1364E+01  0.5834E+01
      2.603  0.1486E+01  0.5943E+01
      2.676  0.1390E+01  0.6046E+01
      2.749  0.1486E+01  0.6155E+01
      2.822  0.1445E+01  0.6262E+01
      2.894  0.1458E+01  0.6369E+01
      2.967  0.1455E+01  0.6476E+01
      3.040  0.1496E+01  0.6586E+01
      3.113  0.1538E+01  0.6699E+01
      3.186  0.1486E+01  0.6808E+01
      3.259  0.1483E+01  0.6916E+01
      3.331  0.1481E+01  0.7025E+01
      3.404  0.1680E+01  0.7148E+01
      3.477  0.1579E+01  0.7264E+01
      3.550  0.1563E+01  0.7379E+01
      3.623  0.1411E+01  0.7483E+01
      3.696  0.1828E+01  0.7617E+01
      3.768  0.1598E+01  0.7735E+01
      3.841  0.1582E+01  0.7851E+01
      3.914  0.1598E+01  0.7968E+01
      3.987  0.1867E+01  0.8105E+01
      4.060  0.1605E+01  0.8223E+01
      4.133  0.1653E+01  0.8343E+01
      4.205  0.1592E+01  0.8461E+01
      4.278  0.1710E+01  0.8586E+01
      4.351  0.1484E+01  0.8695E+01
      4.424  0.1716E+01  0.8820E+01
      4.497  0.1558E+01  0.8935E+01
      4.570  0.1527E+01  0.9047E+01
      4.642  0.1579E+01  0.9164E+01
      4.715  0.1637E+01  0.9284E+01
      4.788  0.1376E+01  0.9386E+01
      4.861  0.1701E+01  0.9511E+01
      4.934  0.1691E+01  0.9635E+01
      5.006  0.1685E+01  0.9760E+01
      5.079  0.1562E+01  0.9875E+01
      5.152  0.1601E+01  0.9993E+01
      5.225  0.1746E+01  0.1012E+02
      5.298  0.1760E+01  0.1025E+02
      5.371  0.1646E+01  0.1037E+02
      5.443  0.1743E+01  0.1050E+02
      5.516  0.1660E+01  0.1062E+02
      5.589  0.1788E+01  0.1075E+02
      5.662  0.1669E+01  0.1087E+02
      5.735  0.1720E+01  0.1100E+02
      5.808  0.1877E+01  0.1114E+02
      5.880  0.1659E+01  0.1126E+02
      5.953  0.1821E+01  0.1139E+02
      6.026  0.1794E+01  0.1153E+02
      6.099  0.1597E+01  0.1164E+02
      6.172  0.1931E+01  0.1178E+02
      6.245  0.1857E+01  0.1192E+02
      6.317  0.1805E+01  0.1205E+02
      6.390  0.1818E+01  0.1219E+02
      6.463  0.1685E+01  0.1231E+02
      6.536  0.2004E+01  0.1246E+02
      6.609  0.1833E+01  0.1259E+02
      6.682  0.1868E+01  0.1273E+02
      6.754  0.1877E+01  0.1287E+02
      6.827  0.1902E+01  0.1301E+02
      6.900  0.1891E+01  0.1315E+02
      6.973  0.1852E+01  0.1328E+02
      7.046  0.1819E+01  0.1342E+02
      7.119  0.1900E+01  0.1356E+02
      7.191  0.1953E+01  0.1370E+02
      7.264  0.1832E+01  0.1383E+02
      7.337  0.2112E+01  0.1399E+02
      7.410  0.1844E+01  0.1412E+02
      7.483  0.1766E+01  0.1425E+02
      7.555  0.1944E+01  0.1440E+02
      7.628  0.2075E+01  0.1455E+02
      7.701  0.2043E+01  0.1470E+02
      7.774  0.1888E+01  0.1484E+02
      7.847  0.1992E+01  0.1498E+02
      7.920  0.1969E+01  0.1513E+02
      7.992  0.2017E+01  0.1527E+02
      8.065  0.1898E+01  0.1541E+02
      8.138  0.2110E+01  0.1557E+02
      8.211  0.1972E+01  0.1571E+02
      8.284  0.2235E+01  0.1588E+02
      8.357  0.2124E+01  0.1603E+02
      8.429  0.1813E+01  0.1617E+02
      8.502  0.1925E+01  0.1631E+02
      8.575  0.2238E+01  0.1647E+02
      8.648  0.2010E+01  0.1662E+02
      8.721  0.2246E+01  0.1679E+02
      8.794  0.1891E+01  0.1693E+02
      8.866  0.2054E+01  0.1708E+02
      8.939  0.2216E+01  0.1724E+02
      9.012  0.1946E+01  0.1738E+02
      9.085  0.2220E+01  0.1754E+02
      9.158  0.2001E+01  0.1769E+02
      9.231  0.2302E+01  0.1786E+02
      9.303  0.2078E+01  0.1801E+02
      9.376  0.2253E+01  0.1818E+02
      9.449  0.2071E+01  0.1833E+02
      9.522  0.2358E+01  0.1850E+02
      9.595  0.2071E+01  0.1865E+02
      9.668  0.2099E+01  0.1881E+02
      9.740  0.2367E+01  0.1898E+02
      9.813  0.2052E+01  0.1913E+02
      9.886  0.2419E+01  0.1931E+02
      9.959  0.2211E+01  0.1947E+02
     10.032  0.2012E+01  0.1962E+02
     10.104  0.2274E+01  0.1979E+02
     10.177  0.2320E+01  0.1996E+02
     10.250  0.2341E+01  0.2013E+02
     10.323  0.2080E+01  0.2028E+02
     10.396  0.2647E+01  0.2047E+02
     10.469  0.2203E+01  0.2064E+02
     10.541  0.2349E+01  0.2081E+02
     10.614  0.2291E+01  0.2098E+02
     10.687  0.2316E+01  0.2115E+02
     10.760  0.2479E+01  0.2133E+02
     10.833  0.2282E+01  0.2150E+02
     10.906  0.2663E+01  0.2169E+02
     10.978  0.2233E+01  0.2186E+02
     11.051  0.2480E+01  0.2204E+02
     11.124  0.2723E+01  0.2224E+02
     11.197  0.2564E+01  0.2243E+02
     11.270  0.2393E+01  0.2260E+02
     11.343  0.2857E+01  0.2281E+02
     11.415  0.2542E+01  0.2300E+02
     11.488  0.2579E+01  0.2319E+02
     11.561  0.2666E+01  0.2338E+02
     11.634  0.2251E+01  0.2355E+02
     11.707  0.2659E+01  0.2374E+02
     11.780  0.2536E+01  0.2393E+02
     11.852  0.2203E+01  0.2409E+02
     11.925  0.2594E+01  0.2428E+02
     11.998  0.2395E+01  0.2446E+02
     12.071  0.2458E+01  0.2464E+02
     12.144  0.2340E+01  0.2481E+02
     12.217  0.2299E+01  0.2498E+02
     12.289  0.2265E+01  0.2514E+02
     12.362  0.2535E+01  0.2533E+02
     12.435  0.2280E+01  0.2550E+02
     12.508  0.2047E+01  0.2565E+02
     12.581  0.2387E+01  0.2582E+02
     12.654  0.2248E+01  0.2599E+02
     12.726  0.2588E+01  0.2618E+02
     12.799  0.2234E+01  0.2634E+02
     12.872  0.2139E+01  0.2650E+02
     12.945  0.2263E+01  0.2666E+02
     13.018  0.2123E+01  0.2682E+02
     13.090  0.2625E+01  0.2701E+02
     13.163  0.2260E+01  0.2718E+02
     13.236  0.2020E+01  0.2733E+02
     13.309  0.2585E+01  0.2752E+02
     13.382  0.2463E+01  0.2770E+02
     13.455  0.1771E+01  0.2783E+02
     13.527  0.2618E+01  0.2802E+02
     13.600  0.2016E+01  0.2817E+02
     13.673  0.2252E+01  0.2833E+02
     13.746  0.2609E+01  0.2852E+02
     13.819  0.2222E+01  0.2869E+02
     13.892  0.2000E+01  0.2884E+02
     13.964  0.2319E+01  0.2901E+02
     14.037  0.2305E+01  0.2917E+02
     14.110  0.2250E+01  0.2934E+02
     14.183  0.1941E+01  0.2948E+02
     14.256  0.2078E+01  0.2964E+02
     14.329  0.2166E+01  0.2979E+02
     14.401  0.2065E+01  0.2995E+02
     14.474  0.2143E+01  0.3010E+02
     14.547  0.1948E+01  0.3025E+02
     14.620  0.1852E+01  0.3038E+02
     14.693  0.1662E+01  0.3050E+02
     14.766  0.1720E+01  0.3063E+02
     14.838  0.1699E+01  0.3075E+02
     14.911  0.1371E+01  0.3085E+02
     14.984  0.1518E+01  0.3097E+02
     15.057  0.1223E+01  0.3106E+02
     15.130  0.1377E+01  0.3116E+02
     15.203  0.1326E+01  0.3125E+02
     15.275  0.1171E+01  0.3134E+02
     15.348  0.1036E+01  0.3142E+02
     15.421  0.1084E+01  0.3150E+02
     15.494  0.9677E+00  0.3157E+02
     15.567  0.9769E+00  0.3164E+02
     15.639  0.1031E+01  0.3171E+02
     15.712  0.7654E+00  0.3177E+02
     15.785  0.9057E+00  0.3184E+02
     15.858  0.6672E+00  0.3188E+02
     15.931  0.5626E+00  0.3193E+02
     16.004  0.4958E+00  0.3196E+02
     16.076  0.3326E+00  0.3199E+02
     16.149  0.1603E+00  0.3200E+02
     16.222  0.1413E-01  0.3200E+02
     16.295  0.0000E+00  0.3200E+02
     16.368  0.0000E+00  0.3200E+02
     16.441  0.0000E+00  0.3200E+02
     16.513  0.0000E+00  0.3200E+02
     16.586  0.0000E+00  0.3200E+02
     16.659  0.0000E+00  0.3200E+02
     16.732  0.0000E+00  0.3200E+02
     16.805  0.0000E+00  0.3200E+02
     16.878  0.0000E+00  0.3200E+02
     16.950  0.0000E+00  0.3200E+02
     17.023  0.0000E+00  0.3200E+02
     17.096  0.0000E+00  0.3200E+02
     17.169  0.0000E+00  0.3200E+02
