    4    4    1    1
  0.1963156E+02  0.4282246E-09  0.4282246E-09  0.4282246E-09  0.5000000E-15
  1.000000000000000E-004
  CAR 
 unknown system                          
   12 1330   16
 
  0.0000000E+00  0.0000000E+00  0.0000000E+00  0.2143347E-04
   1       -3.6866
   2        3.7961
   3        3.7961
   4        3.7961
   5        4.6758
   6        4.6758
   7        4.6758
   8       11.1494
   9       11.1494
  10       11.1494
  11       11.1494
  12       11.1494
  13       11.1494
  14       11.5104
  15       11.5104
  16       11.5104
 
  0.2777778E-01  0.0000000E+00  0.0000000E+00  0.1286008E-03
   1       -3.6804
   2        3.6259
   3        3.8019
   4        3.8019
   5        4.6819
   6        4.6819
   7        4.8570
   8       10.8800
   9       10.8800
  10       11.0938
  11       11.0938
  12       11.1549
  13       11.1549
  14       11.5165
  15       11.7913
  16       11.7913
 
  0.5555556E-01  0.0000000E+00  0.0000000E+00  0.1286008E-03
   1       -3.6617
   2        3.2909
   3        3.8193
   4        3.8193
   5        4.7003
   6        4.7003
   7        5.2249
   8       10.4968
   9       10.4968
  10       10.9404
  11       10.9404
  12       11.1712
  13       11.1712
  14       11.5349
  15       12.2089
  16       12.2089
 
  0.8333333E-01  0.0000000E+00  0.0000000E+00  0.1286008E-03
   1       -3.6306
   2        2.9209
   3        3.8483
   4        3.8483
   5        4.7308
   6        4.7308
   7        5.6497
   8       10.1136
   9       10.1136
  10       10.7182
  11       10.7182
  12       11.1984
  13       11.1984
  14       11.5656
  15       12.6496
  16       12.6496
 
  0.1111111E+00  0.0000000E+00  0.0000000E+00  0.1286008E-03
   1       -3.5870
   2        2.5467
   3        3.8889
   4        3.8889
   5        4.7735
   6        4.7735
   7        6.1006
   8        9.7388
   9        9.7388
  10       10.4541
  11       10.4541
  12       11.2365
  13       11.2365
  14       11.6085
  15       13.1048
  16       13.1048
 
  0.1388889E+00  0.0000000E+00  0.0000000E+00  0.1286008E-03
   1       -3.5310
   2        2.1770
   3        3.9411
   4        3.9411
   5        4.8284
   6        4.8284
   7        6.5687
   8        9.3743
   9        9.3743
  10       10.1668
  11       10.1668
  12       11.2855
  13       11.2855
  14       11.6636
  15       13.5726
  16       13.5726
 
  0.1666667E+00  0.0000000E+00  0.0000000E+00  0.1286008E-03
   1       -3.4626
   2        1.8152
   3        4.0048
   4        4.0048
   5        4.8955
   6        4.8955
   7        7.0508
   8        9.0207
   9        9.0207
  10        9.8682
  11        9.8682
  12       11.3453
  13       11.3453
  14       11.7310
  15       14.0522
  16       14.0524
 
  0.1944444E+00  0.0000000E+00  0.0000000E+00  0.1286008E-03
   1       -3.3818
   2        1.4628
   3        4.0802
   4        4.0802
   5        4.9746
   6        4.9746
   7        7.5452
   8        8.6785
   9        8.6785
  10        9.5654
  11        9.5654
  12       11.4160
  13       11.4160
  14       11.8106
  15       14.2148
  16       14.5433
 
  0.2222222E+00  0.0000000E+00  0.0000000E+00  0.1286008E-03
   1       -3.2886
   2        1.1205
   3        4.1672
   4        4.1672
   5        5.0658
   6        5.0658
   7        8.0510
   8        8.3476
   9        8.3476
  10        9.2633
  11        9.2633
  12       11.4977
  13       11.4977
  14       11.9023
  15       14.2999
  16       15.0457
 
  0.2500000E+00  0.0000000E+00  0.0000000E+00  0.1286008E-03
   1       -3.1830
   2        0.7890
   3        4.2658
   4        4.2658
   5        5.1689
   6        5.1689
   7        8.0283
   8        8.0283
   9        8.5675
  10        8.9648
  11        8.9648
  12       11.5901
  13       11.5901
  14       12.0062
  15       14.3961
  16       15.1068
 
  0.2777778E+00  0.0000000E+00  0.0000000E+00  0.1286008E-03
   1       -3.0651
   2        0.4684
   3        4.3760
   4        4.3760
   5        5.2839
   6        5.2839
   7        7.7204
   8        7.7204
   9        8.6719
  10        8.6719
  11        9.0943
  12       11.6935
  13       11.6935
  14       12.1223
  15       14.5032
  16       14.8206
 
  0.3055556E+00  0.0000000E+00  0.0000000E+00  0.1286008E-03
   1       -2.9349
   2        0.1591
   3        4.4978
   4        4.4978
   5        5.4107
   6        5.4107
   7        7.4242
   8        7.4242
   9        8.3861
  10        8.3861
  11        9.6309
  12       11.8078
  13       11.8078
  14       12.2505
  15       14.5448
  16       14.5456
 
  0.3333333E+00  0.0000000E+00  0.0000000E+00  0.1286008E-03
   1       -2.7924
   2       -0.1389
   3        4.6312
   4        4.6312
   5        5.5492
   6        5.5492
   7        7.1396
   8        7.1396
   9        8.1085
  10        8.1085
  11       10.1768
  12       11.9329
  13       11.9329
  14       12.3907
  15       14.2795
  16       14.2795
 
  0.3611111E+00  0.0000000E+00  0.0000000E+00  0.1286008E-03
   1       -2.6376
   2       -0.4253
   3        4.7763
   4        4.7763
   5        5.6991
   6        5.6991
   7        6.8665
   8        6.8665
   9        7.8400
  10        7.8400
  11       10.7315
  12       12.0689
  13       12.0689
  14       12.5429
  15       14.0248
  16       14.0248
 
  0.3888889E+00  0.0000000E+00  0.0000000E+00  0.1286008E-03
   1       -2.4706
   2       -0.7001
   3        4.9330
   4        4.9330
   5        5.8601
   6        5.8601
   7        6.6052
   8        6.6052
   9        7.5814
  10        7.5814
  11       11.2943
  12       12.2158
  13       12.2158
  14       12.7070
  15       13.7808
  16       13.7808
 
  0.4166667E+00  0.0000000E+00  0.0000000E+00  0.1286008E-03
   1       -2.2914
   2       -0.9632
   3        5.1013
   4        5.1013
   5        6.0315
   6        6.0315
   7        6.3554
   8        6.3554
   9        7.3337
  10        7.3337
  11       11.8642
  12       12.3736
  13       12.3736
  14       12.8830
  15       13.5474
  16       13.5474
 
  0.4444444E+00  0.0000000E+00  0.0000000E+00  0.1286008E-03
   1       -2.1001
   2       -1.2144
   3        5.2812
   4        5.2812
   5        6.1173
   6        6.1173
   7        6.2118
   8        6.2118
   9        7.0988
  10        7.0988
  11       12.4399
  12       12.5422
  13       12.5422
  14       13.0708
  15       13.3248
  16       13.3248
 
  0.4722222E+00  0.0000000E+00  0.0000000E+00  0.1286008E-03
   1       -1.8967
   2       -1.4538
   3        5.4728
   4        5.4728
   5        5.8908
   6        5.8908
   7        6.3938
   8        6.3938
   9        6.8839
  10        6.8839
  11       12.7216
  12       12.7216
  13       13.0194
  14       13.1129
  15       13.1129
  16       13.2702
 
  0.5000000E+00  0.0000000E+00  0.0000000E+00  0.6430041E-04
   1       -1.6813
   2       -1.6813
   3        5.6760
   4        5.6760
   5        5.6760
   6        5.6760
   7        6.5132
   8        6.5132
   9        6.7536
  10        6.7536
  11       12.9119
  12       12.9119
  13       12.9119
  14       12.9119
  15       13.4811
  16       13.4812
 
  0.2777778E-01  0.2777778E-01  0.0000000E+00  0.2572016E-03
   1       -3.6742
   2        3.6318
   3        3.6318
   4        3.8077
   5        4.6880
   6        4.8631
   7        4.8631
   8       10.6522
   9       10.8856
  10       10.8856
  11       11.0992
  12       11.0992
  13       11.1603
  14       11.7973
  15       11.7973
  16       11.9054
 
  0.5555556E-01  0.2777778E-01  0.0000000E+00  0.5144033E-03
   1       -3.6555
   2        3.2968
   3        3.6493
   4        3.8251
   5        4.7064
   6        4.8812
   7        5.2309
   8       10.3011
   9       10.5026
  10       10.9026
  11       10.9459
  12       11.0787
  13       11.1156
  14       11.8150
  15       12.2119
  16       12.2148
 
  0.8333333E-01  0.2777778E-01  0.0000000E+00  0.5144033E-03
   1       -3.6244
   2        2.9269
   3        3.6786
   4        3.8541
   5        4.7369
   6        4.9115
   7        5.6556
   8        9.9350
   9       10.1193
  10       10.7238
  11       10.8764
  12       10.9308
  13       11.1429
  14       11.8446
  15       12.6074
  16       12.6555
 
  0.1111111E+00  0.2777778E-01  0.0000000E+00  0.5144033E-03
   1       -3.5808
   2        2.5527
   3        3.7195
   4        3.8947
   5        4.7796
   6        4.9539
   7        6.1065
   8        9.5702
   9        9.7445
  10       10.4597
  11       10.6171
  12       10.9704
  13       11.1811
  14       11.8860
  15       13.0403
  16       13.1106
 
  0.1388889E+00  0.2777778E-01  0.0000000E+00  0.5144033E-03
   1       -3.5248
   2        2.1830
   3        3.7722
   4        3.9469
   5        4.8345
   6        5.0083
   7        6.5746
   8        9.2120
   9        9.3800
  10       10.1724
  11       10.3304
  12       11.0212
  13       11.2302
  14       11.9393
  15       13.4950
  16       13.5783
 
  0.1666667E+00  0.2777778E-01  0.0000000E+00  0.5144033E-03
   1       -3.4564
   2        1.8212
   3        3.8365
   4        4.0106
   5        4.9016
   6        5.0747
   7        7.0567
   8        8.8627
   9        9.0265
  10        9.8738
  11       10.0311
  12       11.0833
  13       11.2902
  14       12.0044
  15       13.9659
  16       14.0583
 
  0.1944444E+00  0.2777778E-01  0.0000000E+00  0.5144033E-03
   1       -3.3756
   2        1.4688
   3        3.9126
   4        4.0860
   5        4.9807
   6        5.1532
   7        7.5511
   8        8.5232
   9        8.6843
  10        9.5712
  11        9.7277
  12       11.1567
  13       11.3611
  14       12.0814
  15       14.2792
  16       14.4505
 
  0.2222222E+00  0.2777778E-01  0.0000000E+00  0.5144033E-03
   1       -3.2824
   2        1.1266
   3        4.0003
   4        4.1730
   5        5.0718
   6        5.2436
   7        8.0568
   8        8.1942
   9        8.3534
  10        9.2691
  11        9.4249
  12       11.2412
  13       11.4429
  14       12.1702
  15       14.3640
  16       14.9484
 
  0.2500000E+00  0.2777778E-01  0.0000000E+00  0.5144033E-03
   1       -3.1768
   2        0.7950
   3        4.0997
   4        4.2716
   5        5.1749
   6        5.3459
   7        7.8760
   8        8.0341
   9        8.5733
  10        8.9706
  11        9.1259
  12       11.3370
  13       11.5357
  14       12.2708
  15       14.4599
  16       14.9350
 
  0.2777778E+00  0.2777778E-01  0.0000000E+00  0.5144033E-03
   1       -3.0589
   2        0.4745
   3        4.2108
   4        4.3818
   5        5.2899
   6        5.4600
   7        7.5689
   8        7.7262
   9        8.6777
  10        8.8329
  11        9.1000
  12       11.4440
  13       11.6393
  14       12.3832
  15       14.5667
  16       14.6443
 
  0.3055556E+00  0.2777778E-01  0.0000000E+00  0.5144033E-03
   1       -2.9287
   2        0.1651
   3        4.3335
   4        4.5036
   5        5.4166
   6        5.5859
   7        7.2731
   8        7.4300
   9        8.3920
  10        8.5471
  11        9.6366
  12       11.5621
  13       11.7539
  14       12.5075
  15       14.3643
  16       14.4896
 
  0.3333333E+00  0.2777778E-01  0.0000000E+00  0.5144033E-03
   1       -2.7862
   2       -0.1328
   3        4.4679
   4        4.6370
   5        5.5549
   6        5.7233
   7        6.9887
   8        7.1454
   9        8.1144
  10        8.2697
  11       10.1824
  12       11.6913
  13       11.8794
  14       12.6436
  15       14.0947
  16       14.2249
 
  0.3611111E+00  0.2777778E-01  0.0000000E+00  0.5144033E-03
   1       -2.6314
   2       -0.4192
   3        4.6139
   4        4.7821
   5        5.7045
   6        5.8721
   7        6.7159
   8        6.8723
   9        7.8460
  10        8.0014
  11       10.7369
  12       11.8317
  13       12.0159
  14       12.7915
  15       13.8355
  16       13.9706
 
  0.3888889E+00  0.2777778E-01  0.0000000E+00  0.5144033E-03
   1       -2.4644
   2       -0.6940
   3        4.7716
   4        4.9388
   5        5.8645
   6        6.0320
   7        6.4554
   8        6.6110
   9        7.5876
  10        7.7430
  11       11.2993
  12       11.9830
  13       12.1635
  14       12.9511
  15       13.5867
  16       13.7267
 
  0.4166667E+00  0.2777778E-01  0.0000000E+00  0.5144033E-03
   1       -2.2853
   2       -0.9570
   3        4.9408
   4        5.1071
   5        6.0286
   6        6.2021
   7        6.2132
   8        6.3612
   9        7.3402
  10        7.4953
  11       11.8680
  12       12.1454
  13       12.3228
  14       13.1224
  15       13.3486
  16       13.4934
 
  0.4444444E+00  0.2777778E-01  0.0000000E+00  0.5144033E-03
   1       -2.0940
   2       -1.2083
   3        5.1217
   4        5.2870
   5        5.9552
   6        6.1231
   7        6.2298
   8        6.3802
   9        7.1067
  10        7.2594
  11       12.3188
  12       12.4259
  13       12.5097
  14       13.1211
  15       13.2707
  16       13.3053
 
  0.4722222E+00  0.2777778E-01  0.0000000E+00  0.5144033E-03
   1       -1.8906
   2       -1.4477
   3        5.3140
   4        5.4786
   5        5.7324
   6        5.8966
   7        6.4138
   8        6.5531
   9        6.9001
  10        7.0390
  11       12.5031
  12       12.6646
  13       12.9043
  14       13.0307
  15       13.0586
  16       13.4998
 
  0.5000000E+00  0.2777778E-01  0.0000000E+00  0.2572016E-03
   1       -1.6751
   2       -1.6751
   3        5.5177
   4        5.5177
   5        5.6818
   6        5.6818
   7        6.5840
   8        6.5840
   9        6.8577
  10        6.8577
  11       12.6983
  12       12.6983
  13       12.8568
  14       12.8568
  15       13.6097
  16       13.6097
 
  0.5555556E-01  0.5555556E-01  0.0000000E+00  0.2572016E-03
   1       -3.6368
   2        3.3146
   3        3.3146
   4        3.8425
   5        4.7247
   6        5.2489
   7        5.2489
   8        9.9648
   9       10.5197
  10       10.5197
  11       10.9624
  12       10.9624
  13       11.1930
  14       12.2323
  15       12.2323
  16       12.2915
 
  0.8333333E-01  0.5555556E-01  0.0000000E+00  0.5144033E-03
   1       -3.6057
   2        2.9447
   3        3.3441
   4        3.8715
   5        4.7552
   6        5.2789
   7        5.6735
   8        9.6070
   9       10.1366
  10       10.5483
  11       10.7404
  12       10.9898
  13       11.1190
  14       12.2616
  15       12.5332
  16       12.6729
 
  0.1111111E+00  0.5555556E-01  0.0000000E+00  0.5144033E-03
   1       -3.5621
   2        2.5706
   3        3.3854
   4        3.9121
   5        4.7979
   6        5.3208
   7        6.1243
   8        9.2479
   9        9.7618
  10       10.4765
  11       10.5884
  12       10.9135
  13       11.0283
  14       12.3025
  15       12.8923
  16       13.1280
 
  0.1388889E+00  0.5555556E-01  0.0000000E+00  0.5144033E-03
   1       -3.5061
   2        2.2010
   3        3.4386
   4        3.9643
   5        4.8528
   6        5.3747
   7        6.5923
   8        8.8936
   9        9.3974
  10       10.1893
  11       10.6398
  12       10.6489
  13       11.0777
  14       12.3551
  15       13.3095
  16       13.5957
 
  0.1666667E+00  0.5555556E-01  0.0000000E+00  0.5144033E-03
   1       -3.4377
   2        1.8393
   3        3.5035
   4        4.0280
   5        4.9198
   6        5.4405
   7        7.0743
   8        8.5469
   9        9.0439
  10        9.8909
  11       10.3598
  12       10.7027
  13       11.1382
  14       12.4194
  15       13.7584
  16       14.0752
 
  0.1944444E+00  0.5555556E-01  0.0000000E+00  0.5144033E-03
   1       -3.3569
   2        1.4869
   3        3.5803
   4        4.1034
   5        4.9988
   6        5.5183
   7        7.5686
   8        8.2092
   9        8.7016
  10        9.5883
  11       10.0614
  12       10.7770
  13       11.2095
  14       12.4954
  15       14.2286
  16       14.4590
 
  0.2222222E+00  0.5555556E-01  0.0000000E+00  0.5144033E-03
   1       -3.2637
   2        1.1447
   3        3.6688
   4        4.1904
   5        5.0899
   6        5.6078
   7        7.8813
   8        8.0742
   9        8.3708
  10        9.2863
  11        9.7616
  12       10.8626
  13       11.2919
  14       12.5831
  15       14.5433
  16       14.7153
 
  0.2500000E+00  0.5555556E-01  0.0000000E+00  0.5144033E-03
   1       -3.1582
   2        0.8132
   3        3.7690
   4        4.2890
   5        5.1929
   6        5.7092
   7        7.5638
   8        8.0514
   9        8.5906
  10        8.9879
  11        9.4646
  12       10.9597
  13       11.3853
  14       12.6824
  15       14.6074
  16       14.6384
 
  0.2777778E+00  0.5555556E-01  0.0000000E+00  0.5144033E-03
   1       -3.0403
   2        0.4927
   3        3.8811
   4        4.3992
   5        5.3077
   6        5.8223
   7        7.2571
   8        7.7436
   9        8.6952
  10        9.1172
  11        9.1730
  12       11.0680
  13       11.4896
  14       12.7934
  15       14.3138
  16       14.6122
 
  0.3055556E+00  0.5555556E-01  0.0000000E+00  0.5144033E-03
   1       -2.9101
   2        0.1834
   3        4.0048
   4        4.5210
   5        5.4341
   6        5.9470
   7        6.9615
   8        7.4474
   9        8.4096
  10        8.8884
  11        9.6535
  12       11.1877
  13       11.6050
  14       12.9160
  15       14.0302
  16       14.3390
 
  0.3333333E+00  0.5555556E-01  0.0000000E+00  0.5144033E-03
   1       -2.7676
   2       -0.1145
   3        4.1403
   4        4.6544
   5        5.5719
   6        6.0832
   7        6.6773
   8        7.1628
   9        8.1323
  10        8.6121
  11       10.1991
  12       11.3187
  13       11.7315
  14       13.0503
  15       13.7569
  16       14.0755
 
  0.3611111E+00  0.5555556E-01  0.0000000E+00  0.5144033E-03
   1       -2.6129
   2       -0.4009
   3        4.2874
   4        4.7995
   5        5.7199
   6        6.2306
   7        6.4057
   8        6.8897
   9        7.8641
  10        8.3448
  11       10.7530
  12       11.4610
  13       11.8693
  14       13.1961
  15       13.4940
  16       13.8220
 
  0.3888889E+00  0.5555556E-01  0.0000000E+00  0.5144033E-03
   1       -2.4459
   2       -0.6757
   3        4.4462
   4        4.9562
   5        5.8720
   6        6.1526
   7        6.3888
   8        6.6284
   9        7.6063
  10        8.0873
  11       11.3140
  12       11.6145
  13       12.0191
  14       13.2417
  15       13.3535
  16       13.5785
 
  0.4166667E+00  0.5555556E-01  0.0000000E+00  0.5144033E-03
   1       -2.2667
   2       -0.9387
   3        4.6166
   4        5.1245
   5        5.8639
   6        6.0825
   7        6.3786
   8        6.5561
   9        7.3606
  10        7.8401
  11       11.7792
  12       11.8765
  13       12.1856
  14       13.0000
  15       13.3453
  16       13.5224
 
  0.4444444E+00  0.5555556E-01  0.0000000E+00  0.5144033E-03
   1       -2.0755
   2       -1.1899
   3        4.7986
   4        5.3044
   5        5.6383
   6        6.1405
   7        6.2518
   8        6.7255
   9        7.1344
  10        7.6038
  11       11.9551
  12       12.3139
  13       12.4941
  14       12.7692
  15       13.1224
  16       13.7027
 
  0.4722222E+00  0.5555556E-01  0.0000000E+00  0.5144033E-03
   1       -1.8721
   2       -1.4292
   3        4.9920
   4        5.4127
   5        5.4960
   6        5.9140
   7        6.4424
   8        6.8061
   9        7.0190
  10        7.3798
  11       12.1421
  12       12.5131
  13       12.5492
  14       12.9098
  15       13.0562
  16       13.8943
 
  0.5000000E+00  0.5555556E-01  0.0000000E+00  0.2572016E-03
   1       -1.6567
   2       -1.6567
   3        5.1968
   4        5.1968
   5        5.6992
   6        5.6992
   7        6.6403
   8        6.6403
   9        7.1721
  10        7.1721
  11       12.3401
  12       12.3401
  13       12.7071
  14       12.7071
  15       13.6359
  16       13.6359
 
  0.8333333E-01  0.8333333E-01  0.0000000E+00  0.2572016E-03
   1       -3.5746
   2        2.9744
   3        2.9744
   4        3.9005
   5        4.7857
   6        5.7033
   7        5.7033
   8        9.2522
   9       10.1653
  10       10.1653
  11       10.7681
  12       10.7681
  13       11.2474
  14       12.5530
  15       12.7020
  16       12.7020
 
  0.1111111E+00  0.8333333E-01  0.0000000E+00  0.5144033E-03
   1       -3.5310
   2        2.6004
   3        3.0160
   4        3.9411
   5        4.8284
   6        5.7450
   7        6.1539
   8        8.8946
   9        9.7906
  10       10.2055
  11       10.5044
  12       10.8069
  13       11.1838
  14       12.7427
  15       12.7559
  16       13.1570
 
  0.1388889E+00  0.8333333E-01  0.0000000E+00  0.5144033E-03
   1       -3.4751
   2        2.2310
   3        3.0695
   4        3.9932
   5        4.8832
   6        5.7985
   7        6.6218
   8        8.5411
   9        9.4262
  10       10.2175
  11       10.2573
  12       10.8567
  13       10.9852
  14       12.7950
  15       13.0967
  16       13.6246
 
  0.1666667E+00  0.8333333E-01  0.0000000E+00  0.5144033E-03
   1       -3.4067
   2        1.8693
   3        3.1348
   4        4.0570
   5        4.9501
   6        5.8639
   7        7.1036
   8        8.1949
   9        9.0728
  10        9.9192
  11       10.3204
  12       10.7259
  13       10.9176
  14       12.8590
  15       13.5081
  16       14.1041
 
  0.1944444E+00  0.8333333E-01  0.0000000E+00  0.5144033E-03
   1       -3.3259
   2        1.5170
   3        3.2120
   4        4.1324
   5        5.0291
   6        5.9411
   7        7.5978
   8        7.8574
   9        8.7305
  10        9.6169
  11       10.3951
  12       10.4426
  13       10.9896
  14       12.9345
  15       13.9575
  16       14.5951
 
  0.2222222E+00  0.8333333E-01  0.0000000E+00  0.5144033E-03
   1       -3.2327
   2        1.1749
   3        3.3010
   4        4.2194
   5        5.1200
   6        6.0301
   7        7.5295
   8        8.1033
   9        8.3997
  10        9.3151
  11       10.1513
  12       10.4812
  13       11.0727
  14       13.0217
  15       14.4311
  16       14.5588
 
  0.2500000E+00  0.8333333E-01  0.0000000E+00  0.5144033E-03
   1       -3.1272
   2        0.8434
   3        3.4018
   4        4.3180
   5        5.2228
   6        6.1308
   7        7.2119
   8        8.0804
   9        8.6194
  10        9.0169
  11        9.8596
  12       10.5787
  13       11.1668
  14       13.1204
  15       14.2528
  16       14.6750
 
  0.2777778E+00  0.8333333E-01  0.0000000E+00  0.5144033E-03
   1       -3.0093
   2        0.5230
   3        3.5145
   4        4.4282
   5        5.3373
   6        6.2431
   7        6.9051
   8        7.7726
   9        8.7244
  10        9.1458
  11        9.5716
  12       10.6877
  13       11.2721
  14       13.2308
  15       13.9568
  16       14.3948
 
  0.3055556E+00  0.8333333E-01  0.0000000E+00  0.5144033E-03
   1       -2.8791
   2        0.2137
   3        3.6389
   4        4.5500
   5        5.4630
   6        6.3670
   7        6.6096
   8        7.4764
   9        8.4391
  10        9.2897
  11        9.6817
  12       10.8081
  13       11.3886
  14       13.3526
  15       13.6708
  16       14.1233
 
  0.3333333E+00  0.8333333E-01  0.0000000E+00  0.5144033E-03
   1       -2.7367
   2       -0.0841
   3        3.7751
   4        4.6834
   5        5.5990
   6        6.3265
   7        6.5021
   8        7.1918
   9        8.1621
  10        9.0154
  11       10.2267
  12       10.9398
  13       11.5164
  14       13.3953
  15       13.4860
  16       13.8609
 
  0.3611111E+00  0.8333333E-01  0.0000000E+00  0.5144033E-03
   1       -2.5819
   2       -0.3704
   3        3.9230
   4        4.8285
   5        5.7390
   6        6.0623
   7        6.6481
   8        6.9187
   9        7.8946
  10        8.7499
  11       10.7793
  12       11.0829
  13       11.6564
  14       13.1303
  15       13.6081
  16       13.6308
 
  0.3888889E+00  0.8333333E-01  0.0000000E+00  0.5144033E-03
   1       -2.4150
   2       -0.6451
   3        4.0826
   4        4.9852
   5        5.7479
   6        5.9519
   7        6.6574
   8        6.8038
   9        7.6383
  10        8.4937
  11       11.2374
  12       11.3360
  13       11.8115
  14       12.8760
  15       13.3650
  16       13.7871
 
  0.4166667E+00  0.8333333E-01  0.0000000E+00  0.5144033E-03
   1       -2.2359
   2       -0.9081
   3        4.2538
   4        5.1535
   5        5.5185
   6        6.1025
   7        6.4076
   8        6.9639
   9        7.3990
  10        8.2475
  11       11.4031
  12       11.8556
  13       12.0219
  14       12.6325
  15       13.1318
  16       13.9547
 
  0.4444444E+00  0.8333333E-01  0.0000000E+00  0.5144033E-03
   1       -2.0447
   2       -1.1593
   3        4.4367
   4        5.2817
   5        5.3334
   6        6.1695
   7        6.2829
   8        7.0572
   9        7.2479
  10        8.0119
  11       11.5801
  12       12.1092
  13       12.3999
  14       12.5157
  15       12.9087
  16       14.1337
 
  0.4722222E+00  0.8333333E-01  0.0000000E+00  0.5144033E-03
   1       -1.8413
   2       -1.3986
   3        4.6311
   4        5.0539
   5        5.5250
   6        5.9430
   7        6.4763
   8        6.8896
   9        7.3796
  10        7.7875
  11       11.7683
  12       12.1783
  13       12.2984
  14       12.6956
  15       13.0897
  16       14.2546
 
  0.5000000E+00  0.8333333E-01  0.0000000E+00  0.2572016E-03
   1       -1.6259
   2       -1.6259
   3        4.8369
   4        4.8369
   5        5.7282
   6        5.7282
   7        6.6801
   8        6.6801
   9        7.5753
  10        7.5753
  11       11.9677
  12       11.9677
  13       12.4924
  14       12.4924
  15       13.6720
  16       13.6720
 
  0.1111111E+00  0.1111111E+00  0.0000000E+00  0.2572016E-03
   1       -3.4875
   2        2.6422
   3        2.6422
   4        3.9817
   5        4.8710
   6        6.1953
   7        6.1953
   8        8.5372
   9        9.8310
  10        9.8310
  11       10.5435
  12       10.5435
  13       11.3237
  14       12.7456
  15       13.1975
  16       13.1975
 
  0.1388889E+00  0.1111111E+00  0.0000000E+00  0.5144033E-03
   1       -3.4315
   2        2.2729
   3        2.6959
   4        4.0338
   5        4.9257
   6        6.2486
   7        6.6631
   8        8.1836
   9        9.4666
  10        9.8828
  11       10.2569
  12       10.5938
  13       11.2712
  14       12.9336
  15       13.2497
  16       13.6650
 
  0.1666667E+00  0.1111111E+00  0.0000000E+00  0.5144033E-03
   1       -3.3632
   2        1.9113
   3        2.7615
   4        4.0976
   5        4.9925
   6        6.3137
   7        7.1447
   8        7.8371
   9        9.1132
  10        9.9462
  11        9.9590
  12       10.6552
  13       11.0825
  14       13.2698
  15       13.3134
  16       14.1444
 
  0.1944444E+00  0.1111111E+00  0.0000000E+00  0.5144033E-03
   1       -3.2824
   2        1.5591
   3        2.8390
   4        4.1730
   5        5.0714
   6        6.3904
   7        7.4992
   8        7.6386
   9        8.7710
  10        9.6569
  11       10.0210
  12       10.7278
  13       10.8322
  14       13.3887
  15       13.6831
  16       14.5219
 
  0.2222222E+00  0.1111111E+00  0.0000000E+00  0.5144033E-03
   1       -3.1892
   2        1.2171
   3        2.9284
   4        4.2600
   5        5.1620
   6        6.4789
   7        7.1710
   8        8.1438
   9        8.4402
  10        9.3554
  11       10.1074
  12       10.5580
  13       10.8116
  14       13.4755
  15       14.1374
  16       14.2042
 
  0.2500000E+00  0.1111111E+00  0.0000000E+00  0.5144033E-03
   1       -3.0837
   2        0.8858
   3        3.0297
   4        4.3586
   5        5.2644
   6        6.5790
   7        6.8531
   8        8.1209
   9        8.6597
  10        9.0575
  11       10.2052
  12       10.2761
  13       10.9066
  14       13.5738
  15       13.8963
  16       14.4180
 
  0.2777778E+00  0.1111111E+00  0.0000000E+00  0.5144033E-03
   1       -2.9659
   2        0.5654
   3        3.1428
   4        4.4688
   5        5.3782
   6        6.5463
   7        6.6907
   8        7.8132
   9        8.7653
  10        9.1857
  11        9.9943
  12       10.3145
  13       11.0129
  14       13.5984
  15       13.6837
  16       14.1396
 
  0.3055556E+00  0.1111111E+00  0.0000000E+00  0.5144033E-03
   1       -2.8358
   2        0.2563
   3        3.2677
   4        4.5906
   5        5.5021
   6        6.2520
   7        6.8136
   8        7.5170
   9        8.4804
  10        9.7167
  11        9.7210
  12       10.4353
  13       11.1306
  14       13.3108
  15       13.8050
  16       13.8692
 
  0.3333333E+00  0.1111111E+00  0.0000000E+00  0.5144033E-03
   1       -2.6933
   2       -0.0415
   3        3.4044
   4        4.7240
   5        5.6299
   6        5.9764
   7        6.9475
   8        7.2323
   9        8.2041
  10        9.4456
  11       10.2647
  12       10.5675
  13       11.2604
  14       13.0337
  15       13.6075
  16       13.9378
 
  0.3611111E+00  0.1111111E+00  0.0000000E+00  0.5144033E-03
   1       -2.5387
   2       -0.3277
   3        3.5529
   4        4.8691
   5        5.6407
   6        5.8406
   7        6.9593
   8        7.0914
   9        7.9382
  10        9.1824
  11       10.7111
  12       10.8140
  13       11.4045
  14       12.7673
  15       13.3550
  16       14.0819
 
  0.3888889E+00  0.1111111E+00  0.0000000E+00  0.5144033E-03
   1       -2.3718
   2       -0.6024
   3        3.7131
   4        5.0258
   5        5.4052
   6        5.9739
   7        6.6979
   8        7.2407
   9        7.6877
  10        8.9281
  11       10.8660
  12       11.3493
  13       11.5820
  14       12.5117
  15       13.1119
  16       14.2374
 
  0.4166667E+00  0.1111111E+00  0.0000000E+00  0.5144033E-03
   1       -2.1927