 running on    4 nodes
 distr:  one band on    1 nodes,    4 groups
 vasp.4.6.28 25Jul05 complex 
 POSCAR found :  1 types and    4 ions
 LDA part: xc-table for Pade appr. of Perdew
 POSCAR, INCAR and KPOINTS ok, starting setup
 FFT: planning ...           1
 reading WAVECAR
 WARNING: random wavefunctions but no delay for mixing, default for NELMDL
 entering main loop
       N       E                     dE             d eps       ncg     rms          rms(c)
DAV:   1     0.567661568896E+03    0.56766E+03   -0.27698E+04  4704   0.216E+03
DAV:   2     0.914680486037E+01   -0.55851E+03   -0.53440E+03  4724   0.533E+02
DAV:   3    -0.128576287920E+02   -0.22004E+02   -0.21478E+02  5272   0.120E+02
DAV:   4    -0.131824858130E+02   -0.32486E+00   -0.32428E+00  4992   0.129E+01
DAV:   5    -0.131856502291E+02   -0.31644E-02   -0.31639E-02  5016   0.122E+00    0.591E+00
DAV:   6    -0.123062781808E+02    0.87937E+00   -0.18240E+00  5048   0.137E+01    0.183E+00
DAV:   7    -0.122017968029E+02    0.10448E+00   -0.21369E-01  5320   0.416E+00    0.535E-01
DAV:   8    -0.121852202498E+02    0.16577E-01   -0.97553E-03  4804   0.974E-01    0.414E-02
DAV:   9    -0.121852507296E+02   -0.30480E-04   -0.28285E-04  5224   0.141E-01    0.212E-02
DAV:  10    -0.121852675997E+02   -0.16870E-04   -0.18917E-05  4856   0.273E-02    0.251E-03
DAV:  11    -0.121852702896E+02   -0.26899E-05   -0.31455E-07  5032   0.498E-03    0.453E-04
DAV:  12    -0.121852698463E+02    0.44326E-06   -0.21243E-08  4068   0.138E-03    0.112E-04
DAV:  13    -0.121852697507E+02    0.95588E-07   -0.33917E-09  2604   0.607E-04    0.209E-05
DAV:  14    -0.121852697655E+02   -0.14783E-07   -0.23567E-10  2520   0.150E-04    0.140E-05
DAV:  15    -0.121852697599E+02    0.55652E-08   -0.31321E-11  2508   0.596E-05
   1 F= -.12185270E+02 E0= -.12185227E+02  d E =-.860488E-04
