   4   4   0   0
  0.1557434E+02  0.3964209E-09  0.3964209E-09  0.3964209E-09  0.5000000E-15
  1.000000000000000E-004
  CAR 
 unknown system                          
     20.05236304     -5.00486013  301      6.98723556      1.00000000
     -5.005  0.0000E+00  0.0000E+00
     -4.921  0.0000E+00  0.0000E+00
     -4.838  0.0000E+00  0.0000E+00
     -4.754  0.0000E+00  0.0000E+00
     -4.671  0.0000E+00  0.0000E+00
     -4.587  0.0000E+00  0.0000E+00
     -4.504  0.0000E+00  0.0000E+00
     -4.420  0.0000E+00  0.0000E+00
     -4.337  0.0000E+00  0.0000E+00
     -4.253  0.0000E+00  0.0000E+00
     -4.170  0.0000E+00  0.0000E+00
     -4.086  0.0000E+00  0.0000E+00
     -4.003  0.0000E+00  0.0000E+00
     -3.919  0.3892E-15  0.3251E-16
     -3.836  0.1386E-01  0.1157E-02
     -3.752  0.8313E-01  0.8101E-02
     -3.668  0.1661E+00  0.2197E-01
     -3.585  0.1104E+00  0.3121E-01
     -3.501  0.8101E-01  0.3802E-01
     -3.418  0.3213E+00  0.6503E-01
     -3.334  0.3241E+00  0.9304E-01
     -3.251  0.0000E+00  0.9375E-01
     -3.167  0.1622E+00  0.1073E+00
     -3.084  0.4035E+00  0.1413E+00
     -3.000  0.3174E+00  0.1689E+00
     -2.917  0.3313E+00  0.1978E+00
     -2.833  0.1109E+00  0.2072E+00
     -2.750  0.3326E+00  0.2350E+00
     -2.666  0.6651E+00  0.2905E+00
     -2.583  0.3469E-13  0.2905E+00
     -2.499  0.3890E+00  0.3230E+00
     -2.416  0.3355E+00  0.3533E+00
     -2.332  0.8222E+00  0.4219E+00
     -2.249  0.1052E+00  0.4312E+00
     -2.165  0.9975E+00  0.5335E+00
     -2.082  0.1722E-13  0.5336E+00
     -1.998  0.3326E+00  0.5613E+00
     -1.914  0.1271E+00  0.5720E+00
     -1.831  0.1118E+01  0.6654E+00
     -1.747  0.1274E+01  0.7718E+00
     -1.664  0.2828E-06  0.7720E+00
     -1.580  0.1290E+01  0.8797E+00
     -1.497  0.3741E-02  0.8834E+00
     -1.413  0.1489E+01  0.1008E+01
     -1.330  0.3320E+00  0.1036E+01
     -1.246  0.1913E+01  0.1196E+01
     -1.163  0.2498E+01  0.1407E+01
     -1.079  0.1840E+01  0.1561E+01
     -0.996  0.2570E+01  0.1782E+01
     -0.912  0.2839E+01  0.2025E+01
     -0.829  0.3791E+01  0.2350E+01
     -0.745  0.3657E+01  0.2656E+01
     -0.662  0.3540E+01  0.2998E+01
     -0.578  0.5600E+01  0.3519E+01
     -0.495  0.4966E+01  0.3937E+01
     -0.411  0.7039E+01  0.4525E+01
     -0.328  0.7349E+01  0.5172E+01
     -0.244  0.4892E+01  0.5628E+01
     -0.160  0.5495E+01  0.6122E+01
     -0.077  0.9068E+01  0.6907E+01
      0.007  0.3476E+01  0.7233E+01
      0.090  0.3957E+01  0.7594E+01
      0.174  0.8778E+01  0.8343E+01
      0.257  0.5281E+01  0.8804E+01
      0.341  0.4533E+01  0.9214E+01
      0.424  0.4154E+01  0.9592E+01
      0.508  0.3932E+01  0.9973E+01
      0.591  0.3318E+01  0.1026E+02
      0.675  0.4401E+01  0.1065E+02
      0.758  0.6988E+01  0.1124E+02
      0.842  0.4881E+01  0.1169E+02
      0.925  0.5135E+01  0.1212E+02
      1.009  0.7521E+01  0.1279E+02
      1.092  0.3324E+01  0.1314E+02
      1.176  0.8391E+01  0.1384E+02
      1.259  0.6222E+01  0.1438E+02
      1.343  0.7335E+01  0.1500E+02
      1.426  0.6011E+01  0.1551E+02
      1.510  0.6049E+01  0.1602E+02
      1.594  0.6705E+01  0.1659E+02
      1.677  0.8034E+01  0.1730E+02
      1.761  0.9702E+01  0.1814E+02
      1.844  0.5646E+01  0.1871E+02
      1.928  0.9563E+01  0.1952E+02
      2.011  0.8873E+01  0.2028E+02
      2.095  0.1310E+02  0.2142E+02
      2.178  0.9331E+01  0.2235E+02
      2.262  0.6279E+01  0.2298E+02
      2.345  0.6518E+01  0.2356E+02
      2.429  0.6102E+01  0.2410E+02
      2.512  0.5309E+01  0.2454E+02
      2.596  0.5907E+01  0.2505E+02
      2.679  0.4872E+01  0.2549E+02
      2.763  0.5059E+01  0.2594E+02
      2.846  0.6477E+01  0.2650E+02
      2.930  0.4099E+01  0.2687E+02
      3.013  0.5182E+01  0.2734E+02
      3.097  0.7052E+01  0.2793E+02
      3.180  0.7717E+01  0.2864E+02
      3.264  0.5678E+01  0.2913E+02
      3.348  0.7745E+01  0.2978E+02
      3.431  0.7023E+01  0.3039E+02
      3.515  0.6025E+01  0.3094E+02
      3.598  0.5274E+01  0.3139E+02
      3.682  0.7707E+01  0.3207E+02
      3.765  0.4766E+01  0.3252E+02
      3.849  0.5088E+01  0.3297E+02
      3.932  0.3627E+01  0.3333E+02
      4.016  0.4906E+01  0.3376E+02
      4.099  0.6056E+01  0.3432E+02
      4.183  0.7146E+01  0.3491E+02
      4.266  0.4744E+01  0.3534E+02
      4.350  0.4059E+01  0.3573E+02
      4.433  0.3762E+01  0.3605E+02
      4.517  0.7086E+01  0.3667E+02
      4.600  0.7641E+01  0.3737E+02
      4.684  0.6148E+01  0.3792E+02
      4.767  0.7099E+01  0.3853E+02
      4.851  0.8528E+01  0.3927E+02
      4.935  0.1522E+02  0.4062E+02
      5.018  0.6363E+01  0.4116E+02
      5.102  0.3081E+01  0.4142E+02
      5.185  0.3789E+01  0.4177E+02
      5.269  0.1209E+01  0.4201E+02
      5.352  0.1530E+01  0.4214E+02
      5.436  0.9889E+00  0.4222E+02
      5.519  0.2382E+01  0.4242E+02
      5.603  0.1854E+01  0.4263E+02
      5.686  0.7597E+00  0.4269E+02
      5.770  0.2349E+00  0.4271E+02
      5.853  0.3409E+00  0.4274E+02
      5.937  0.1020E+01  0.4283E+02
      6.020  0.3740E+00  0.4286E+02
      6.104  0.6455E+00  0.4291E+02
      6.187  0.3230E+01  0.4318E+02
      6.271  0.3520E+00  0.4322E+02
      6.354  0.1337E+01  0.4333E+02
      6.438  0.2547E+00  0.4336E+02
      6.521  0.1285E+01  0.4347E+02
      6.605  0.6646E+00  0.4352E+02
      6.689  0.5861E+00  0.4357E+02
      6.772  0.1339E+01  0.4369E+02
      6.856  0.2758E+01  0.4393E+02
      6.939  0.3326E+00  0.4395E+02
      7.023  0.1328E+01  0.4407E+02
      7.106  0.4053E-03  0.4407E+02
      7.190  0.9759E+00  0.4415E+02
      7.273  0.7486E+00  0.4421E+02
      7.357  0.9427E+00  0.4429E+02
      7.440  0.2892E+00  0.4435E+02
      7.524  0.2313E+01  0.4454E+02
      7.607  0.3008E-04  0.4455E+02
      7.691  0.2631E+01  0.4476E+02
      7.774  0.3696E+00  0.4483E+02
      7.858  0.6651E+00  0.4488E+02
      7.941  0.8755E-01  0.4489E+02
      8.025  0.1837E+01  0.4504E+02
      8.108  0.6652E+00  0.4510E+02
      8.192  0.8383E+00  0.4517E+02
      8.275  0.1051E+01  0.4526E+02
      8.359  0.2019E+01  0.4544E+02
      8.443  0.1182E-11  0.4547E+02
      8.526  0.1330E+01  0.4558E+02
      8.610  0.1164E+01  0.4567E+02
      8.693  0.3326E+00  0.4570E+02
      8.777  0.1329E+01  0.4581E+02
      8.860  0.6651E+00  0.4587E+02
      8.944  0.4399E+00  0.4590E+02
      9.027  0.9528E+00  0.4600E+02
      9.111  0.8848E+00  0.4608E+02
      9.194  0.8278E+00  0.4619E+02
      9.278  0.7146E+00  0.4625E+02
      9.361  0.1613E+01  0.4638E+02
      9.445  0.1054E+01  0.4647E+02
      9.528  0.4537E+00  0.4651E+02
      9.612  0.3321E+00  0.4655E+02
      9.695  0.1278E+01  0.4666E+02
      9.779  0.9931E+00  0.4676E+02
      9.862  0.6141E+00  0.4681E+02
      9.946  0.3326E+00  0.4684E+02
     10.029  0.1025E+01  0.4693E+02
     10.113  0.7256E-02  0.4695E+02
     10.197  0.4935E+00  0.4699E+02
     10.280  0.1495E+01  0.4712E+02
     10.364  0.6580E+00  0.4717E+02
     10.447  0.1193E+01  0.4727E+02
     10.531  0.1437E+01  0.4741E+02
     10.614  0.1987E+01  0.4762E+02
     10.698  0.6647E+00  0.4768E+02
     10.781  0.2555E+00  0.4770E+02
     10.865  0.2777E+01  0.4794E+02
     10.948  0.7998E+00  0.4802E+02
     11.032  0.2988E+01  0.4829E+02
     11.115  0.3326E+00  0.4832E+02
     11.199  0.9777E+00  0.4840E+02
     11.282  0.8313E+00  0.4847E+02
     11.366  0.3624E+00  0.4850E+02
     11.449  0.2030E+00  0.4852E+02
     11.533  0.2594E+01  0.4873E+02
     11.616  0.1343E+01  0.4885E+02
     11.700  0.6276E+00  0.4890E+02
     11.783  0.1632E+01  0.4907E+02
     11.867  0.9632E+00  0.4915E+02
     11.951  0.4137E+00  0.4921E+02
     12.034  0.9940E+00  0.4930E+02
     12.118  0.2330E+00  0.4932E+02
     12.201  0.1080E+01  0.4943E+02
     12.285  0.1613E+01  0.4958E+02
     12.368  0.7703E+00  0.4965E+02
     12.452  0.1170E+01  0.4975E+02
     12.535  0.1682E+01  0.4989E+02
     12.619  0.1394E+01  0.5003E+02
     12.702  0.8920E+00  0.5010E+02
     12.786  0.9542E+00  0.5018E+02
     12.869  0.1331E+01  0.5029E+02
     12.953  0.1044E+01  0.5038E+02
     13.036  0.1424E+01  0.5051E+02
     13.120  0.1551E+01  0.5064E+02
     13.203  0.2302E+01  0.5083E+02
     13.287  0.1150E+01  0.5093E+02
     13.370  0.5576E+00  0.5098E+02
     13.454  0.5763E+00  0.5103E+02
     13.537  0.8989E+00  0.5110E+02
     13.621  0.1302E+01  0.5121E+02
     13.705  0.1664E+01  0.5135E+02
     13.788  0.1663E+01  0.5150E+02
     13.872  0.1450E+01  0.5162E+02
     13.955  0.9973E+00  0.5171E+02
     14.039  0.1540E+01  0.5184E+02
     14.122  0.3325E+00  0.5188E+02
     14.206  0.3326E+00  0.5191E+02
     14.289  0.7193E+00  0.5197E+02
     14.373  0.6651E+00  0.5202E+02
     14.456  0.2562E+01  0.5224E+02
     14.540  0.1040E+01  0.5233E+02
     14.623  0.9348E-04  0.5236E+02
     14.707  0.1450E+01  0.5248E+02
     14.790  0.1161E+01  0.5258E+02
     14.874  0.1795E+01  0.5273E+02
     14.957  0.2025E+01  0.5292E+02
     15.041  0.4984E+00  0.5296E+02
     15.124  0.1134E+01  0.5305E+02
     15.208  0.3333E+00  0.5308E+02
     15.291  0.2380E+01  0.5328E+02
     15.375  0.2154E+01  0.5346E+02
     15.459  0.2301E-06  0.5347E+02
     15.542  0.8207E+00  0.5354E+02
     15.626  0.9522E+00  0.5362E+02
     15.709  0.3774E+00  0.5365E+02
     15.793  0.1042E+01  0.5375E+02
     15.876  0.2860E+01  0.5402E+02
     15.960  0.2206E+01  0.5422E+02
     16.043  0.7104E+00  0.5431E+02
     16.127  0.1174E+01  0.5443E+02
     16.210  0.2729E+01  0.5467E+02
     16.294  0.1894E+01  0.5485E+02
     16.377  0.6085E+00  0.5490E+02
     16.461  0.8076E+00  0.5497E+02
     16.544  0.0000E+00  0.5497E+02
     16.628  0.3293E+00  0.5500E+02
     16.711  0.1995E+01  0.5517E+02
     16.795  0.3356E+00  0.5519E+02
     16.878  0.9983E+00  0.5528E+02
     16.962  0.1091E+01  0.5537E+02
     17.045  0.1057E+01  0.5546E+02
     17.129  0.9278E+00  0.5554E+02
     17.213  0.8380E+00  0.5561E+02
     17.296  0.6651E+00  0.5567E+02
     17.380  0.5400E-02  0.5567E+02
     17.463  0.8537E+00  0.5574E+02
     17.547  0.1003E+01  0.5582E+02
     17.630  0.0000E+00  0.5582E+02
     17.714  0.1696E-01  0.5583E+02
     17.797  0.6495E+00  0.5588E+02
     17.881  0.3313E+00  0.5591E+02
     17.964  0.3326E+00  0.5594E+02
     18.048  0.6651E+00  0.5599E+02
     18.131  0.0000E+00  0.5599E+02
     18.215  0.0000E+00  0.5599E+02
     18.298  0.0000E+00  0.5599E+02
     18.382  0.0000E+00  0.5599E+02
     18.465  0.0000E+00  0.5599E+02
     18.549  0.0000E+00  0.5599E+02
     18.632  0.0000E+00  0.5599E+02
     18.716  0.0000E+00  0.5599E+02
     18.800  0.0000E+00  0.5599E+02
     18.883  0.9670E-06  0.5599E+02
     18.967  0.1109E+00  0.5600E+02
     19.050  0.0000E+00  0.5600E+02
     19.134  0.0000E+00  0.5600E+02
     19.217  0.0000E+00  0.5600E+02
     19.301  0.0000E+00  0.5600E+02
     19.384  0.0000E+00  0.5600E+02
     19.468  0.0000E+00  0.5600E+02
     19.551  0.0000E+00  0.5600E+02
     19.635  0.0000E+00  0.5600E+02
     19.718  0.0000E+00  0.5600E+02
     19.802  0.0000E+00  0.5600E+02
     19.885  0.0000E+00  0.5600E+02
     19.969  0.0000E+00  0.5600E+02
     20.052  0.0000E+00  0.5600E+02
