    4    4    1    1
  0.1557434E+02  0.3964209E-09  0.3964209E-09  0.3964209E-09  0.5000000E-15
  1.000000000000000E-004
  CAR 
 unknown system                          
   44   84   28
 
  0.0000000E+00  0.0000000E+00  0.0000000E+00  0.5787037E-03
   1       -3.8659
   2       -1.0323
   3       -1.0323
   4       -1.0323
   5       -0.6748
   6       -0.6748
   7       -0.6748
   8        1.7181
   9        1.7181
  10        1.7181
  11        3.4981
  12        3.4981
  13        4.8569
  14        4.8569
  15        4.8569
  16        5.2840
  17        5.2840
  18        5.2840
  19        5.2840
  20        5.2840
  21        5.2840
  22        7.7656
  23        7.7656
  24        7.7656
  25       13.5869
  26       13.5869
  27       13.5869
  28       17.5201
 
  0.8333333E-01  0.0000000E+00  0.0000000E+00  0.3472222E-02
   1       -3.7773
   2       -0.9984
   3       -0.9709
   4       -0.9709
   5       -0.6408
   6       -0.6228
   7       -0.6228
   8        1.6681
   9        1.7604
  10        1.7604
  11        3.4438
  12        3.5193
  13        4.7783
  14        4.7783
  15        4.8314
  16        4.9008
  17        4.9008
  18        5.1886
  19        5.1886
  20        5.2841
  21        5.2841
  22        7.2099
  23        8.2046
  24        8.2046
  25       13.4818
  26       13.4818
  27       14.2865
  28       17.3956
 
  0.1666667E+00  0.0000000E+00  0.0000000E+00  0.3472222E-02
   1       -3.5152
   2       -0.9066
   3       -0.7930
   4       -0.7930
   5       -0.5402
   6       -0.4670
   7       -0.4670
   8        1.5239
   9        1.8868
  10        1.8868
  11        3.2885
  12        3.5817
  13        4.1358
  14        4.1358
  15        4.5506
  16        4.5506
  17        4.7574
  18        4.9224
  19        4.9224
  20        5.2846
  21        5.2846
  22        6.0188
  23        9.1347
  24        9.1347
  25       13.2140
  26       13.2140
  27       15.9154
  28       17.0276
 
  0.2500000E+00  0.0000000E+00  0.0000000E+00  0.3472222E-02
   1       -3.0915
   2       -0.7921
   3       -0.5202
   4       -0.5202
   5       -0.3768
   6       -0.2086
   7       -0.2086
   8        1.3020
   9        2.0947
  10        2.0947
  11        3.0555
  12        3.3128
  13        3.3128
  14        3.6821
  15        4.2033
  16        4.2033
  17        4.5341
  18        4.5341
  19        4.6412
  20        4.7299
  21        5.2852
  22        5.2852
  23       10.2255
  24       10.2255
  25       12.8889
  26       12.8889
  27       16.4342
  28       16.4342
 
  0.3333333E+00  0.0000000E+00  0.0000000E+00  0.3472222E-02
   1       -2.5321
   2       -0.7323
   3       -0.1977
   4       -0.1977
   5       -0.1575
   6        0.1509
   7        0.1509
   8        1.0250
   9        2.3799
  10        2.3799
  11        2.5245
  12        2.5245
  13        2.7889
  14        3.6032
  15        3.7995
  16        3.7995
  17        3.8149
  18        4.0793
  19        4.0793
  20        4.4925
  21        5.2858
  22        5.2858
  23       11.3723
  24       11.3723
  25       12.6044
  26       12.6044
  27       15.6462
  28       15.6462
 
  0.4166667E+00  0.0000000E+00  0.0000000E+00  0.3472222E-02
   1       -1.8905
   2       -0.8602
   3        0.0887
   4        0.0887
   5        0.1077
   6        0.6086
   7        0.6086
   8        0.7181
   9        1.8023
  10        1.8023
  11        2.5644
  12        2.7351
  13        2.7351
  14        2.8275
  15        3.4494
  16        3.4494
  17        3.6058
  18        3.6058
  19        3.9727
  20        4.3232
  21        5.2863
  22        5.2863
  23       12.4185
  24       12.4185
  25       12.5265
  26       12.5265
  27       14.7036
  28       14.7036
 
  0.5000000E+00  0.0000000E+00  0.0000000E+00  0.1736111E-02
   1       -1.2762
   2       -1.2762
   3        0.2101
   4        0.2101
   5        0.4053
   6        0.4053
   7        1.1609
   8        1.1609
   9        1.1609
  10        1.1609
  11        2.5141
  12        2.5141
  13        3.1494
  14        3.1494
  15        3.1494
  16        3.1494
  17        3.3039
  18        3.3039
  19        4.1458
  20        4.1458
  21        5.2864
  22        5.2864
  23       12.3546
  24       12.3546
  25       13.6498
  26       13.6498
  27       13.6498
  28       13.6498
 
  0.8333333E-01  0.8333333E-01  0.0000000E+00  0.6944444E-02
   1       -3.6898
   2       -0.9364
   3       -0.9364
   4       -0.9172
   5       -0.5894
   6       -0.5894
   7       -0.5655
   8        1.6459
   9        1.7764
  10        1.7991
  11        3.4288
  12        3.5061
  13        4.6529
  14        4.6670
  15        4.6670
  16        4.7047
  17        4.8677
  18        4.8677
  19        5.1885
  20        5.1885
  21        5.2225
  22        7.6614
  23        7.6614
  24        8.5706
  25       13.3587
  26       14.1748
  27       14.1748
  28       16.8928
 
  0.1666667E+00  0.8333333E-01  0.0000000E+00  0.1388889E-01
   1       -3.4308
   2       -0.8430
   3       -0.7606
   4       -0.7568
   5       -0.4907
   6       -0.4357
   7       -0.3961
   8        1.5193
   9        1.8894
  10        1.9132
  11        3.2945
  12        3.5628
  13        3.9555
  14        4.0088
  15        4.3362
  16        4.4904
  17        4.5859
  18        4.7701
  19        4.9217
  20        5.1882
  21        5.1895
  22        6.5557
  23        8.5527
  24        9.4150
  25       13.0404
  26       13.8999
  27       15.7389
  28       16.3701
 
  0.2500000E+00  0.8333333E-01  0.0000000E+00  0.1388889E-01
   1       -3.0122
   2       -0.7261
   3       -0.5143
   4       -0.4808
   5       -0.3306
   6       -0.1807
   7       -0.1245
   8        1.3068
   9        2.0937
  10        2.0941
  11        3.0814
  12        3.1497
  13        3.2469
  14        3.6751
  15        3.7950
  16        4.1610
  17        4.2445
  18        4.5327
  19        4.5947
  20        5.1820
  21        5.1876
  22        5.4886
  23        9.5278
  24       10.4556
  25       12.6427
  26       13.6033
  27       15.8574
  28       16.6114
 
  0.3333333E+00  0.8333333E-01  0.0000000E+00  0.1388889E-01
   1       -2.4593
   2       -0.6641
   3       -0.2035
   4       -0.1533
   5       -0.1159
   6        0.1736
   7        0.2262
   8        1.0383
   9        2.2978
  10        2.3782
  11        2.3856
  12        2.4932
  13        2.8811
  14        3.1147
  15        3.7760
  16        3.8269
  17        3.8463
  18        4.0774
  19        4.2610
  20        4.7864
  21        5.1809
  22        5.1867
  23       10.4442
  24       11.5734
  25       12.2665
  26       13.4433
  27       15.2987
  28       15.8186
 
  0.4166667E+00  0.8333333E-01  0.0000000E+00  0.1388889E-01
   1       -1.8240
   2       -0.7932
   3        0.1051
   4        0.1389
   5        0.1436
   6        0.6240
   7        0.6311
   8        0.7396
   9        1.6979
  10        1.7928
  11        2.3474
  12        2.5475
  13        2.7330
  14        2.9385
  15        3.4462
  16        3.4904
  17        3.6035
  18        3.7606
  19        4.0097
  20        4.4514
  21        5.1820
  22        5.1854
  23       11.1679
  24       11.9459
  25       12.7105
  26       13.5683
  27       14.6668
  28       14.8749
 
  0.5000000E+00  0.8333333E-01  0.0000000E+00  0.6944444E-02
   1       -1.2120
   2       -1.2120
   3        0.2559
   4        0.2559
   5        0.4345
   6        0.4345
   7        1.1098
   8        1.1098
   9        1.1660
  10        1.1660
  11        2.3187
  12        2.3187
  13        3.1470
  14        3.1470
  15        3.2913
  16        3.2913
  17        3.3247
  18        3.3247
  19        4.2168
  20        4.2168
  21        5.1837
  22        5.1837
  23       11.6287
  24       11.6287
  25       13.8246
  26       13.8246
  27       14.0290
  28       14.0290
 
  0.1666667E+00  0.1666667E+00  0.0000000E+00  0.6944444E-02
   1       -3.1813
   2       -0.6583
   3       -0.6583
   4       -0.6542
   5       -0.3430
   6       -0.3430
   7       -0.1998
   8        1.4589
   9        1.9480
  10        1.9895
  11        3.2475
  12        3.5469
  13        3.5469
  14        3.5789
  15        3.6177
  16        4.3122
  17        4.5706
  18        4.5706
  19        4.9197
  20        4.9197
  21        5.0419
  22        7.4323
  23        7.4323
  24       10.1259
  25       12.5879
  26       15.3102
  27       15.3102
  28       15.7782
 
  0.2500000E+00  0.1666667E+00  0.0000000E+00  0.1388889E-01
   1       -2.7780
   2       -0.5332
   3       -0.4631
   4       -0.3725
   5       -0.1928
   6       -0.0984
   7        0.0873
   8        1.2989
   9        2.0991
  10        2.1178
  11        2.7680
  12        3.0186
  13        3.0371
  14        3.0986
  15        3.7100
  16        4.0316
  17        4.2687
  18        4.4320
  19        4.5289
  20        4.9165
  21        4.9582
  22        6.3454
  23        8.3222
  24       11.0696
  25       12.0174
  26       14.8352
  27       15.3353
  28       16.8116
 
  0.3333333E+00  0.1666667E+00  0.0000000E+00  0.1388889E-01
   1       -2.2452
   2       -0.4646
   3       -0.1890
   4       -0.0286
   5        0.0080
   6        0.2402
   7        0.4156
   8        1.0673
   9        2.0548
  10        2.1767
  11        2.3861
  12        2.3923
  13        2.4731
  14        2.9784
  15        3.6980
  16        3.9013
  17        3.9198
  18        4.0724
  19        4.1557
  20        4.9126
  21        4.9225
  22        5.4936
  23        9.1459
  24       11.4602
  25       12.1251
  26       14.4829
  27       14.9668
  28       16.3092
 
  0.4166667E+00  0.1666667E+00  0.0000000E+00  0.1388889E-01
   1       -1.6299
   2       -0.5989
   3        0.1408
   4        0.2496
   5        0.2844
   6        0.6683
   7        0.7136
   8        0.7984
   9        1.4389
  10        1.7601
  11        2.0914
  12        2.1138
  13        2.7334
  14        3.0701
  15        3.4202
  16        3.5510
  17        3.5987
  18        3.7689
  19        4.1847
  20        4.9088
  21        4.9094
  22        4.9101
  23        9.8552
  24       10.9502
  25       13.2236
  26       14.3402
  27       14.6477
  28       15.3598
 
  0.5000000E+00  0.1666667E+00  0.0000000E+00  0.6944444E-02
   1       -1.0268
   2       -1.0268
   3        0.3832
   4        0.3832
   5        0.5187
   6        0.5187
   7        0.9859
   8        0.9859
   9        1.1788
  10        1.1788
  11        2.0083
  12        2.0083
  13        3.1438
  14        3.1438
  15        3.3524
  16        3.3524
  17        3.3708
  18        3.3708
  19        4.5039
  20        4.5039
  21        4.9068
  22        4.9068
  23       10.4408
  24       10.4408
  25       14.3165
  26       14.3165
  27       14.4142
  28       14.4142
 
  0.2500000E+00  0.2500000E+00  0.0000000E+00  0.6944444E-02
   1       -2.4006
   2       -0.3349
   3       -0.2317
   4       -0.2317
   5        0.0343
   6        0.0343
   7        0.3715
   8        1.2300
   9        2.1142
  10        2.2230
  11        2.3031
  12        2.3031
  13        2.6765
  14        3.0204
  15        3.8173
  16        3.8821
  17        4.1739
  18        4.1739
  19        4.5236
  20        4.5236
  21        4.7538
  22        7.1789
  23        7.1789
  24       11.2591
  25       11.9278
  26       15.0119
  27       16.0150
  28       16.0150
 
  0.3333333E+00  0.2500000E+00  0.0000000E+00  0.1388889E-01
   1       -1.9028
   2       -0.1511
   3       -0.1210
   4        0.1411
   5        0.2104
   6        0.3464
   7        0.6671
   8        1.0812
   9        1.6624
  10        1.8786
  11        2.0926
  12        2.2057
  13        2.4405
  14        2.9333
  15        3.5513
  16        3.8510
  17        3.9365
  18        4.0674
  19        4.1753
  20        4.5190
  21        4.6247
  22        6.2407
  23        7.9577
  24       10.5395
  25       12.9216
  26       14.8020
  27       15.3662
  28       17.0668
 
  0.4166667E+00  0.2500000E+00  0.0000000E+00  0.1388889E-01
   1       -1.3253
   2       -0.3013
   3        0.1774
   4        0.4196
   5        0.5045
   6        0.7361
   7        0.8726
   8        0.8768
   9        1.1177
  10        1.6728
  11        1.6926
  12        1.9526
  13        2.7578
  14        3.0036
  15        3.3344
  16        3.5272
  17        3.5974
  18        3.5980
  19        4.5184
  20        4.5458
  21        4.5576
  22        5.5286
  23        8.6609
  24        9.8984
  25       13.9799
  26       14.6924
  27       14.9321
  28       16.0897
 
  0.5000000E+00  0.2500000E+00  0.0000000E+00  0.6944444E-02
   1       -0.7444
   2       -0.7444
   3        0.5291
   4        0.5291
   5        0.6479
   6        0.6479
   7        0.8846
   8        0.8846
   9        1.1915
  10        1.1915
  11        1.7522
  12        1.7522
  13        3.1514
  14        3.1514
  15        3.2531
  16        3.2531
  17        3.3155
  18        3.3155
  19        4.5279
  20        4.5279
  21        4.9862
  22        4.9862
  23        9.2937
  24        9.2937
  25       14.7189
  26       14.7189
  27       15.0508
  28       15.0508
 
  0.3333333E+00  0.3333333E+00  0.0000000E+00  0.6944444E-02
   1       -1.4555
   2        0.0137
   3        0.2402
   4        0.2402
   5        0.4842
   6        0.4842
   7        0.9227
   8        1.0447
   9        1.3562
  10        1.3562
  11        1.9263
  12        2.0188
  13        2.5851
  14        2.8255
  15        3.3470
  16        3.6545
  17        3.6545
  18        4.0675
  19        4.0675
  20        4.3779
  21        4.5601
  22        6.9658
  23        6.9658
  24        9.6943
  25       13.8676
  26       14.7529
  27       16.1991
  28       16.1991
 
  0.4166667E+00  0.3333333E+00  0.0000000E+00  0.1388889E-01
   1       -0.9403
   2        0.0425
   3        0.2206
   4        0.6176
   5        0.6420
   6        0.8175
   7        0.9424
   8        0.9463
   9        1.0793
  10        1.3555
  11        1.5743
  12        1.8585
  13        2.8363
  14        2.8393
  15        3.1698
  16        3.3496
  17        3.3650
  18        3.6108
  19        4.0817
  20        4.2146
  21        5.0220
  22        6.1797
  23        7.6500
  24        8.9624
  25       14.8302
  26       14.8935
  27       15.5229
  28       17.0047
 
  0.5000000E+00  0.3333333E+00  0.0000000E+00  0.6944444E-02
   1       -0.4109
   2       -0.4109
   3        0.4964
   4        0.4964
   5        0.8034
   6        0.8034
   7        1.0109
   8        1.0109
   9        1.1909
  10        1.1909
  11        1.5951
  12        1.5951
  13        3.0378
  14        3.0378
  15        3.1661
  16        3.1661
  17        3.1903
  18        3.1903
  19        4.1239
  20        4.1239
  21        5.5517
  22        5.5517
  23        8.3018
  24        8.3018
  25       15.0737
  26       15.0737
  27       15.9473
  28       15.9473
 
  0.4166667E+00  0.4166667E+00  0.0000000E+00  0.6944444E-02
   1       -0.5158
   2        0.2830
   3        0.3018
   4        0.3018
   5        0.8980
   6        0.8980
   7        0.9776
   8        1.2163
   9        1.2163
  10        1.2469
  11        1.3942
  12        1.7555
  13        2.7295
  14        2.9858
  15        3.0116
  16        3.0944
  17        3.0944
  18        3.6565
  19        3.6565
  20        3.9408
  21        5.5592
  22        6.8284
  23        6.8284
  24        8.1702
  25       15.1028
  26       15.8968
  27       16.1975
  28       16.1975
 
  0.5000000E+00  0.4166667E+00  0.0000000E+00  0.6944444E-02
   1       -0.0930
   2       -0.0930
   3        0.3462
   4        0.3462
   5        0.9582
   6        0.9582
   7        1.1598
   8        1.1598
   9        1.2639
  10        1.2639
  11        1.5319
  12        1.5319
  13        2.8312
  14        2.8312
  15        2.9378
  16        2.9378
  17        3.2887
  18        3.2887
  19        3.7582
  20        3.7582
  21        6.1506
  22        6.1506
  23        7.4791
  24        7.4791
  25       15.5498
  26       15.5498
  27       16.9449
  28       16.9629
 
  0.5000000E+00  0.5000000E+00  0.0000000E+00  0.1736111E-02
   1        0.1575
   2        0.1575
   3        0.1575
   4        0.1575
   5        1.0829
   6        1.0829
   7        1.0829
   8        1.0829
   9        1.4592
  10        1.4592
  11        1.4592
  12        1.4592
  13        2.7767
  14        2.7767
  15        2.7767
  16        2.7767
  17        3.4742
  18        3.4742
  19        3.4742
  20        3.4742
  21        6.7815
  22        6.7815
  23        6.7815
  24        6.7815
  25       16.1812
  26       16.1812
  27       16.1812
  28       16.1812
 
  0.8333333E-01  0.8333333E-01  0.8333333E-01  0.4629630E-02
   1       -3.6036
   2       -0.8828
   3       -0.8828
   4       -0.8828
   5       -0.5324
   6       -0.5324
   7       -0.5324
   8        1.6273
   9        1.8122
  10        1.8122
  11        3.4557
  12        3.4558
  13        4.5196
  14        4.5196
  15        4.5196
  16        4.6389
  17        4.6389
  18        4.6389
  19        5.1778
  20        5.1778
  21        5.1778
  22        8.0192
  23        8.0192
  24        8.0192
  25       14.0346
  26       14.0346
  27       14.0346
  28       17.1184
 
  0.1666667E+00  0.8333333E-01  0.8333333E-01  0.1388889E-01
   1       -3.3482
   2       -0.7896
   3       -0.7265
   4       -0.7265
   5       -0.4341
   6       -0.3635
   7       -0.3635
   8        1.5166
   9        1.9085
  10        1.9193
  11        3.3144
  12        3.5351
  13        3.8530
  14        3.8530
  15        4.1361
  16        4.4452
  17        4.4537
  18        4.4537
  19        5.0585
  20        5.1478
  21        5.1478
  22        6.9114
  23        8.8115
  24        8.8115
  25       13.6806
  26       13.6806
  27       15.4927
  28       16.6598
 
  0.2500000E+00  0.8333333E-01  0.8333333E-01  0.1388889E-01
   1       -2.9356
   2       -0.6731
   3       -0.4803
   4       -0.4803
   5       -0.2749
   6       -0.0931
   7       -0.0931
   8        1.3157
   9        2.0852
  10        2.0958
  11        3.0972
  12        3.0972
  13        3.1182
  14        3.5541
  15        3.6623
  16        4.1437
  17        4.1613
  18        4.1613
  19        4.8903
  20        5.1223
  21        5.1223
  22        5.7997
  23        9.7293
  24        9.7293
  25       13.2674
  26       13.2674
  27       16.2360
  28       16.2360
 
  0.3333333E+00  0.8333333E-01  0.8333333E-01  0.1388889E-01
   1       -2.3908
   2       -0.6111
   3       -0.1675
   4       -0.1675
   5       -0.0628
   6        0.2529
   7        0.2529
   8        1.0575
   9        2.2592
  10        2.3384
  11        2.3669
  12        2.3669
  13        2.8958
  14        2.9758
  15        3.7740
  16        3.7978
  17        3.7978
  18        3.8301
  19        4.6908
  20        4.8687
  21        5.1075
  22        5.1075
  23       10.6020
  24       10.6020
  25       12.9464
  26       12.9464
  27       15.7959
  28       15.7959
 
  0.4166667E+00  0.8333333E-01  0.8333333E-01  0.1388889E-01
   1       -1.7643
   2       -0.7406
   3        0.1493
   4        0.1493
   5        0.1907
   6        0.6373
   7        0.6373
   8        0.7687
   9        1.7113
  10        1.7113
  11        2.2581
  12        2.3875
  13        2.6409
  14        3.1215
  15        3.3790
  16        3.4686
  17        3.4686
  18        4.0290
  19        4.1288
  20        4.4724
  21        5.1004
  22        5.1004
  23       11.2430
  24       11.2430
  25       12.8213
  26       12.8213
  27       15.3667
  28       15.3667
 
  0.5000000E+00  0.8333333E-01  0.8333333E-01  0.6944444E-02
   1       -1.1585
   2       -1.1585
   3        0.3015
   4        0.3015
   5        0.4731
   6        0.4731
   7        0.9644
   8        0.9644
   9        1.2739
  10        1.2739
  11        2.2055
  12        2.2055
  13        2.9932
  14        2.9932
  15        3.3282
  16        3.3282
  17        3.5447
  18        3.5447
  19        4.2474
  20        4.2474
  21        5.0984
  22        5.0984
  23       11.4663
  24       11.4663
  25       12.8372
  26       12.8372
  27       15.1587
  28       15.1587
 
  0.1666667E+00  0.1666667E+00  0.8333333E-01  0.1388889E-01
   1       -3.1039
   2       -0.6345
   3       -0.6345
   4       -0.6246
   5       -0.2662
   6       -0.2662
   7       -0.1649
   8        1.4662
   9        1.9603
  10        1.9858
  11        3.2955
  12        3.4621
  13        3.4621
  14        3.4897
  15        3.5386
  16        4.2053
  17        4.2875
  18        4.2875
  19        5.0419
  20        5.0419
  21        5.0641
  22        7.6592
  23        7.6592
  24        9.4516
  25       13.1332
  26       14.9086
  27       14.9086
  28       16.2207
 
  0.2500000E+00  0.1666667E+00  0.8333333E-01  0.2777778E-01
   1       -2.7097
   2       -0.5202
   3       -0.4387
   4       -0.3901
   5       -0.1085
   6        0.0022
   7        0.1225
   8        1.3215
   9        2.0881
  10        2.1048
  11        2.7348
  12        2.9197
  13        2.9383
  14        3.1658
  15        3.6819
  16        3.9481
  17        3.9873
  18        4.0786
  19        4.8797
  20        4.9739
  21        4.9789
  22        6.5109
  23        8.4917
  24       10.2491
  25       12.4961
  26       14.2521
  27       15.9599
  28       16.1555
 
  0.3333333E+00  0.1666667E+00  0.8333333E-01  0.2777778E-01
   1       -2.1899
   2       -0.4605
   3       -0.1692
   4       -0.0750
   5        0.0974
   6        0.3374
   7        0.4439
   8        1.1050
   9        2.0631
  10        2.1592
  11        2.3017
  12        2.3161
  13        2.4006
  14        3.1018
  15        3.6194
  16        3.6551
  17        3.7844
  18        3.9008
  19        4.6300
  20        4.9168
  21        4.9177
  22        5.5492
  23        9.2883
  24       10.9654
  25       12.0122
  26       13.6737
  27       15.8211
  28       16.9040
 
  0.4166667E+00  0.1666667E+00  0.8333333E-01  0.2777778E-01
   1       -1.5913
   2       -0.5926
   3        0.1627
   4        0.2668
   5        0.3335
   6        0.6553
   7        0.7003
   8        0.8518
   9        1.5211
  10        1.7401
  11        2.0352
  12        2.0839
  13        2.5777
  14        3.2414
  15        3.2945
  16        3.3921
  17        3.4799
  18        4.1660
  19        4.2275
  20        4.8807
  21        4.8838
  22        4.8857
  23        9.9866
  24       11.0090
  25       12.1911
  26       13.1912
  27       15.8280
  28       16.4481
 
  0.5000000E+00  0.1666667E+00  0.8333333E-01  0.1388889E-01
   1       -1.0065
   2       -1.0065
   3        0.4274
   4        0.4274
   5        0.5884
   6        0.5884
   7        0.7727
   8        0.7727
   9        1.3742
  10        1.3742
  11        1.9678
  12        1.9678
  13        2.8881
  14        2.8881
  15        3.3102
  16        3.3102
  17        3.7174
  18        3.7174
  19        4.4743
  20        4.4743
  21        4.8748
  22        4.8748
  23       10.5636
  24       10.5636
  25       12.7203
  26       12.7203
  27       16.0420
  28       16.0420
 
  0.2500000E+00  0.2500000E+00  0.8333333E-01  0.1388889E-01
   1       -2.3468
   2       -0.3215
   3       -0.2825
   4       -0.2825
   5        0.1601
   6        0.1601
   7        0.4054
   8        1.2743
   9        2.1034
  10        2.1759
  11        2.2859
  12        2.2859
  13        2.5941
  14        3.1231
  15        3.6922
  16        3.8431
  17        3.8431
  18        3.8492
  19        4.7726
  20        4.7726
  21        4.8249
  22        7.2956
  23        7.2956
  24       10.8674
  25       11.7138
  26       15.2313
  27       15.2313
  28       15.8743
 
  0.3333333E+00  0.2500000E+00  0.8333333E-01  0.2777778E-01
   1       -1.8707
   2       -0.2353
   3       -0.1213
   4        0.0218
   5        0.3633
   6        0.4925
   7        0.6864
   8        1.1505
   9        1.7043
  10        1.8738
  11        2.0824
  12        2.1705
  13        2.3266
  14        3.1018
  15        3.4424
  16        3.5034
  17        3.6345
  18        4.1430
  19        4.4929
  20        4.6652
  21        4.6942
  22        6.2843
  23        8.0551
  24       10.6751
  25       11.8679
  26       14.4266
  27       15.9444
  28       16.2344
 
  0.4166667E+00  0.2500000E+00  0.8333333E-01  0.2777778E-01
   1       -1.3237
   2       -0.3798
   3        0.1586
   4        0.3668
   5        0.5737
   6        0.7235
   7        0.8349
   8        0.9732
   9        1.3323
  10        1.6697
  11        1.7619
  12        1.9431
  13        2.5366
  14        3.1403
  15        3.2435
  16        3.2856
  17        3.3873
  18        4.1057
  19        4.5107
  20        4.5975
  21        4.6097
  22        5.5129
  23        8.7562
  24       10.0288
  25       12.5316
  26       13.7527
  27       16.2057
  28       17.2594
 
  0.5000000E+00  0.2500000E+00  0.8333333E-01  0.1388889E-01
   1       -0.7825
   2       -0.7825
   3        0.4903
   4        0.4903
   5        0.7048
   6        0.7048
   7        0.7753
   8        0.7753
   9        1.4554
  10        1.4554
  11        1.7448
  12        1.7448
  13        2.8089
  14        2.8089
  15        3.2142
  16        3.2142
  17        3.6621
  18        3.6621
  19        4.5785
  20        4.5785
  21        4.9502
  22        4.9502
  23        9.4013
  24        9.4013
  25       13.1512
  26       13.1512
  27       16.6834
  28       16.6834
 
  0.3333333E+00  0.3333333E+00  0.8333333E-01  0.1388889E-01
   1       -1.4584
   2       -0.0136
   3        0.0310
   4        0.0310
   5        0.7099
   6        0.7099
   7        0.9111
   8        1.1540
   9        1.4168
  10        1.4168
  11        1.9739
  12        2.0163
  13        2.3793
  14        3.0793
  15        3.2127
  16        3.3528
  17        3.3528
  18        4.3552
  19        4.3552
  20        4.4875
  21        4.5240
  22        7.0039
  23        7.0039
  24        9.8193
  25       12.4664
  26       15.2654
  27       15.2654
  28       16.2150
 
  0.4166667E+00  0.3333333E+00  0.8333333E-01  0.2777778E-01
   1       -0.9920
   2       -0.1521
   3        0.1485
   4        0.2743
   5        0.9011
   6        0.9427
   7        0.9999
   8        1.1005
   9        1.2362
  10        1.3781
  11        1.7621
  12        1.8619
  13        2.4972
  14        3.0204
  15        3.0366
  16        3.1652
  17        3.2261
  18        3.9709
  19        4.2660
  20        4.3312
  21        4.9840
  22        6.1692
  23        7.6915
  24        9.0478
  25       13.1077
  26       14.4477
  27       16.1768
  28       16.6807
 
  0.5000000E+00  0.3333333E+00  0.8333333E-01  0.1388889E-01
   1       -0.5280
   2       -0.5280
   3        0.3127
   4        0.3127
   5        0.9219
   6        0.9219
   7        1.0116
   8        1.0116
   9        1.5259
  10        1.5259
  11        1.6021
  12        1.6021
  13        2.7170
  14        2.7170
  15        3.0186
  16        3.0186
  17        3.5591
  18        3.5591
  19        4.2548
  20        4.2548
  21        5.5182
  22        5.5182
  23        8.3584
  24        8.3584
  25       13.7497
  26       13.7497
  27       17.1340
  28       17.1340
 
  0.4166667E+00  0.4166667E+00  0.8333333E-01  0.1388889E-01
   1       -0.6341
   2        0.0296
   3        0.0296
   4        0.1433
   5        1.1099
   6        1.1832
   7        1.1832
   8        1.1877
   9        1.2926
  10        1.2926
  11        1.7321
  12        1.7787
  13        2.4857
  14        2.8394
  15        2.8751
  16        2.8751
  17        3.2918
  18        3.8961
  19        3.8961
  20        4.0876
  21        5.5220
  22        6.8247
  23        6.8247
  24        8.2115
  25       13.7450
  26       15.2426
  27       15.2426
  28       17.0797
 
  0.5000000E+00  0.4166667E+00  0.8333333E-01  0.1388889E-01
   1       -0.2848
   2       -0.2848
   3        0.1212
   4        0.1212
   5        1.1387
   6        1.1387
   7        1.2123
   8        1.2123
   9        1.5756
  10        1.5756
  11        1.5918
  12        1.5918
  13        2.6146
  14        2.6146
  15        2.7748
  16        2.7748
  17        3.5387
  18        3.5387
  19        3.9313
  20        3.9313
  21        6.1220
  22        6.1220
  23        7.4908
  24        7.4908
  25       14.4435
  26       14.4435
  27       16.1216
  28       16.1216
 
  0.5000000E+00  0.5000000E+00  0.8333333E-01  0.3472222E-02
   1       -0.0719
   2       -0.0719
   3       -0.0719
   4       -0.0719
   5        1.2509
   6        1.2509
   7        1.2509
   8        1.2509
   9        1.6229
  10        1.6229
  11        1.6229
  12        1.6229
  13        2.6035
  14        2.6035
  15        2.6035
  16        2.6035
  17        3.6682
  18        3.6682
  19        3.6682
  20        3.6682
  21        6.7655
  22        6.7655
  23        6.7655
  24        6.7655
  25       15.2293
  26       15.2293
  27       15.2293
  28       15.2293
 
  0.1666667E+00  0.1666667E+00  0.1666667E+00  0.4629630E-02
   1       -2.8756
   2       -0.5470
   3       -0.5470
   4       -0.5470
   5       -0.0600
   6       -0.0600
   7       -0.0600
   8        1.4564
   9        2.0023
  10        2.0023
  11        3.1399
  12        3.1399
  13        3.1399
  14        3.4320
  15        3.4320
  16        3.9469
  17        3.9469
  18        3.9469
  19        5.0778
  20        5.0778
  21        5.0778
  22        8.2257
  23        8.2257
  24        8.2257
  25       14.0647
  26       14.0647
  27       14.0647
  28       17.4168
 
  0.2500000E+00  0.1666667E+00  0.1666667E+00  0.1388889E-01