<?xml version="1.0" encoding="ISO-8859-1"?>
<modeling>
 <generator>
  <i name="program" type="string">vasp</i>
  <i name="version" type="string">4.6.28 </i>
  <i name="subversion" type="string">25Jul05 complex  parallel</i>
  <i name="platform" type="string">LinuxIFC</i>
  <i name="date" type="string">2017 01 06</i>
  <i name="time" type="string">05:28:48</i>
 </generator>
 <incar>
  <i type="string" name="PREC">accurate</i>
  <i type="int" name="IALGO">    38</i>
  <i type="logical" name="ADDGRID"> T  </i>
  <i name="EDIFF">      0.00000001</i>
  <i type="int" name="IBRION">    -1</i>
  <i name="ENCUT">    750.00000000</i>
  <i type="logical" name="LREAL"> F  </i>
  <i type="int" name="ISMEAR">     0</i>
  <i name="SIGMA">      0.01000000</i>
  <i type="logical" name="LWAVE"> F  </i>
  <i type="logical" name="LCHARG"> F  </i>
 </incar>
 <kpoints>
  <generation param="Gamma">
   <v type="int" name="divisions">      12      12      12</v>
   <v name="usershift">      0.00000000      0.00000000      0.00000000</v>
   <v name="genvec1">      0.08333333      0.00000000      0.00000000</v>
   <v name="genvec2">      0.00000000      0.08333333      0.00000000</v>
   <v name="genvec3">      0.00000000      0.00000000      0.08333333</v>
   <v name="shift">      0.00000000      0.00000000      0.00000000</v>
  </generation>
  <varray name="kpointlist" >
   <v>       0.00000000      0.00000000      0.00000000</v>
   <v>       0.08333333      0.00000000      0.00000000</v>
   <v>       0.16666667      0.00000000      0.00000000</v>
   <v>       0.25000000      0.00000000      0.00000000</v>
   <v>       0.33333333      0.00000000      0.00000000</v>
   <v>       0.41666667      0.00000000      0.00000000</v>
   <v>       0.50000000      0.00000000      0.00000000</v>
   <v>       0.08333333      0.08333333      0.00000000</v>
   <v>       0.16666667      0.08333333      0.00000000</v>
   <v>       0.25000000      0.08333333      0.00000000</v>
   <v>       0.33333333      0.08333333      0.00000000</v>
   <v>       0.41666667      0.08333333      0.00000000</v>
   <v>       0.50000000      0.08333333      0.00000000</v>
   <v>       0.16666667      0.16666667      0.00000000</v>
   <v>       0.25000000      0.16666667      0.00000000</v>
   <v>       0.33333333      0.16666667      0.00000000</v>
   <v>       0.41666667      0.16666667      0.00000000</v>
   <v>       0.50000000      0.16666667      0.00000000</v>
   <v>       0.25000000      0.25000000      0.00000000</v>
   <v>       0.33333333      0.25000000      0.00000000</v>
   <v>       0.41666667      0.25000000      0.00000000</v>
   <v>       0.50000000      0.25000000      0.00000000</v>
   <v>       0.33333333      0.33333333      0.00000000</v>
   <v>       0.41666667      0.33333333      0.00000000</v>
   <v>       0.50000000      0.33333333      0.00000000</v>
   <v>       0.41666667      0.41666667      0.00000000</v>
   <v>       0.50000000      0.41666667      0.00000000</v>
   <v>       0.50000000      0.50000000      0.00000000</v>
   <v>       0.08333333      0.08333333      0.08333333</v>
   <v>       0.16666667      0.08333333      0.08333333</v>
   <v>       0.25000000      0.08333333      0.08333333</v>
   <v>       0.33333333      0.08333333      0.08333333</v>
   <v>       0.41666667      0.08333333      0.08333333</v>
   <v>       0.50000000      0.08333333      0.08333333</v>
   <v>       0.16666667      0.16666667      0.08333333</v>
   <v>       0.25000000      0.16666667      0.08333333</v>
   <v>       0.33333333      0.16666667      0.08333333</v>
   <v>       0.41666667      0.16666667      0.08333333</v>
   <v>       0.50000000      0.16666667      0.08333333</v>
   <v>       0.25000000      0.25000000      0.08333333</v>
   <v>       0.33333333      0.25000000      0.08333333</v>
   <v>       0.41666667      0.25000000      0.08333333</v>
   <v>       0.50000000      0.25000000      0.08333333</v>
   <v>       0.33333333      0.33333333      0.08333333</v>
   <v>       0.41666667      0.33333333      0.08333333</v>
   <v>       0.50000000      0.33333333      0.08333333</v>
   <v>       0.41666667      0.41666667      0.08333333</v>
   <v>       0.50000000      0.41666667      0.08333333</v>
   <v>       0.50000000      0.50000000      0.08333333</v>
   <v>       0.16666667      0.16666667      0.16666667</v>
   <v>       0.25000000      0.16666667      0.16666667</v>
   <v>       0.33333333      0.16666667      0.16666667</v>
   <v>       0.41666667      0.16666667      0.16666667</v>
   <v>       0.50000000      0.16666667      0.16666667</v>
   <v>       0.25000000      0.25000000      0.16666667</v>
   <v>       0.33333333      0.25000000      0.16666667</v>
   <v>       0.41666667      0.25000000      0.16666667</v>
   <v>       0.50000000      0.25000000      0.16666667</v>
   <v>       0.33333333      0.33333333      0.16666667</v>
   <v>       0.41666667      0.33333333      0.16666667</v>
   <v>       0.50000000      0.33333333      0.16666667</v>
   <v>       0.41666667      0.41666667      0.16666667</v>
   <v>       0.50000000      0.41666667      0.16666667</v>
   <v>       0.50000000      0.50000000      0.16666667</v>
   <v>       0.25000000      0.25000000      0.25000000</v>
   <v>       0.33333333      0.25000000      0.25000000</v>
   <v>       0.41666667      0.25000000      0.25000000</v>
   <v>       0.50000000      0.25000000      0.25000000</v>
   <v>       0.33333333      0.33333333      0.25000000</v>
   <v>       0.41666667      0.33333333      0.25000000</v>
   <v>       0.50000000      0.33333333      0.25000000</v>
   <v>       0.41666667      0.41666667      0.25000000</v>
   <v>       0.50000000      0.41666667      0.25000000</v>
   <v>       0.50000000      0.50000000      0.25000000</v>
   <v>       0.33333333      0.33333333      0.33333333</v>
   <v>       0.41666667      0.33333333      0.33333333</v>
   <v>       0.50000000      0.33333333      0.33333333</v>
   <v>       0.41666667      0.41666667      0.33333333</v>
   <v>       0.50000000      0.41666667      0.33333333</v>
   <v>       0.50000000      0.50000000      0.33333333</v>
   <v>       0.41666667      0.41666667      0.41666667</v>
   <v>       0.50000000      0.41666667      0.41666667</v>
   <v>       0.50000000      0.50000000      0.41666667</v>
   <v>       0.50000000      0.50000000      0.50000000</v>
  </varray>
  <varray name="weights" >
   <v>       0.00057870</v>
   <v>       0.00347222</v>
   <v>       0.00347222</v>
   <v>       0.00347222</v>
   <v>       0.00347222</v>
   <v>       0.00347222</v>
   <v>       0.00173611</v>
   <v>       0.00694444</v>
   <v>       0.01388889</v>
   <v>       0.01388889</v>
   <v>       0.01388889</v>
   <v>       0.01388889</v>
   <v>       0.00694444</v>
   <v>       0.00694444</v>
   <v>       0.01388889</v>
   <v>       0.01388889</v>
   <v>       0.01388889</v>
   <v>       0.00694444</v>
   <v>       0.00694444</v>
   <v>       0.01388889</v>
   <v>       0.01388889</v>
   <v>       0.00694444</v>
   <v>       0.00694444</v>
   <v>       0.01388889</v>
   <v>       0.00694444</v>
   <v>       0.00694444</v>
   <v>       0.00694444</v>
   <v>       0.00173611</v>
   <v>       0.00462963</v>
   <v>       0.01388889</v>
   <v>       0.01388889</v>
   <v>       0.01388889</v>
   <v>       0.01388889</v>
   <v>       0.00694444</v>
   <v>       0.01388889</v>
   <v>       0.02777778</v>
   <v>       0.02777778</v>
   <v>       0.02777778</v>
   <v>       0.01388889</v>
   <v>       0.01388889</v>
   <v>       0.02777778</v>
   <v>       0.02777778</v>
   <v>       0.01388889</v>
   <v>       0.01388889</v>
   <v>       0.02777778</v>
   <v>       0.01388889</v>
   <v>       0.01388889</v>
   <v>       0.01388889</v>
   <v>       0.00347222</v>
   <v>       0.00462963</v>
   <v>       0.01388889</v>
   <v>       0.01388889</v>
   <v>       0.01388889</v>
   <v>       0.00694444</v>
   <v>       0.01388889</v>
   <v>       0.02777778</v>
   <v>       0.02777778</v>
   <v>       0.01388889</v>
   <v>       0.01388889</v>
   <v>       0.02777778</v>
   <v>       0.01388889</v>
   <v>       0.01388889</v>
   <v>       0.01388889</v>
   <v>       0.00347222</v>
   <v>       0.00462963</v>
   <v>       0.01388889</v>
   <v>       0.01388889</v>
   <v>       0.00694444</v>
   <v>       0.01388889</v>
   <v>       0.02777778</v>
   <v>       0.01388889</v>
   <v>       0.01388889</v>
   <v>       0.01388889</v>
   <v>       0.00347222</v>
   <v>       0.00462963</v>
   <v>       0.01388889</v>
   <v>       0.00694444</v>
   <v>       0.01388889</v>
   <v>       0.01388889</v>
   <v>       0.00347222</v>
   <v>       0.00462963</v>
   <v>       0.00694444</v>
   <v>       0.00347222</v>
   <v>       0.00057870</v>
  </varray>
 </kpoints>
 <parameters>
  <separator name="general" >
   <i type="string" name="SYSTEM">unknown system</i>
   <i type="logical" name="LCOMPAT"> F  </i>
  </separator>
  <separator name="electronic" >
   <i type="string" name="PREC">accura</i>
   <i name="ENMAX">    750.00000000</i>
   <i name="ENAUG">    356.67000000</i>
   <i name="EDIFF">      0.00000001</i>
   <i type="int" name="IALGO">    38</i>
   <i type="int" name="IWAVPR">    10</i>
   <i type="int" name="NBANDS">    26</i>
   <i name="NELECT">     44.00000000</i>
   <separator name="electronic smearing" >
    <i type="int" name="ISMEAR">     0</i>
    <i name="SIGMA">      0.01000000</i>
   </separator>
   <separator name="electronic projectors" >
    <i type="logical" name="LREAL"> F  </i>
    <v name="ROPT">      0.00000000</v>
    <i type="int" name="LMAXPAW">  -100</i>
    <i type="int" name="LMAXMIX">     2</i>
   </separator>
   <separator name="electronic startup" >
    <i type="int" name="ISTART">     0</i>
    <i type="int" name="ICHARG">     2</i>
    <i type="int" name="INIWAV">     1</i>
   </separator>
   <separator name="electronic spin" >
    <i type="int" name="ISPIN">     1</i>
    <i type="logical" name="LNONCOLLINEAR"> F  </i>
    <v name="MAGMOM">      1.00000000      1.00000000      1.00000000      1.00000000</v>
    <i name="NUPDOWN">     -1.00000000</i>
    <i type="logical" name="LSORBIT"> F  </i>
    <v name="SAXIS">      0.00000000      0.00000000      1.00000000</v>
    <i type="logical" name="LSPIRAL"> F  </i>
    <v name="QSPIRAL">      0.00000000      0.00000000      0.00000000</v>
    <i type="logical" name="LZEROZ"> F  </i>
   </separator>
   <separator name="electronic exchange-correlation" >
    <i type="string" name="GGA">--</i>
    <i type="int" name="VOSKOWN">     0</i>
    <i type="logical" name="LASPH"> F  </i>
    <i type="logical" name="LMETAGGA"> F  </i>
    <i type="string" name="GGA2">--</i>
   </separator>
   <separator name="electronic convergence" >
    <i type="int" name="NELM">    60</i>
    <i type="int" name="NELMDL">     0</i>
    <i type="int" name="NELMIN">     2</i>
    <i name="ENINI">    750.00000000</i>
    <separator name="electronic convergence detail" >
     <i type="logical" name="LDIAG"> T  </i>
     <i name="WEIMIN">      0.00000000</i>
     <i name="EBREAK">      0.00000000</i>
     <i name="DEPER">      0.30000000</i>
     <i type="int" name="NRMM">     4</i>
     <i name="TIME">      0.10000000</i>
    </separator>
   </separator>
   <separator name="electronic mixer" >
    <i name="AMIX">      0.40000000</i>
    <i name="BMIX">      1.00000000</i>
    <i name="AMIN">      0.10000000</i>
    <i name="AMIX_MAG">      1.60000000</i>
    <i name="BMIX_MAG">      1.00000000</i>
    <separator name="electronic mixer details" >
     <i type="int" name="IMIX">     4</i>
     <i type="int" name="MAXMIX">   -45</i>
     <i name="WC">    100.00000000</i>
     <i type="int" name="INIMIX">     1</i>
     <i type="int" name="MIXPRE">     1</i>
     <i type="int" name="MREMOVE">     5</i>
    </separator>
   </separator>
   <separator name="electronic dipolcorrection" >
    <i type="int" name="IDIPOL">     0</i>
    <i type="logical" name="LDIPOL"> F  </i>
    <v name="DIPOL">   -100.00000000</v>
    <i name="EFIELD">      0.00000000</i>
   </separator>
  </separator>
  <separator name="grids" >
   <i type="int" name="NGX">    36</i>
   <i type="int" name="NGY">    36</i>
   <i type="int" name="NGZ">    36</i>
   <i type="int" name="NGXF">    72</i>
   <i type="int" name="NGYF">    72</i>
   <i type="int" name="NGZF">    72</i>
   <i type="logical" name="ADDGRID"> T  </i>
  </separator>
  <separator name="ionic" >
   <i type="int" name="NSW">     0</i>
   <i type="int" name="IBRION">    -1</i>
   <i type="int" name="ISIF">     2</i>
   <i name="PSTRESS">      0.00000000</i>
   <i name="EDIFFG">      0.00000010</i>
   <i type="int" name="NFREE">     0</i>
   <i name="POTIM">      0.50000000</i>
   <i name="SMASS">     -3.00000000</i>
  </separator>
  <separator name="ionic md" >
   <i name="TEBEG">      0.00010000</i>
   <i name="TEEND">      0.00010000</i>
   <i type="int" name="NBLOCK">     1</i>
   <i type="int" name="KBLOCK">     1</i>
   <i type="int" name="NPACO">   256</i>
   <i name="APACO">     16.00000000</i>
  </separator>
  <separator name="symmetry" >
   <i type="int" name="ISYM">     2</i>
   <i name="SYMPREC">      0.00001000</i>
  </separator>
  <separator name="dos" >
   <i type="logical" name="LORBIT"> F  </i>
   <v name="RWIGS">     -1.00000000</v>
   <i type="int" name="NEDOS">   301</i>
   <i name="EMIN">     10.00000000</i>
   <i name="EMAX">    -10.00000000</i>
  </separator>
  <separator name="writing" >
   <i type="int" name="NWRITE">     2</i>
   <i type="logical" name="LWAVE"> F  </i>
   <i type="logical" name="LCHARG"> F  </i>
   <i type="logical" name="LPARD"> F  </i>
   <i type="logical" name="LVTOT"> F  </i>
   <i type="logical" name="LELF"> F  </i>
   <i type="logical" name="LOPTICS"> F  </i>
   <i name="STM">      0.00000000</i>
  </separator>
  <separator name="performance" >
   <i type="int" name="NPAR">     4</i>
   <i type="int" name="NSIM">     4</i>
   <i type="int" name="NBLK">   256</i>
   <i type="logical" name="LPLANE"> T  </i>
   <i type="logical" name="LCRITICAL_MEM"> F  </i>
   <i type="logical" name="LSCALAPACK"> F  </i>
   <i type="logical" name="LSCALU"> F  </i>
   <i type="logical" name="LASYNC"> F  </i>
  </separator>
  <separator name="miscellaneous" >
   <i type="int" name="IDIOT">     3</i>
   <i type="logical" name="LMUSIC"> F  </i>
   <v name="POMASS">    196.96600000</v>
   <i type="logical" name="LCORR"> T  </i>
  </separator>
  <i type="logical" name="LREAL_COMPAT"> F  </i>
  <i type="logical" name="GGA_COMPAT"> T  </i>
  <i type="logical" name="LBERRY"> F  </i>
  <i type="int" name="ICORELEVEL">     0</i>
  <i type="logical" name="LDAU"> F  </i>
  <i type="int" name="I_CONSTRAINED_M">     0</i>
 </parameters>
 <atominfo>
  <atoms>       4</atoms>
  <types>       1</types>
  <array name="atoms" >
   <dimension dim="1">ion</dimension>
   <field type="string">element</field>
   <field type="int">atomtype</field>
   <set>
    <rc><c>Au</c><c>   1</c></rc>
    <rc><c>Au</c><c>   1</c></rc>
    <rc><c>Au</c><c>   1</c></rc>
    <rc><c>Au</c><c>   1</c></rc>
   </set>
  </array>
  <array name="atomtypes" >
   <dimension dim="1">type</dimension>
   <field type="int">atomspertype</field>
   <field type="string">element</field>
   <field>mass</field>
   <field>valence</field>
   <field type="string">pseudopotential</field>
   <set>
    <rc><c>   4</c><c>Au</c><c>    196.96600000</c><c>     11.00000000</c><c> PAW_PBE Au 06Sep2000                   </c></rc>
   </set>
  </array>
 </atominfo>
 <structure name="initialpos" >
  <crystal>
   <varray name="basis" >
    <v>       3.96420931      0.00000000      0.00000000</v>
    <v>       0.00000000      3.96420931      0.00000000</v>
    <v>       0.00000000      0.00000000      3.96420931</v>
   </varray>
   <i name="volume">     62.29737258</i>
   <varray name="rec_basis" >
    <v>       0.25225711      0.00000000      0.00000000</v>
    <v>       0.00000000      0.25225711      0.00000000</v>
    <v>       0.00000000      0.00000000      0.25225711</v>
   </varray>
  </crystal>
  <varray name="positions" >
   <v>       0.00000000      0.00000000      0.00000000</v>
   <v>       0.50000000      0.50000000      0.00000000</v>
   <v>       0.50000000      0.00000000      0.50000000</v>
   <v>       0.00000000      0.50000000      0.50000000</v>
  </varray>
 </structure>
 <calculation>
  <scstep>
   <time name="dav">    4.06    4.08</time>
   <time name="total">    4.29    4.31</time>
   <energy>
    <i name="alphaZ">    481.00144770</i>
    <i name="ewald">  -4030.33496496</i>
    <i name="hartreedc">   -450.16998971</i>
    <i name="XCdc">     62.85785408</i>
    <i name="pawpsdc">   2990.04966927</i>
    <i name="pawaedc">  -2896.51663641</i>
    <i name="eentropy">     -0.00014424</i>
    <i name="bandstr">    706.55060918</i>
    <i name="atom">   3704.22372399</i>
    <i name="e_fr_energy">    567.66156890</i>
    <i name="e_wo_entrp">    567.66171313</i>
    <i name="e_0_energy">    567.66164101</i>
   </energy>
  </scstep>
  <scstep>
   <time name="dav">    4.02    4.02</time>
   <time name="total">    4.03    4.03</time>
   <energy>
    <i name="e_fr_energy">      9.14680486</i>
    <i name="e_wo_entrp">      9.14694842</i>
    <i name="e_0_energy">      9.14687664</i>
   </energy>
  </scstep>
  <scstep>
   <time name="dav">    4.36    4.36</time>
   <time name="total">    4.36    4.37</time>
   <energy>
    <i name="e_fr_energy">    -12.85762879</i>
    <i name="e_wo_entrp">    -12.85757003</i>
    <i name="e_0_energy">    -12.85759941</i>
   </energy>
  </scstep>
  <scstep>
   <time name="dav">    5.76    5.77</time>
   <time name="total">    5.77    5.77</time>
   <energy>
    <i name="e_fr_energy">    -13.18248581</i>
    <i name="e_wo_entrp">    -13.18241126</i>
    <i name="e_0_energy">    -13.18244854</i>
   </energy>
  </scstep>
  <scstep>
   <time name="dav">    6.24    6.25</time>
   <time name="total">    6.88    6.89</time>
   <energy>
    <i name="e_fr_energy">    -13.18565023</i>
    <i name="e_wo_entrp">    -13.18557567</i>
    <i name="e_0_energy">    -13.18561295</i>
   </energy>
  </scstep>
  <scstep>
   <time name="dav">    7.74    7.74</time>
   <time name="total">    9.03    9.03</time>
   <energy>
    <i name="e_fr_energy">    -12.30627818</i>
    <i name="e_wo_entrp">    -12.30618250</i>
    <i name="e_0_energy">    -12.30623034</i>
   </energy>
  </scstep>
  <scstep>
   <time name="dav">    9.57    9.58</time>
   <time name="total">   11.01   11.02</time>
   <energy>
    <i name="e_fr_energy">    -12.20179680</i>
    <i name="e_wo_entrp">    -12.20171305</i>
    <i name="e_0_energy">    -12.20175493</i>
   </energy>
  </scstep>
  <scstep>
   <time name="dav">    8.92    8.92</time>
   <time name="total">   10.25   10.26</time>
   <energy>
    <i name="e_fr_energy">    -12.18522025</i>
    <i name="e_wo_entrp">    -12.18513598</i>
    <i name="e_0_energy">    -12.18517811</i>
   </energy>
  </scstep>
  <scstep>
   <time name="dav">    9.51    9.52</time>
   <time name="total">   10.96   10.97</time>
   <energy>
    <i name="e_fr_energy">    -12.18525073</i>
    <i name="e_wo_entrp">    -12.18516445</i>
    <i name="e_0_energy">    -12.18520759</i>
   </energy>
  </scstep>
  <scstep>
   <time name="dav">    8.98    8.99</time>
   <time name="total">   10.45   10.46</time>
   <energy>
    <i name="e_fr_energy">    -12.18526760</i>
    <i name="e_wo_entrp">    -12.18518155</i>
    <i name="e_0_energy">    -12.18522457</i>
   </energy>
  </scstep>
  <scstep>
   <time name="dav">    9.30    9.30</time>
   <time name="total">   10.61   10.62</time>
   <energy>
    <i name="e_fr_energy">    -12.18527029</i>
    <i name="e_wo_entrp">    -12.18518421</i>
    <i name="e_0_energy">    -12.18522725</i>
   </energy>
  </scstep>
  <scstep>
   <time name="dav">    8.09    8.10</time>
   <time name="total">    9.44    9.45</time>
   <energy>
    <i name="e_fr_energy">    -12.18526985</i>
    <i name="e_wo_entrp">    -12.18518380</i>
    <i name="e_0_energy">    -12.18522682</i>
   </energy>
  </scstep>
  <scstep>
   <time name="dav">    6.15    6.15</time>
   <time name="total">    7.56    7.56</time>
   <energy>
    <i name="e_fr_energy">    -12.18526975</i>
    <i name="e_wo_entrp">    -12.18518370</i>
    <i name="e_0_energy">    -12.18522673</i>
   </energy>
  </scstep>
  <scstep>
   <time name="dav">    5.99    5.99</time>
   <time name="total">    7.42    7.43</time>
   <energy>
    <i name="e_fr_energy">    -12.18526977</i>
    <i name="e_wo_entrp">    -12.18518372</i>
    <i name="e_0_energy">    -12.18522674</i>
   </energy>
  </scstep>
  <scstep>
   <time name="dav">    5.98    5.98</time>
   <time name="total">    6.43    6.44</time>
   <energy>
    <i name="alphaZ">    481.00144770</i>
    <i name="ewald">  -4030.33496496</i>
    <i name="hartreedc">   -407.19036078</i>
    <i name="XCdc">     60.97080007</i>
    <i name="pawpsdc">   3090.67951539</i>
    <i name="pawaedc">  -3010.33898404</i>
    <i name="eentropy">     -0.00008605</i>
    <i name="bandstr">     98.80363891</i>
    <i name="atom">   3704.22372399</i>
    <i name="e_fr_energy">    -12.18526976</i>
    <i name="e_wo_entrp">    -12.18518371</i>
    <i name="e_0_energy">    -12.18522674</i>
   </energy>
  </scstep>
  <structure>
   <crystal>
    <varray name="basis" >
     <v>       3.96420931      0.00000000      0.00000000</v>
     <v>       0.00000000      3.96420931      0.00000000</v>
     <v>       0.00000000      0.00000000      3.96420931</v>
    </varray>
    <i name="volume">     62.29737258</i>
    <varray name="rec_basis" >
     <v>       0.25225711      0.00000000      0.00000000</v>
     <v>       0.00000000      0.25225711      0.00000000</v>
     <v>       0.00000000      0.00000000      0.25225711</v>
    </varray>
   </crystal>
   <varray name="positions" >
    <v>       0.00000000      0.00000000      0.00000000</v>
    <v>       0.50000000      0.50000000      0.00000000</v>
    <v>       0.50000000      0.00000000      0.50000000</v>
    <v>       0.00000000      0.50000000      0.50000000</v>
   </varray>
  </structure>
  <varray name="forces" >
   <v>       0.00000000      0.00000000      0.00000000</v>
   <v>       0.00000000     -0.00000000      0.00000000</v>
   <v>       0.00000000      0.00000000     -0.00000000</v>
   <v>      -0.00000000      0.00000000     -0.00000000</v>
  </varray>
  <varray name="stress" >
   <v>     332.06052070     -0.00000000     -0.00000000</v>
   <v>      -0.00000000    332.06052070     -0.00000000</v>
   <v>       0.00000000      0.00000000    332.06052070</v>
  </varray>
  <energy>
   <i name="e_fr_energy">    -12.18526976</i>
   <i name="e_wo_entrp">    -12.18522674</i>
   <i name="e_0_energy">     -0.00008605</i>
  </energy>
  <eigenvalues>
   <array>
    <dimension dim="1">band</dimension>
    <dimension dim="2">kpoint</dimension>
    <dimension dim="3">spin</dimension>
    <field>eigene</field>
    <field>occ</field>
    <set>
     <set comment="spin 1">
      <set comment="kpoint 1">
       <r>  -3.8659  1.0000</r>
       <r>  -1.0323  1.0000</r>
       <r>  -1.0323  1.0000</r>
       <r>  -1.0323  1.0000</r>
       <r>  -0.6748  1.0000</r>
       <r>  -0.6748  1.0000</r>
       <r>  -0.6748  1.0000</r>
       <r>   1.7181  1.0000</r>
       <r>   1.7181  1.0000</r>
       <r>   1.7181  1.0000</r>
       <r>   3.4981  1.0000</r>
       <r>   3.4981  1.0000</r>
       <r>   4.8569  1.0000</r>
       <r>   4.8569  1.0000</r>
       <r>   4.8569  1.0000</r>
       <r>   5.2840  1.0000</r>
       <r>   5.2840  1.0000</r>
       <r>   5.2840  1.0000</r>
       <r>   5.2840  1.0000</r>
       <r>   5.2840  1.0000</r>
       <r>   5.2840  1.0000</r>
       <r>   7.7656  0.0000</r>
       <r>   7.7656  0.0000</r>
       <r>   7.7656  0.0000</r>
       <r>  13.5869  0.0000</r>
       <r>  13.5869  0.0000</r>
       <r>  13.5869  0.0000</r>
       <r>  17.5201  0.0000</r>
      </set>
      <set comment="kpoint 2">
       <r>  -3.7773  1.0000</r>
       <r>  -0.9984  1.0000</r>
       <r>  -0.9709  1.0000</r>
       <r>  -0.9709  1.0000</r>
       <r>  -0.6408  1.0000</r>
       <r>  -0.6228  1.0000</r>
       <r>  -0.6228  1.0000</r>
       <r>   1.6681  1.0000</r>
       <r>   1.7604  1.0000</r>
       <r>   1.7604  1.0000</r>
       <r>   3.4438  1.0000</r>
       <r>   3.5193  1.0000</r>
       <r>   4.7783  1.0000</r>
       <r>   4.7783  1.0000</r>
       <r>   4.8314  1.0000</r>
       <r>   4.9008  1.0000</r>
       <r>   4.9008  1.0000</r>
       <r>   5.1886  1.0000</r>
       <r>   5.1886  1.0000</r>
       <r>   5.2841  1.0000</r>
       <r>   5.2841  1.0000</r>
       <r>   7.2099  0.0000</r>
       <r>   8.2046  0.0000</r>
       <r>   8.2046  0.0000</r>
       <r>  13.4818  0.0000</r>
       <r>  13.4818  0.0000</r>
       <r>  14.2865  0.0000</r>
       <r>  17.3956  0.0000</r>
      </set>
      <set comment="kpoint 3">
       <r>  -3.5152  1.0000</r>
       <r>  -0.9066  1.0000</r>
       <r>  -0.7930  1.0000</r>
       <r>  -0.7930  1.0000</r>
       <r>  -0.5402  1.0000</r>
       <r>  -0.4670  1.0000</r>
       <r>  -0.4670  1.0000</r>
       <r>   1.5239  1.0000</r>
       <r>   1.8868  1.0000</r>
       <r>   1.8868  1.0000</r>
       <r>   3.2885  1.0000</r>
       <r>   3.5817  1.0000</r>
       <r>   4.1358  1.0000</r>
       <r>   4.1358  1.0000</r>
       <r>   4.5506  1.0000</r>
       <r>   4.5506  1.0000</r>
       <r>   4.7574  1.0000</r>
       <r>   4.9224  1.0000</r>
       <r>   4.9224  1.0000</r>
       <r>   5.2846  1.0000</r>
       <r>   5.2846  1.0000</r>
       <r>   6.0188  1.0000</r>
       <r>   9.1347  0.0000</r>
       <r>   9.1347  0.0000</r>
       <r>  13.2140  0.0000</r>
       <r>  13.2140  0.0000</r>
       <r>  15.9154  0.0000</r>
       <r>  17.0276  0.0000</r>
      </set>
      <set comment="kpoint 4">
       <r>  -3.0915  1.0000</r>
       <r>  -0.7921  1.0000</r>
       <r>  -0.5202  1.0000</r>
       <r>  -0.5202  1.0000</r>
       <r>  -0.3768  1.0000</r>
       <r>  -0.2086  1.0000</r>
       <r>  -0.2086  1.0000</r>
       <r>   1.3020  1.0000</r>
       <r>   2.0947  1.0000</r>
       <r>   2.0947  1.0000</r>
       <r>   3.0555  1.0000</r>
       <r>   3.3128  1.0000</r>
       <r>   3.3128  1.0000</r>
       <r>   3.6821  1.0000</r>
       <r>   4.2033  1.0000</r>
       <r>   4.2033  1.0000</r>
       <r>   4.5341  1.0000</r>
       <r>   4.5341  1.0000</r>
       <r>   4.6412  1.0000</r>
       <r>   4.7299  1.0000</r>
       <r>   5.2852  1.0000</r>
       <r>   5.2852  1.0000</r>
       <r>  10.2255  0.0000</r>
       <r>  10.2255  0.0000</r>
       <r>  12.8889  0.0000</r>
       <r>  12.8889  0.0000</r>
       <r>  16.4342  0.0000</r>
       <r>  16.4342  0.0000</r>
      </set>
      <set comment="kpoint 5">
       <r>  -2.5321  1.0000</r>
       <r>  -0.7323  1.0000</r>
       <r>  -0.1977  1.0000</r>
       <r>  -0.1977  1.0000</r>
       <r>  -0.1575  1.0000</r>
       <r>   0.1509  1.0000</r>
       <r>   0.1509  1.0000</r>
       <r>   1.0250  1.0000</r>
       <r>   2.3799  1.0000</r>
       <r>   2.3799  1.0000</r>
       <r>   2.5245  1.0000</r>
       <r>   2.5245  1.0000</r>
       <r>   2.7889  1.0000</r>
       <r>   3.6032  1.0000</r>
       <r>   3.7995  1.0000</r>
       <r>   3.7995  1.0000</r>
       <r>   3.8149  1.0000</r>
       <r>   4.0793  1.0000</r>
       <r>   4.0793  1.0000</r>
       <r>   4.4925  1.0000</r>
       <r>   5.2858  1.0000</r>
       <r>   5.2858  1.0000</r>
       <r>  11.3723  0.0000</r>
       <r>  11.3723  0.0000</r>
       <r>  12.6044  0.0000</r>
       <r>  12.6044  0.0000</r>
       <r>  15.6462  0.0000</r>
       <r>  15.6462  0.0000</r>
      </set>
      <set comment="kpoint 6">
       <r>  -1.8905  1.0000</r>
       <r>  -0.8602  1.0000</r>
       <r>   0.0887  1.0000</r>
       <r>   0.0887  1.0000</r>
       <r>   0.1077  1.0000</r>
       <r>   0.6086  1.0000</r>
       <r>   0.6086  1.0000</r>
       <r>   0.7181  1.0000</r>
       <r>   1.8023  1.0000</r>
       <r>   1.8023  1.0000</r>
       <r>   2.5644  1.0000</r>
       <r>   2.7351  1.0000</r>
       <r>   2.7351  1.0000</r>
       <r>   2.8275  1.0000</r>
       <r>   3.4494  1.0000</r>
       <r>   3.4494  1.0000</r>
       <r>   3.6058  1.0000</r>
       <r>   3.6058  1.0000</r>
       <r>   3.9727  1.0000</r>
       <r>   4.3232  1.0000</r>
       <r>   5.2863  1.0000</r>
       <r>   5.2863  1.0000</r>
       <r>  12.4185  0.0000</r>
       <r>  12.4185  0.0000</r>
       <r>  12.5265  0.0000</r>
       <r>  12.5265  0.0000</r>
       <r>  14.7036  0.0000</r>
       <r>  14.7036  0.0000</r>
      </set>
      <set comment="kpoint 7">
       <r>  -1.2762  1.0000</r>
       <r>  -1.2762  1.0000</r>
       <r>   0.2101  1.0000</r>
       <r>   0.2101  1.0000</r>
       <r>   0.4053  1.0000</r>
       <r>   0.4053  1.0000</r>
       <r>   1.1609  1.0000</r>
       <r>   1.1609  1.0000</r>
       <r>   1.1609  1.0000</r>
       <r>   1.1609  1.0000</r>
       <r>   2.5141  1.0000</r>
       <r>   2.5141  1.0000</r>
       <r>   3.1494  1.0000</r>
       <r>   3.1494  1.0000</r>
       <r>   3.1494  1.0000</r>
       <r>   3.1494  1.0000</r>
       <r>   3.3039  1.0000</r>
       <r>   3.3039  1.0000</r>
       <r>   4.1458  1.0000</r>
       <r>   4.1458  1.0000</r>
       <r>   5.2864  1.0000</r>
       <r>   5.2864  1.0000</r>
       <r>  12.3546  0.0000</r>
       <r>  12.3546  0.0000</r>
       <r>  13.6498  0.0000</r>
       <r>  13.6498  0.0000</r>
       <r>  13.6498  0.0000</r>
       <r>  13.6498  0.0000</r>
      </set>
      <set comment="kpoint 8">
       <r>  -3.6898  1.0000</r>
       <r>  -0.9364  1.0000</r>
       <r>  -0.9364  1.0000</r>
       <r>  -0.9172  1.0000</r>
       <r>  -0.5894  1.0000</r>
       <r>  -0.5894  1.0000</r>
       <r>  -0.5655  1.0000</r>
       <r>   1.6459  1.0000</r>
       <r>   1.7764  1.0000</r>
       <r>   1.7991  1.0000</r>
       <r>   3.4288  1.0000</r>
       <r>   3.5061  1.0000</r>
       <r>   4.6529  1.0000</r>
       <r>   4.6670  1.0000</r>
       <r>   4.6670  1.0000</r>
       <r>   4.7047  1.0000</r>
       <r>   4.8677  1.0000</r>
       <r>   4.8677  1.0000</r>
       <r>   5.1885  1.0000</r>
       <r>   5.1885  1.0000</r>
       <r>   5.2225  1.0000</r>
       <r>   7.6614  0.0000</r>
       <r>   7.6614  0.0000</r>
       <r>   8.5706  0.0000</r>
       <r>  13.3587  0.0000</r>
       <r>  14.1748  0.0000</r>
       <r>  14.1748  0.0000</r>
       <r>  16.8928  0.0000</r>
      </set>
      <set comment="kpoint 9">
       <r>  -3.4308  1.0000</r>
       <r>  -0.8430  1.0000</r>
       <r>  -0.7606  1.0000</r>
       <r>  -0.7568  1.0000</r>
       <r>  -0.4907  1.0000</r>
       <r>  -0.4357  1.0000</r>
       <r>  -0.3961  1.0000</r>
       <r>   1.5193  1.0000</r>
       <r>   1.8894  1.0000</r>
       <r>   1.9132  1.0000</r>
       <r>   3.2945  1.0000</r>
       <r>   3.5628  1.0000</r>
       <r>   3.9555  1.0000</r>
       <r>   4.0088  1.0000</r>
       <r>   4.3362  1.0000</r>
       <r>   4.4904  1.0000</r>
       <r>   4.5859  1.0000</r>
       <r>   4.7701  1.0000</r>
       <r>   4.9217  1.0000</r>
       <r>   5.1882  1.0000</r>
       <r>   5.1895  1.0000</r>
       <r>   6.5557  1.0000</r>
       <r>   8.5527  0.0000</r>
       <r>   9.4150  0.0000</r>
       <r>  13.0404  0.0000</r>
       <r>  13.8999  0.0000</r>
       <r>  15.7389  0.0000</r>
       <r>  16.3701  0.0000</r>
      </set>
      <set comment="kpoint 10">
       <r>  -3.0122  1.0000</r>
       <r>  -0.7261  1.0000</r>
       <r>  -0.5143  1.0000</r>
       <r>  -0.4808  1.0000</r>
       <r>  -0.3306  1.0000</r>
       <r>  -0.1807  1.0000</r>
       <r>  -0.1245  1.0000</r>
       <r>   1.3068  1.0000</r>
       <r>   2.0937  1.0000</r>
       <r>   2.0941  1.0000</r>
       <r>   3.0814  1.0000</r>
       <r>   3.1497  1.0000</r>
       <r>   3.2469  1.0000</r>
       <r>   3.6751  1.0000</r>
       <r>   3.7950  1.0000</r>
       <r>   4.1610  1.0000</r>
       <r>   4.2445  1.0000</r>
       <r>   4.5327  1.0000</r>
       <r>   4.5947  1.0000</r>
       <r>   5.1820  1.0000</r>
       <r>   5.1876  1.0000</r>
       <r>   5.4886  1.0000</r>
       <r>   9.5278  0.0000</r>
       <r>  10.4556  0.0000</r>
       <r>  12.6427  0.0000</r>
       <r>  13.6033  0.0000</r>
       <r>  15.8574  0.0000</r>
       <r>  16.6114  0.0000</r>
      </set>
      <set comment="kpoint 11">
       <r>  -2.4593  1.0000</r>
       <r>  -0.6641  1.0000</r>
       <r>  -0.2035  1.0000</r>
       <r>  -0.1533  1.0000</r>
       <r>  -0.1159  1.0000</r>
       <r>   0.1736  1.0000</r>
       <r>   0.2262  1.0000</r>
       <r>   1.0383  1.0000</r>
       <r>   2.2978  1.0000</r>
       <r>   2.3782  1.0000</r>
       <r>   2.3856  1.0000</r>
       <r>   2.4932  1.0000</r>
       <r>   2.8811  1.0000</r>
       <r>   3.1147  1.0000</r>
       <r>   3.7760  1.0000</r>
       <r>   3.8269  1.0000</r>
       <r>   3.8463  1.0000</r>
       <r>   4.0774  1.0000</r>
       <r>   4.2610  1.0000</r>
       <r>   4.7864  1.0000</r>
       <r>   5.1809  1.0000</r>
       <r>   5.1867  1.0000</r>
       <r>  10.4442  0.0000</r>
       <r>  11.5734  0.0000</r>
       <r>  12.2665  0.0000</r>
       <r>  13.4433  0.0000</r>
       <r>  15.2987  0.0000</r>
       <r>  15.8186  0.0000</r>
      </set>
      <set comment="kpoint 12">
       <r>  -1.8240  1.0000</r>
       <r>  -0.7932  1.0000</r>
       <r>   0.1051  1.0000</r>
       <r>   0.1389  1.0000</r>
       <r>   0.1436  1.0000</r>
       <r>   0.6240  1.0000</r>
       <r>   0.6311  1.0000</r>
       <r>   0.7396  1.0000</r>
       <r>   1.6979  1.0000</r>
       <r>   1.7928  1.0000</r>
       <r>   2.3474  1.0000</r>
       <r>   2.5475  1.0000</r>
       <r>   2.7330  1.0000</r>
       <r>   2.9385  1.0000</r>
       <r>   3.4462  1.0000</r>
       <r>   3.4904  1.0000</r>
       <r>   3.6035  1.0000</r>
       <r>   3.7606  1.0000</r>
       <r>   4.0097  1.0000</r>
       <r>   4.4514  1.0000</r>
       <r>   5.1820  1.0000</r>
       <r>   5.1854  1.0000</r>
       <r>  11.1679  0.0000</r>
       <r>  11.9459  0.0000</r>
       <r>  12.7105  0.0000</r>
       <r>  13.5683  0.0000</r>
       <r>  14.6668  0.0000</r>
       <r>  14.8749  0.0000</r>
      </set>
      <set comment="kpoint 13">
       <r>  -1.2120  1.0000</r>
       <r>  -1.2120  1.0000</r>
       <r>   0.2559  1.0000</r>
       <r>   0.2559  1.0000</r>
       <r>   0.4345  1.0000</r>
       <r>   0.4345  1.0000</r>
       <r>   1.1098  1.0000</r>
       <r>   1.1098  1.0000</r>
       <r>   1.1660  1.0000</r>
       <r>   1.1660  1.0000</r>
       <r>   2.3187  1.0000</r>
       <r>   2.3187  1.0000</r>
       <r>   3.1470  1.0000</r>
       <r>   3.1470  1.0000</r>
       <r>   3.2913  1.0000</r>
       <r>   3.2913  1.0000</r>
       <r>   3.3247  1.0000</r>
       <r>   3.3247  1.0000</r>
       <r>   4.2168  1.0000</r>
       <r>   4.2168  1.0000</r>
       <r>   5.1837  1.0000</r>
       <r>   5.1837  1.0000</r>
       <r>  11.6287  0.0000</r>
       <r>  11.6287  0.0000</r>
       <r>  13.8246  0.0000</r>
       <r>  13.8246  0.0000</r>
       <r>  14.0290  0.0000</r>
       <r>  14.0290  0.0000</r>
      </set>
      <set comment="kpoint 14">
       <r>  -3.1813  1.0000</r>
       <r>  -0.6583  1.0000</r>
       <r>  -0.6583  1.0000</r>
       <r>  -0.6542  1.0000</r>
       <r>  -0.3430  1.0000</r>
       <r>  -0.3430  1.0000</r>
       <r>  -0.1998  1.0000</r>
       <r>   1.4589  1.0000</r>
       <r>   1.9480  1.0000</r>
       <r>   1.9895  1.0000</r>
       <r>   3.2475  1.0000</r>
       <r>   3.5469  1.0000</r>
       <r>   3.5469  1.0000</r>
       <r>   3.5789  1.0000</r>
       <r>   3.6177  1.0000</r>
       <r>   4.3122  1.0000</r>
       <r>   4.5706  1.0000</r>
       <r>   4.5706  1.0000</r>
       <r>   4.9197  1.0000</r>
       <r>   4.9197  1.0000</r>
       <r>   5.0419  1.0000</r>
       <r>   7.4323  0.0000</r>
       <r>   7.4323  0.0000</r>
       <r>  10.1259  0.0000</r>
       <r>  12.5879  0.0000</r>
       <r>  15.3102  0.0000</r>
       <r>  15.3102  0.0000</r>
       <r>  15.7782  0.0000</r>
      </set>
      <set comment="kpoint 15">
       <r>  -2.7780  1.0000</r>
       <r>  -0.5332  1.0000</r>
       <r>  -0.4631  1.0000</r>
       <r>  -0.3725  1.0000</r>
       <r>  -0.1928  1.0000</r>
       <r>  -0.0984  1.0000</r>
       <r>   0.0873  1.0000</r>
       <r>   1.2989  1.0000</r>
       <r>   2.0991  1.0000</r>
       <r>   2.1178  1.0000</r>
       <r>   2.7680  1.0000</r>
       <r>   3.0186  1.0000</r>
       <r>   3.0371  1.0000</r>
       <r>   3.0986  1.0000</r>
       <r>   3.7100  1.0000</r>
       <r>   4.0316  1.0000</r>
       <r>   4.2687  1.0000</r>
       <r>   4.4320  1.0000</r>
       <r>   4.5289  1.0000</r>
       <r>   4.9165  1.0000</r>
       <r>   4.9582  1.0000</r>
       <r>   6.3454  1.0000</r>
       <r>   8.3222  0.0000</r>
       <r>  11.0696  0.0000</r>
       <r>  12.0174  0.0000</r>
       <r>  14.8352  0.0000</r>
       <r>  15.3353  0.0000</r>
       <r>  16.8116  0.0000</r>
      </set>
      <set comment="kpoint 16">
       <r>  -2.2452  1.0000</r>
       <r>  -0.4646  1.0000</r>
       <r>  -0.1890  1.0000</r>
       <r>  -0.0286  1.0000</r>
       <r>   0.0080  1.0000</r>
       <r>   0.2402  1.0000</r>
       <r>   0.4156  1.0000</r>
       <r>   1.0673  1.0000</r>
       <r>   2.0548  1.0000</r>
       <r>   2.1767  1.0000</r>
       <r>   2.3861  1.0000</r>
       <r>   2.3923  1.0000</r>
       <r>   2.4731  1.0000</r>
       <r>   2.9784  1.0000</r>
       <r>   3.6980  1.0000</r>
       <r>   3.9013  1.0000</r>
       <r>   3.9198  1.0000</r>
       <r>   4.0724  1.0000</r>
       <r>   4.1557  1.0000</r>
       <r>   4.9126  1.0000</r>
       <r>   4.9225  1.0000</r>
       <r>   5.4936  1.0000</r>
       <r>   9.1459  0.0000</r>
       <r>  11.4602  0.0000</r>
       <r>  12.1251  0.0000</r>
       <r>  14.4829  0.0000</r>
       <r>  14.9668  0.0000</r>
       <r>  16.3092  0.0000</r>
      </set>
      <set comment="kpoint 17">
       <r>  -1.6299  1.0000</r>
       <r>  -0.5989  1.0000</r>
       <r>   0.1408  1.0000</r>
       <r>   0.2496  1.0000</r>
       <r>   0.2844  1.0000</r>
       <r>   0.6683  1.0000</r>
       <r>   0.7136  1.0000</r>
       <r>   0.7984  1.0000</r>
       <r>   1.4389  1.0000</r>
       <r>   1.7601  1.0000</r>
       <r>   2.0914  1.0000</r>
       <r>   2.1138  1.0000</r>
       <r>   2.7334  1.0000</r>
       <r>   3.0701  1.0000</r>
       <r>   3.4202  1.0000</r>
       <r>   3.5510  1.0000</r>
       <r>   3.5987  1.0000</r>
       <r>   3.7689  1.0000</r>
       <r>   4.1847  1.0000</r>
       <r>   4.9088  1.0000</r>
       <r>   4.9094  1.0000</r>
       <r>   4.9101  1.0000</r>
       <r>   9.8552  0.0000</r>
       <r>  10.9502  0.0000</r>
       <r>  13.2236  0.0000</r>
       <r>  14.3402  0.0000</r>
       <r>  14.6477  0.0000</r>
       <r>  15.3598  0.0000</r>
      </set>
      <set comment="kpoint 18">
       <r>  -1.0268  1.0000</r>
       <r>  -1.0268  1.0000</r>
       <r>   0.3832  1.0000</r>
       <r>   0.3832  1.0000</r>
       <r>   0.5187  1.0000</r>
       <r>   0.5187  1.0000</r>
       <r>   0.9859  1.0000</r>
       <r>   0.9859  1.0000</r>
       <r>   1.1788  1.0000</r>
       <r>   1.1788  1.0000</r>
       <r>   2.0083  1.0000</r>
       <r>   2.0083  1.0000</r>
       <r>   3.1438  1.0000</r>
       <r>   3.1438  1.0000</r>
       <r>   3.3524  1.0000</r>
       <r>   3.3524  1.0000</r>
       <r>   3.3708  1.0000</r>
       <r>   3.3708  1.0000</r>
       <r>   4.5039  1.0000</r>
       <r>   4.5039  1.0000</r>
       <r>   4.9068  1.0000</r>
       <r>   4.9068  1.0000</r>
       <r>  10.4408  0.0000</r>
       <r>  10.4408  0.0000</r>
       <r>  14.3165  0.0000</r>
       <r>  14.3165  0.0000</r>
       <r>  14.4142  0.0000</r>
       <r>  14.4142  0.0000</r>
      </set>
      <set comment="kpoint 19">
       <r>  -2.4006  1.0000</r>
       <r>  -0.3349  1.0000</r>
       <r>  -0.2317  1.0000</r>
       <r>  -0.2317  1.0000</r>
       <r>   0.0343  1.0000</r>
       <r>   0.0343  1.0000</r>
       <r>   0.3715  1.0000</r>
       <r>   1.2300  1.0000</r>
       <r>   2.1142  1.0000</r>
       <r>   2.2230  1.0000</r>
       <r>   2.3031  1.0000</r>
       <r>   2.3031  1.0000</r>
       <r>   2.6765  1.0000</r>
       <r>   3.0204  1.0000</r>
       <r>   3.8173  1.0000</r>
       <r>   3.8821  1.0000</r>
       <r>   4.1739  1.0000</r>
       <r>   4.1739  1.0000</r>
       <r>   4.5236  1.0000</r>
       <r>   4.5236  1.0000</r>
       <r>   4.7538  1.0000</r>
       <r>   7.1789  0.0000</r>
       <r>   7.1789  0.0000</r>
       <r>  11.2591  0.0000</r>
       <r>  11.9278  0.0000</r>
       <r>  15.0119  0.0000</r>
       <r>  16.0150  0.0000</r>
       <r>  16.0150  0.0000</r>
      </set>
      <set comment="kpoint 20">
       <r>  -1.9028  1.0000</r>
       <r>  -0.1511  1.0000</r>
       <r>  -0.1210  1.0000</r>
       <r>   0.1411  1.0000</r>
       <r>   0.2104  1.0000</r>
       <r>   0.3464  1.0000</r>
       <r>   0.6671  1.0000</r>
       <r>   1.0812  1.0000</r>
       <r>   1.6624  1.0000</r>
       <r>   1.8786  1.0000</r>
       <r>   2.0926  1.0000</r>
       <r>   2.2057  1.0000</r>
       <r>   2.4405  1.0000</r>
       <r>   2.9333  1.0000</r>
       <r>   3.5513  1.0000</r>
       <r>   3.8510  1.0000</r>
       <r>   3.9365  1.0000</r>
       <r>   4.0674  1.0000</r>
       <r>   4.1753  1.0000</r>
       <r>   4.5190  1.0000</r>
       <r>   4.6247  1.0000</r>
       <r>   6.2407  1.0000</r>
       <r>   7.9577  0.0000</r>
       <r>  10.5395  0.0000</r>
       <r>  12.9216  0.0000</r>
       <r>  14.8020  0.0000</r>
       <r>  15.3662  0.0000</r>
       <r>  17.0668  0.0000</r>
      </set>
      <set comment="kpoint 21">
       <r>  -1.3253  1.0000</r>
       <r>  -0.3013  1.0000</r>
       <r>   0.1774  1.0000</r>
       <r>   0.4196  1.0000</r>
       <r>   0.5045  1.0000</r>
       <r>   0.7361  1.0000</r>
       <r>   0.8726  1.0000</r>
       <r>   0.8768  1.0000</r>
       <r>   1.1177  1.0000</r>
       <r>   1.6728  1.0000</r>
       <r>   1.6926  1.0000</r>
       <r>   1.9526  1.0000</r>
       <r>   2.7578  1.0000</r>
       <r>   3.0036  1.0000</r>
       <r>   3.3344  1.0000</r>
       <r>   3.5272  1.0000</r>
       <r>   3.5974  1.0000</r>
       <r>   3.5980  1.0000</r>
       <r>   4.5184  1.0000</r>
       <r>   4.5458  1.0000</r>
       <r>   4.5576  1.0000</r>
       <r>   5.5286  1.0000</r>
       <r>   8.6609  0.0000</r>
       <r>   9.8984  0.0000</r>
       <r>  13.9799  0.0000</r>
       <r>  14.6924  0.0000</r>
       <r>  14.9321  0.0000</r>
       <r>  16.0897  0.0000</r>
      </set>
      <set comment="kpoint 22">
       <r>  -0.7444  1.0000</r>
       <r>  -0.7444  1.0000</r>
       <r>   0.5291  1.0000</r>
       <r>   0.5291  1.0000</r>
       <r>   0.6479  1.0000</r>
       <r>   0.6479  1.0000</r>
       <r>   0.8846  1.0000</r>
       <r>   0.8846  1.0000</r>
       <r>   1.1915  1.0000</r>
       <r>   1.1915  1.0000</r>
       <r>   1.7522  1.0000</r>
       <r>   1.7522  1.0000</r>
       <r>   3.1514  1.0000</r>
       <r>   3.1514  1.0000</r>
       <r>   3.2531  1.0000</r>
       <r>   3.2531  1.0000</r>
       <r>   3.3155  1.0000</r>
       <r>   3.3155  1.0000</r>
       <r>   4.5279  1.0000</r>
       <r>   4.5279  1.0000</r>
       <r>   4.9862  1.0000</r>
       <r>   4.9862  1.0000</r>
       <r>   9.2937  0.0000</r>
       <r>   9.2937  0.0000</r>
       <r>  14.7189  0.0000</r>
       <r>  14.7189  0.0000</r>
       <r>  15.0508  0.0000</r>
       <r>  15.0508  0.0000</r>
      </set>
      <set comment="kpoint 23">
       <r>  -1.4555  1.0000</r>
       <r>   0.0137  1.0000</r>
       <r>   0.2402  1.0000</r>
       <r>   0.2402  1.0000</r>
       <r>   0.4842  1.0000</r>
       <r>   0.4842  1.0000</r>
       <r>   0.9227  1.0000</r>
       <r>   1.0447  1.0000</r>
       <r>   1.3562  1.0000</r>
       <r>   1.3562  1.0000</r>
       <r>   1.9263  1.0000</r>
       <r>   2.0188  1.0000</r>
       <r>   2.5851  1.0000</r>
       <r>   2.8255  1.0000</r>
       <r>   3.3470  1.0000</r>
       <r>   3.6545  1.0000</r>
       <r>   3.6545  1.0000</r>
       <r>   4.0675  1.0000</r>
       <r>   4.0675  1.0000</r>
       <r>   4.3779  1.0000</r>
       <r>   4.5601  1.0000</r>
       <r>   6.9658  0.9988</r>
       <r>   6.9658  0.9988</r>
       <r>   9.6943  0.0000</r>
       <r>  13.8676  0.0000</r>
       <r>  14.7529  0.0000</r>
       <r>  16.1991  0.0000</r>
       <r>  16.1991  0.0000</r>
      </set>
      <set comment="kpoint 24">
       <r>  -0.9403  1.0000</r>
       <r>   0.0425  1.0000</r>
       <r>   0.2206  1.0000</r>
       <r>   0.6176  1.0000</r>
       <r>   0.6420  1.0000</r>
       <r>   0.8175  1.0000</r>
       <r>   0.9424  1.0000</r>
       <r>   0.9463  1.0000</r>
       <r>   1.0793  1.0000</r>
       <r>   1.3555  1.0000</r>
       <r>   1.5743  1.0000</r>
       <r>   1.8585  1.0000</r>
       <r>   2.8363  1.0000</r>
       <r>   2.8393  1.0000</r>
       <r>   3.1698  1.0000</r>
       <r>   3.3496  1.0000</r>
       <r>   3.3650  1.0000</r>
       <r>   3.6108  1.0000</r>
       <r>   4.0817  1.0000</r>
       <r>   4.2146  1.0000</r>
       <r>   5.0220  1.0000</r>
       <r>   6.1797  1.0000</r>
       <r>   7.6500  0.0000</r>
       <r>   8.9624  0.0000</r>
       <r>  14.8302  0.0000</r>
       <r>  14.8935  0.0000</r>
       <r>  15.5229  0.0000</r>
       <r>  17.0047  0.0000</r>
      </set>
      <set comment="kpoint 25">
       <r>  -0.4109  1.0000</r>
       <r>  -0.4109  1.0000</r>
       <r>   0.4964  1.0000</r>
       <r>   0.4964  1.0000</r>
       <r>   0.8034  1.0000</r>
       <r>   0.8034  1.0000</r>
       <r>   1.0109  1.0000</r>
       <r>   1.0109  1.0000</r>
       <r>   1.1909  1.0000</r>
       <r>   1.1909  1.0000</r>
       <r>   1.5951  1.0000</r>
       <r>   1.5951  1.0000</r>
       <r>   3.0378  1.0000</r>
       <r>   3.0378  1.0000</r>
       <r>   3.1661  1.0000</r>
       <r>   3.1661  1.0000</r>
       <r>   3.1903  1.0000</r>
       <r>   3.1903  1.0000</r>
       <r>   4.1239  1.0000</r>
       <r>   4.1239  1.0000</r>
       <r>   5.5517  1.0000</r>
       <r>   5.5517  1.0000</r>
       <r>   8.3018  0.0000</r>
       <r>   8.3018  0.0000</r>
       <r>  15.0737  0.0000</r>
       <r>  15.0737  0.0000</r>
       <r>  15.9473  0.0000</r>
       <r>  15.9473  0.0000</r>
      </set>
      <set comment="kpoint 26">
       <r>  -0.5158  1.0000</r>
       <r>   0.2830  1.0000</r>
       <r>   0.3018  1.0000</r>
       <r>   0.3018  1.0000</r>
       <r>   0.8980  1.0000</r>
       <r>   0.8980  1.0000</r>
       <r>   0.9776  1.0000</r>
       <r>   1.2163  1.0000</r>
       <r>   1.2163  1.0000</r>
       <r>   1.2469  1.0000</r>
       <r>   1.3942  1.0000</r>
       <r>   1.7555  1.0000</r>
       <r>   2.7295  1.0000</r>
       <r>   2.9858  1.0000</r>
       <r>   3.0116  1.0000</r>
       <r>   3.0944  1.0000</r>
       <r>   3.0944  1.0000</r>
       <r>   3.6565  1.0000</r>
       <r>   3.6565  1.0000</r>
       <r>   3.9408  1.0000</r>
       <r>   5.5592  1.0000</r>
       <r>   6.8284  1.0000</r>
       <r>   6.8284  1.0000</r>
       <r>   8.1702  0.0000</r>
       <r>  15.1028  0.0000</r>
       <r>  15.8968  0.0000</r>
       <r>  16.1975  0.0000</r>
       <r>  16.1975  0.0000</r>
      </set>
      <set comment="kpoint 27">
       <r>  -0.0930  1.0000</r>
       <r>  -0.0930  1.0000</r>
       <r>   0.3462  1.0000</r>
       <r>   0.3462  1.0000</r>
       <r>   0.9582  1.0000</r>
       <r>   0.9582  1.0000</r>
       <r>   1.1598  1.0000</r>
       <r>   1.1598  1.0000</r>
       <r>   1.2639  1.0000</r>
       <r>   1.2639  1.0000</r>
       <r>   1.5319  1.0000</r>
       <r>   1.5319  1.0000</r>
       <r>   2.8312  1.0000</r>
       <r>   2.8312  1.0000</r>
       <r>   2.9378  1.0000</r>
       <r>   2.9378  1.0000</r>
       <r>   3.2887  1.0000</r>
       <r>   3.2887  1.0000</r>
       <r>   3.7582  1.0000</r>
       <r>   3.7582  1.0000</r>
       <r>   6.1506  1.0000</r>
       <r>   6.1506  1.0000</r>
       <r>   7.4791  0.0000</r>
       <r>   7.4791  0.0000</r>
       <r>  15.5498  0.0000</r>
       <r>  15.5498  0.0000</r>
       <r>  16.9449  0.0000</r>
       <r>  16.9629  0.0000</r>
      </set>
      <set comment="kpoint 28">
       <r>   0.1575  1.0000</r>
       <r>   0.1575  1.0000</r>
       <r>   0.1575  1.0000</r>
       <r>   0.1575  1.0000</r>
       <r>   1.0829  1.0000</r>
       <r>   1.0829  1.0000</r>
       <r>   1.0829  1.0000</r>
       <r>   1.0829  1.0000</r>
       <r>   1.4592  1.0000</r>
       <r>   1.4592  1.0000</r>
       <r>   1.4592  1.0000</r>
       <r>   1.4592  1.0000</r>
       <r>   2.7767  1.0000</r>
       <r>   2.7767  1.0000</r>
       <r>   2.7767  1.0000</r>
       <r>   2.7767  1.0000</r>
       <r>   3.4742  1.0000</r>
       <r>   3.4742  1.0000</r>
       <r>   3.4742  1.0000</r>
       <r>   3.4742  1.0000</r>
       <r>   6.7815  1.0000</r>
       <r>   6.7815  1.0000</r>
       <r>   6.7815  1.0000</r>
       <r>   6.7815  1.0000</r>
       <r>  16.1812  0.0000</r>
       <r>  16.1812  0.0000</r>
       <r>  16.1812  0.0000</r>
       <r>  16.1812  0.0000</r>
      </set>
      <set comment="kpoint 29">
       <r>  -3.6036  1.0000</r>
       <r>  -0.8828  1.0000</r>
       <r>  -0.8828  1.0000</r>
       <r>  -0.8828  1.0000</r>
       <r>  -0.5324  1.0000</r>
       <r>  -0.5324  1.0000</r>
       <r>  -0.5324  1.0000</r>
       <r>   1.6273  1.0000</r>
       <r>   1.8122  1.0000</r>
       <r>   1.8122  1.0000</r>
       <r>   3.4557  1.0000</r>
       <r>   3.4558  1.0000</r>
       <r>   4.5196  1.0000</r>
       <r>   4.5196  1.0000</r>
       <r>   4.5196  1.0000</r>
       <r>   4.6389  1.0000</r>
       <r>   4.6389  1.0000</r>
       <r>   4.6389  1.0000</r>
       <r>   5.1778  1.0000</r>
       <r>   5.1778  1.0000</r>
       <r>   5.1778  1.0000</r>
       <r>   8.0192  0.0000</r>
       <r>   8.0192  0.0000</r>
       <r>   8.0192  0.0000</r>
       <r>  14.0346  0.0000</r>
       <r>  14.0346  0.0000</r>
       <r>  14.0346  0.0000</r>
       <r>  17.1184  0.0000</r>
      </set>
      <set comment="kpoint 30">
       <r>  -3.3482  1.0000</r>
       <r>  -0.7896  1.0000</r>
       <r>  -0.7265  1.0000</r>
       <r>  -0.7265  1.0000</r>
       <r>  -0.4341  1.0000</r>
       <r>  -0.3635  1.0000</r>
       <r>  -0.3635  1.0000</r>
       <r>   1.5166  1.0000</r>
       <r>   1.9085  1.0000</r>
       <r>   1.9193  1.0000</r>
       <r>   3.3144  1.0000</r>
       <r>   3.5351  1.0000</r>
       <r>   3.8530  1.0000</r>
       <r>   3.8530  1.0000</r>
       <r>   4.1361  1.0000</r>
       <r>   4.4452  1.0000</r>
       <r>   4.4537  1.0000</r>
       <r>   4.4537  1.0000</r>
       <r>   5.0585  1.0000</r>
       <r>   5.1478  1.0000</r>
       <r>   5.1478  1.0000</r>
       <r>   6.9114  1.0000</r>
       <r>   8.8115  0.0000</r>
       <r>   8.8115  0.0000</r>
       <r>  13.6806  0.0000</r>
       <r>  13.6806  0.0000</r>
       <r>  15.4927  0.0000</r>
       <r>  16.6598  0.0000</r>
      </set>
      <set comment="kpoint 31">
       <r>  -2.9356  1.0000</r>
       <r>  -0.6731  1.0000</r>
       <r>  -0.4803  1.0000</r>
       <r>  -0.4803  1.0000</r>
       <r>  -0.2749  1.0000</r>
       <r>  -0.0931  1.0000</r>
       <r>  -0.0931  1.0000</r>
       <r>   1.3157  1.0000</r>
       <r>   2.0852  1.0000</r>
       <r>   2.0958  1.0000</r>
       <r>   3.0972  1.0000</r>
       <r>   3.0972  1.0000</r>
       <r>   3.1182  1.0000</r>
       <r>   3.5541  1.0000</r>
       <r>   3.6623  1.0000</r>
       <r>   4.1437  1.0000</r>
       <r>   4.1613  1.0000</r>
       <r>   4.1613  1.0000</r>
       <r>   4.8903  1.0000</r>
       <r>   5.1223  1.0000</r>
       <r>   5.1223  1.0000</r>
       <r>   5.7997  1.0000</r>
       <r>   9.7293  0.0000</r>
       <r>   9.7293  0.0000</r>
       <r>  13.2674  0.0000</r>
       <r>  13.2674  0.0000</r>
       <r>  16.2360  0.0000</r>
       <r>  16.2360  0.0000</r>
      </set>
      <set comment="kpoint 32">
       <r>  -2.3908  1.0000</r>
       <r>  -0.6111  1.0000</r>
       <r>  -0.1675  1.0000</r>
       <r>  -0.1675  1.0000</r>
       <r>  -0.0628  1.0000</r>
       <r>   0.2529  1.0000</r>
       <r>   0.2529  1.0000</r>
       <r>   1.0575  1.0000</r>
       <r>   2.2592  1.0000</r>
       <r>   2.3384  1.0000</r>
       <r>   2.3669  1.0000</r>
       <r>   2.3669  1.0000</r>
       <r>   2.8958  1.0000</r>
       <r>   2.9758  1.0000</r>
       <r>   3.7740  1.0000</r>
       <r>   3.7978  1.0000</r>
       <r>   3.7978  1.0000</r>
       <r>   3.8301  1.0000</r>
       <r>   4.6908  1.0000</r>
       <r>   4.8687  1.0000</r>
       <r>   5.1075  1.0000</r>
       <r>   5.1075  1.0000</r>
       <r>  10.6020  0.0000</r>
       <r>  10.6020  0.0000</r>
       <r>  12.9464  0.0000</r>
       <r>  12.9464  0.0000</r>
       <r>  15.7959  0.0000</r>
       <r>  15.7959  0.0000</r>
      </set>
      <set comment="kpoint 33">
       <r>  -1.7643  1.0000</r>
       <r>  -0.7406  1.0000</r>
       <r>   0.1493  1.0000</r>
       <r>   0.1493  1.0000</r>
       <r>   0.1907  1.0000</r>
       <r>   0.6373  1.0000</r>
       <r>   0.6373  1.0000</r>
       <r>   0.7687  1.0000</r>
       <r>   1.7113  1.0000</r>
       <r>   1.7113  1.0000</r>
       <r>   2.2581  1.0000</r>
       <r>   2.3875  1.0000</r>
       <r>   2.6409  1.0000</r>
       <r>   3.1215  1.0000</r>
       <r>   3.3790  1.0000</r>
       <r>   3.4686  1.0000</r>
       <r>   3.4686  1.0000</r>
       <r>   4.0290  1.0000</r>
       <r>   4.1288  1.0000</r>
       <r>   4.4724  1.0000</r>
       <r>   5.1004  1.0000</r>
       <r>   5.1004  1.0000</r>
       <r>  11.2430  0.0000</r>
       <r>  11.2430  0.0000</r>
       <r>  12.8213  0.0000</r>
       <r>  12.8213  0.0000</r>
       <r>  15.3667  0.0000</r>
       <r>  15.3667  0.0000</r>
      </set>
      <set comment="kpoint 34">
       <r>  -1.1585  1.0000</r>
       <r>  -1.1585  1.0000</r>
       <r>   0.3015  1.0000</r>
       <r>   0.3015  1.0000</r>
       <r>   0.4731  1.0000</r>
       <r>   0.4731  1.0000</r>
       <r>   0.9644  1.0000</r>
       <r>   0.9644  1.0000</r>
       <r>   1.2739  1.0000</r>
       <r>   1.2739  1.0000</r>
       <r>   2.2055  1.0000</r>
       <r>   2.2055  1.0000</r>
       <r>   2.9932  1.0000</r>
       <r>   2.9932  1.0000</r>
       <r>   3.3282  1.0000</r>
       <r>   3.3282  1.0000</r>
       <r>   3.5447  1.0000</r>
       <r>   3.5447  1.0000</r>
       <r>   4.2474  1.0000</r>
       <r>   4.2474  1.0000</r>
       <r>   5.0984  1.0000</r>
       <r>   5.0984  1.0000</r>
       <r>  11.4663  0.0000</r>
       <r>  11.4663  0.0000</r>
       <r>  12.8372  0.0000</r>
       <r>  12.8372  0.0000</r>
       <r>  15.1587  0.0000</r>
       <r>  15.1587  0.0000</r>
      </set>
      <set comment="kpoint 35">
       <r>  -3.1039  1.0000</r>
       <r>  -0.6345  1.0000</r>
       <r>  -0.6345  1.0000</r>
       <r>  -0.6246  1.0000</r>
       <r>  -0.2662  1.0000</r>
       <r>  -0.2662  1.0000</r>
       <r>  -0.1649  1.0000</r>
       <r>   1.4662  1.0000</r>
       <r>   1.9603  1.0000</r>
       <r>   1.9858  1.0000</r>
       <r>   3.2955  1.0000</r>
       <r>   3.4621  1.0000</r>
       <r>   3.4621  1.0000</r>
       <r>   3.4897  1.0000</r>
       <r>   3.5386  1.0000</r>
       <r>   4.2053  1.0000</r>
       <r>   4.2875  1.0000</r>
       <r>   4.2875  1.0000</r>
       <r>   5.0419  1.0000</r>
       <r>   5.0419  1.0000</r>
       <r>   5.0641  1.0000</r>
       <r>   7.6592  0.0000</r>
       <r>   7.6592  0.0000</r>
       <r>   9.4516  0.0000</r>
       <r>  13.1332  0.0000</r>
       <r>  14.9086  0.0000</r>
       <r>  14.9086  0.0000</r>
       <r>  16.2207  0.0000</r>
      </set>
      <set comment="kpoint 36">
       <r>  -2.7097  1.0000</r>
       <r>  -0.5202  1.0000</r>
       <r>  -0.4387  1.0000</r>
       <r>  -0.3901  1.0000</r>
       <r>  -0.1085  1.0000</r>
       <r>   0.0022  1.0000</r>
       <r>   0.1225  1.0000</r>
       <r>   1.3215  1.0000</r>
       <r>   2.0881  1.0000</r>
       <r>   2.1048  1.0000</r>
       <r>   2.7348  1.0000</r>
       <r>   2.9197  1.0000</r>
       <r>   2.9383  1.0000</r>
       <r>   3.1658  1.0000</r>
       <r>   3.6819  1.0000</r>
       <r>   3.9481  1.0000</r>
       <r>   3.9873  1.0000</r>
       <r>   4.0786  1.0000</r>
       <r>   4.8797  1.0000</r>
       <r>   4.9739  1.0000</r>
       <r>   4.9789  1.0000</r>
       <r>   6.5109  1.0000</r>
       <r>   8.4917  0.0000</r>
       <r>  10.2491  0.0000</r>
       <r>  12.4961  0.0000</r>
       <r>  14.2521  0.0000</r>
       <r>  15.9599  0.0000</r>
       <r>  16.1555  0.0000</r>
      </set>
      <set comment="kpoint 37">
       <r>  -2.1899  1.0000</r>
       <r>  -0.4605  1.0000</r>
       <r>  -0.1692  1.0000</r>
       <r>  -0.0750  1.0000</r>
       <r>   0.0974  1.0000</r>
       <r>   0.3374  1.0000</r>
       <r>   0.4439  1.0000</r>
       <r>   1.1050  1.0000</r>
       <r>   2.0631  1.0000</r>
       <r>   2.1592  1.0000</r>
       <r>   2.3017  1.0000</r>
       <r>   2.3161  1.0000</r>
       <r>   2.4006  1.0000</r>
       <r>   3.1018  1.0000</r>
       <r>   3.6194  1.0000</r>
       <r>   3.6551  1.0000</r>
       <r>   3.7844  1.0000</r>
       <r>   3.9008  1.0000</r>
       <r>   4.6300  1.0000</r>
       <r>   4.9168  1.0000</r>
       <r>   4.9177  1.0000</r>
       <r>   5.5492  1.0000</r>
       <r>   9.2883  0.0000</r>
       <r>  10.9654  0.0000</r>
       <r>  12.0122  0.0000</r>
       <r>  13.6737  0.0000</r>
       <r>  15.8211  0.0000</r>
       <r>  16.9040  0.0000</r>
      </set>
      <set comment="kpoint 38">
       <r>  -1.5913  1.0000</r>
       <r>  -0.5926  1.0000</r>
       <r>   0.1627  1.0000</r>
       <r>   0.2668  1.0000</r>
       <r>   0.3335  1.0000</r>
       <r>   0.6553  1.0000</r>
       <r>   0.7003  1.0000</r>
       <r>   0.8518  1.0000</r>
       <r>   1.5211  1.0000</r>
       <r>   1.7401  1.0000</r>
       <r>   2.0352  1.0000</r>
       <r>   2.0839  1.0000</r>
       <r>   2.5777  1.0000</r>
       <r>   3.2414  1.0000</r>
       <r>   3.2945  1.0000</r>
       <r>   3.3921  1.0000</r>
       <r>   3.4799  1.0000</r>
       <r>   4.1660  1.0000</r>
       <r>   4.2275  1.0000</r>
       <r>   4.8807  1.0000</r>
       <r>   4.8838  1.0000</r>
       <r>   4.8857  1.0000</r>
       <r>   9.9866  0.0000</r>
       <r>  11.0090  0.0000</r>
       <r>  12.1911  0.0000</r>
       <r>  13.1912  0.0000</r>
       <r>  15.8280  0.0000</r>
       <r>  16.4481  0.0000</r>
      </set>
      <set comment="kpoint 39">
       <r>  -1.0065  1.0000</r>
       <r>  -1.0065  1.0000</r>
       <r>   0.4274  1.0000</r>
       <r>   0.4274  1.0000</r>
       <r>   0.5884  1.0000</r>
       <r>   0.5884  1.0000</r>
       <r>   0.7727  1.0000</r>
       <r>   0.7727  1.0000</r>
       <r>   1.3742  1.0000</r>
       <r>   1.3742  1.0000</r>
       <r>   1.9678  1.0000</r>
       <r>   1.9678  1.0000</r>
       <r>   2.8881  1.0000</r>
       <r>   2.8881  1.0000</r>
       <r>   3.3102  1.0000</r>
       <r>   3.3102  1.0000</r>
       <r>   3.7174  1.0000</r>
       <r>   3.7174  1.0000</r>
       <r>   4.4743  1.0000</r>
       <r>   4.4743  1.0000</r>
       <r>   4.8748  1.0000</r>
       <r>   4.8748  1.0000</r>
       <r>  10.5636  0.0000</r>
       <r>  10.5636  0.0000</r>
       <r>  12.7203  0.0000</r>
       <r>  12.7203  0.0000</r>
       <r>  16.0420  0.0000</r>
       <r>  16.0420  0.0000</r>
      </set>
      <set comment="kpoint 40">
       <r>  -2.3468  1.0000</r>
       <r>  -0.3215  1.0000</r>
       <r>  -0.2825  1.0000</r>
       <r>  -0.2825  1.0000</r>
       <r>   0.1601  1.0000</r>
       <r>   0.1601  1.0000</r>
       <r>   0.4054  1.0000</r>
       <r>   1.2743  1.0000</r>
       <r>   2.1034  1.0000</r>
       <r>   2.1759  1.0000</r>
       <r>   2.2859  1.0000</r>
       <r>   2.2859  1.0000</r>
       <r>   2.5941  1.0000</r>
       <r>   3.1231  1.0000</r>
       <r>   3.6922  1.0000</r>
       <r>   3.8431  1.0000</r>
       <r>   3.8431  1.0000</r>
       <r>   3.8492  1.0000</r>
       <r>   4.7726  1.0000</r>
       <r>   4.7726  1.0000</r>
       <r>   4.8249  1.0000</r>
       <r>   7.2956  0.0000</r>
       <r>   7.2956  0.0000</r>
       <r>  10.8674  0.0000</r>
       <r>  11.7138  0.0000</r>
       <r>  15.2313  0.0000</r>
       <r>  15.2313  0.0000</r>
       <r>  15.8743  0.0000</r>
      </set>
      <set comment="kpoint 41">
       <r>  -1.8707  1.0000</r>
       <r>  -0.2353  1.0000</r>
       <r>  -0.1213  1.0000</r>
       <r>   0.0218  1.0000</r>
       <r>   0.3633  1.0000</r>
       <r>   0.4925  1.0000</r>
       <r>   0.6864  1.0000</r>
       <r>   1.1505  1.0000</r>
       <r>   1.7043  1.0000</r>
       <r>   1.8738  1.0000</r>
       <r>   2.0824  1.0000</r>
       <r>   2.1705  1.0000</r>
       <r>   2.3266  1.0000</r>
       <r>   3.1018  1.0000</r>
       <r>   3.4424  1.0000</r>
       <r>   3.5034  1.0000</r>
       <r>   3.6345  1.0000</r>
       <r>   4.1430  1.0000</r>
       <r>   4.4929  1.0000</r>
       <r>   4.6652  1.0000</r>
       <r>   4.6942  1.0000</r>
       <r>   6.2843  1.0000</r>
       <r>   8.0551  0.0000</r>
       <r>  10.6751  0.0000</r>
       <r>  11.8679  0.0000</r>
       <r>  14.4266  0.0000</r>
       <r>  15.9444  0.0000</r>
       <r>  16.2344  0.0000</r>
      </set>
      <set comment="kpoint 42">
       <r>  -1.3237  1.0000</r>
       <r>  -0.3798  1.0000</r>
       <r>   0.1586  1.0000</r>
       <r>   0.3668  1.0000</r>
       <r>   0.5737  1.0000</r>
       <r>   0.7235  1.0000</r>
       <r>   0.8349  1.0000</r>
       <r>   0.9732  1.0000</r>
       <r>   1.3323  1.0000</r>
       <r>   1.6697  1.0000</r>
       <r>   1.7619  1.0000</r>
       <r>   1.9431  1.0000</r>
       <r>   2.5366  1.0000</r>
       <r>   3.1403  1.0000</r>
       <r>   3.2435  1.0000</r>
       <r>   3.2856  1.0000</r>
       <r>   3.3873  1.0000</r>
       <r>   4.1057  1.0000</r>
       <r>   4.5107  1.0000</r>
       <r>   4.5975  1.0000</r>
       <r>   4.6097  1.0000</r>
       <r>   5.5129  1.0000</r>
       <r>   8.7562  0.0000</r>
       <r>  10.0288  0.0000</r>
       <r>  12.5316  0.0000</r>
       <r>  13.7527  0.0000</r>
       <r>  16.2057  0.0000</r>
       <r>  17.2594  0.0000</r>
      </set>
      <set comment="kpoint 43">
       <r>  -0.7825  1.0000</r>
       <r>  -0.7825  1.0000</r>
       <r>   0.4903  1.0000</r>
       <r>   0.4903  1.0000</r>
       <r>   0.7048  1.0000</r>
       <r>   0.7048  1.0000</r>
       <r>   0.7753  1.0000</r>
       <r>   0.7753  1.0000</r>
       <r>   1.4554  1.0000</r>
       <r>   1.4554  1.0000</r>
       <r>   1.7448  1.0000</r>
       <r>   1.7448  1.0000</r>
       <r>   2.8089  1.0000</r>
       <r>   2.8089  1.0000</r>
       <r>   3.2142  1.0000</r>
       <r>   3.2142  1.0000</r>
       <r>   3.6621  1.0000</r>
       <r>   3.6621  1.0000</r>
       <r>   4.5785  1.0000</r>
       <r>   4.5785  1.0000</r>
       <r>   4.9502  1.0000</r>
       <r>   4.9502  1.0000</r>
       <r>   9.4013  0.0000</r>
       <r>   9.4013  0.0000</r>
       <r>  13.1512  0.0000</r>
       <r>  13.1512  0.0000</r>
       <r>  16.6834  0.0000</r>
       <r>  16.6834  0.0000</r>
      </set>
      <set comment="kpoint 44">
       <r>  -1.4584  1.0000</r>
       <r>  -0.0136  1.0000</r>
       <r>   0.0310  1.0000</r>
       <r>   0.0310  1.0000</r>
       <r>   0.7099  1.0000</r>
       <r>   0.7099  1.0000</r>
       <r>   0.9111  1.0000</r>
       <r>   1.1540  1.0000</r>
       <r>   1.4168  1.0000</r>
       <r>   1.4168  1.0000</r>
       <r>   1.9739  1.0000</r>
       <r>   2.0163  1.0000</r>
       <r>   2.3793  1.0000</r>
       <r>   3.0793  1.0000</r>
       <r>   3.2127  1.0000</r>
       <r>   3.3528  1.0000</r>
       <r>   3.3528  1.0000</r>
       <r>   4.3552  1.0000</r>
       <r>   4.3552  1.0000</r>
       <r>   4.4875  1.0000</r>
       <r>   4.5240  1.0000</r>
       <r>   7.0039  0.0092</r>
       <r>   7.0039  0.0092</r>
       <r>   9.8193  0.0000</r>
       <r>  12.4664  0.0000</r>
       <r>  15.2654  0.0000</r>
       <r>  15.2654  0.0000</r>
       <r>  16.2150  0.0000</r>
      </set>
      <set comment="kpoint 45">
       <r>  -0.9920  1.0000</r>
       <r>  -0.1521  1.0000</r>
       <r>   0.1485  1.0000</r>
       <r>   0.2743  1.0000</r>
       <r>   0.9011  1.0000</r>
       <r>   0.9427  1.0000</r>
       <r>   0.9999  1.0000</r>
       <r>   1.1005  1.0000</r>
       <r>   1.2362  1.0000</r>
       <r>   1.3781  1.0000</r>
       <r>   1.7621  1.0000</r>
       <r>   1.8619  1.0000</r>
       <r>   2.4972  1.0000</r>
       <r>   3.0204  1.0000</r>
       <r>   3.0366  1.0000</r>
       <r>   3.1652  1.0000</r>
       <r>   3.2261  1.0000</r>
       <r>   3.9709  1.0000</r>
       <r>   4.2660  1.0000</r>
       <r>   4.3312  1.0000</r>
       <r>   4.9840  1.0000</r>
       <r>   6.1692  1.0000</r>
       <r>   7.6915  0.0000</r>
       <r>   9.0478  0.0000</r>
       <r>  13.1077  0.0000</r>
       <r>  14.4477  0.0000</r>
       <r>  16.1768  0.0000</r>
       <r>  16.6807  0.0000</r>
      </set>
      <set comment="kpoint 46">
       <r>  -0.5280  1.0000</r>
       <r>  -0.5280  1.0000</r>
       <r>   0.3127  1.0000</r>
       <r>   0.3127  1.0000</r>
       <r>   0.9219  1.0000</r>
       <r>   0.9219  1.0000</r>
       <r>   1.0116  1.0000</r>
       <r>   1.0116  1.0000</r>
       <r>   1.5259  1.0000</r>
       <r>   1.5259  1.0000</r>
       <r>   1.6021  1.0000</r>
       <r>   1.6021  1.0000</r>
       <r>   2.7170  1.0000</r>
       <r>   2.7170  1.0000</r>
       <r>   3.0186  1.0000</r>
       <r>   3.0186  1.0000</r>
       <r>   3.5591  1.0000</r>
       <r>   3.5591  1.0000</r>
       <r>   4.2548  1.0000</r>
       <r>   4.2548  1.0000</r>
       <r>   5.5182  1.0000</r>
       <r>   5.5182  1.0000</r>
       <r>   8.3584  0.0000</r>
       <r>   8.3584  0.0000</r>
       <r>  13.7497  0.0000</r>
       <r>  13.7497  0.0000</r>
       <r>  17.1340  0.0000</r>
       <r>  17.1340  0.0000</r>
      </set>
      <set comment="kpoint 47">
       <r>  -0.6341  1.0000</r>
       <r>   0.0296  1.0000</r>
       <r>   0.0296  1.0000</r>
       <r>   0.1433  1.0000</r>
       <r>   1.1099  1.0000</r>
       <r>   1.1832  1.0000</r>
       <r>   1.1832  1.0000</r>
       <r>   1.1877  1.0000</r>
       <r>   1.2926  1.0000</r>
       <r>   1.2926  1.0000</r>
       <r>   1.7321  1.0000</r>
       <r>   1.7787  1.0000</r>
       <r>   2.4857  1.0000</r>
       <r>   2.8394  1.0000</r>
       <r>   2.8751  1.0000</r>
       <r>   2.8751  1.0000</r>
       <r>   3.2918  1.0000</r>
       <r>   3.8961  1.0000</r>
       <r>   3.8961  1.0000</r>
       <r>   4.0876  1.0000</r>
       <r>   5.5220  1.0000</r>
       <r>   6.8247  1.0000</r>
       <r>   6.8247  1.0000</r>
       <r>   8.2115  0.0000</r>
       <r>  13.7450  0.0000</r>
       <r>  15.2426  0.0000</r>
       <r>  15.2426  0.0000</r>
       <r>  17.0797  0.0000</r>
      </set>
      <set comment="kpoint 48">
       <r>  -0.2848  1.0000</r>
       <r>  -0.2848  1.0000</r>
       <r>   0.1212  1.0000</r>
       <r>   0.1212  1.0000</r>
       <r>   1.1387  1.0000</r>
       <r>   1.1387  1.0000</r>
       <r>   1.2123  1.0000</r>
       <r>   1.2123  1.0000</r>
       <r>   1.5756  1.0000</r>
       <r>   1.5756  1.0000</r>
       <r>   1.5918  1.0000</r>
       <r>   1.5918  1.0000</r>
       <r>   2.6146  1.0000</r>
       <r>   2.6146  1.0000</r>
       <r>   2.7748  1.0000</r>
       <r>   2.7748  1.0000</r>
       <r>   3.5387  1.0000</r>
       <r>   3.5387  1.0000</r>
       <r>   3.9313  1.0000</r>
       <r>   3.9313  1.0000</r>
       <r>   6.1220  1.0000</r>
       <r>   6.1220  1.0000</r>
       <r>   7.4908  0.0000</r>
       <r>   7.4908  0.0000</r>
       <r>  14.4435  0.0000</r>
       <r>  14.4435  0.0000</r>
       <r>  16.1216  0.0000</r>
       <r>  16.1216  0.0000</r>
      </set>
      <set comment="kpoint 49">
       <r>  -0.0719  1.0000</r>
       <r>  -0.0719  1.0000</r>
       <r>  -0.0719  1.0000</r>
       <r>  -0.0719  1.0000</r>
       <r>   1.2509  1.0000</r>
       <r>   1.2509  1.0000</r>
       <r>   1.2509  1.0000</r>
       <r>   1.2509  1.0000</r>
       <r>   1.6229  1.0000</r>
       <r>   1.6229  1.0000</r>
       <r>   1.6229  1.0000</r>
       <r>   1.6229  1.0000</r>
       <r>   2.6035  1.0000</r>
       <r>   2.6035  1.0000</r>
       <r>   2.6035  1.0000</r>
       <r>   2.6035  1.0000</r>
       <r>   3.6682  1.0000</r>
       <r>   3.6682  1.0000</r>
       <r>   3.6682  1.0000</r>
       <r>   3.6682  1.0000</r>
       <r>   6.7655  1.0000</r>
       <r>   6.7655  1.0000</r>
       <r>   6.7655  1.0000</r>
       <r>   6.7655  1.0000</r>
       <r>  15.2293  0.0000</r>
       <r>  15.2293  0.0000</r>
       <r>  15.2293  0.0000</r>
       <r>  15.2293  0.0000</r>
      </set>
      <set comment="kpoint 50">
       <r>  -2.8756  1.0000</r>
       <r>  -0.5470  1.0000</r>
       <r>  -0.5470  1.0000</r>
       <r>  -0.5470  1.0000</r>
       <r>  -0.0600  1.0000</r>
       <r>  -0.0600  1.0000</r>
       <r>  -0.0600  1.0000</r>
       <r>   1.4564  1.0000</r>
       <r>   2.0023  1.0000</r>
       <r>   2.0023  1.0000</r>
       <r>   3.1399  1.0000</r>
       <r>   3.1399  1.0000</r>
       <r>   3.1399  1.0000</r>
       <r>   3.4320  1.0000</r>
       <r>   3.4320  1.0000</r>
       <r>   3.9469  1.0000</r>
       <r>   3.9469  1.0000</r>
       <r>   3.9469  1.0000</r>
       <r>   5.0778  1.0000</r>
       <r>   5.0778  1.0000</r>
       <r>   5.0778  1.0000</r>
       <r>   8.2257  0.0000</r>
       <r>   8.2257  0.0000</r>
       <r>   8.2257  0.0000</r>
       <r>  14.0647  0.0000</r>
       <r>  14.0647  0.0000</r>
       <r>  14.0647  0.0000</r>
       <r>  17.4168  0.0000</r>
      </set>
      <set comment="kpoint 51">
       <r>  -2.5091  1.0000</r>
       <r>  -0.4577  1.0000</r>
       <r>  -0.3792  1.0000</r>
       <r>  -0.3792  1.0000</r>
       <r>   0.1120  1.0000</r>
       <r>   0.2309  1.0000</r>
       <r>   0.2309  1.0000</r>
       <r>   1.3713  1.0000</r>
       <r>   2.0710  1.0000</r>
       <r>   2.0851  1.0000</r>
       <r>   2.6153  1.0000</r>
       <r>   2.6153  1.0000</r>
       <r>   2.6574  1.0000</r>
       <r>   3.3149  1.0000</r>
       <r>   3.6207  1.0000</r>
       <r>   3.6383  1.0000</r>
       <r>   3.7223  1.0000</r>
       <r>   3.7223  1.0000</r>
       <r>   5.0056  1.0000</r>
       <r>   5.0056  1.0000</r>
       <r>   5.0252  1.0000</r>
       <r>   6.9853  0.6077</r>
       <r>   8.9408  0.0000</r>
       <r>   8.9408  0.0000</r>
       <r>  13.1793  0.0000</r>
       <r>  13.1793  0.0000</r>
       <r>  15.0575  0.0000</r>
       <r>  17.3953  0.0000</r>
      </set>
      <set comment="kpoint 52">
       <r>  -2.0289  1.0000</r>
       <r>  -0.4261  1.0000</r>
       <r>  -0.1303  1.0000</r>
       <r>  -0.1303  1.0000</r>
       <r>   0.3336  1.0000</r>
       <r>   0.5370  1.0000</r>
       <r>   0.5370  1.0000</r>
       <r>   1.2102  1.0000</r>
       <r>   2.0804  1.0000</r>
       <r>   2.0804  1.0000</r>
       <r>   2.1069  1.0000</r>
       <r>   2.1763  1.0000</r>
       <r>   2.2187  1.0000</r>
       <r>   3.2770  1.0000</r>
       <r>   3.3244  1.0000</r>
       <r>   3.5051  1.0000</r>
       <r>   3.5051  1.0000</r>
       <r>   3.8915  1.0000</r>
       <r>   4.8934  1.0000</r>
       <r>   4.9013  1.0000</r>
       <r>   4.9013  1.0000</r>
       <r>   5.8672  1.0000</r>
       <r>   9.6743  0.0000</r>
       <r>   9.6743  0.0000</r>
       <r>  12.3954  0.0000</r>
       <r>  12.3954  0.0000</r>
       <r>  16.1056  0.0000</r>
       <r>  17.4291  0.0000</r>
      </set>
      <set comment="kpoint 53">
       <r>  -1.4807  1.0000</r>
       <r>  -0.5660  1.0000</r>
       <r>   0.1847  1.0000</r>
       <r>   0.1847  1.0000</r>
       <r>   0.5689  1.0000</r>
       <r>   0.6971  1.0000</r>
       <r>   0.6971  1.0000</r>
       <r>   1.0085  1.0000</r>
       <r>   1.7069  1.0000</r>
       <r>   1.7069  1.0000</r>
       <r>   1.8753  1.0000</r>
       <r>   2.0028  1.0000</r>
       <r>   2.4084  1.0000</r>
       <r>   2.9476  1.0000</r>
       <r>   3.2855  1.0000</r>
       <r>   3.2855  1.0000</r>
       <r>   3.6095  1.0000</r>
       <r>   4.1677  1.0000</r>
       <r>   4.6926  1.0000</r>
       <r>   4.8221  1.0000</r>
       <r>   4.8221  1.0000</r>
       <r>   4.9185  1.0000</r>
       <r>  10.3473  0.0000</r>
       <r>  10.3473  0.0000</r>
       <r>  11.7375  0.0000</r>
       <r>  11.7375  0.0000</r>
       <r>  17.1780  0.0000</r>
       <r>  17.4950  0.0000</r>
      </set>
      <set comment="kpoint 54">
       <r>  -0.9484  1.0000</r>
       <r>  -0.9484  1.0000</r>
       <r>   0.4838  1.0000</r>
       <r>   0.4838  1.0000</r>
       <r>   0.5560  1.0000</r>
       <r>   0.5560  1.0000</r>
       <r>   0.7928  1.0000</r>
       <r>   0.7928  1.0000</r>
       <r>   1.6139  1.0000</r>
       <r>   1.6139  1.0000</r>
       <r>   1.8578  1.0000</r>
       <r>   1.8578  1.0000</r>
       <r>   2.6536  1.0000</r>
       <r>   2.6536  1.0000</r>
       <r>   3.1799  1.0000</r>
       <r>   3.1799  1.0000</r>
       <r>   4.1585  1.0000</r>
       <r>   4.1585  1.0000</r>
       <r>   4.4429  1.0000</r>
       <r>   4.4429  1.0000</r>
       <r>   4.7941  1.0000</r>
       <r>   4.7941  1.0000</r>
       <r>  10.7760  0.0000</r>
       <r>  10.7760  0.0000</r>
       <r>  11.3236  0.0000</r>
       <r>  11.3236  0.0000</r>
       <r>  17.5330  0.0000</r>
       <r>  17.5330  0.0000</r>
      </set>
      <set comment="kpoint 55">
       <r>  -2.1897  1.0000</r>
       <r>  -0.3251  1.0000</r>
       <r>  -0.3251  1.0000</r>
       <r>  -0.2983  1.0000</r>
       <r>   0.4148  1.0000</r>
       <r>   0.4148  1.0000</r>
       <r>   0.5121  1.0000</r>
       <r>   1.3963  1.0000</r>
       <r>   2.0748  1.0000</r>
       <r>   2.0926  1.0000</r>
       <r>   2.2234  1.0000</r>
       <r>   2.2234  1.0000</r>
       <r>   2.3785  1.0000</r>
       <r>   3.3701  1.0000</r>
       <r>   3.4121  1.0000</r>
       <r>   3.4130  1.0000</r>
       <r>   3.4130  1.0000</r>
       <r>   3.7648  1.0000</r>
       <r>   4.9450  1.0000</r>
       <r>   4.9774  1.0000</r>
       <r>   4.9774  1.0000</r>
       <r>   7.6350  0.0000</r>
       <r>   7.6350  0.0000</r>
       <r>   9.5493  0.0000</r>
       <r>  12.1166  0.0000</r>
       <r>  13.9951  0.0000</r>
       <r>  13.9951  0.0000</r>
       <r>  17.5231  0.0000</r>
      </set>
      <set comment="kpoint 56">
       <r>  -1.7768  1.0000</r>
       <r>  -0.3426  1.0000</r>
       <r>  -0.1459  1.0000</r>
       <r>  -0.1275  1.0000</r>
       <r>   0.6602  1.0000</r>
       <r>   0.7123  1.0000</r>
       <r>   0.7586  1.0000</r>
       <r>   1.3512  1.0000</r>
       <r>   1.8268  1.0000</r>
       <r>   1.8610  1.0000</r>
       <r>   2.0500  1.0000</r>
       <r>   2.0907  1.0000</r>
       <r>   2.1626  1.0000</r>
       <r>   3.0802  1.0000</r>
       <r>   3.1887  1.0000</r>
       <r>   3.2505  1.0000</r>
       <r>   3.4230  1.0000</r>
       <r>   4.0609  1.0000</r>
       <r>   4.8269  1.0000</r>
       <r>   4.8492  1.0000</r>
       <r>   4.8517  1.0000</r>
       <r>   6.4607  1.0000</r>
       <r>   8.3309  0.0000</r>
       <r>  10.2161  0.0000</r>
       <r>  11.1855  0.0000</r>
       <r>  13.0614  0.0000</r>
       <r>  14.9339  0.0000</r>
       <r>  17.7275  0.0000</r>
      </set>
      <set comment="kpoint 57">
       <r>  -1.3114  1.0000</r>
       <r>  -0.5119  1.0000</r>
       <r>   0.0562  1.0000</r>
       <r>   0.0983  1.0000</r>
       <r>   0.8046  1.0000</r>
       <r>   0.8261  1.0000</r>
       <r>   0.9180  1.0000</r>
       <r>   1.2491  1.0000</r>
       <r>   1.6656  1.0000</r>
       <r>   1.7031  1.0000</r>
       <r>   1.9137  1.0000</r>
       <r>   1.9163  1.0000</r>
       <r>   2.2983  1.0000</r>
       <r>   2.7675  1.0000</r>
       <r>   3.0211  1.0000</r>
       <r>   3.0833  1.0000</r>
       <r>   3.6992  1.0000</r>
       <r>   4.4151  1.0000</r>
       <r>   4.5934  1.0000</r>
       <r>   4.7168  1.0000</r>
       <r>   4.7281  1.0000</r>
       <r>   5.5025  1.0000</r>
       <r>   9.0166  0.0000</r>
       <r>  10.3914  0.0000</r>
       <r>  10.8874  0.0000</r>
       <r>  12.2615  0.0000</r>
       <r>  15.9437  0.0000</r>
       <r>  17.9986  0.0000</r>
      </set>
      <set comment="kpoint 58">
       <r>  -0.8589  1.0000</r>
       <r>  -0.8589  1.0000</r>
       <r>   0.2066  1.0000</r>
       <r>   0.2066  1.0000</r>
       <r>   0.7496  1.0000</r>
       <r>   0.7496  1.0000</r>
       <r>   1.1140  1.0000</r>
       <r>   1.1140  1.0000</r>
       <r>   1.7219  1.0000</r>
       <r>   1.7219  1.0000</r>
       <r>   1.8258  1.0000</r>
       <r>   1.8258  1.0000</r>
       <r>   2.5018  1.0000</r>
       <r>   2.5018  1.0000</r>
       <r>   2.9708  1.0000</r>
       <r>   2.9708  1.0000</r>
       <r>   4.1645  1.0000</r>
       <r>   4.1645  1.0000</r>
       <r>   4.6761  1.0000</r>
       <r>   4.6761  1.0000</r>
       <r>   4.8458  1.0000</r>
       <r>   4.8458  1.0000</r>
       <r>   9.6900  0.0000</r>
       <r>   9.6900  0.0000</r>
       <r>  11.5555  0.0000</r>
       <r>  11.5555  0.0000</r>
       <r>  16.9748  0.0000</r>
       <r>  16.9748  0.0000</r>
      </set>
      <set comment="kpoint 59">
       <r>  -1.4569  1.0000</r>
       <r>  -0.2211  1.0000</r>
       <r>  -0.2211  1.0000</r>
       <r>  -0.1192  1.0000</r>
       <r>   0.9299  1.0000</r>
       <r>   0.9716  1.0000</r>
       <r>   0.9716  1.0000</r>
       <r>   1.4651  1.0000</r>
       <r>   1.6282  1.0000</r>
       <r>   1.6282  1.0000</r>
       <r>   2.0072  1.0000</r>
       <r>   2.0937  1.0000</r>
       <r>   2.1466  1.0000</r>
       <r>   2.9275  1.0000</r>
       <r>   2.9451  1.0000</r>
       <r>   2.9451  1.0000</r>
       <r>   3.4515  1.0000</r>
       <r>   4.4227  1.0000</r>
       <r>   4.6960  1.0000</r>
       <r>   4.7040  1.0000</r>
       <r>   4.7040  1.0000</r>
       <r>   7.1290  0.0000</r>
       <r>   7.1290  0.0000</r>
       <r>  10.1312  0.0000</r>
       <r>  10.8436  0.0000</r>
       <r>  13.8940  0.0000</r>
       <r>  13.8940  0.0000</r>
       <r>  17.9091  0.0000</r>
      </set>
      <set comment="kpoint 60">
       <r>  -1.1002  1.0000</r>
       <r>  -0.4353  1.0000</r>
       <r>  -0.1015  1.0000</r>
       <r>  -0.0692  1.0000</r>
       <r>   0.9854  1.0000</r>
       <r>   1.0268  1.0000</r>
       <r>   1.2847  1.0000</r>
       <r>   1.5041  1.0000</r>
       <r>   1.5299  1.0000</r>
       <r>   1.7442  1.0000</r>
       <r>   1.8762  1.0000</r>
       <r>   2.1024  1.0000</r>
       <r>   2.2212  1.0000</r>
       <r>   2.6465  1.0000</r>
       <r>   2.7566  1.0000</r>
       <r>   2.8200  1.0000</r>
       <r>   3.6428  1.0000</r>
       <r>   4.4208  1.0000</r>
       <r>   4.5586  1.0000</r>
       <r>   4.5594  1.0000</r>
       <r>   4.8727  1.0000</r>
       <r>   6.1498  1.0000</r>
       <r>   7.8064  0.0000</r>
       <r>   9.2527  0.0000</r>
       <r>  11.5051  0.0000</r>
       <r>  12.9944  0.0000</r>
       <r>  14.8281  0.0000</r>
       <r>  16.8477  0.0000</r>
      </set>
      <set comment="kpoint 61">
       <r>  -0.7446  1.0000</r>
       <r>  -0.7446  1.0000</r>
       <r>  -0.0450  1.0000</r>
       <r>  -0.0450  1.0000</r>
       <r>   0.9810  1.0000</r>
       <r>   0.9810  1.0000</r>
       <r>   1.4950  1.0000</r>
       <r>   1.4950  1.0000</r>
       <r>   1.6215  1.0000</r>
       <r>   1.6215  1.0000</r>
       <r>   2.0041  1.0000</r>
       <r>   2.0041  1.0000</r>
       <r>   2.3960  1.0000</r>
[...]
       <r>   6.7090  1.0000</r>
       <r>   6.7090  1.0000</r>
       <r>   6.7090  1.0000</r>
       <r>  13.8280  0.0000</r>
       <r>  13.8280  0.0000</r>
       <r>  13.8280  0.0000</r>
       <r>  13.8280  0.0000</r>
      </set>
      <set comment="kpoint 65">
       <r>  -1.9426  1.0000</r>
       <r>  -0.3091  1.0000</r>
       <r>  -0.3091  1.0000</r>
       <r>  -0.3091  1.0000</r>
       <r>   0.7005  1.0000</r>
       <r>   0.7005  1.0000</r>
       <r>   0.7005  1.0000</r>
       <r>   1.5513  1.0000</r>
       <r>   2.0409  1.0000</r>
       <r>   2.0409  1.0000</r>
       <r>   2.1070  1.0000</r>
       <r>   2.1070  1.0000</r>
       <r>   2.1070  1.0000</r>
       <r>   3.0879  1.0000</r>
       <r>   3.0879  1.0000</r>
       <r>   3.0879  1.0000</r>
       <r>   3.6837  1.0000</r>
       <r>   3.6837  1.0000</r>
       <r>   5.0100  1.0000</r>
       <r>   5.0100  1.0000</r>
       <r>   5.0100  1.0000</r>
       <r>   8.1414  0.0000</r>
       <r>   8.1414  0.0000</r>
       <r>   8.1414  0.0000</r>
       <r>  12.8248  0.0000</r>
       <r>  12.8248  0.0000</r>
       <r>  12.8248  0.0000</r>
       <r>  18.9134  0.0000</r>
      </set>
      <set comment="kpoint 66">
       <r>  -1.6269  1.0000</r>
       <r>  -0.4048  1.0000</r>
       <r>  -0.2417  1.0000</r>
       <r>  -0.2417  1.0000</r>
       <r>   0.9097  1.0000</r>
       <r>   0.9097  1.0000</r>
       <r>   0.9656  1.0000</r>
       <r>   1.6499  1.0000</r>
       <r>   1.8683  1.0000</r>
       <r>   2.0007  1.0000</r>
       <r>   2.0200  1.0000</r>
       <r>   2.0200  1.0000</r>
       <r>   2.0498  1.0000</r>
       <r>   2.7737  1.0000</r>
       <r>   2.8876  1.0000</r>
       <r>   2.8876  1.0000</r>
       <r>   3.7337  1.0000</r>
       <r>   4.0192  1.0000</r>
       <r>   4.9201  1.0000</r>
       <r>   4.9201  1.0000</r>
       <r>   4.9803  1.0000</r>
       <r>   6.8347  1.0000</r>
       <r>   8.7302  0.0000</r>
       <r>   8.7302  0.0000</r>
       <r>  11.8119  0.0000</r>
       <r>  11.8119  0.0000</r>
       <r>  13.7044  0.0000</r>
       <r>  17.8160  0.0000</r>
      </set>
      <set comment="kpoint 67">
       <r>  -1.2726  1.0000</r>
       <r>  -0.6135  1.0000</r>
       <r>  -0.1557  1.0000</r>
       <r>  -0.1557  1.0000</r>
       <r>   0.9422  1.0000</r>
       <r>   0.9422  1.0000</r>
       <r>   1.2792  1.0000</r>
       <r>   1.6576  1.0000</r>
       <r>   1.7245  1.0000</r>
       <r>   1.8772  1.0000</r>
       <r>   2.0931  1.0000</r>
       <r>   2.0931  1.0000</r>
       <r>   2.1291  1.0000</r>
       <r>   2.4986  1.0000</r>
       <r>   2.7514  1.0000</r>
       <r>   2.7514  1.0000</r>
       <r>   4.0787  1.0000</r>
       <r>   4.3444  1.0000</r>
       <r>   4.7961  1.0000</r>
       <r>   4.7961  1.0000</r>
       <r>   4.8496  1.0000</r>
       <r>   5.6901  1.0000</r>
       <r>   9.3267  0.0000</r>
       <r>   9.3267  0.0000</r>
       <r>  10.9872  0.0000</r>
       <r>  10.9872  0.0000</r>
       <r>  14.6819  0.0000</r>
       <r>  16.7519  0.0000</r>
      </set>
      <set comment="kpoint 68">
       <r>  -0.9186  1.0000</r>
       <r>  -0.9186  1.0000</r>
       <r>  -0.1129  1.0000</r>
       <r>  -0.1129  1.0000</r>
       <r>   0.9142  1.0000</r>
       <r>   0.9142  1.0000</r>
       <r>   1.5762  1.0000</r>
       <r>   1.5762  1.0000</r>
       <r>   1.6983  1.0000</r>
       <r>   1.6983  1.0000</r>
       <r>   2.1838  1.0000</r>
       <r>   2.1838  1.0000</r>
       <r>   2.2803  1.0000</r>
       <r>   2.2803  1.0000</r>
       <r>   2.6798  1.0000</r>
       <r>   2.6798  1.0000</r>
       <r>   4.6302  1.0000</r>
       <r>   4.6302  1.0000</r>
       <r>   4.7381  1.0000</r>
       <r>   4.7381  1.0000</r>
       <r>   4.7525  1.0000</r>
       <r>   4.7525  1.0000</r>
       <r>   9.7109  0.0000</r>
       <r>   9.7109  0.0000</r>
       <r>  10.5321  0.0000</r>
       <r>  10.5321  0.0000</r>
       <r>  15.7067  0.0000</r>
       <r>  15.7067  0.0000</r>
      </set>
      <set comment="kpoint 69">
       <r>  -1.4293  1.0000</r>
       <r>  -0.4238  1.0000</r>
       <r>  -0.4238  1.0000</r>
       <r>  -0.3177  1.0000</r>
       <r>   1.0408  1.0000</r>
       <r>   1.1360  1.0000</r>
       <r>   1.1360  1.0000</r>
       <r>   1.8802  1.0000</r>
       <r>   1.9797  1.0000</r>
       <r>   1.9988  1.0000</r>
       <r>   1.9988  1.0000</r>
       <r>   2.0382  1.0000</r>
       <r>   2.2535  1.0000</r>
       <r>   2.5957  1.0000</r>
       <r>   2.5957  1.0000</r>
       <r>   2.6177  1.0000</r>
       <r>   3.8379  1.0000</r>
       <r>   4.2857  1.0000</r>
       <r>   4.8712  1.0000</r>
       <r>   4.9161  1.0000</r>
       <r>   4.9161  1.0000</r>
       <r>   7.3582  0.0000</r>
       <r>   7.3582  0.0000</r>
       <r>   9.1270  0.0000</r>
       <r>  10.8356  0.0000</r>
       <r>  12.6241  0.0000</r>
       <r>  12.6241  0.0000</r>
       <r>  16.6700  0.0000</r>
      </set>
      <set comment="kpoint 70">
       <r>  -1.1936  1.0000</r>
       <r>  -0.6664  1.0000</r>
       <r>  -0.4148  1.0000</r>
       <r>  -0.3637  1.0000</r>
       <r>   1.0966  1.0000</r>
       <r>   1.1442  1.0000</r>
       <r>   1.3960  1.0000</r>
       <r>   1.8019  1.0000</r>
       <r>   2.0039  1.0000</r>
       <r>   2.0340  1.0000</r>
       <r>   2.1811  1.0000</r>
       <r>   2.2416  1.0000</r>
       <r>   2.3498  1.0000</r>
       <r>   2.4369  1.0000</r>
       <r>   2.4828  1.0000</r>
       <r>   2.5221  1.0000</r>
       <r>   4.0676  1.0000</r>
       <r>   4.6999  1.0000</r>
       <r>   4.7613  1.0000</r>
       <r>   4.7801  1.0000</r>
       <r>   4.7814  1.0000</r>
       <r>   6.1766  1.0000</r>
       <r>   7.9495  0.0000</r>
       <r>   9.1139  0.0000</r>
       <r>  10.5255  0.0000</r>
       <r>  11.7129  0.0000</r>
       <r>  13.5465  0.0000</r>
       <r>  15.5803  0.0000</r>
      </set>
      <set comment="kpoint 71">
       <r>  -0.9328  1.0000</r>
       <r>  -0.9328  1.0000</r>
       <r>  -0.3932  1.0000</r>
       <r>  -0.3932  1.0000</r>
       <r>   1.1175  1.0000</r>
       <r>   1.1175  1.0000</r>
       <r>   1.6311  1.0000</r>
       <r>   1.6311  1.0000</r>
       <r>   2.0706  1.0000</r>
       <r>   2.0706  1.0000</r>
       <r>   2.2028  1.0000</r>
       <r>   2.2028  1.0000</r>
       <r>   2.3841  1.0000</r>
       <r>   2.3841  1.0000</r>
       <r>   2.5291  1.0000</r>
       <r>   2.5291  1.0000</r>
       <r>   4.4772  1.0000</r>
       <r>   4.4772  1.0000</r>
       <r>   4.7066  1.0000</r>
       <r>   4.7066  1.0000</r>
       <r>   5.2749  1.0000</r>
       <r>   5.2749  1.0000</r>
       <r>   8.5688  0.0000</r>
       <r>   8.5688  0.0000</r>
       <r>  10.9784  0.0000</r>
       <r>  10.9784  0.0000</r>
       <r>  14.5386  0.0000</r>
       <r>  14.5386  0.0000</r>
      </set>
      <set comment="kpoint 72">
       <r>  -1.0666  1.0000</r>
       <r>  -0.6685  1.0000</r>
       <r>  -0.6685  1.0000</r>
       <r>  -0.5185  1.0000</r>
       <r>   1.2311  1.0000</r>
       <r>   1.3727  1.0000</r>
       <r>   1.3727  1.0000</r>
       <r>   1.7338  1.0000</r>
       <r>   1.9608  1.0000</r>
       <r>   2.1740  1.0000</r>
       <r>   2.1740  1.0000</r>
       <r>   2.2613  1.0000</r>
       <r>   2.5434  1.0000</r>
       <r>   2.5434  1.0000</r>
       <r>   2.5585  1.0000</r>
       <r>   2.7289  1.0000</r>
       <r>   4.0806  1.0000</r>
       <r>   4.6249  1.0000</r>
       <r>   4.6249  1.0000</r>
       <r>   4.6432  1.0000</r>
       <r>   5.2200  1.0000</r>
       <r>   6.7820  1.0000</r>
       <r>   6.7820  1.0000</r>
       <r>   8.2721  0.0000</r>
       <r>  10.9896  0.0000</r>
       <r>  12.5541  0.0000</r>
       <r>  12.5541  0.0000</r>
       <r>  14.4927  0.0000</r>
      </set>
      <set comment="kpoint 73">
       <r>  -0.8900  1.0000</r>
       <r>  -0.8900  1.0000</r>
       <r>  -0.6196  1.0000</r>
       <r>  -0.6196  1.0000</r>
       <r>   1.3208  1.0000</r>
       <r>   1.3208  1.0000</r>
       <r>   1.5816  1.0000</r>
       <r>   1.5816  1.0000</r>
       <r>   2.0289  1.0000</r>
       <r>   2.0289  1.0000</r>
       <r>   2.1729  1.0000</r>
       <r>   2.1729  1.0000</r>
       <r>   2.6486  1.0000</r>
       <r>   2.6486  1.0000</r>
       <r>   2.7816  1.0000</r>
       <r>   2.7816  1.0000</r>
       <r>   4.3320  1.0000</r>
       <r>   4.3320  1.0000</r>
       <r>   4.5570  1.0000</r>
       <r>   4.5570  1.0000</r>
       <r>   5.8786  1.0000</r>
       <r>   5.8786  1.0000</r>
       <r>   7.4705  0.0000</r>
       <r>   7.4705  0.0000</r>
       <r>  11.7014  0.0000</r>
       <r>  11.7014  0.0000</r>
       <r>  13.4843  0.0000</r>
       <r>  13.4843  0.0000</r>
      </set>
      <set comment="kpoint 74">
       <r>  -0.7859  1.0000</r>
       <r>  -0.7859  1.0000</r>
       <r>  -0.7859  1.0000</r>
       <r>  -0.7859  1.0000</r>
       <r>   1.4851  1.0000</r>
       <r>   1.4851  1.0000</r>
       <r>   1.4851  1.0000</r>
       <r>   1.4851  1.0000</r>
       <r>   2.0436  1.0000</r>
       <r>   2.0436  1.0000</r>
       <r>   2.0436  1.0000</r>
       <r>   2.0436  1.0000</r>
       <r>   2.8774  1.0000</r>
       <r>   2.8774  1.0000</r>
       <r>   2.8774  1.0000</r>
       <r>   2.8774  1.0000</r>
       <r>   4.3650  1.0000</r>
       <r>   4.3650  1.0000</r>
       <r>   4.3650  1.0000</r>
       <r>   4.3650  1.0000</r>
       <r>   6.5841  1.0000</r>
       <r>   6.5841  1.0000</r>
       <r>   6.5841  1.0000</r>
       <r>   6.5841  1.0000</r>
       <r>  12.5402  0.0000</r>
       <r>  12.5402  0.0000</r>
       <r>  12.5402  0.0000</r>
       <r>  12.5402  0.0000</r>
      </set>
      <set comment="kpoint 75">
       <r>  -1.3574  1.0000</r>
       <r>  -0.5690  1.0000</r>
       <r>  -0.5690  1.0000</r>
       <r>  -0.5690  1.0000</r>
       <r>   1.2279  1.0000</r>
       <r>   1.2279  1.0000</r>
       <r>   1.2279  1.0000</r>
       <r>   1.8904  1.0000</r>
       <r>   1.8904  1.0000</r>
       <r>   2.3373  1.0000</r>
       <r>   2.3373  1.0000</r>
       <r>   2.3373  1.0000</r>
       <r>   2.4389  1.0000</r>
       <r>   2.4389  1.0000</r>
       <r>   2.4389  1.0000</r>
       <r>   2.5085  1.0000</r>
       <r>   4.2075  1.0000</r>
       <r>   4.2075  1.0000</r>
       <r>   4.9549  1.0000</r>
       <r>   4.9549  1.0000</r>
       <r>   4.9549  1.0000</r>
       <r>   7.6730  0.0000</r>
       <r>   7.6730  0.0000</r>
       <r>   7.6730  0.0000</r>
       <r>  11.5642  0.0000</r>
       <r>  11.5642  0.0000</r>
       <r>  11.5642  0.0000</r>
       <r>  15.4975  0.0000</r>
      </set>
      <set comment="kpoint 76">
       <r>  -1.2318  1.0000</r>
       <r>  -0.8245  1.0000</r>
       <r>  -0.6557  1.0000</r>
       <r>  -0.6557  1.0000</r>
       <r>   1.2723  1.0000</r>
       <r>   1.2723  1.0000</r>
       <r>   1.4418  1.0000</r>
       <r>   1.7904  1.0000</r>
       <r>   1.8832  1.0000</r>
       <r>   2.1127  1.0000</r>
       <r>   2.1892  1.0000</r>
       <r>   2.1892  1.0000</r>
       <r>   2.6406  1.0000</r>
       <r>   2.8191  1.0000</r>
       <r>   2.8191  1.0000</r>
       <r>   2.8497  1.0000</r>
       <r>   4.4619  1.0000</r>
       <r>   4.5305  1.0000</r>
       <r>   4.8739  1.0000</r>
       <r>   4.8739  1.0000</r>
       <r>   4.9240  1.0000</r>
       <r>   6.3595  1.0000</r>
       <r>   7.9881  0.0000</r>
       <r>   7.9881  0.0000</r>
       <r>  10.8103  0.0000</r>
       <r>  10.8103  0.0000</r>
       <r>  12.4250  0.0000</r>
       <r>  14.4010  0.0000</r>
      </set>
      <set comment="kpoint 77">
       <r>  -1.0515  1.0000</r>
       <r>  -1.0515  1.0000</r>
       <r>  -0.6844  1.0000</r>
       <r>  -0.6844  1.0000</r>
       <r>   1.2844  1.0000</r>
       <r>   1.2844  1.0000</r>
       <r>   1.6381  1.0000</r>
       <r>   1.6381  1.0000</r>
       <r>   1.9585  1.0000</r>
       <r>   1.9585  1.0000</r>
       <r>   2.1416  1.0000</r>
       <r>   2.1416  1.0000</r>
       <r>   2.8226  1.0000</r>
       <r>   2.8226  1.0000</r>
       <r>   2.9820  1.0000</r>
       <r>   2.9820  1.0000</r>
       <r>   4.7777  1.0000</r>
       <r>   4.7777  1.0000</r>
       <r>   4.8130  1.0000</r>
       <r>   4.8130  1.0000</r>
       <r>   5.2448  1.0000</r>
       <r>   5.2448  1.0000</r>
       <r>   8.1358  0.0000</r>
       <r>   8.1358  0.0000</r>
       <r>  10.5183  0.0000</r>
       <r>  10.5183  0.0000</r>
       <r>  13.3764  0.0000</r>
       <r>  13.3764  0.0000</r>
      </set>
      <set comment="kpoint 78">
       <r>  -1.1981  1.0000</r>
       <r>  -0.9038  1.0000</r>
       <r>  -0.9038  1.0000</r>
       <r>  -0.8191  1.0000</r>
       <r>   1.3828  1.0000</r>
       <r>   1.4626  1.0000</r>
       <r>   1.4626  1.0000</r>
       <r>   1.7565  1.0000</r>
       <r>   1.8044  1.0000</r>
       <r>   1.9836  1.0000</r>
       <r>   1.9836  1.0000</r>
       <r>   2.0171  1.0000</r>
       <r>   3.1545  1.0000</r>
       <r>   3.1545  1.0000</r>
       <r>   3.2341  1.0000</r>
       <r>   3.4105  1.0000</r>
       <r>   4.4296  1.0000</r>
       <r>   4.8363  1.0000</r>
       <r>   4.8565  1.0000</r>
       <r>   4.8565  1.0000</r>
       <r>   4.9572  1.0000</r>
       <r>   6.7345  1.0000</r>
       <r>   6.7345  1.0000</r>
       <r>   7.7238  0.0000</r>
       <r>  10.5318  0.0000</r>
       <r>  11.5078  0.0000</r>
       <r>  11.5078  0.0000</r>
       <r>  13.3270  0.0000</r>
      </set>
      <set comment="kpoint 79">
       <r>  -1.0879  1.0000</r>
       <r>  -1.0879  1.0000</r>
       <r>  -0.9022  1.0000</r>
       <r>  -0.9022  1.0000</r>
       <r>   1.4486  1.0000</r>
       <r>   1.4486  1.0000</r>
       <r>   1.6326  1.0000</r>
       <r>   1.6326  1.0000</r>
       <r>   1.8512  1.0000</r>
       <r>   1.8512  1.0000</r>
       <r>   1.9462  1.0000</r>
       <r>   1.9462  1.0000</r>
       <r>   3.4007  1.0000</r>
       <r>   3.4007  1.0000</r>
       <r>   3.4273  1.0000</r>
       <r>   3.4273  1.0000</r>
       <r>   4.6764  1.0000</r>
       <r>   4.6764  1.0000</r>
       <r>   4.7812  1.0000</r>
       <r>   4.7812  1.0000</r>
       <r>   5.6679  1.0000</r>
       <r>   5.6679  1.0000</r>
       <r>   7.2280  0.0000</r>
       <r>   7.2280  0.0000</r>
       <r>  10.8398  0.0000</r>
       <r>  10.8398  0.0000</r>
       <r>  12.3602  0.0000</r>
       <r>  12.3602  0.0000</r>
      </set>
      <set comment="kpoint 80">
       <r>  -1.0380  1.0000</r>
       <r>  -1.0380  1.0000</r>
       <r>  -1.0380  1.0000</r>
       <r>  -1.0380  1.0000</r>
       <r>   1.5774  1.0000</r>
       <r>   1.5774  1.0000</r>
       <r>   1.5774  1.0000</r>
       <r>   1.5774  1.0000</r>
       <r>   1.8389  1.0000</r>
       <r>   1.8389  1.0000</r>
       <r>   1.8389  1.0000</r>
       <r>   1.8389  1.0000</r>
       <r>   3.6476  1.0000</r>
       <r>   3.6476  1.0000</r>
       <r>   3.6476  1.0000</r>
       <r>   3.6476  1.0000</r>
       <r>   4.6508  1.0000</r>
       <r>   4.6508  1.0000</r>
       <r>   4.6508  1.0000</r>
       <r>   4.6508  1.0000</r>
       <r>   6.3430  1.0000</r>
       <r>   6.3430  1.0000</r>
       <r>   6.3430  1.0000</r>
       <r>   6.3430  1.0000</r>
       <r>  11.5037  0.0000</r>
       <r>  11.5037  0.0000</r>
       <r>  11.5037  0.0000</r>
       <r>  11.5037  0.0000</r>
      </set>
      <set comment="kpoint 81">
       <r>  -1.2409  1.0000</r>
       <r>  -1.0475  1.0000</r>
       <r>  -1.0475  1.0000</r>
       <r>  -1.0475  1.0000</r>
       <r>   1.5340  1.0000</r>
       <r>   1.5340  1.0000</r>
       <r>   1.5340  1.0000</r>
       <r>   1.7310  1.0000</r>
       <r>   1.7310  1.0000</r>
       <r>   1.8408  1.0000</r>
       <r>   1.8408  1.0000</r>
       <r>   1.8408  1.0000</r>
       <r>   3.7176  1.0000</r>
       <r>   3.7176  1.0000</r>
       <r>   3.7176  1.0000</r>
       <r>   4.3134  1.0000</r>
       <r>   4.7028  1.0000</r>
       <r>   4.7028  1.0000</r>
       <r>   4.9174  1.0000</r>
       <r>   4.9174  1.0000</r>
       <r>   4.9174  1.0000</r>
       <r>   6.6835  1.0000</r>
       <r>   6.6835  1.0000</r>
       <r>   6.6835  1.0000</r>
       <r>  10.8146  0.0000</r>
       <r>  10.8146  0.0000</r>
       <r>  10.8146  0.0000</r>
       <r>  12.3088  0.0000</r>
      </set>
      <set comment="kpoint 82">
       <r>  -1.1903  1.0000</r>
       <r>  -1.1903  1.0000</r>
       <r>  -1.0958  1.0000</r>
       <r>  -1.0958  1.0000</r>
       <r>   1.5638  1.0000</r>
       <r>   1.5638  1.0000</r>
       <r>   1.6556  1.0000</r>
       <r>   1.6556  1.0000</r>
       <r>   1.7435  1.0000</r>
       <r>   1.7435  1.0000</r>
       <r>   1.7878  1.0000</r>
       <r>   1.7878  1.0000</r>
       <r>   3.9846  1.0000</r>
       <r>   3.9846  1.0000</r>
       <r>   4.1604  1.0000</r>
       <r>   4.1604  1.0000</r>
       <r>   4.8717  1.0000</r>
       <r>   4.8717  1.0000</r>
       <r>   4.8800  1.0000</r>
       <r>   4.8800  1.0000</r>
       <r>   5.5453  1.0000</r>
       <r>   5.5453  1.0000</r>
       <r>   6.6609  1.0000</r>
       <r>   6.6609  1.0000</r>
       <r>  10.5706  0.0000</r>
       <r>  10.5706  0.0000</r>
       <r>  11.4574  0.0000</r>
       <r>  11.4574  0.0000</r>
      </set>
      <set comment="kpoint 83">
       <r>  -1.1930  1.0000</r>
       <r>  -1.1930  1.0000</r>
       <r>  -1.1930  1.0000</r>
       <r>  -1.1930  1.0000</r>
       <r>   1.6439  1.0000</r>
       <r>   1.6439  1.0000</r>
       <r>   1.6439  1.0000</r>
       <r>   1.6439  1.0000</r>
       <r>   1.7115  1.0000</r>
       <r>   1.7115  1.0000</r>
       <r>   1.7115  1.0000</r>
       <r>   1.7115  1.0000</r>
       <r>   4.4115  1.0000</r>
       <r>   4.4115  1.0000</r>
       <r>   4.4115  1.0000</r>
       <r>   4.4115  1.0000</r>
       <r>   4.8386  1.0000</r>
       <r>   4.8386  1.0000</r>
       <r>   4.8386  1.0000</r>
       <r>   4.8386  1.0000</r>
       <r>   5.9462  1.0000</r>
       <r>   5.9462  1.0000</r>
       <r>   5.9462  1.0000</r>
       <r>   5.9462  1.0000</r>
       <r>  10.8301  0.0000</r>
       <r>  10.8301  0.0000</r>
       <r>  10.8301  0.0000</r>
       <r>  10.8301  0.0000</r>
      </set>
      <set comment="kpoint 84">
       <r>  -1.2452  1.0000</r>
       <r>  -1.2452  1.0000</r>
       <r>  -1.2452  1.0000</r>
       <r>  -1.2452  1.0000</r>
       <r>   1.6683  1.0000</r>
       <r>   1.6683  1.0000</r>
       <r>   1.6683  1.0000</r>
       <r>   1.6683  1.0000</r>
       <r>   1.6683  1.0000</r>
       <r>   1.6683  1.0000</r>
       <r>   1.6683  1.0000</r>
       <r>   1.6683  1.0000</r>
       <r>   4.9041  1.0000</r>
       <r>   4.9041  1.0000</r>
       <r>   4.9041  1.0000</r>
       <r>   4.9041  1.0000</r>
       <r>   4.9041  1.0000</r>
       <r>   4.9041  1.0000</r>
       <r>   4.9041  1.0000</r>
       <r>   4.9041  1.0000</r>
       <r>   5.5836  1.0000</r>
       <r>   5.5836  1.0000</r>
       <r>   5.5836  1.0000</r>
       <r>   5.5836  1.0000</r>
       <r>  10.5977  0.0000</r>
       <r>  10.5977  0.0000</r>
       <r>  10.5977  0.0000</r>
       <r>  10.5977  0.0000</r>
      </set>
     </set>
    </set>
   </array>
  </eigenvalues>
 </calculation>
 <structure name="finalpos" >
  <crystal>
   <varray name="basis" >
    <v>       3.96420931      0.00000000      0.00000000</v>
    <v>       0.00000000      3.96420931      0.00000000</v>
    <v>       0.00000000      0.00000000      3.96420931</v>
   </varray>
   <i name="volume">     62.29737258</i>
   <varray name="rec_basis" >
    <v>       0.25225711      0.00000000      0.00000000</v>
    <v>       0.00000000      0.25225711      0.00000000</v>
    <v>       0.00000000      0.00000000      0.25225711</v>
   </varray>
  </crystal>
  <varray name="positions" >
   <v>       0.00000000      0.00000000      0.00000000</v>
   <v>       0.50000000      0.50000000      0.00000000</v>
   <v>       0.50000000      0.00000000      0.50000000</v>
   <v>       0.00000000      0.50000000      0.50000000</v>
  </varray>
 </structure>
</modeling>
