   4   4   0   0
  0.1698249E+02  0.4080253E-09  0.4080253E-09  0.4080253E-09  0.5000000E-15
  1.000000000000000E-004
  CAR 
 unknown system                          
     20.04365360     -4.34270010  301      7.70552274      1.00000000
     -4.343  0.0000E+00  0.0000E+00
     -4.261  0.0000E+00  0.0000E+00
     -4.180  0.0000E+00  0.0000E+00
     -4.099  0.0000E+00  0.0000E+00
     -4.018  0.0000E+00  0.0000E+00
     -3.936  0.0000E+00  0.0000E+00
     -3.855  0.0000E+00  0.0000E+00
     -3.774  0.0000E+00  0.0000E+00
     -3.692  0.0000E+00  0.0000E+00
     -3.611  0.0000E+00  0.0000E+00
     -3.530  0.0000E+00  0.0000E+00
     -3.449  0.0000E+00  0.0000E+00
     -3.367  0.0000E+00  0.0000E+00
     -3.286  0.6777E-16  0.5509E-17
     -3.205  0.1951E-01  0.1586E-02
     -3.123  0.1184E+00  0.1135E-01
     -3.042  0.1884E+00  0.2682E-01
     -2.961  0.2169E+00  0.4475E-01
     -2.880  0.2615E+00  0.6667E-01
     -2.798  0.2842E+00  0.9042E-01
     -2.717  0.3433E+00  0.1186E+00
     -2.636  0.3271E+00  0.1463E+00
     -2.554  0.3652E+00  0.1764E+00
     -2.473  0.4089E+00  0.2114E+00
     -2.392  0.4003E+00  0.2447E+00
     -2.311  0.4506E+00  0.2830E+00
     -2.229  0.4268E+00  0.3189E+00
     -2.148  0.4569E+00  0.3589E+00
     -2.067  0.4997E+00  0.4004E+00
     -1.985  0.4875E+00  0.4444E+00
     -1.904  0.4982E+00  0.4865E+00
     -1.823  0.5608E+00  0.5347E+00
     -1.741  0.5161E+00  0.5794E+00
     -1.660  0.6048E+00  0.6302E+00
     -1.579  0.5353E+00  0.6769E+00
     -1.498  0.6220E+00  0.7294E+00
     -1.416  0.6058E+00  0.7811E+00
     -1.335  0.6345E+00  0.8360E+00
     -1.254  0.5944E+00  0.8866E+00
     -1.172  0.6947E+00  0.9463E+00
     -1.091  0.6726E+00  0.1003E+01
     -1.010  0.6706E+00  0.1062E+01
     -0.929  0.6154E+00  0.1115E+01
     -0.847  0.7813E+00  0.1181E+01
     -0.766  0.6685E+00  0.1238E+01
     -0.685  0.8167E+00  0.1307E+01
     -0.603  0.6573E+00  0.1364E+01
     -0.522  0.7399E+00  0.1429E+01
     -0.441  0.8173E+00  0.1497E+01
     -0.360  0.7076E+00  0.1560E+01
     -0.278  0.8590E+00  0.1630E+01
     -0.197  0.7701E+00  0.1696E+01
     -0.116  0.8760E+00  0.1770E+01
     -0.034  0.8239E+00  0.1841E+01
      0.047  0.7573E+00  0.1903E+01
      0.128  0.9837E+00  0.1985E+01
      0.209  0.8561E+00  0.2056E+01
      0.291  0.8451E+00  0.2126E+01
      0.372  0.9688E+00  0.2206E+01
      0.453  0.8090E+00  0.2274E+01
      0.535  0.1019E+01  0.2358E+01
      0.616  0.9267E+00  0.2435E+01
      0.697  0.8842E+00  0.2508E+01
      0.778  0.9822E+00  0.2592E+01
      0.860  0.9428E+00  0.2675E+01
      0.941  0.8739E+00  0.2753E+01
      1.022  0.1040E+01  0.2840E+01
      1.104  0.8739E+00  0.2918E+01
      1.185  0.1014E+01  0.3006E+01
      1.266  0.9962E+00  0.3094E+01
      1.347  0.8693E+00  0.3173E+01
      1.429  0.1037E+01  0.3262E+01
      1.510  0.1046E+01  0.3351E+01
      1.591  0.1054E+01  0.3439E+01
      1.673  0.9476E+00  0.3520E+01
      1.754  0.1139E+01  0.3614E+01
      1.835  0.1084E+01  0.3705E+01
      1.916  0.1082E+01  0.3793E+01
      1.998  0.1149E+01  0.3888E+01
      2.079  0.1042E+01  0.3977E+01
      2.160  0.1092E+01  0.4069E+01
      2.242  0.1191E+01  0.4175E+01
      2.323  0.1097E+01  0.4268E+01
      2.404  0.1001E+01  0.4354E+01
      2.485  0.1228E+01  0.4457E+01
      2.567  0.1070E+01  0.4550E+01
      2.648  0.1250E+01  0.4655E+01
      2.729  0.1099E+01  0.4749E+01
      2.811  0.1186E+01  0.4846E+01
      2.892  0.1228E+01  0.4951E+01
      2.973  0.1207E+01  0.5052E+01
      3.054  0.1242E+01  0.5156E+01
      3.136  0.1211E+01  0.5259E+01
      3.217  0.1054E+01  0.5351E+01
      3.298  0.1368E+01  0.5468E+01
      3.380  0.1263E+01  0.5577E+01
      3.461  0.1168E+01  0.5679E+01
      3.542  0.1188E+01  0.5778E+01
      3.624  0.1420E+01  0.5896E+01
      3.705  0.1245E+01  0.6003E+01
      3.786  0.1333E+01  0.6116E+01
      3.867  0.1185E+01  0.6216E+01
      3.949  0.1346E+01  0.6331E+01
      4.030  0.1312E+01  0.6444E+01
      4.111  0.1258E+01  0.6549E+01
      4.193  0.1427E+01  0.6671E+01
      4.274  0.1265E+01  0.6781E+01
      4.355  0.1313E+01  0.6894E+01
      4.436  0.1450E+01  0.7015E+01
      4.518  0.1327E+01  0.7127E+01
      4.599  0.1450E+01  0.7249E+01
      4.680  0.1453E+01  0.7371E+01
      4.762  0.1375E+01  0.7487E+01
      4.843  0.1502E+01  0.7615E+01
      4.924  0.1658E+01  0.7758E+01
      5.005  0.1272E+01  0.7867E+01
      5.087  0.1513E+01  0.7997E+01
      5.168  0.1589E+01  0.8131E+01
      5.249  0.1369E+01  0.8248E+01
      5.331  0.1484E+01  0.8374E+01
      5.412  0.1426E+01  0.8496E+01
      5.493  0.1505E+01  0.8626E+01
      5.574  0.1279E+01  0.8734E+01
      5.656  0.1476E+01  0.8863E+01
      5.737  0.1346E+01  0.8976E+01
      5.818  0.1320E+01  0.9087E+01
      5.900  0.1414E+01  0.9205E+01
      5.981  0.1461E+01  0.9327E+01
      6.062  0.1230E+01  0.9432E+01
      6.143  0.1365E+01  0.9549E+01
      6.225  0.1432E+01  0.9670E+01
      6.306  0.1345E+01  0.9786E+01
      6.387  0.1476E+01  0.9910E+01
      6.469  0.1496E+01  0.1004E+02
      6.550  0.1499E+01  0.1016E+02
      6.631  0.1390E+01  0.1028E+02
      6.712  0.1483E+01  0.1041E+02
      6.794  0.1661E+01  0.1055E+02
      6.875  0.1525E+01  0.1068E+02
      6.956  0.1545E+01  0.1081E+02
      7.038  0.1423E+01  0.1093E+02
      7.119  0.1583E+01  0.1106E+02
      7.200  0.1394E+01  0.1118E+02
      7.281  0.1590E+01  0.1132E+02
      7.363  0.1528E+01  0.1144E+02
      7.444  0.1542E+01  0.1157E+02
      7.525  0.1396E+01  0.1169E+02
      7.607  0.1564E+01  0.1182E+02
      7.688  0.1674E+01  0.1197E+02
      7.769  0.1725E+01  0.1211E+02
      7.850  0.1396E+01  0.1223E+02
      7.932  0.1680E+01  0.1237E+02
      8.013  0.1669E+01  0.1251E+02
      8.094  0.1685E+01  0.1266E+02
      8.176  0.1543E+01  0.1279E+02
      8.257  0.1470E+01  0.1291E+02
      8.338  0.1763E+01  0.1306E+02
      8.419  0.1789E+01  0.1321E+02
      8.501  0.1534E+01  0.1335E+02
      8.582  0.1677E+01  0.1349E+02
      8.663  0.1437E+01  0.1361E+02
      8.745  0.1798E+01  0.1376E+02
      8.826  0.1702E+01  0.1391E+02
      8.907  0.1706E+01  0.1405E+02
      8.989  0.1549E+01  0.1419E+02
      9.070  0.1703E+01  0.1433E+02
      9.151  0.1592E+01  0.1447E+02
      9.232  0.1754E+01  0.1462E+02
      9.314  0.1808E+01  0.1477E+02
      9.395  0.1752E+01  0.1492E+02
      9.476  0.1664E+01  0.1506E+02
      9.558  0.1814E+01  0.1522E+02
      9.639  0.1533E+01  0.1535E+02
      9.720  0.1572E+01  0.1548E+02
      9.801  0.2091E+01  0.1565E+02
      9.883  0.1912E+01  0.1582E+02
      9.964  0.1725E+01  0.1596E+02
     10.045  0.1472E+01  0.1608E+02
     10.127  0.1968E+01  0.1625E+02
     10.208  0.1746E+01  0.1640E+02
     10.289  0.1900E+01  0.1656E+02
     10.370  0.1716E+01  0.1671E+02
     10.452  0.2007E+01  0.1688E+02
     10.533  0.1642E+01  0.1702E+02
     10.614  0.1778E+01  0.1717E+02
     10.696  0.1806E+01  0.1733E+02
     10.777  0.1756E+01  0.1748E+02
     10.858  0.1934E+01  0.1764E+02
     10.939  0.1890E+01  0.1780E+02
     11.021  0.1939E+01  0.1797E+02
     11.102  0.1718E+01  0.1811E+02
     11.183  0.1953E+01  0.1828E+02
     11.265  0.1744E+01  0.1843E+02
     11.346  0.2040E+01  0.1860E+02
     11.427  0.1781E+01  0.1875E+02
     11.508  0.1952E+01  0.1892E+02
     11.590  0.2011E+01  0.1909E+02
     11.671  0.1769E+01  0.1924E+02
     11.752  0.2206E+01  0.1943E+02
     11.834  0.1791E+01  0.1959E+02
     11.915  0.1871E+01  0.1975E+02
     11.996  0.1813E+01  0.1990E+02
     12.077  0.2189E+01  0.2008E+02
     12.159  0.1940E+01  0.2025E+02
     12.240  0.2035E+01  0.2042E+02
     12.321  0.2185E+01  0.2061E+02
     12.403  0.2060E+01  0.2078E+02
     12.484  0.1699E+01  0.2092E+02
     12.565  0.2076E+01  0.2111E+02
     12.646  0.1996E+01  0.2128E+02
     12.728  0.2166E+01  0.2146E+02
     12.809  0.2238E+01  0.2165E+02
     12.890  0.1991E+01  0.2182E+02
     12.972  0.2148E+01  0.2200E+02
     13.053  0.2105E+01  0.2218E+02
     13.134  0.2228E+01  0.2237E+02
     13.215  0.2221E+01  0.2256E+02
     13.297  0.2502E+01  0.2277E+02
     13.378  0.2177E+01  0.2296E+02
     13.459  0.2354E+01  0.2316E+02
     13.541  0.2022E+01  0.2334E+02
     13.622  0.2319E+01  0.2354E+02
     13.703  0.2322E+01  0.2373E+02
     13.784  0.2182E+01  0.2391E+02
     13.866  0.1975E+01  0.2408E+02
     13.947  0.2386E+01  0.2428E+02
     14.028  0.2271E+01  0.2447E+02
     14.110  0.1916E+01  0.2464E+02
     14.191  0.2250E+01  0.2483E+02
     14.272  0.2109E+01  0.2501E+02
     14.354  0.2020E+01  0.2518E+02
     14.435  0.2139E+01  0.2536E+02
     14.516  0.2111E+01  0.2554E+02
     14.597  0.1670E+01  0.2569E+02
     14.679  0.2509E+01  0.2590E+02
     14.760  0.1908E+01  0.2606E+02
     14.841  0.2126E+01  0.2624E+02
     14.923  0.2015E+01  0.2641E+02
     15.004  0.2193E+01  0.2660E+02
     15.085  0.1980E+01  0.2677E+02
     15.166  0.1972E+01  0.2693E+02
     15.248  0.2146E+01  0.2712E+02
     15.329  0.1930E+01  0.2728E+02
     15.410  0.2038E+01  0.2746E+02
     15.492  0.2171E+01  0.2764E+02
     15.573  0.2142E+01  0.2782E+02
     15.654  0.1672E+01  0.2797E+02
     15.735  0.2264E+01  0.2815E+02
     15.817  0.1918E+01  0.2832E+02
     15.898  0.1920E+01  0.2848E+02
     15.979  0.1978E+01  0.2865E+02
     16.061  0.2190E+01  0.2884E+02
     16.142  0.1866E+01  0.2900E+02
     16.223  0.1851E+01  0.2916E+02
     16.304  0.1947E+01  0.2932E+02
     16.386  0.1866E+01  0.2948E+02
     16.467  0.1682E+01  0.2963E+02
     16.548  0.1921E+01  0.2979E+02
     16.630  0.1697E+01  0.2993E+02
     16.711  0.1781E+01  0.3009E+02
     16.792  0.1497E+01  0.3022E+02
     16.873  0.1704E+01  0.3036E+02
     16.955  0.1402E+01  0.3048E+02
     17.036  0.1490E+01  0.3061E+02
     17.117  0.1434E+01  0.3073E+02
     17.199  0.1320E+01  0.3085E+02
     17.280  0.1251E+01  0.3095E+02
     17.361  0.1088E+01  0.3104E+02
     17.442  0.1064E+01  0.3114E+02
     17.524  0.9882E+00  0.3122E+02
     17.605  0.1216E+01  0.3132E+02
     17.686  0.8302E+00  0.3140E+02
     17.768  0.9875E+00  0.3148E+02
     17.849  0.8836E+00  0.3156E+02
     17.930  0.7352E+00  0.3162E+02
     18.011  0.8204E+00  0.3169E+02
     18.093  0.7767E+00  0.3175E+02
     18.174  0.6079E+00  0.3180E+02
     18.255  0.5351E+00  0.3185E+02
     18.337  0.4973E+00  0.3189E+02
     18.418  0.3812E+00  0.3192E+02
     18.499  0.2548E+00  0.3194E+02
     18.580  0.1868E+00  0.3196E+02
     18.662  0.1009E+00  0.3197E+02
     18.743  0.1792E+00  0.3199E+02
     18.824  0.7784E-01  0.3199E+02
     18.906  0.6547E-01  0.3200E+02
     18.987  0.1266E-01  0.3200E+02
     19.068  0.0000E+00  0.3200E+02
     19.149  0.0000E+00  0.3200E+02
     19.231  0.0000E+00  0.3200E+02
     19.312  0.0000E+00  0.3200E+02
     19.393  0.0000E+00  0.3200E+02
     19.475  0.0000E+00  0.3200E+02
     19.556  0.0000E+00  0.3200E+02
     19.637  0.0000E+00  0.3200E+02
     19.719  0.0000E+00  0.3200E+02
     19.800  0.0000E+00  0.3200E+02
     19.881  0.0000E+00  0.3200E+02
     19.962  0.0000E+00  0.3200E+02
     20.044  0.0000E+00  0.3200E+02
