    4    4    1    1
  0.1698249E+02  0.4080253E-09  0.4080253E-09  0.4080253E-09  0.5000000E-15
  1.000000000000000E-004
  CAR 
 unknown system                          
   12 1330   16
 
  0.0000000E+00  0.0000000E+00  0.0000000E+00  0.2143347E-04
   1       -3.2342
   2        4.8484
   3        4.8484
   4        4.8484
   5        6.1051
   6        6.1051
   7        6.1051
   8       12.9532
   9       12.9532
  10       12.9532
  11       13.1640
  12       13.1640
  13       13.1640
  14       13.1640
  15       13.1640
  16       13.1640
 
  0.2777778E-01  0.0000000E+00  0.0000000E+00  0.1286008E-03
   1       -3.2274
   2        4.6970
   3        4.8547
   4        4.8547
   5        6.1118
   6        6.1118
   7        6.2685
   8       12.5956
   9       12.5956
  10       12.9599
  11       13.1087
  12       13.1087
  13       13.1699
  14       13.1699
  15       13.5343
  16       13.5343
 
  0.5555556E-01  0.0000000E+00  0.0000000E+00  0.1286008E-03
   1       -3.2068
   2        4.3671
   3        4.8736
   4        4.8736
   5        6.1319
   6        6.1319
   7        6.6341
   8       12.1632
   9       12.1632
  10       12.9542
  11       12.9542
  12       12.9802
  13       13.1875
  14       13.1875
  15       14.0047
  16       14.0047
 
  0.8333333E-01  0.0000000E+00  0.0000000E+00  0.1286008E-03
   1       -3.1725
   2        3.9824
   3        4.9051
   4        4.9051
   5        6.1653
   6        6.1653
   7        7.0786
   8       11.7397
   9       11.7397
  10       12.7267
  11       12.7267
  12       13.0141
  13       13.2167
  14       13.2167
  15       14.4916
  16       14.4916
 
  0.1111111E+00  0.0000000E+00  0.0000000E+00  0.1286008E-03
   1       -3.1245
   2        3.5843
   3        4.9492
   4        4.9492
   5        6.2120
   6        6.2120
   7        7.5603
   8       11.3279
   9       11.3279
  10       12.4521
  11       12.4521
  12       13.0614
  13       13.2577
  14       13.2577
  15       14.9921
  16       14.9921
 
  0.1388889E+00  0.0000000E+00  0.0000000E+00  0.1286008E-03
   1       -3.0628
   2        3.1867
   3        5.0059
   4        5.0059
   5        6.2719
   6        6.2719
   7        8.0652
   8       10.9285
   9       10.9285
  10       12.1498
  11       12.1498
  12       13.1223
  13       13.3105
  14       13.3105
  15       15.5055
  16       15.5055
 
  0.1666667E+00  0.0000000E+00  0.0000000E+00  0.1286008E-03
   1       -2.9874
   2        2.7952
   3        5.0752
   4        5.0752
   5        6.3450
   6        6.3450
   7        8.5879
   8       10.5416
   9       10.5416
  10       11.8329
  11       11.8329
  12       13.1966
  13       13.3749
  14       13.3749
  15       16.0316
  16       16.0316
 
  0.1944444E+00  0.0000000E+00  0.0000000E+00  0.1286008E-03
   1       -2.8984
   2        2.4124
   3        5.1571
   4        5.1571
   5        6.4311
   6        6.4311
   7        9.1257
   8       10.1675
   9       10.1675
  10       11.5097
  11       11.5097
  12       13.2845
  13       13.4510
  14       13.4510
  15       16.5701
  16       16.5702
 
  0.2222222E+00  0.0000000E+00  0.0000000E+00  0.1286008E-03
   1       -2.7957
   2        2.0398
   3        5.2517
   4        5.2517
   5        6.5302
   6        6.5302
   7        9.6771
   8        9.8060
   9        9.8060
  10       11.1859
  11       11.1859
  12       13.3858
  13       13.5389
  14       13.5389
  15       16.9026
  16       17.1210
 
  0.2500000E+00  0.0000000E+00  0.0000000E+00  0.1286008E-03
   1       -2.6794
   2        1.6782
   3        5.3588
   4        5.3588
   5        6.6419
   6        6.6419
   7        9.4573
   8        9.4573
   9       10.2412
  10       10.8651
  11       10.8651
  12       13.5005
  13       13.6386
  14       13.6386
  15       17.0065
  16       17.4268
 
  0.2777778E+00  0.0000000E+00  0.0000000E+00  0.1286008E-03
   1       -2.5496
   2        1.3280
   3        5.4786
   4        5.4786
   5        6.7661
   6        6.7661
   7        9.1213
   8        9.1213
   9       10.5501
  10       10.5501
  11       10.8174
  12       13.6286
  13       13.7499
  14       13.7499
  15       17.1195
  16       17.1208
 
  0.3055556E+00  0.0000000E+00  0.0000000E+00  0.1286008E-03
   1       -2.4063
   2        0.9898
   3        5.6111
   4        5.6111
   5        6.9023
   6        6.9023
   7        8.7981
   8        8.7981
   9       10.2429
  10       10.2429
  11       11.4053
  12       13.7701
  13       13.8730
  14       13.8730
  15       16.8230
  16       16.8230
 
  0.3333333E+00  0.0000000E+00  0.0000000E+00  0.1286008E-03
   1       -2.2494
   2        0.6637
   3        5.7562
   4        5.7562
   5        7.0500
   6        7.0500
   7        8.4877
   8        8.4877
   9        9.9454
  10        9.9454
  11       12.0045
  12       13.9249
  13       14.0078
  14       14.0078
  15       16.5375
  16       16.5375
 
  0.3611111E+00  0.0000000E+00  0.0000000E+00  0.1286008E-03
   1       -2.0791
   2        0.3500
   3        5.9140
   4        5.9140
   5        7.2081
   6        7.2081
   7        8.1901
   8        8.1901
   9        9.6593
  10        9.6593
  11       12.6148
  12       14.0930
  13       14.1544
  14       14.1544
  15       16.2631
  16       16.2632
 
  0.3888889E+00  0.0000000E+00  0.0000000E+00  0.1286008E-03
   1       -1.8954
   2        0.0489
   3        6.0844
   4        6.0844
   5        7.3749
   6        7.3749
   7        7.9052
   8        7.9052
   9        9.3871
  10        9.3871
  11       13.2357
  12       14.2742
  13       14.3127
  14       14.3127
  15       16.0001
  16       16.0007
 
  0.4166667E+00  0.0000000E+00  0.0000000E+00  0.1286008E-03
   1       -1.6984
   2       -0.2396
   3        6.2675
   4        6.2675
   5        7.5469
   6        7.5469
   7        7.6330
   8        7.6330
   9        9.1328
  10        9.1328
  11       13.8670
  12       14.4686
  13       14.4827
  14       14.4827
  15       15.7485
  16       15.7486
 
  0.4444444E+00  0.0000000E+00  0.0000000E+00  0.1286008E-03
   1       -1.4881
   2       -0.5153
   3        6.4633
   4        6.4633
   5        7.3736
   6        7.3736
   7        7.7157
   8        7.7157
   9        8.9050
  10        8.9050
  11       14.5084
  12       14.6645
  13       14.6645
  14       14.6760
  15       15.5085
  16       15.5085
 
  0.4722222E+00  0.0000000E+00  0.0000000E+00  0.1286008E-03
   1       -1.2645
   2       -0.7780
   3        6.6718
   4        6.6718
   5        7.1269
   6        7.1269
   7        7.8589
   8        7.8589
   9        8.7262
  10        8.7262
  11       14.8580
  12       14.8580
  13       14.8963
  14       15.1595
  15       15.2800
  16       15.2800
 
  0.5000000E+00  0.0000000E+00  0.0000000E+00  0.6430041E-04
   1       -1.0278
   2       -1.0278
   3        6.8930
   4        6.8930
   5        6.8930
   6        6.8930
   7        7.9223
   8        7.9223
   9        8.6510
  10        8.6510
  11       15.0632
  12       15.0632
  13       15.0632
  14       15.0632
  15       15.1294
  16       15.1294
 
  0.2777778E-01  0.2777778E-01  0.0000000E+00  0.2572016E-03
   1       -3.2205
   2        4.7033
   3        4.7033
   4        4.8610
   5        6.1185
   6        6.2751
   7        6.2751
   8       12.3715
   9       12.6020
  10       12.6020
  11       13.1145
  12       13.1145
  13       13.1758
  14       13.5405
  15       13.5405
  16       13.6468
 
  0.5555556E-01  0.2777778E-01  0.0000000E+00  0.5144033E-03
   1       -3.1999
   2        4.3735
   3        4.7224
   4        4.8799
   5        6.1386
   6        6.2950
   7        6.6407
   8       11.9877
   9       12.1696
  10       12.6213
  11       12.9602
  12       13.0830
  13       13.1322
  14       13.5591
  15       14.0028
  16       14.0109
 
  0.8333333E-01  0.2777778E-01  0.0000000E+00  0.5144033E-03
   1       -3.1656
   2        3.9888
   3        4.7541
   4        4.9114
   5        6.1719
   6        6.3281
   7        7.0851
   8       11.5842
   9       11.7461
  10       12.6533
  11       12.7327
  12       12.8676
  13       13.1616
  14       13.5901
  15       14.4525
  16       14.4979
 
  0.1111111E+00  0.2777778E-01  0.0000000E+00  0.5144033E-03
   1       -3.1176
   2        3.5908
   3        4.7986
   4        4.9555
   5        6.2186
   6        6.3744
   7        7.5667
   8       11.1830
   9       11.3343
  10       12.4582
  11       12.5949
  12       12.6982
  13       13.2027
  14       13.6336
  15       14.9356
  16       14.9984
 
  0.1388889E+00  0.2777778E-01  0.0000000E+00  0.5144033E-03
   1       -3.0559
   2        3.1932
   3        4.8558
   4        5.0122
   5        6.2785
   6        6.4339
   7        8.0716
   8       10.7899
   9       10.9348
  10       12.1560
  11       12.2921
  12       12.7559
  13       13.2556
  14       13.6895
  15       15.4389
  16       15.5118
 
  0.1666667E+00  0.2777778E-01  0.0000000E+00  0.5144033E-03
   1       -2.9806
   2        2.8017
   3        4.9256
   4        5.0815
   5        6.3515
   6        6.5064
   7        8.5943
   8       10.4072
   9       10.5480
  10       11.8391
  11       11.9741
  12       12.8263
  13       13.3202
  14       13.7579
  15       15.9583
  16       16.0378
 
  0.1944444E+00  0.2777778E-01  0.0000000E+00  0.5144033E-03
   1       -2.8915
   2        2.4190
   3        5.0081
   4        5.1634
   5        6.4376
   6        6.5919
   7        9.1319
   8       10.0358
   9       10.1738
  10       11.5160
  11       11.6499
  12       12.9094
  13       13.3967
  14       13.8387
  15       16.4919
  16       16.5763
 
  0.2222222E+00  0.2777778E-01  0.0000000E+00  0.5144033E-03
   1       -2.7889
   2        2.0464
   3        5.1034
   4        5.2580
   5        6.5366
   6        6.6902
   7        9.6763
   8        9.6832
   9        9.8123
  10       11.1923
  11       11.3253
  12       13.0053
  13       13.4848
  14       13.9321
  15       16.9670
  16       17.0389
 
  0.2500000E+00  0.2777778E-01  0.0000000E+00  0.5144033E-03
   1       -2.6726
   2        1.6848
   3        5.2113
   4        5.3651
   5        6.6482
   6        6.8011
   7        9.3290
   8        9.4636
   9       10.2473
  10       10.8716
  11       11.0039
  12       13.1137
  13       13.5848
  14       14.0380
  15       17.0706
  16       17.1256
 
  0.2777778E+00  0.2777778E-01  0.0000000E+00  0.5144033E-03
   1       -2.5428
   2        1.3347
   3        5.3319
   4        5.4850
   5        6.7721
   6        6.9244
   7        8.9942
   8        9.1277
   9       10.5567
  10       10.6884
  11       10.8234
  12       13.2347
  13       13.6965
  14       14.1564
  15       16.8073
  16       17.0665
 
  0.3055556E+00  0.2777778E-01  0.0000000E+00  0.5144033E-03
   1       -2.3994
   2        0.9965
   3        5.4651
   4        5.6174
   5        6.9078
   6        7.0596
   7        8.6723
   8        8.8045
   9       10.2498
  10       10.3808
  11       11.4111
  12       13.3683
  13       13.8200
  14       14.2874
  15       16.4991
  16       16.7705
 
  0.3333333E+00  0.2777778E-01  0.0000000E+00  0.5144033E-03
   1       -2.2426
   2        0.6704
   3        5.6111
   4        5.7625
   5        7.0545
   6        7.2061
   7        8.3636
   8        8.4940
   9        9.9526
  10       10.0827
  11       12.0101
  12       13.5143
  13       13.9553
  14       14.4310
  15       16.2013
  16       16.4853
 
  0.3611111E+00  0.2777778E-01  0.0000000E+00  0.5144033E-03
   1       -2.0723
   2        0.3567
   3        5.7696
   4        5.9203
   5        7.2100
   6        7.3629
   7        8.0695
   8        8.1964
   9        9.6671
  10        9.7958
  11       12.6201
  12       13.6726
  13       14.1024
  14       14.5873
  15       15.9142
  16       16.2111
 
  0.3888889E+00  0.2777778E-01  0.0000000E+00  0.5144033E-03
   1       -1.8886
   2        0.0556
   3        5.9408
   4        6.0907
   5        7.3666
   6        7.5280
   7        7.7965
   8        7.9115
   9        9.3960
  10        9.5221
  11       13.2404
  12       13.8432
  13       14.2616
  14       14.7562
  15       15.6381
  16       15.9481
 
  0.4166667E+00  0.2777778E-01  0.0000000E+00  0.5144033E-03
   1       -1.6916
   2       -0.2329
   3        6.1245
   4        6.2738
   5        7.4292
   6        7.6369
   7        7.6393
   8        7.6971
   9        9.1439
  10        9.2647
  11       13.8703
  12       14.0261
  13       14.4333
  14       14.9377
  15       15.3731
  16       15.6964
 
  0.4444444E+00  0.2777778E-01  0.0000000E+00  0.5144033E-03
   1       -1.4813
   2       -0.5085
   3        6.3207
   4        6.4696
   5        7.2211
   6        7.3799
   7        7.7613
   8        7.8597
   9        8.9218
  10        9.0300
  11       14.2210
  12       14.4993
  13       14.6277
  14       15.1194
  15       15.1319
  16       15.4561
 
  0.4722222E+00  0.2777778E-01  0.0000000E+00  0.5144033E-03
   1       -1.2577
   2       -0.7713
   3        6.5293
   4        6.6781
   5        6.9817
   6        7.1333
   7        7.9142
   8        7.9864
   9        8.7596
  10        8.8343
  11       14.4279
  12       14.8012
  13       14.8773
  14       15.1704
  15       15.2271
  16       15.3387
 
  0.5000000E+00  0.2777778E-01  0.0000000E+00  0.2572016E-03
   1       -1.0210
   2       -1.0210
   3        6.7499
   4        6.7499
   5        6.8993
   6        6.8993
   7        8.0121
   8        8.0121
   9        8.7226
  10        8.7226
  11       14.6467
  12       14.6467
  13       15.0093
  14       15.0093
  15       15.5580
  16       15.5580
 
  0.5555556E-01  0.5555556E-01  0.0000000E+00  0.2572016E-03
   1       -3.1794
   2        4.3928
   3        4.3928
   4        4.8988
   5        6.1586
   6        6.6604
   7        6.6604
   8       11.6418
   9       12.1887
  10       12.1887
  11       12.9780
  12       12.9780
  13       13.2112
  14       14.0297
  15       14.0297
  16       14.0895
 
  0.8333333E-01  0.5555556E-01  0.0000000E+00  0.5144033E-03
   1       -3.1451
   2        4.0083
   3        4.4249
   4        4.9303
   5        6.1919
   6        6.6931
   7        7.1046
   8       11.2580
   9       11.7651
  10       12.2206
  11       12.7507
  12       13.0076
  13       13.1228
  14       14.0609
  15       14.3806
  16       14.5167
 
  0.1111111E+00  0.5555556E-01  0.0000000E+00  0.5144033E-03
   1       -3.0971
   2        3.6103
   3        4.4699
   4        4.9744
   5        6.2385
   6        6.7389
   7        7.5860
   8       10.8684
   9       11.3533
  10       12.2651
  11       12.4764
  12       12.8938
  13       13.0491
  14       14.1047
  15       14.7977
  16       15.0172
 
  0.1388889E+00  0.5555556E-01  0.0000000E+00  0.5144033E-03
   1       -3.0354
   2        3.2128
   3        4.5276
   4        5.0311
   5        6.2983
   6        6.7976
   7        8.0908
   8       10.4826
   9       10.9539
  10       12.1744
  11       12.3224
  12       12.6067
  13       13.1024
  14       14.1610
  15       15.2690
  16       15.5306
 
  0.1666667E+00  0.5555556E-01  0.0000000E+00  0.5144033E-03
   1       -2.9600
   2        2.8215
   3        4.5982
   4        5.1004
   5        6.3712
   6        6.8693
   7        8.6132
   8       10.1048
   9       10.5670
  10       11.8578
  11       12.2951
  12       12.3924
  13       13.1677
  14       14.2297
  15       15.7696
  16       16.0566
 
  0.1944444E+00  0.5555556E-01  0.0000000E+00  0.5144033E-03
   1       -2.8710
   2        2.4388
   3        4.6816
   4        5.1823
   5        6.4571
   6        6.9538
   7        9.1507
   8        9.7368
   9       10.1928
  10       11.5350
  11       11.9737
  12       12.4750
  13       13.2447
  14       14.3110
  15       16.2907
  16       16.5951
 
  0.2222222E+00  0.5555556E-01  0.0000000E+00  0.5144033E-03
   1       -2.7684
   2        2.0662
   3        4.7778
   4        5.2769
   5        6.5557
   6        7.0509
   7        9.3798
   8        9.7018
   9        9.8314
  10       11.2116
  11       11.6504
  12       12.5704
  13       13.3337
  14       14.4048
  15       16.8285
  16       17.0480
 
  0.2500000E+00  0.5555556E-01  0.0000000E+00  0.5144033E-03
   1       -2.6521
   2        1.7047
   3        4.8868
   4        5.3841
   5        6.6668
   6        7.1605
   7        9.0345
   8        9.4826
   9       10.2655
  10       10.8913
  11       11.3297
  12       12.6783
  13       13.4345
  14       14.5112
  15       16.7147
  16       17.2294
 
  0.2777778E+00  0.5555556E-01  0.0000000E+00  0.5144033E-03
   1       -2.5223
   2        1.3546
   3        5.0085
   4        5.5039
   5        6.7898
   6        7.2822
   7        8.7017
   8        9.1467
   9       10.5769
  10       10.8413
  11       11.0146
  12       12.7988
  13       13.5472
  14       14.6300
  15       16.3919
  16       16.9188
 
  0.3055556E+00  0.5555556E-01  0.0000000E+00  0.5144033E-03
   1       -2.3790
   2        1.0165
   3        5.1430
   4        5.6363
   5        6.9238
   6        7.4156
   7        8.3823
   8        8.8235
   9       10.2706
  10       10.7072
  11       11.4285
  12       12.9319
  13       13.6718
  14       14.7614
  15       16.0796
  16       16.6241
 
  0.3333333E+00  0.5555556E-01  0.0000000E+00  0.5144033E-03
   1       -2.2222
   2        0.6905
   3        5.2901
   4        5.7814
   5        7.0664
   6        7.5599
   7        8.0785
   8        8.5130
   9        9.9745
  10       10.4090
  11       12.0268
  12       13.0775
  13       13.8085
  14       14.9053
  15       15.7783
  16       16.3396
 
  0.3611111E+00  0.5555556E-01  0.0000000E+00  0.5144033E-03
   1       -2.0519
   2        0.3768
   3        5.4499
   4        5.9392
   5        7.2090
   6        7.7136
   7        7.7986
   8        8.2154
   9        9.6909
  10       10.1214
  11       12.6356
  12       13.2356
  13       13.9575
  14       15.0617
  15       15.4881
  16       16.0657
 
  0.3888889E+00  0.5555556E-01  0.0000000E+00  0.5144033E-03
   1       -1.8682
   2        0.0757
   3        5.6223
   4        6.1096
   5        7.2925
   6        7.6009
   7        7.8737
   8        7.9305
   9        9.4235
  10        9.8458
  11       13.2536
  12       13.4061
  13       14.1195
  14       15.2093
  15       15.2306
  16       15.8026
 
  0.4166667E+00  0.5555556E-01  0.0000000E+00  0.5144033E-03
   1       -1.6712
   2       -0.2127
   3        5.8072
   4        6.2927
   5        7.1450
   6        7.6557
   7        7.6583
   8        8.0331
   9        9.1800
  10        9.5843
  11       13.5890
  12       13.8762
  13       14.2992
  14       14.9420
  15       15.4119
  16       15.5505
 
  0.4444444E+00  0.5555556E-01  0.0000000E+00  0.5144033E-03
   1       -1.4609
   2       -0.4883
   3        6.0045
   4        6.4886
   5        6.9077
   6        7.3989
   7        7.8189
   8        8.1712
   9        8.9814
  10        9.3402
  11       13.7842
  12       14.4118
  13       14.5873
  14       14.6865
  15       15.3095
  16       15.6057
 
  0.4722222E+00  0.5555556E-01  0.0000000E+00  0.5144033E-03
   1       -1.2374
   2       -0.7510
   3        6.2140
   4        6.6673
   5        6.6971
   6        7.1522
   7        7.9961
   8        8.2305
   9        8.8855
  10        9.1215
  11       13.9916
  12       14.4429
  13       14.6480
  14       15.0793
  15       15.1962
  16       15.8118
 
  0.5000000E+00  0.5555556E-01  0.0000000E+00  0.2572016E-03
   1       -1.0008
   2       -1.0008
   3        6.4352
   4        6.4352
   5        6.9183
   6        6.9183
   7        8.1541
   8        8.1541
   9        8.9500
  10        8.9500
  11       14.2112
  12       14.2112
  13       14.8597
  14       14.8597
  15       15.8503
  16       15.8503
 
  0.8333333E-01  0.8333333E-01  0.0000000E+00  0.2572016E-03
   1       -3.1108
   2        4.0406
   3        4.0406
   4        4.9618
   5        6.2252
   6        7.1370
   7        7.1370
   8       10.8849
   9       11.7969
  10       11.7969
  11       12.7807
  12       12.7807
  13       13.2702
  14       14.4125
  15       14.5480
  16       14.5480
 
  0.1111111E+00  0.8333333E-01  0.0000000E+00  0.5144033E-03
   1       -3.0628
   2        3.6429
   3        4.0859
   4        5.0059
   5        6.2716
   6        7.1823
   7        7.6181
   8       10.5014
   9       11.3850
  10       11.8414
  11       12.5068
  12       12.8227
  13       13.1920
  14       14.5918
  15       14.6614
  16       15.0485
 
  0.1388889E+00  0.8333333E-01  0.0000000E+00  0.5144033E-03
   1       -3.0011
   2        3.2455
   3        4.1441
   4        5.0626
   5        6.3313
   6        7.2405
   7        8.1226
   8       10.1196
   9       10.9856
  10       11.8985
  11       12.2052
  12       12.8767
  13       12.9658
  14       14.6481
  15       15.0589
  16       15.5619
 
  0.1666667E+00  0.8333333E-01  0.0000000E+00  0.5144033E-03
   1       -2.9258
   2        2.8543
   3        4.2153
   4        5.1319
   5        6.4039
   6        7.3114
   7        8.6448
   8        9.7445
   9       10.5987
  10       11.8890
  11       11.9684
  12       12.6794
  13       12.9426
  14       14.7170
  15       15.5246
  16       16.0878
 
  0.1944444E+00  0.8333333E-01  0.0000000E+00  0.5144033E-03
   1       -2.8368
   2        2.4717
   3        4.2993
   4        5.2138
   5        6.4894
   6        7.3950
   7        9.1819
   8        9.3784
   9       10.2245
  10       11.5667
  11       12.0509
  12       12.3701
  13       13.0206
  14       14.7984
  15       16.0263
  16       16.6263
 
  0.2222222E+00  0.8333333E-01  0.0000000E+00  0.5144033E-03
   1       -2.7342
   2        2.0993
   3        4.3962
   4        5.3084
   5        6.5874
   6        7.4911
   7        9.0229
   8        9.7326
   9        9.8630
  10       11.2437
  11       12.0533
  12       12.1460
  13       13.1106
  14       14.8923
  15       16.5516
  16       16.6411
 
  0.2500000E+00  0.8333333E-01  0.0000000E+00  0.5144033E-03
   1       -2.6179
   2        1.7378
   3        4.5060
   4        5.4156
   5        6.6974
   6        7.5994
   7        8.6792
   8        9.5143
   9       10.2958
  10       10.9241
  11       11.7366
  12       12.2538
  13       13.2126
  14       14.9986
  15       16.3049
  16       17.0060
 
  0.2777778E+00  0.8333333E-01  0.0000000E+00  0.5144033E-03
   1       -2.4882
   2        1.3878
   3        4.6286
   4        5.5354
   5        6.8185
   6        7.7195
   7        8.3487
   8        9.1783
   9       10.6106
  10       10.8709
  11       11.4240
  12       12.3743
  13       13.3268
  14       15.1175
  15       15.9794
  16       16.7017
 
  0.3055556E+00  0.8333333E-01  0.0000000E+00  0.5144033E-03
   1       -2.3449
   2        1.0498
   3        4.7639
   4        5.6679
   5        6.9480
   6        7.8507
   7        8.0340
   8        8.8551
   9       10.3057
  10       11.1182
  11       11.4572
  12       12.5072
  13       13.4532
  14       15.2489
  15       15.6648
  16       16.4082
 
  0.3333333E+00  0.8333333E-01  0.0000000E+00  0.5144033E-03
   1       -2.1881
   2        0.7238
   3        4.9121
   4        5.8130
   5        7.0773
   6        7.7438
   7        7.9918
   8        8.5447
   9       10.0118
  10       10.8210
  11       12.0540
  12       12.6528
  13       13.5922
  14       15.3614
  15       15.3927
  16       16.1244
 
  0.3611111E+00  0.8333333E-01  0.0000000E+00  0.5144033E-03
   1       -2.0179
   2        0.4103
   3        5.0729
   4        5.9707
   5        7.1569
   6        7.5275
   7        8.1405
   8        8.2470
   9        9.7323
  10       10.5338
  11       12.6600
  12       12.8109
  13       13.7447
  14       15.0695
  15       15.5489
  16       15.8507
 
  0.3888889E+00  0.8333333E-01  0.0000000E+00  0.5144033E-03
   1       -1.8342
   2        0.1092
   3        5.2464
   4        6.1412
   5        7.0316
   6        7.5396
   7        7.9621
   8        8.2907
   9        9.4737
  10       10.2577
  11       12.9815
  12       13.2712
  13       13.9144
  14       14.7893
  15       15.5874
  16       15.7175
 
  0.4166667E+00  0.8333333E-01  0.0000000E+00  0.5144033E-03
   1       -1.6373
   2       -0.1791
   3        5.4325
   4        6.3243
   5        6.7925
   6        7.6885
   7        7.6899
   8        8.4255
   9        9.2536
  10        9.9942
  11       13.1645
  12       13.8581
  13       14.1304
  14       14.5209
  15       15.3347
  16       15.8985
 
  0.4444444E+00  0.8333333E-01  0.0000000E+00  0.5144033E-03
   1       -1.4271
   2       -0.4547
   3        5.6310
   4        6.5201
   5        6.5424
   6        7.4305
   7        7.8699
   8        8.4932
   9        9.1241
  10        9.7451
  11       13.3599
  12       14.2103
  13       14.2644
  14       14.6026
  15       15.0927
  16       16.0917
 
  0.4722222E+00  0.8333333E-01  0.0000000E+00  0.5144033E-03
   1       -1.2036
   2       -0.7173
   3        5.8417
   4        6.2984
   5        6.7287
   6        7.1838
   7        8.0633
   8        8.4227
   9        9.1568
  10        9.5141
  11       13.5677
  12       14.0200
  13       14.4268
  14       14.8613
  15       15.2316
  16       16.2970
 
  0.5000000E+00  0.8333333E-01  0.0000000E+00  0.2572016E-03
   1       -0.9670
   2       -0.9670
   3        6.0644
   4        6.0644
   5        6.9499
   6        6.9499
   7        8.2564
   8        8.2564
   9        9.3095
  10        9.3095
  11       13.7877
  12       13.7877
  13       14.6400
  14       14.6400
  15       15.8843
  16       15.8843
 
  0.1111111E+00  0.1111111E+00  0.0000000E+00  0.2572016E-03
   1       -3.0148
   2        3.6884
   3        3.6884
   4        5.0500
   5        6.3180
   6        7.6631
   7        7.6631
   8       10.1215
   9       11.4295
  10       11.4295
  11       12.5493
  12       12.5493
  13       13.3527
  14       14.6589
  15       15.0923
  16       15.0923
 
  0.1388889E+00  0.1111111E+00  0.0000000E+00  0.5144033E-03
   1       -2.9532
   2        3.2913
   3        3.7470
   4        5.1067
   5        6.3773
   6        7.7207
   7        8.1671
   8        9.7418
   9       11.0300
  10       11.4866
  11       12.2483
  12       12.6040
  13       13.2864
  14       14.8875
  15       15.1486
  16       15.6056
 
  0.1666667E+00  0.1111111E+00  0.0000000E+00  0.5144033E-03
   1       -2.8778
   2        2.9002
   3        3.8185
   4        5.1760
   5        6.4495
   6        7.7910
   7        8.6889
   8        9.3680
   9       10.6431
  10       11.5564
  11       11.9327
  12       12.6708
  13       13.0689
  14       15.2175
  15       15.2778
  16       16.1316
 
  0.1944444E+00  0.1111111E+00  0.0000000E+00  0.5144033E-03
   1       -2.7889
   2        2.5178
   3        3.9030
   4        5.2580
   5        6.5343
   6        7.8737
   7        9.0031
   8        9.2255
   9       10.2689
  10       11.6110
  11       11.6388
  12       12.7498
  13       12.7895
  14       15.2988
  15       15.7446
  16       16.5913
 
  0.2222222E+00  0.1111111E+00  0.0000000E+00  0.5144033E-03
   1       -2.6863
   2        2.1455
   3        4.0005
   4        5.3525
   5        6.6312
   6        7.9686
   7        8.6489
   8        9.7755
   9        9.9074
  10       11.2889
  11       11.7339
  12       12.4876
  13       12.8410
  14       15.3927
  15       16.2421
  16       16.2514
 
  0.2500000E+00  0.1111111E+00  0.0000000E+00  0.5144033E-03
   1       -2.5701
   2        1.7842
   3        4.1109
   4        5.4597
   5        6.7391
   6        8.0755
   7        8.3073
   8        9.5587
   9       10.3379
  10       10.9703
  11       11.8417
  12       12.1792
  13       12.9446
  14       15.4990
  15       15.9036
  16       16.7416
 
  0.2777778E+00  0.1111111E+00  0.0000000E+00  0.5144033E-03
   1       -2.4404
   2        1.4344
   3        4.2341
   4        5.5795
   5        6.8555
   6        7.9813
   7        8.1936
   8        9.2227
   9       10.6583
  10       10.9118
  11       11.8719
  12       11.9620
  13       13.0607
  14       15.5760
  15       15.6177
  16       16.4400
 
  0.3055556E+00  0.1111111E+00  0.0000000E+00  0.5144033E-03
   1       -2.2971
   2        1.0964
   3        4.3703
   4        5.7120
   5        6.9718
   6        7.6796
   7        8.3219
   8        8.8995
   9       10.3558
  10       11.4964
  11       11.5695
  12       12.0950
  13       13.1896
  14       15.2597
  15       15.7489
  16       16.1475
 
  0.3333333E+00  0.1111111E+00  0.0000000E+00  0.5144033E-03
   1       -2.1404
   2        0.7706
   3        4.5192
   4        5.8571
   5        7.0427
   6        7.4476
   7        8.4581
   8        8.5890
   9       10.0660
  10       11.2746
  11       12.0901
  12       12.2406
  13       13.3325
  14       14.9549
  15       15.8640
  16       15.8925
 
  0.3611111E+00  0.1111111E+00  0.0000000E+00  0.5144033E-03
   1       -1.9702
   2        0.4571
   3        4.6809
   4        6.0149
   5        6.9228
   6        7.4307
   7        8.2913
   8        8.5971
   9        9.7953
  10       10.9889
  11       12.3987
  12       12.6892
  13       13.4927
  14       14.6618
  15       15.5902
  16       16.0484
 
  0.3888889E+00  0.1111111E+00  0.0000000E+00  0.5144033E-03
   1       -1.7867
   2        0.1562
   3        4.8553
   4        6.1854
   5        6.6780
   6        7.5628
   7        8.0064
   8        8.7238
   9        9.5595
  10       10.7135
  11       12.5693
  12       13.2752
  13       13.6883
  14       14.3806
  15       15.3264
  16       16.2167
 
  0.4166667E+00  0.1111111E+00  0.0000000E+00  0.5144033E-03
   1       -1.5898