   4   4   0   0
  0.1904509E+02  0.4239172E-09  0.4239172E-09  0.4239172E-09  0.5000000E-15
  1.000000000000000E-004
  CAR 
 unknown system                          
     17.56410108     -4.60611524  301      6.60141326      1.00000000
     -4.606  0.0000E+00  0.0000E+00
     -4.532  0.0000E+00  0.0000E+00
     -4.458  0.0000E+00  0.0000E+00
     -4.384  0.0000E+00  0.0000E+00
     -4.311  0.0000E+00  0.0000E+00
     -4.237  0.0000E+00  0.0000E+00
     -4.163  0.0000E+00  0.0000E+00
     -4.089  0.0000E+00  0.0000E+00
     -4.015  0.0000E+00  0.0000E+00
     -3.941  0.0000E+00  0.0000E+00
     -3.867  0.0000E+00  0.0000E+00
     -3.793  0.0000E+00  0.0000E+00
     -3.719  0.0000E+00  0.0000E+00
     -3.645  0.2284E-12  0.1688E-13
     -3.572  0.1566E-01  0.1157E-02
     -3.498  0.9912E-01  0.8483E-02
     -3.424  0.2671E+00  0.2822E-01
     -3.350  0.1347E+00  0.3818E-01
     -3.276  0.3766E+00  0.6603E-01
     -3.202  0.3751E+00  0.9375E-01
     -3.128  0.1824E+00  0.1072E+00
     -3.054  0.4699E+00  0.1424E+00
     -2.980  0.4063E+00  0.1724E+00
     -2.906  0.4509E+00  0.2057E+00
     -2.832  0.3758E+00  0.2349E+00
     -2.759  0.7518E+00  0.2905E+00
     -2.685  0.5252E-01  0.2944E+00
     -2.611  0.7893E+00  0.3527E+00
     -2.537  0.5642E+00  0.3947E+00
     -2.463  0.4732E+00  0.4297E+00
     -2.389  0.1002E+01  0.5037E+00
     -2.315  0.3759E+00  0.5336E+00
     -2.241  0.3113E-01  0.5359E+00
     -2.167  0.7443E+00  0.5909E+00
     -2.093  0.1127E+01  0.6794E+00
     -2.020  0.5012E+00  0.7164E+00
     -1.946  0.7191E+00  0.7696E+00
     -1.872  0.1158E+01  0.8552E+00
     -1.798  0.5542E-03  0.8554E+00
     -1.724  0.4752E+00  0.8905E+00
     -1.650  0.1204E+01  0.9795E+00
     -1.576  0.7519E+00  0.1036E+01
     -1.502  0.5357E+00  0.1075E+01
     -1.428  0.1371E+01  0.1177E+01
     -1.354  0.1399E-04  0.1182E+01
     -1.281  0.4832E+00  0.1217E+01
     -1.207  0.2032E+01  0.1368E+01
     -1.133  0.3758E+00  0.1404E+01
     -1.059  0.4033E+00  0.1434E+01
     -0.985  0.1621E+01  0.1554E+01
     -0.911  0.2305E+00  0.1571E+01
     -0.837  0.1314E+00  0.1580E+01
     -0.763  0.1534E+01  0.1694E+01
     -0.689  0.1369E+01  0.1795E+01
     -0.615  0.3781E+00  0.1823E+01
     -0.542  0.1670E+01  0.1947E+01
     -0.468  0.9585E+00  0.2017E+01
     -0.394  0.7522E+00  0.2073E+01
     -0.320  0.8388E+00  0.2135E+01
     -0.246  0.1377E+01  0.2237E+01
     -0.172  0.2021E-03  0.2240E+01
     -0.098  0.1349E+01  0.2339E+01
     -0.024  0.1282E+01  0.2434E+01
      0.050  0.9405E-01  0.2441E+01
      0.124  0.1650E+01  0.2563E+01
      0.197  0.1693E+01  0.2688E+01
      0.271  0.7517E+00  0.2747E+01
      0.345  0.1551E+01  0.2861E+01
      0.419  0.7038E+00  0.2913E+01
      0.493  0.5637E+00  0.2955E+01
      0.567  0.8344E+00  0.3017E+01
      0.641  0.2494E+01  0.3201E+01
      0.715  0.5328E+00  0.3242E+01
      0.789  0.1526E+01  0.3355E+01
      0.863  0.7294E+00  0.3409E+01
      0.936  0.3757E+00  0.3436E+01
      1.010  0.1628E+01  0.3557E+01
      1.084  0.1593E+01  0.3674E+01
      1.158  0.9453E+00  0.3749E+01
      1.232  0.8119E+00  0.3809E+01
      1.306  0.1819E+01  0.3943E+01
      1.380  0.3757E+00  0.3971E+01
      1.454  0.2309E+01  0.4142E+01
      1.528  0.2447E+01  0.4323E+01
      1.602  0.1782E-05  0.4332E+01
      1.675  0.8096E+00  0.4392E+01
      1.749  0.1446E+01  0.4499E+01
      1.823  0.3758E+00  0.4527E+01
      1.897  0.8266E+00  0.4588E+01
      1.971  0.2542E+01  0.4776E+01
      2.045  0.5710E+00  0.4825E+01
      2.119  0.2776E+01  0.5030E+01
      2.193  0.6065E+00  0.5075E+01
      2.267  0.1129E+01  0.5159E+01
      2.341  0.1623E+01  0.5279E+01
      2.414  0.2090E+01  0.5433E+01
      2.488  0.4282E+00  0.5473E+01
      2.562  0.2020E+01  0.5622E+01
      2.636  0.9984E+00  0.5696E+01
      2.710  0.3990E+00  0.5725E+01
      2.784  0.1936E+01  0.5868E+01
      2.858  0.1820E+01  0.6003E+01
      2.932  0.7299E+00  0.6058E+01
      3.006  0.2737E+01  0.6260E+01
      3.080  0.6300E+00  0.6307E+01
      3.153  0.8529E+00  0.6370E+01
      3.227  0.2253E+01  0.6536E+01
      3.301  0.1364E+01  0.6637E+01
      3.375  0.5020E+00  0.6684E+01
      3.449  0.3572E+01  0.6948E+01
      3.523  0.3741E+00  0.6980E+01
      3.597  0.7258E+00  0.7034E+01
      3.671  0.2464E+01  0.7216E+01
      3.745  0.2257E+01  0.7383E+01
      3.819  0.1402E+00  0.7393E+01
      3.892  0.2641E+01  0.7589E+01
      3.966  0.9786E+00  0.7661E+01
      4.040  0.1587E+01  0.7778E+01
      4.114  0.2515E+01  0.7964E+01
      4.188  0.1581E+01  0.8081E+01
      4.262  0.1800E+01  0.8214E+01
      4.336  0.1339E+01  0.8313E+01
      4.410  0.6648E-03  0.8317E+01
      4.484  0.2090E+01  0.8472E+01
      4.558  0.3098E+01  0.8711E+01
      4.631  0.3760E+00  0.8743E+01
      4.705  0.2016E+01  0.8892E+01
      4.779  0.2019E+01  0.9048E+01
      4.853  0.2721E+00  0.9069E+01
      4.927  0.2622E+01  0.9262E+01
      5.001  0.2026E+01  0.9413E+01
      5.075  0.1321E+01  0.9511E+01
      5.149  0.9014E+00  0.9581E+01
      5.223  0.1301E+01  0.9677E+01
      5.297  0.4765E+00  0.9712E+01
      5.370  0.3428E+01  0.9966E+01
      5.444  0.1129E+01  0.1005E+02
      5.518  0.1048E+01  0.1013E+02
      5.592  0.3255E+01  0.1037E+02
      5.666  0.1128E+01  0.1045E+02
      5.740  0.1311E+01  0.1055E+02
      5.814  0.6191E+00  0.1060E+02
      5.888  0.2301E+01  0.1077E+02
      5.962  0.2043E+01  0.1092E+02
      6.036  0.2445E+01  0.1110E+02
      6.109  0.1464E+01  0.1121E+02
      6.183  0.9368E+00  0.1128E+02
      6.257  0.1339E+01  0.1138E+02
      6.331  0.1320E+01  0.1148E+02
      6.405  0.2213E+01  0.1164E+02
      6.479  0.3373E+01  0.1189E+02
      6.553  0.6314E+00  0.1195E+02
      6.627  0.1069E+01  0.1203E+02
      6.701  0.4191E+01  0.1234E+02
      6.775  0.8607E+00  0.1240E+02
      6.848  0.1782E+01  0.1253E+02
      6.922  0.2626E+01  0.1273E+02
      6.996  0.3552E+00  0.1275E+02
      7.070  0.1748E+01  0.1288E+02
      7.144  0.2394E+01  0.1306E+02
      7.218  0.3763E+00  0.1310E+02
      7.292  0.1596E+01  0.1321E+02
      7.366  0.2532E+01  0.1340E+02
      7.440  0.1003E+01  0.1348E+02
      7.514  0.3759E+01  0.1376E+02
      7.588  0.1593E+01  0.1388E+02
      7.661  0.1543E+01  0.1399E+02
      7.735  0.2533E+01  0.1418E+02
      7.809  0.1870E+01  0.1432E+02
      7.883  0.1264E+01  0.1442E+02
      7.957  0.3992E+01  0.1471E+02
      8.031  0.9738E+00  0.1479E+02
      8.105  0.1375E+01  0.1489E+02
      8.179  0.2342E+01  0.1506E+02
      8.253  0.4404E+00  0.1509E+02
      8.327  0.2022E+01  0.1524E+02
      8.400  0.2929E+01  0.1546E+02
      8.474  0.1296E+01  0.1556E+02
      8.548  0.2706E+01  0.1576E+02
      8.622  0.1063E+01  0.1584E+02
      8.696  0.1601E+01  0.1596E+02
      8.770  0.3973E+01  0.1625E+02
      8.844  0.2109E+01  0.1641E+02
      8.918  0.7271E+00  0.1647E+02
      8.992  0.2181E+01  0.1663E+02
      9.066  0.1988E+01  0.1678E+02
      9.139  0.1014E+01  0.1686E+02
      9.213  0.2497E+01  0.1704E+02
      9.287  0.1290E+01  0.1714E+02
      9.361  0.3494E+01  0.1740E+02
      9.435  0.3491E+01  0.1766E+02
      9.509  0.1454E+01  0.1777E+02
      9.583  0.2427E+01  0.1795E+02
      9.657  0.2121E+01  0.1811E+02
      9.731  0.3885E-01  0.1811E+02
      9.805  0.2769E+01  0.1832E+02
      9.878  0.3682E+01  0.1859E+02
      9.952  0.7842E+00  0.1865E+02
     10.026  0.2774E+01  0.1885E+02
     10.100  0.1079E+01  0.1894E+02
     10.174  0.2033E+01  0.1909E+02
     10.248  0.3433E+01  0.1934E+02
     10.322  0.2221E+01  0.1951E+02
     10.396  0.3937E+00  0.1954E+02
     10.470  0.3844E+01  0.1982E+02
     10.544  0.1124E+01  0.1991E+02
     10.617  0.1564E+01  0.2003E+02
     10.691  0.2387E+01  0.2021E+02
     10.765  0.2823E+01  0.2042E+02
     10.839  0.3195E+01  0.2066E+02
     10.913  0.2082E+01  0.2081E+02
     10.987  0.1224E+01  0.2090E+02
     11.061  0.2456E+01  0.2109E+02
     11.135  0.1850E+01  0.2122E+02
     11.209  0.2628E+01  0.2142E+02
     11.283  0.3100E+01  0.2165E+02
     11.356  0.1389E+01  0.2175E+02
     11.430  0.2657E+00  0.2177E+02
     11.504  0.1611E+01  0.2189E+02
     11.578  0.2505E+01  0.2208E+02
     11.652  0.1562E+01  0.2219E+02
     11.726  0.1376E+01  0.2229E+02
     11.800  0.4698E+00  0.2233E+02
     11.874  0.1507E+01  0.2244E+02
     11.948  0.1500E+01  0.2255E+02
     12.022  0.1115E+01  0.2264E+02
     12.095  0.1397E+01  0.2275E+02
     12.169  0.6241E+00  0.2280E+02
     12.243  0.8742E+00  0.2287E+02
     12.317  0.6923E+00  0.2292E+02
     12.391  0.1212E+01  0.2301E+02
     12.465  0.1487E-04  0.2301E+02
     12.539  0.3759E+00  0.2304E+02
     12.613  0.1128E+01  0.2312E+02
     12.687  0.1128E+01  0.2320E+02
     12.761  0.7518E+00  0.2326E+02
     12.834  0.2671E+00  0.2328E+02
     12.908  0.6967E+00  0.2333E+02
     12.982  0.3759E+00  0.2336E+02
     13.056  0.1862E-12  0.2336E+02
     13.130  0.4829E+00  0.2339E+02
     13.204  0.2687E+00  0.2341E+02
     13.278  0.7684E+00  0.2347E+02
     13.352  0.4431E+00  0.2350E+02
     13.426  0.7518E+00  0.2356E+02
     13.500  0.0000E+00  0.2356E+02
     13.573  0.0000E+00  0.2356E+02
     13.647  0.7246E+00  0.2361E+02
     13.721  0.5658E-05  0.2362E+02
     13.795  0.7518E+00  0.2367E+02
     13.869  0.1944E-08  0.2367E+02
     13.943  0.4404E+00  0.2370E+02
     14.017  0.6078E-01  0.2371E+02
     14.091  0.0000E+00  0.2371E+02
     14.165  0.7105E+00  0.2376E+02
     14.239  0.4172E+00  0.2379E+02
     14.312  0.4939E-03  0.2379E+02
     14.386  0.3754E+00  0.2382E+02
     14.460  0.0000E+00  0.2382E+02
     14.534  0.0000E+00  0.2382E+02
     14.608  0.0000E+00  0.2382E+02
     14.682  0.6951E-06  0.2382E+02
     14.756  0.1123E+01  0.2390E+02
     14.830  0.0000E+00  0.2390E+02
     14.904  0.0000E+00  0.2390E+02
     14.978  0.0000E+00  0.2390E+02
     15.051  0.2092E-09  0.2390E+02
     15.125  0.3759E+00  0.2393E+02
     15.199  0.1734E-12  0.2393E+02
     15.273  0.4302E+00  0.2396E+02
     15.347  0.7075E-01  0.2397E+02
     15.421  0.0000E+00  0.2397E+02
     15.495  0.0000E+00  0.2397E+02
     15.569  0.0000E+00  0.2397E+02
     15.643  0.3343E+00  0.2399E+02
     15.717  0.0000E+00  0.2400E+02
     15.790  0.0000E+00  0.2400E+02
     15.864  0.0000E+00  0.2400E+02
     15.938  0.0000E+00  0.2400E+02
     16.012  0.0000E+00  0.2400E+02
     16.086  0.0000E+00  0.2400E+02
     16.160  0.0000E+00  0.2400E+02
     16.234  0.0000E+00  0.2400E+02
     16.308  0.0000E+00  0.2400E+02
     16.382  0.0000E+00  0.2400E+02
     16.456  0.0000E+00  0.2400E+02
     16.529  0.4525E-05  0.2400E+02
     16.603  0.6264E-01  0.2400E+02
     16.677  0.0000E+00  0.2400E+02
     16.751  0.0000E+00  0.2400E+02
     16.825  0.0000E+00  0.2400E+02
     16.899  0.0000E+00  0.2400E+02
     16.973  0.0000E+00  0.2400E+02
     17.047  0.0000E+00  0.2400E+02
     17.121  0.0000E+00  0.2400E+02
     17.195  0.0000E+00  0.2400E+02
     17.268  0.0000E+00  0.2400E+02
     17.342  0.0000E+00  0.2400E+02
     17.416  0.0000E+00  0.2400E+02
     17.490  0.0000E+00  0.2400E+02
     17.564  0.0000E+00  0.2400E+02
