    4    4    1    1
  0.1904509E+02  0.4239172E-09  0.4239172E-09  0.4239172E-09  0.5000000E-15
  1.000000000000000E-004
  CAR 
 unknown system                          
   12   84   12
 
  0.0000000E+00  0.0000000E+00  0.0000000E+00  0.5787037E-03
   1       -3.5984
   2        4.0040
   3        4.0040
   4        4.0040
   5        4.9682
   6        4.9682
   7        4.9682
   8       11.5512
   9       11.5512
  10       11.5512
  11       11.5512
  12       11.5512
 
  0.8333333E-01  0.0000000E+00  0.0000000E+00  0.3472222E-02
   1       -3.5412
   2        3.1337
   3        4.0571
   4        4.0571
   5        5.0245
   6        5.0245
   7        5.9391
   8       10.4434
   9       10.4434
  10       11.1171
  11       11.1171
  12       11.6009
 
  0.1666667E+00  0.0000000E+00  0.0000000E+00  0.3472222E-02
   1       -3.3697
   2        2.0113
   3        4.2164
   4        4.2164
   5        5.1931
   6        5.1931
   7        7.3631
   8        9.3266
   9        9.3266
  10       10.2556
  11       10.2556
  12       11.7502
 
  0.2500000E+00  0.0000000E+00  0.0000000E+00  0.3472222E-02
   1       -3.0844
   2        0.9663
   3        4.4821
   4        4.4821
   5        5.4731
   6        5.4731
   7        8.3145
   8        8.3145
   9        8.9090
  10        9.3363
  11        9.3363
  12       11.9991
 
  0.3333333E+00  0.0000000E+00  0.0000000E+00  0.3472222E-02
   1       -2.6857
   2        0.0207
   3        4.8541
   4        4.8541
   5        5.8631
   6        5.8631
   7        7.4088
   8        7.4088
   9        8.4625
  10        8.4625
  11       10.5519
  12       12.3476
 
  0.4166667E+00  0.0000000E+00  0.0000000E+00  0.3472222E-02
   1       -2.1746
   2       -0.8197
   3        5.3327
   4        5.3327
   5        6.3608
   6        6.3608
   7        6.6100
   8        6.6100
   9        7.6673
  10        7.6673
  11       12.2789
  12       12.7956
 
  0.5000000E+00  0.0000000E+00  0.0000000E+00  0.1736111E-02
   1       -1.5521
   2       -1.5521
   3        5.9179
   4        5.9179
   5        5.9179
   6        5.9179
   7        6.9400
   8        6.9400
   9        6.9880
  10        6.9880
  11       13.3430
  12       13.3430
 
  0.8333333E-01  0.8333333E-01  0.0000000E+00  0.6944444E-02
   1       -3.4840
   2        3.1882
   3        3.1882
   4        4.1102
   5        5.0807
   6        5.9940
   7        5.9940
   8        9.5806
   9       10.4962
  10       10.4962
  11       11.1678
  12       11.1678
 
  0.1666667E+00  0.8333333E-01  0.0000000E+00  0.1388889E-01
   1       -3.3126
   2        2.0664
   3        3.3517
   4        4.2695
   5        5.2491
   6        6.1583
   7        7.4171
   8        8.5040
   9        9.3796
  10       10.3075
  11       10.6546
  12       11.1135
 
  0.2500000E+00  0.8333333E-01  0.0000000E+00  0.1388889E-01
   1       -3.0274
   2        1.0219
   3        3.6238
   4        4.5352
   5        5.5289
   6        6.4315
   7        7.5016
   8        8.3676
   9        8.9623
  10        9.3891
  11       10.2293
  12       10.9184
 
  0.3333333E+00  0.8333333E-01  0.0000000E+00  0.1388889E-01
   1       -2.6289
   2        0.0766
   3        4.0042
   4        4.9073
   5        5.9182
   6        6.5949
   7        6.8127
   8        7.4620
   9        8.5161
  10        9.3682
  11       10.6042
  12       11.2871
 
  0.4166667E+00  0.8333333E-01  0.0000000E+00  0.1388889E-01
   1       -2.1180
   2       -0.7635
   3        4.4924
   4        5.3859
   5        5.7881
   6        6.4171
   7        6.6631
   8        7.2999
   9        7.7217
  10        8.5838
  11       11.7602
  12       12.3084
 
  0.5000000E+00  0.8333333E-01  0.0000000E+00  0.6944444E-02
   1       -1.4957
   2       -1.4957
   3        5.0875
   4        5.0875
   5        5.9711
   6        5.9711
   7        7.0187
   8        7.0187
   9        7.8923
  10        7.8923
  11       12.3367
  12       12.3367
 
  0.1666667E+00  0.1666667E+00  0.0000000E+00  0.6944444E-02
   1       -3.1415
   2        2.2317
   3        2.2317
   4        4.4289
   5        5.4171
   6        7.4266
   7        7.5791
   8        7.5791
   9        9.5387
  10        9.5387
  11       10.4629
  12       10.4629
 
  0.2500000E+00  0.1666667E+00  0.0000000E+00  0.1388889E-01
   1       -2.8565
   2        1.1884
   3        2.5068
   4        4.6946
   5        5.6956
   6        6.4195
   7        7.8484
   8        8.5270
   9        9.1220
  10        9.5473
  11        9.8038
  12       10.7214
 
  0.3333333E+00  0.1666667E+00  0.0000000E+00  0.1388889E-01
   1       -2.4584
   2        0.2442
   3        2.8914
   4        5.0667
   5        5.5039
   6        6.0867
   7        7.6215
   8        8.2238
   9        8.6767
  10       10.1746
  11       10.7223
  12       10.7591
 
  0.4166667E+00  0.1666667E+00  0.0000000E+00  0.1388889E-01
   1       -1.9481
   2       -0.5951
   3        3.3846
   4        4.6928
   5        5.5454
   6        6.5823
   7        6.8227
   8        7.8834
   9        8.7044
  10        9.9632
  11       10.6507
  12       11.5402
 
  0.5000000E+00  0.1666667E+00  0.0000000E+00  0.6944444E-02
   1       -1.3265
   2       -1.3265
   3        3.9855
   4        3.9855
   5        6.1306
   6        6.1306
   7        7.1830
   8        7.1830
   9        9.2859
  10        9.2859
  11       11.2317
  12       11.2317
 
  0.2500000E+00  0.2500000E+00  0.0000000E+00  0.6944444E-02
   1       -2.5721
   2        1.4656
   3        1.4656
   4        4.9604
   5        5.4029
   6        5.9762
   7        8.7925
   8        8.7925
   9        9.3869
  10        9.3869
  11        9.8107
  12        9.8107
 
  0.3333333E+00  0.2500000E+00  0.0000000E+00  0.1388889E-01
   1       -2.1748
   2        0.5231
   3        1.8530
   4        4.4845
   5        5.3325
   6        6.3627
   7        7.8873
   8        8.9427
   9        9.1642
  10        9.7576
  11       10.1755
  12       11.0233
 
  0.4166667E+00  0.2500000E+00  0.0000000E+00  0.1388889E-01
   1       -1.6653
   2       -0.3147
   3        2.3498
   4        3.6673
   5        5.8112
   6        6.8570
   7        7.0886
   8        8.1533
   9        9.6417
  10       10.2286
  11       10.6437
  12       10.9127
 
  0.5000000E+00  0.2500000E+00  0.0000000E+00  0.6944444E-02
   1       -1.0448
   2       -1.0448
   3        2.9550
   4        2.9550
   5        6.3965
   6        6.3965
   7        7.4555
   8        7.4555
   9       10.2247
  10       10.2247
  11       10.7959
  12       10.7959
 
  0.3333333E+00  0.3333333E+00  0.0000000E+00  0.6944444E-02
   1       -1.7784
   2        0.9128
   3        0.9128
   4        3.5600
   5        5.7048
   6        6.7479
   7        8.2593
   8        8.2593
   9        9.3141
  10        9.3141
  11       10.8063
  12       11.3839
 
  0.4166667E+00  0.3333333E+00  0.0000000E+00  0.1388889E-01
   1       -1.2702
   2        0.0771
   3        1.4126
   4        2.7379
   5        6.1835
   6        7.2397
   7        7.4608
   8        8.5291
   9        8.7375
  10        9.7884
  11       10.0115
  12       11.0322
 
  0.5000000E+00  0.3333333E+00  0.0000000E+00  0.6944444E-02
   1       -0.6513
   2       -0.6513
   3        2.0214
   4        2.0214
   5        6.7688
   6        6.7688
   7        7.8350
   8        7.8350
   9        9.3217
  10        9.3217
  11       10.3625
  12       10.3625
 
  0.4166667E+00  0.4166667E+00  0.0000000E+00  0.6944444E-02
   1       -0.7636
   2        0.5794
   3        0.5794
   4        1.9115
   5        6.6623
   6        7.7282
   7        7.9394
   8        7.9394
   9        9.0088
  10        9.0088
  11        9.2150
  12       10.2664
 
  0.5000000E+00  0.4166667E+00  0.0000000E+00  0.6944444E-02
   1       -0.1466
   2       -0.1466
   3        1.1914
   4        1.1914
   5        7.2476
   6        7.2476
   7        8.3195
   8        8.3195
   9        8.5242
  10        8.5242
  11        9.5894
  12        9.5894
 
  0.5000000E+00  0.5000000E+00  0.0000000E+00  0.1736111E-02
   1        0.4681
   2        0.4681
   3        0.4681
   4        0.4681
   5        7.8327
   6        7.8327
   7        7.8327
   8        7.8327
   9        8.9059
  10        8.9059
  11        8.9059
  12        8.9059
 
  0.8333333E-01  0.8333333E-01  0.8333333E-01  0.4629630E-02
   1       -3.4269
   2        3.2427
   3        3.2427
   4        3.2427
   5        6.0488
   6        6.0488
   7        6.0488
   8        9.6334
   9        9.6334
  10        9.6334
  11       11.7007
  12       11.7007
 
  0.1666667E+00  0.8333333E-01  0.8333333E-01  0.1388889E-01
   1       -3.2556
   2        2.1215
   3        3.4061
   4        3.4061
   5        6.2130
   6        6.2130
   7        7.4712
   8        8.5572
   9        8.5572
  10        9.7920
  11       11.1647
  12       11.1647
 
  0.2500000E+00  0.8333333E-01  0.8333333E-01  0.1388889E-01
   1       -2.9704
   2        1.0774
   3        3.6782
   4        3.6782
   5        6.4860
   6        6.4860
   7        7.5551
   8        7.5551
   9        9.0156
  10       10.0559
  11       10.2816
  12       10.2816
 
  0.3333333E+00  0.8333333E-01  0.8333333E-01  0.1388889E-01
   1       -2.5721
   2        0.1325
   3        4.0585
   4        4.0585
   5        6.6475
   6        6.6475
   7        6.8678
   8        6.8678
   9        9.4212
  10        9.4212
  11       10.4239
  12       10.6577
 
  0.4166667E+00  0.8333333E-01  0.8333333E-01  0.1388889E-01
   1       -2.0613
   2       -0.7074
   3        4.5464
   4        4.5464
   5        5.8429
   6        5.8429
   7        7.3546
   8        7.3546
   9        8.6372
  10        8.6372
  11       10.8974
  12       12.1510
 
  0.5000000E+00  0.8333333E-01  0.8333333E-01  0.6944444E-02
   1       -1.4393
   2       -1.4393
   3        5.1220
   4        5.1220
   5        5.1614
   6        5.1614
   7        7.9347
   8        7.9347
   9        7.9571
  10        7.9571
  11       11.4735
  12       11.4735
 
  0.1666667E+00  0.1666667E+00  0.8333333E-01  0.1388889E-01
   1       -3.0844
   2        2.2867
   3        2.2867
   4        3.5694
   5        6.3769
   6        7.4802
   7        7.6330
   8        7.6330
   9        8.7167
  10        8.7167
  11       11.3185
  12       11.3185
 
  0.2500000E+00  0.1666667E+00  0.8333333E-01  0.2777778E-01
   1       -2.7996
   2        1.2439
   3        2.5618
   4        3.8411
   5        6.4714
   6        6.6510
   7        7.7150
   8        7.9025
   9        8.9820
  10        9.1756
  11       10.4383
  12       11.5633
 
  0.3333333E+00  0.1666667E+00  0.8333333E-01  0.2777778E-01
   1       -2.4017
   2        0.3000
   3        2.9462
   4        4.2209
   5        5.5597
   6        6.8092
   7        7.0304
   8        8.2777
   9        9.3535
  10        9.5798
  11       10.7744
  12       10.8136
 
  0.4166667E+00  0.1666667E+00  0.8333333E-01  0.2777778E-01
   1       -1.8915
   2       -0.5390
   3        3.4392
   4        4.6953
   5        4.7614
   6        6.0046
   7        7.5169
   8        8.7549
   9        8.7999
  10        9.8297
  11       10.0159
  12       11.0925
 
  0.5000000E+00  0.1666667E+00  0.8333333E-01  0.1388889E-01
   1       -1.2701
   2       -1.2701
   3        4.0397
   4        4.0397
   5        5.3044
   6        5.3044
   7        8.1071
   8        8.1071
   9        9.3390
  10        9.3390
  11       10.4099
  12       10.4099
 
  0.2500000E+00  0.2500000E+00  0.8333333E-01  0.1388889E-01
   1       -2.5153
   2        1.5210
   3        1.5210
   4        4.1123
   5        5.4590
   6        6.9220
   7        7.9823
   8        7.9823
   9        9.4405
  10        9.4405
  11       10.6990
  12       10.6990
 
  0.3333333E+00  0.2500000E+00  0.8333333E-01  0.2777778E-01
   1       -2.1181
   2        0.5788
   3        1.9082
   4        4.4775
   5        4.5545
   6        7.0773
   7        7.3014
   8        8.3556
   9        9.8037
  10        9.8499
  11       10.8930
  12       11.0455
 
  0.4166667E+00  0.2500000E+00  0.8333333E-01  0.2777778E-01
   1       -1.6088
   2       -0.2587
   3        2.4048
   4        3.7214
   5        4.9806
   6        6.2736
   7        7.7866
   8        8.8344
   9        9.0632
  10       10.1049
  11       10.2813
  12       11.4994
 
  0.5000000E+00  0.2500000E+00  0.8333333E-01  0.1388889E-01
   1       -0.9886
   2       -0.9886
   3        3.0097
   4        3.0097
   5        5.5741
   6        5.5741
   7        8.3753
   8        8.3753
   9        9.4180
  10        9.4180
  11       10.8483
  12       10.8483
 
  0.3333333E+00  0.3333333E+00  0.8333333E-01  0.1388889E-01
   1       -1.7219
   2        0.9684
   3        0.9684
   4        3.6142
   5        4.8725
   6        7.4522
   7        7.4522
   8        7.6794
   9       10.0020
  10       10.2107
  11       10.2107
  12       11.4361
 
  0.4166667E+00  0.3333333E+00  0.8333333E-01  0.2777778E-01
   1       -1.2139
   2        0.1329
   3        1.4680
   4        2.7926
   5        5.3585
   6        6.6498
   7        7.9332
   8        8.1628
   9        9.2097
  10        9.4343
  11       10.6810
  12       11.8924
 
  0.5000000E+00  0.3333333E+00  0.8333333E-01  0.1388889E-01
   1       -0.5951
   2       -0.5951
   3        2.0765
   4        2.0765
   5        5.9514
   6        5.9514
   7        8.5194
   8        8.5194
   9        8.7492
  10        8.7492
  11       11.2513
  12       11.2513
 
  0.4166667E+00  0.4166667E+00  0.8333333E-01  0.1388889E-01
   1       -0.7075
   2        0.6351
   3        0.6351
   4        1.9667
   5        5.8438
   6        7.1325
   7        7.1325
   8        8.4140
   9        8.6439
  10        9.9089
  11        9.9089
  12       11.1564
 
  0.5000000E+00  0.4166667E+00  0.8333333E-01  0.1388889E-01
   1       -0.0907
   2       -0.0907
   3        1.2468
   4        1.2468
   5        6.4355
   6        6.4355
   7        7.7210
   8        7.7210
   9        9.2273
  10        9.2273
  11       10.4843
  12       10.4843
 
  0.5000000E+00  0.5000000E+00  0.8333333E-01  0.3472222E-02
   1        0.5238
   2        0.5238
   3        0.5238
   4        0.5238
   5        7.0257
   6        7.0257
   7        7.0257
   8        7.0257
   9        9.8071
  10        9.8071
  11        9.8071
  12        9.8071
 
  0.1666667E+00  0.1666667E+00  0.1666667E+00  0.4629630E-02
   1       -2.9135
   2        2.4518
   3        2.4518
   4        2.4518
   5        7.6402
   6        7.6402
   7        7.6402
   8        7.7952
   9        7.7952
  10        7.7952
  11       12.1494
  12       12.1494
 
  0.2500000E+00  0.1666667E+00  0.1666667E+00  0.1388889E-01
   1       -2.6290
   2        1.4102
   3        2.7265
   4        2.7265
   5        6.6342
   6        6.6342
   7        7.9080
   8        8.0636
   9        8.0636
  10        9.3347
  11       11.7036
  12       11.7168
 
  0.3333333E+00  0.1666667E+00  0.1666667E+00  0.1388889E-01
   1       -2.2315
   2        0.4673
   3        3.1104
   4        3.1104
   5        5.7221
   6        5.7221
   7        8.2816
   8        8.4384
   9        8.4384
  10       10.8188
  11       10.9307
  12       10.9307
 
  0.4166667E+00  0.1666667E+00  0.1666667E+00  0.1388889E-01
   1       -1.7219
   2       -0.3708
   3        3.6025
   4        3.6025
   5        4.9116
   6        4.9116
   7        8.7608
   8        8.9175
   9        8.9175
  10       10.0313
  11       10.1738
  12       10.1738
 
  0.5000000E+00  0.1666667E+00  0.1666667E+00  0.6944444E-02
   1       -1.1011
   2       -1.1011
   3        4.1657
   4        4.1657
   5        4.2422
   6        4.2422
   7        9.3445
   8        9.3445
   9        9.4850
  10        9.4850
  11        9.5110
  12        9.5110
 
  0.2500000E+00  0.2500000E+00  0.1666667E+00  0.1388889E-01
   1       -2.3450
   2        1.6870
   3        1.6870
   4        3.0007
   5        5.6216
   6        6.9031
   7        6.9031
   8        8.3317
   9        9.5995
  10        9.5995
  11       10.7220
  12       11.9724
 
  0.3333333E+00  0.2500000E+00  0.1666667E+00  0.2777778E-01
   1       -1.9482
   2        0.7458
   3        2.0737
   4        3.3835
   5        4.7043
   6        5.9923
   7        7.2788
   8        8.7056
   9        9.8315
  10        9.9683
  11       11.1907
  12       11.2296
 
  0.4166667E+00  0.2500000E+00  0.1666667E+00  0.2777778E-01
   1       -1.4395
   2       -0.0908
   3        2.5696
   4        3.8362
   5        3.9271
   6        5.1827
   7        7.7608
   8        9.0389
   9        9.1835
  10       10.4171
  11       10.4578
  12       11.6529
 
  0.5000000E+00  0.2500000E+00  0.1666667E+00  0.1388889E-01
   1       -0.8199
   2       -0.8199
   3        3.1733
   4        3.1733
   5        4.4779
   6        4.4779
   7        8.3480
   8        8.3480
   9        9.7621
  10        9.7621
  11       11.0051
  12       11.0051
 
  0.3333333E+00  0.3333333E+00  0.1666667E+00  0.1388889E-01
   1       -1.5525
   2        1.1349
   3        1.1349
   4        3.7256
   5        3.8215
   6        6.3699
   7        6.3699
   8        8.9358
   9        9.0782
  10       11.5334
  11       11.5334
  12       11.6104
 
  0.4166667E+00  0.3333333E+00  0.1666667E+00  0.2777778E-01
   1       -1.0450
   2        0.3003
   3        1.6339
   4        2.9563
   5        4.2606
   6        5.5619
   7        6.8543
   8        8.1390
   9        9.5543
  10       10.8013
  11       12.0140
  12       12.0476
 
  0.5000000E+00  0.3333333E+00  0.1666667E+00  0.1388889E-01
   1       -0.4269
   2       -0.4269
   3        2.2416
   4        2.2416
   5        4.8580
   6        4.8580
   7        7.4444
   8        7.4444
   9       10.1308
  10       10.1308
  11       12.5753
  12       12.5816
 
  0.4166667E+00  0.4166667E+00  0.1666667E+00  0.1388889E-01
   1       -0.5392
   2        0.8020
   3        0.8020
   4        2.1319
   5        4.7495
   6        6.0482
   7        6.0482
   8        7.3385
   9       10.0282
  10       11.2689
  11       11.2689
  12       12.4929
 
  0.5000000E+00  0.4166667E+00  0.1666667E+00  0.1388889E-01
   1        0.0770
   2        0.0770
   3        1.4130
   4        1.4130
   5        5.3460
   6        5.3460
   7        6.6409
   8        6.6409
   9       10.6018
  10       10.6018
  11       11.8347
  12       11.8347
 
  0.5000000E+00  0.5000000E+00  0.1666667E+00  0.3472222E-02
   1        0.6907
   2        0.6907
   3        0.6907
   4        0.6907
   5        5.9408
   6        5.9408
   7        5.9408
   8        5.9408
   9       11.1719
  10       11.1719
  11       11.1719
  12       11.1719
 
  0.2500000E+00  0.2500000E+00  0.2500000E+00  0.4629630E-02
   1       -2.0615
   2        1.9632
   3        1.9632
   4        1.9632
   5        5.8921
   6        5.8921
   7        5.8921
   8        9.7341
   9        9.8637
  10        9.8637
  11        9.8637
  12       12.8972
 
  0.3333333E+00  0.2500000E+00  0.2500000E+00  0.1388889E-01
   1       -1.6655
   2        1.0237
   3        2.3491
   4        2.3491
   5        4.9758
   6        4.9758
   7        6.2701
   8        8.8380
   9       10.2315
  10       10.2315
  11       11.4887
  12       12.5839
 
  0.4166667E+00  0.2500000E+00  0.2500000E+00  0.1388889E-01
   1       -1.1577
   2        0.1886
   3        2.8433
   4        2.8433
   5        4.1619
   6        4.1619
   7        6.7549
   8        8.0406
   9       10.7001
  10       10.7001
  11       11.9114
  12       11.9114
 
  0.5000000E+00  0.2500000E+00  0.2500000E+00  0.6944444E-02
   1       -0.5392
   2       -0.5392
   3        3.3938
   4        3.3938
   5        3.5046
   6        3.5046
   7        7.3456
   8        7.3456
   9       11.2358
  10       11.2358
  11       11.2944
  12       11.2944
 
  0.3333333E+00  0.3333333E+00  0.2500000E+00  0.1388889E-01
   1       -1.2704
   2        1.4121
   3        1.4121
   4        2.7331
   5        4.0553
   6        5.3557
   7        5.3557
   8        7.9369
   9       10.5980
  10       11.8473
  11       11.8473
  12       12.9399
 
  0.4166667E+00  0.3333333E+00  0.2500000E+00  0.2777778E-01
   1       -0.7639
   2        0.5790
   3        1.9099
   4        3.1707
   5        3.2924
   6        4.5428
   7        5.8429
   8        7.1353
   9       11.0648
  10       12.2403
  11       12.3331
  12       13.3910
 
  0.5000000E+00  0.3333333E+00  0.2500000E+00  0.1388889E-01
   1       -0.1469
   2       -0.1469
   3        2.5156
   4        2.5156
   5        3.8354
   6        3.8354
   7        6.4366
   8        6.4366
   9       11.6260
  10       11.6260
  11       12.8397
  12       12.8397
 
  0.4166667E+00  0.4166667E+00  0.2500000E+00  0.1388889E-01
   1       -0.2590
   2        1.0796
   3        1.0796
   4        2.4058
   5        3.7264
   6        5.0320
   7        5.0320
   8        6.3300
   9       11.5293
  10       12.7253
  11       12.7253
  12       13.9095
 
  0.5000000E+00  0.4166667E+00  0.2500000E+00  0.1388889E-01
   1        0.3560
   2        0.3560
   3        1.6893
   4        1.6893
   5        4.3256
   6        4.3256
   7        5.6282
   8        5.6282
   9       12.0879
  10       12.0879
  11       13.2775
  12       13.2775
 
  0.5000000E+00  0.5000000E+00  0.2500000E+00  0.3472222E-02
   1        0.9686
   2        0.9686
   3        0.9686
   4        0.9686
   5        4.9239
   6        4.9239
   7        4.9239
   8        4.9239
   9       12.6431
  10       12.6431
  11       12.6431
  12       12.6431
 
  0.3333333E+00  0.3333333E+00  0.3333333E+00  0.4629630E-02
   1       -0.8764
   2        1.7992
   3        1.7992
   4        1.7992
   5        4.4365
   6        4.4365
   7        4.4365
   8        7.0309
   9       12.2053
  10       12.2053
  11       12.2053
  12       13.9427
 
  0.4166667E+00  0.3333333E+00  0.3333333E+00  0.1388889E-01
   1       -0.3712
   2        0.9684
   3        2.2946
   4        2.2946
   5        3.6204
   6        3.6204
   7        4.9261
   8        6.2251
   9       12.6564
  10       12.6564
  11       13.7508
  12       13.7584
 
  0.5000000E+00  0.3333333E+00  0.3333333E+00  0.6944444E-02
   1        0.2442
   2        0.2442
   3        2.8344
   4        2.8344
   5        2.9734
   6        2.9734
   7        5.5228
   8        5.5228
   9       13.1341
  10       13.1341
  11       13.2497
  12       13.2497
 
  0.4166667E+00  0.4166667E+00  0.3333333E+00  0.1388889E-01
   1        0.1325
   2        1.4674
   3        1.4674
   4        2.7219
   5        2.8669
   6        4.1111
   7        4.1111
   8        5.4156
   9       13.1066
  10       14.1614
  11       14.1617
  12       14.3337
 
  0.5000000E+00  0.4166667E+00  0.3333333E+00  0.1388889E-01
   1        0.7458
   2        0.7458
   3        2.0741
   4        2.0741
   5        3.4023
   6        3.4023
   7        4.7102
   8        4.7102
   9       13.6346
  10       13.6346
  11       14.7220
  12       14.7402
 
  0.5000000E+00  0.5000000E+00  0.3333333E+00  0.3472222E-02
   1        1.3565
   2        1.3565
   3        1.3565
   4        1.3565
   5        4.0024
   6        4.0024
   7        4.0024
   8        4.0024
   9       14.1637
  10       14.1637
  11       14.1637
  12       14.1637
 
  0.4166667E+00  0.4166667E+00  0.4166667E+00  0.4629630E-02
   1        0.6343
   2        1.9633
   3        1.9633
   4        1.9633
   5        3.2939
   6        3.2939
   7        3.2939
   8        4.6025
   9       14.7147
  10       14.7147
  11       14.7147
  12       15.2743
 
  0.5000000E+00  0.4166667E+00  0.4166667E+00  0.6944444E-02
   1        1.2454
   2        1.2454
   3        2.4962
   4        2.4962
   5        2.6537
   6        2.6537
   7        3.8943
   8        3.8943
   9       15.0946
  10       15.0946
  11       15.2498
  12       15.2498
 
  0.5000000E+00  0.5000000E+00  0.4166667E+00  0.3472222E-02
   1        1.8526
   2        1.8526
   3        1.8526
   4        1.8526
   5        3.1848
   6        3.1848
   7        3.1848
   8        3.1848
   9       15.6340
  10       15.6340
  11       15.6340
  12       15.6340
 
  0.5000000E+00  0.5000000E+00  0.5000000E+00  0.5787037E-03
   1        2.3830
   2        2.3830
   3        2.3830
   4        2.3830
   5        2.5470
   6        2.5470
   7        2.5470
   8        2.5470
   9       16.5564
  10       16.5564
  11       16.5564
  12       16.5564
