 vasp.4.6.28 25Jul05 complex 
 executed on             LinuxIFC date 2017.01.08  10:01:54
 running on    4 nodes
 distr:  one band on    1 nodes,    4 groups


--------------------------------------------------------------------------------------------------------


 INCAR:
 POTCAR:   PAW_PBE Al 04Jan2001                   
 POTCAR:   PAW_PBE Al 04Jan2001                   
   VRHFIN =Al: s2p1                                                             
   LEXCH  = PE                                                                  
   EATOM  =    53.5387 eV,    3.9350 Ry                                         
                                                                                
   TITEL  = PAW_PBE Al 04Jan2001                                                
   LULTRA =        F    use ultrasoft PP ?                                      
   IUNSCR =        1    unscreen: 0-lin 1-nonlin 2-no                           
   RPACOR =    1.500    partial core radius                                     
   POMASS =   26.982; ZVAL   =    3.000    mass and valenz                      
   RCORE  =    1.900    outmost cutoff radius                                   
   RWIGS  =    2.650; RWIGS  =    1.402    wigner-seitz radius (au A)           
   ENMAX  =  240.300; ENMIN  =  180.225 eV                                      
   ICORE  =        2    local potential                                         
   LCOR   =        T    correct aug charges                                     
   LPAW   =        T    paw PP                                                  
   EAUG   =  291.052                                                            
   DEXC   =    -.041                                                            
   RMAX   =    2.974    core radius for proj-oper                               
   RAUG   =    1.300    factor for augmentation sphere                          
   RDEP   =    1.966    radius for radial grids                                 
   QCUT   =   -4.203; QGAM   =    8.405    optimization parameters              
                                                                                
   Description                                                                  
     l     E      TYP  RCUT    TYP  RCUT                                        
     0   .000     23  1.900                                                     
     0   .000     23  1.900                                                     
     1   .000     23  1.900                                                     
     1  1.000     23  1.900                                                     
     2   .000      7  1.900                                                     
  local pseudopotential read in
  partial core-charges read in
  atomic valenz-charges read in
  non local Contribution for L=           0  read in
    real space projection operators read in
  non local Contribution for L=           0  read in
    real space projection operators read in
  non local Contribution for L=           1  read in
    real space projection operators read in
  non local Contribution for L=           1  read in
    real space projection operators read in
    PAW grid and wavefunctions read in
 
   number of l-projection  operators is LMAX  =           4
   number of lm-projection operators is LMMAX =           8
 
 PAW_PBE Al 04Jan2001                   :
 energy of atom  1       EATOM=  -53.5387
 kinetic energy error for atom=    0.0001 (will be added to EATOM!!)
 
 EXHCAR: internal setup
 exchange correlation table for  LEXCH =        8
   RHO(1)=    0.500       N(1)  =     2000
   RHO(2)=  100.500       N(2)  =     4000
 
 POSCAR: Al                                      
  positions in direct lattice
  No initial velocities read in
 


--------------------------------------------------------------------------------------------------------


 ion  position               nearest neighbor table
   1  0.500  0.500  0.000-   2 3.00   3 3.00   4 3.00   2 3.00   3 3.00   2 3.00   4 3.00   2 3.00
                             3 3.00   4 3.00   3 3.00   4 3.00
   2  0.500  0.000  0.500-   1 3.00   3 3.00   4 3.00   1 3.00   4 3.00   1 3.00   3 3.00   1 3.00
                             3 3.00   4 3.00   4 3.00   3 3.00
   3  0.000  0.500  0.500-   1 3.00   2 3.00   4 3.00   1 3.00   4 3.00   2 3.00   4 3.00   4 3.00
                             1 3.00   2 3.00   1 3.00   2 3.00
   4  0.000  0.000  0.000-   1 3.00   2 3.00   3 3.00   2 3.00   3 3.00   1 3.00   3 3.00   3 3.00
                             1 3.00   2 3.00   2 3.00   1 3.00
 
  LATTYP: Found a simple cubic cell.
 ALAT       =     4.2391716882
  
  Lattice vectors:
  
 A1 = (   4.2391716882,   0.0000000000,   0.0000000000)
 A2 = (   0.0000000000,   4.2391716882,   0.0000000000)
 A3 = (   0.0000000000,   0.0000000000,   4.2391716882)
 Subroutine PRICEL returns following result:
 
  LATTYP: Found a face centered cubic cell.
 ALAT       =     4.2391716882
  
  Lattice vectors:
  
 A1 = (   2.1195858441,   2.1195858441,   0.0000000000)
 A2 = (   2.1195858441,   0.0000000000,  -2.1195858441)
 A3 = (   0.0000000000,   2.1195858441,  -2.1195858441)
 
   4 primitive cells build up your supercell.
 

Analysis of symmetry for initial positions (statically):

 Routine SETGRP: Setting up the symmetry group for a 
 simple cubic supercell.


 Subroutine GETGRP returns: Found 48 space group operations
 (whereof 48 operations were pure point group operations)
 out of a pool of 48 trial point group operations.


The static configuration has the point symmetry O_h .

Analysis of symmetry for dynamics (positions and initial velocities):

 Subroutine DYNSYM returns: Found 48 space group operations
 (whereof 48 operations were pure point group operations)
 out of a pool of 48 trial space group operations
 (whereof 48 operations were pure point group operations)
 and found also     4 'primitive' translations


The dynamic configuration has the point symmetry O_h .
 
 
 KPOINTS: Automatic mesh                          

Automatic generation of k-mesh.
 
 Subroutine IBZKPT returns following result:
 ===========================================
 
 Found     84 irreducible k-points:
 
 Following reciprocal coordinates:
            Coordinates               Weight
  0.000000  0.000000  0.000000      1.000000
  0.083333  0.000000  0.000000      6.000000
  0.166667  0.000000  0.000000      6.000000
  0.250000  0.000000  0.000000      6.000000
  0.333333  0.000000  0.000000      6.000000
  0.416667  0.000000  0.000000      6.000000
  0.500000  0.000000  0.000000      3.000000
  0.083333  0.083333  0.000000     12.000000
  0.166667  0.083333  0.000000     24.000000
  0.250000  0.083333  0.000000     24.000000
  0.333333  0.083333  0.000000     24.000000
  0.416667  0.083333  0.000000     24.000000
  0.500000  0.083333  0.000000     12.000000
  0.166667  0.166667  0.000000     12.000000
  0.250000  0.166667  0.000000     24.000000
  0.333333  0.166667  0.000000     24.000000
  0.416667  0.166667  0.000000     24.000000
  0.500000  0.166667  0.000000     12.000000
  0.250000  0.250000  0.000000     12.000000
  0.333333  0.250000  0.000000     24.000000
  0.416667  0.250000  0.000000     24.000000
  0.500000  0.250000  0.000000     12.000000
  0.333333  0.333333  0.000000     12.000000
  0.416667  0.333333  0.000000     24.000000
  0.500000  0.333333  0.000000     12.000000
  0.416667  0.416667  0.000000     12.000000
  0.500000  0.416667  0.000000     12.000000
  0.500000  0.500000  0.000000      3.000000
  0.083333  0.083333  0.083333      8.000000
  0.166667  0.083333  0.083333     24.000000
  0.250000  0.083333  0.083333     24.000000
  0.333333  0.083333  0.083333     24.000000
  0.416667  0.083333  0.083333     24.000000
  0.500000  0.083333  0.083333     12.000000
  0.166667  0.166667  0.083333     24.000000
  0.250000  0.166667  0.083333     48.000000
  0.333333  0.166667  0.083333     48.000000
  0.416667  0.166667  0.083333     48.000000
  0.500000  0.166667  0.083333     24.000000
  0.250000  0.250000  0.083333     24.000000
  0.333333  0.250000  0.083333     48.000000
  0.416667  0.250000  0.083333     48.000000
  0.500000  0.250000  0.083333     24.000000
  0.333333  0.333333  0.083333     24.000000
  0.416667  0.333333  0.083333     48.000000
  0.500000  0.333333  0.083333     24.000000
  0.416667  0.416667  0.083333     24.000000
  0.500000  0.416667  0.083333     24.000000
  0.500000  0.500000  0.083333      6.000000
  0.166667  0.166667  0.166667      8.000000
  0.250000  0.166667  0.166667     24.000000
  0.333333  0.166667  0.166667     24.000000
  0.416667  0.166667  0.166667     24.000000
  0.500000  0.166667  0.166667     12.000000
  0.250000  0.250000  0.166667     24.000000
  0.333333  0.250000  0.166667     48.000000
  0.416667  0.250000  0.166667     48.000000
  0.500000  0.250000  0.166667     24.000000
  0.333333  0.333333  0.166667     24.000000
  0.416667  0.333333  0.166667     48.000000
  0.500000  0.333333  0.166667     24.000000
  0.416667  0.416667  0.166667     24.000000
  0.500000  0.416667  0.166667     24.000000
  0.500000  0.500000  0.166667      6.000000
  0.250000  0.250000  0.250000      8.000000
  0.333333  0.250000  0.250000     24.000000
  0.416667  0.250000  0.250000     24.000000
  0.500000  0.250000  0.250000     12.000000
  0.333333  0.333333  0.250000     24.000000
  0.416667  0.333333  0.250000     48.000000
  0.500000  0.333333  0.250000     24.000000
  0.416667  0.416667  0.250000     24.000000
  0.500000  0.416667  0.250000     24.000000
  0.500000  0.500000  0.250000      6.000000
  0.333333  0.333333  0.333333      8.000000
  0.416667  0.333333  0.333333     24.000000
  0.500000  0.333333  0.333333     12.000000
  0.416667  0.416667  0.333333     24.000000
  0.500000  0.416667  0.333333     24.000000
  0.500000  0.500000  0.333333      6.000000
  0.416667  0.416667  0.416667      8.000000
  0.500000  0.416667  0.416667     12.000000
  0.500000  0.500000  0.416667      6.000000
  0.500000  0.500000  0.500000      1.000000
 
 Following cartesian coordinates:
            Coordinates               Weight
  0.000000  0.000000  0.000000      1.000000
  0.020641  0.000000  0.000000      6.000000
  0.041282  0.000000  0.000000      6.000000
  0.061922  0.000000  0.000000      6.000000
  0.082563  0.000000  0.000000      6.000000
  0.103204  0.000000  0.000000      6.000000
  0.123845  0.000000  0.000000      3.000000
  0.020641  0.020641  0.000000     12.000000
  0.041282  0.020641  0.000000     24.000000
  0.061922  0.020641  0.000000     24.000000
  0.082563  0.020641  0.000000     24.000000
  0.103204  0.020641  0.000000     24.000000
  0.123845  0.020641  0.000000     12.000000
  0.041282  0.041282  0.000000     12.000000
  0.061922  0.041282  0.000000     24.000000
  0.082563  0.041282  0.000000     24.000000
  0.103204  0.041282  0.000000     24.000000
  0.123845  0.041282  0.000000     12.000000
  0.061922  0.061922  0.000000     12.000000
  0.082563  0.061922  0.000000     24.000000
  0.103204  0.061922  0.000000     24.000000
  0.123845  0.061922  0.000000     12.000000
  0.082563  0.082563  0.000000     12.000000
  0.103204  0.082563  0.000000     24.000000
  0.123845  0.082563  0.000000     12.000000
  0.103204  0.103204  0.000000     12.000000
  0.123845  0.103204  0.000000     12.000000
  0.123845  0.123845  0.000000      3.000000
  0.020641  0.020641  0.020641      8.000000
  0.041282  0.020641  0.020641     24.000000
  0.061922  0.020641  0.020641     24.000000
  0.082563  0.020641  0.020641     24.000000
  0.103204  0.020641  0.020641     24.000000
  0.123845  0.020641  0.020641     12.000000
  0.041282  0.041282  0.020641     24.000000
  0.061922  0.041282  0.020641     48.000000
  0.082563  0.041282  0.020641     48.000000
  0.103204  0.041282  0.020641     48.000000
  0.123845  0.041282  0.020641     24.000000
  0.061922  0.061922  0.020641     24.000000
  0.082563  0.061922  0.020641     48.000000
  0.103204  0.061922  0.020641     48.000000
  0.123845  0.061922  0.020641     24.000000
  0.082563  0.082563  0.020641     24.000000
  0.103204  0.082563  0.020641     48.000000
  0.123845  0.082563  0.020641     24.000000
  0.103204  0.103204  0.020641     24.000000
  0.123845  0.103204  0.020641     24.000000
  0.123845  0.123845  0.020641      6.000000
  0.041282  0.041282  0.041282      8.000000
  0.061922  0.041282  0.041282     24.000000
  0.082563  0.041282  0.041282     24.000000
  0.103204  0.041282  0.041282     24.000000
  0.123845  0.041282  0.041282     12.000000
  0.061922  0.061922  0.041282     24.000000
  0.082563  0.061922  0.041282     48.000000
  0.103204  0.061922  0.041282     48.000000
  0.123845  0.061922  0.041282     24.000000
  0.082563  0.082563  0.041282     24.000000
  0.103204  0.082563  0.041282     48.000000
  0.123845  0.082563  0.041282     24.000000
  0.103204  0.103204  0.041282     24.000000
  0.123845  0.103204  0.041282     24.000000
  0.123845  0.123845  0.041282      6.000000
  0.061922  0.061922  0.061922      8.000000
  0.082563  0.061922  0.061922     24.000000
  0.103204  0.061922  0.061922     24.000000
  0.123845  0.061922  0.061922     12.000000
  0.082563  0.082563  0.061922     24.000000
  0.103204  0.082563  0.061922     48.000000
  0.123845  0.082563  0.061922     24.000000
  0.103204  0.103204  0.061922     24.000000
  0.123845  0.103204  0.061922     24.000000
  0.123845  0.123845  0.061922      6.000000
  0.082563  0.082563  0.082563      8.000000
  0.103204  0.082563  0.082563     24.000000
  0.123845  0.082563  0.082563     12.000000
  0.103204  0.103204  0.082563     24.000000
  0.123845  0.103204  0.082563     24.000000
  0.123845  0.123845  0.082563      6.000000
  0.103204  0.103204  0.103204      8.000000
  0.123845  0.103204  0.103204     12.000000
  0.123845  0.123845  0.103204      6.000000
  0.123845  0.123845  0.123845      1.000000
 


--------------------------------------------------------------------------------------------------------




 Dimension of arrays:
   k-Points           NKPTS =     84   number of bands    NBANDS=     12
   number of dos      NEDOS =    301   number of ions     NIONS =      4
   non local maximal  LDIM  =      4   non local SUM 2l+1 LMDIM =      8
   total plane-waves  NPLWV =  64000
   max r-space proj   IRMAX =      1   max aug-charges    IRDMAX= 261744
   dimension x,y,z NGX =    40 NGY =   40 NGZ =   40
   dimension x,y,z NGXF=    80 NGYF=   80 NGZF=   80
   support grid    NGXF=   160 NGYF=  160 NGZF=  160
   ions per type =               4
 NGX,Y,Z   is equivalent  to a cutoff of  15.69, 15.69, 15.69 a.u.
 NGXF,Y,Z  is equivalent  to a cutoff of  31.37, 31.37, 31.37 a.u.


 I would recommend the setting:
   dimension x,y,z NGX =    38 NGY =   38 NGZ =   38
 SYSTEM =  unknown system                          
 POSCAR =  Al                                      

 Startparameter for this run:
   NWRITE =      2    write-flag & timer
   PREC   = accura    medium, high low
   ISTART =      0    job   : 0-new  1-cont  2-samecut
   ICHARG =      2    charge: 1-file 2-atom 10-const
   ISPIN  =      1    spin polarized calculation?
   LNONCOLLINEAR =      F non collinear calculations
   LSORBIT =      F    spin-orbit coupling
   INIWAV =      1    electr: 0-lowe 1-rand  2-diag
   LASPH  =      F    aspherical Exc in radial PAW
   METAGGA=      F    non-selfconsistent MetaGGA calc.

 Electronic Relaxation 1
   ENCUT  =  750.0 eV  55.12 Ry    7.42 a.u.   9.47  9.47  9.47*2*pi/ulx,y,z
   ENINI  =  750.0     initial cutoff
   ENAUG  =  291.1 eV  augmentation charge cutoff
   NELM   =     60;   NELMIN=  2; NELMDL=  0     # of ELM steps 
   EDIFF  = 0.1E-07   stopping-criterion for ELM
   LREAL  =      F    real-space projection
   LCOMPAT=      F    compatible to vasp.4.4
   LREAL_COMPAT= F    compatible to vasp.4.5.1-3
   GGA_COMPAT  = T    GGA compatible to vasp.4.4-vasp.4.6
   LMAXPAW     = -100 max onsite density
   LMAXMIX     =    2 max onsite mixed and CHGCAR
   VOSKOWN=      0    Vosko Wilk Nusair interpolation
   ROPT   =    0.00000
 Ionic relaxation
   EDIFFG = 0.1E-06   stopping-criterion for IOM
   NSW    =      0    number of steps for IOM
   NBLOCK =      1;   KBLOCK =      1    inner block; outer block 
   IBRION =     -1    ionic relax: 0-MD 1-quasi-New 2-CG
   NFREE  =      0    steps in history (QN), initial steepest desc. (CG)
   ISIF   =      2    stress and relaxation
   IWAVPR =     10    prediction:  0-non 1-charg 2-wave 3-comb
   ISYM   =      2    0-nonsym 1-usesym 2-fastsym
   LCORR  =      T    Harris-Foulkes like correction to forces

   POTIM  =   0.50    time-step for ionic-motion
   TEIN   =    0.0    initial temperature
   TEBEG  =    0.0;   TEEND  =   0.0 temperature during run
   SMASS  =  -3.00    Nose mass-parameter (am)
   estimated Nose-frequenzy (Omega)   =  0.10E-29 period in steps =****** mass=  -0.411E-27a.u.
   NPACO  =    256;   APACO  = 16.0  distance and # of slots for P.C.
   PSTRESS=    0.0 pullay stress

  Mass of Ions in am
   POMASS =  26.98
  Ionic Valenz
   ZVAL   =   3.00
  Atomic Wigner-Seitz radii
   RWIGS  =  -1.00
   NELECT =      12.0000    total number of electrons
   NUPDOWN=      -1.0000    fix difference up-down

 DOS related values:
   EMIN   =  10.00;   EMAX   =-10.00  energy-range for DOS
   ISMEAR =     0;   SIGMA  =   0.01  broadening in eV -4-tet -1-fermi 0-gaus

 Electronic relaxation 2 (details)
   IALGO  =     38    algorithm
   LDIAG  =      T    sub-space diagonalisation
   IMIX   =      4    mixing-type and parameters
     AMIX     =   0.40;   BMIX     =  1.00
     AMIX_MAG =   1.60;   BMIX_MAG =  1.00
     AMIN     =   0.10
     WC   =   100.;   INIMIX=   1;  MIXPRE=   1

 Intra band minimization:
   WEIMIN = 0.0000     energy-eigenvalue tresh-hold
   EBREAK =  0.25E-09  absolut break condition
   DEPER  =   0.30     relativ break condition  

   TIME   =   0.10     timestep for ELM

  volume/ion in A,a.u.               =      19.05       128.52
  Fermi-wavevector in a.u.,eV,Ry     =   0.884140 10.635716  0.781703

 Second variation
   LSECVAR=     F    do a second variation
 
 Write flags
   LWAVE  =      F    write WAVECAR
   LCHARG =      F    write CHGCAR
   LVTOT  =      F    write LOCPOT, local potential
   LELF   =      F    write electronic localiz. function (ELF)
   LORBIT =      0    0 simple, 1 ext, 2 COOP (PROOUT)


 Dipole corrections
   IDIPOL =      0    1-x, 2-y, 3-z
   LDIPOL =      F    correct potential



--------------------------------------------------------------------------------------------------------


 Static calculation
 charge density will be updated during run
 non-spin polarized calculation
 Variant of blocked Davidson
 Davidson routine will perform the subspace rotation
 performe sub-space diagonalisation
    after iterative eigenvector-optimisation
 modified Broyden-mixing scheme, WC =      100.0
 initial mixing is a Kerker type mixing with AMIX =  0.4000 and BMIX =      1.0000
 Hartree-type preconditioning will be used
 using additional bands            6
 reciprocal scheme for non local part
 use partial core corrections
 calculate Harris-corrections to forces 
   (improved forces if not selfconsistent)
 use gradient corrections 
 use of overlap-Matrix (Vanderbilt PP)
 Gauss-broadening in eV      SIGMA  =   0.01


--------------------------------------------------------------------------------------------------------


  energy-cutoff  :      750.00
  volume of cell :       76.18
      direct lattice vectors                 reciprocal lattice vectors
     4.239171688  0.000000000  0.000000000     0.235895140  0.000000000  0.000000000
     0.000000000  4.239171688  0.000000000     0.000000000  0.235895140  0.000000000
     0.000000000  0.000000000  4.239171688     0.000000000  0.000000000  0.235895140

  length of vectors
     4.239171688  4.239171688  4.239171688     0.235895140  0.235895140  0.235895140


 
 k-points in units of 2pi/SCALE and weight: Automatic mesh                          
   0.00000000  0.00000000  0.00000000       0.001
   0.02064082  0.00000000  0.00000000       0.003
   0.04128165  0.00000000  0.00000000       0.003
   0.06192247  0.00000000  0.00000000       0.003
   0.08256330  0.00000000  0.00000000       0.003
   0.10320412  0.00000000  0.00000000       0.003
   0.12384495  0.00000000  0.00000000       0.002
   0.02064082  0.02064082  0.00000000       0.007
   0.04128165  0.02064082  0.00000000       0.014
   0.06192247  0.02064082  0.00000000       0.014
   0.08256330  0.02064082  0.00000000       0.014
   0.10320412  0.02064082  0.00000000       0.014
   0.12384495  0.02064082  0.00000000       0.007
   0.04128165  0.04128165  0.00000000       0.007
   0.06192247  0.04128165  0.00000000       0.014
   0.08256330  0.04128165  0.00000000       0.014
   0.10320412  0.04128165  0.00000000       0.014
   0.12384495  0.04128165  0.00000000       0.007
   0.06192247  0.06192247  0.00000000       0.007
   0.08256330  0.06192247  0.00000000       0.014
   0.10320412  0.06192247  0.00000000       0.014
   0.12384495  0.06192247  0.00000000       0.007
   0.08256330  0.08256330  0.00000000       0.007
   0.10320412  0.08256330  0.00000000       0.014
   0.12384495  0.08256330  0.00000000       0.007
   0.10320412  0.10320412  0.00000000       0.007
   0.12384495  0.10320412  0.00000000       0.007
   0.12384495  0.12384495  0.00000000       0.002
   0.02064082  0.02064082  0.02064082       0.005
   0.04128165  0.02064082  0.02064082       0.014
   0.06192247  0.02064082  0.02064082       0.014
   0.08256330  0.02064082  0.02064082       0.014
   0.10320412  0.02064082  0.02064082       0.014
   0.12384495  0.02064082  0.02064082       0.007
   0.04128165  0.04128165  0.02064082       0.014
   0.06192247  0.04128165  0.02064082       0.028
   0.08256330  0.04128165  0.02064082       0.028
   0.10320412  0.04128165  0.02064082       0.028
   0.12384495  0.04128165  0.02064082       0.014
   0.06192247  0.06192247  0.02064082       0.014
   0.08256330  0.06192247  0.02064082       0.028
   0.10320412  0.06192247  0.02064082       0.028
   0.12384495  0.06192247  0.02064082       0.014
   0.08256330  0.08256330  0.02064082       0.014
   0.10320412  0.08256330  0.02064082       0.028
   0.12384495  0.08256330  0.02064082       0.014
   0.10320412  0.10320412  0.02064082       0.014
   0.12384495  0.10320412  0.02064082       0.014
   0.12384495  0.12384495  0.02064082       0.003
   0.04128165  0.04128165  0.04128165       0.005
   0.06192247  0.04128165  0.04128165       0.014
   0.08256330  0.04128165  0.04128165       0.014
   0.10320412  0.04128165  0.04128165       0.014
   0.12384495  0.04128165  0.04128165       0.007
   0.06192247  0.06192247  0.04128165       0.014
   0.08256330  0.06192247  0.04128165       0.028
   0.10320412  0.06192247  0.04128165       0.028
   0.12384495  0.06192247  0.04128165       0.014
   0.08256330  0.08256330  0.04128165       0.014
   0.10320412  0.08256330  0.04128165       0.028
   0.12384495  0.08256330  0.04128165       0.014
   0.10320412  0.10320412  0.04128165       0.014
   0.12384495  0.10320412  0.04128165       0.014
   0.12384495  0.12384495  0.04128165       0.003
   0.06192247  0.06192247  0.06192247       0.005
   0.08256330  0.06192247  0.06192247       0.014
   0.10320412  0.06192247  0.06192247       0.014
   0.12384495  0.06192247  0.06192247       0.007
   0.08256330  0.08256330  0.06192247       0.014
   0.10320412  0.08256330  0.06192247       0.028
   0.12384495  0.08256330  0.06192247       0.014
   0.10320412  0.10320412  0.06192247       0.014
   0.12384495  0.10320412  0.06192247       0.014
   0.12384495  0.12384495  0.06192247       0.003
   0.08256330  0.08256330  0.08256330       0.005
   0.10320412  0.08256330  0.08256330       0.014
   0.12384495  0.08256330  0.08256330       0.007
   0.10320412  0.10320412  0.08256330       0.014
   0.12384495  0.10320412  0.08256330       0.014
   0.12384495  0.12384495  0.08256330       0.003
   0.10320412  0.10320412  0.10320412       0.005
   0.12384495  0.10320412  0.10320412       0.007
   0.12384495  0.12384495  0.10320412       0.003
   0.12384495  0.12384495  0.12384495       0.001
 
 k-points in reciprocal lattice and weights: Automatic mesh                          
   0.00000000  0.00000000  0.00000000       0.001
   0.08333333  0.00000000  0.00000000       0.003
   0.16666667  0.00000000  0.00000000       0.003
   0.25000000  0.00000000  0.00000000       0.003
   0.33333333  0.00000000  0.00000000       0.003
   0.41666667  0.00000000  0.00000000       0.003
   0.50000000  0.00000000  0.00000000       0.002
   0.08333333  0.08333333  0.00000000       0.007
   0.16666667  0.08333333  0.00000000       0.014
   0.25000000  0.08333333  0.00000000       0.014
   0.33333333  0.08333333  0.00000000       0.014
   0.41666667  0.08333333  0.00000000       0.014
   0.50000000  0.08333333  0.00000000       0.007
   0.16666667  0.16666667  0.00000000       0.007
   0.25000000  0.16666667  0.00000000       0.014
   0.33333333  0.16666667  0.00000000       0.014
   0.41666667  0.16666667  0.00000000       0.014
   0.50000000  0.16666667  0.00000000       0.007
   0.25000000  0.25000000  0.00000000       0.007
   0.33333333  0.25000000  0.00000000       0.014
   0.41666667  0.25000000  0.00000000       0.014
   0.50000000  0.25000000  0.00000000       0.007
   0.33333333  0.33333333  0.00000000       0.007
   0.41666667  0.33333333  0.00000000       0.014
   0.50000000  0.33333333  0.00000000       0.007
   0.41666667  0.41666667  0.00000000       0.007
   0.50000000  0.41666667  0.00000000       0.007
   0.50000000  0.50000000  0.00000000       0.002
   0.08333333  0.08333333  0.08333333       0.005
   0.16666667  0.08333333  0.08333333       0.014
   0.25000000  0.08333333  0.08333333       0.014
   0.33333333  0.08333333  0.08333333       0.014
   0.41666667  0.08333333  0.08333333       0.014
   0.50000000  0.08333333  0.08333333       0.007
   0.16666667  0.16666667  0.08333333       0.014
   0.25000000  0.16666667  0.08333333       0.028
   0.33333333  0.16666667  0.08333333       0.028
   0.41666667  0.16666667  0.08333333       0.028
   0.50000000  0.16666667  0.08333333       0.014
   0.25000000  0.25000000  0.08333333       0.014
   0.33333333  0.25000000  0.08333333       0.028
   0.41666667  0.25000000  0.08333333       0.028
   0.50000000  0.25000000  0.08333333       0.014
   0.33333333  0.33333333  0.08333333       0.014
   0.41666667  0.33333333  0.08333333       0.028
   0.50000000  0.33333333  0.08333333       0.014
   0.41666667  0.41666667  0.08333333       0.014
   0.50000000  0.41666667  0.08333333       0.014
   0.50000000  0.50000000  0.08333333       0.003
   0.16666667  0.16666667  0.16666667       0.005
   0.25000000  0.16666667  0.16666667       0.014
   0.33333333  0.16666667  0.16666667       0.014
   0.41666667  0.16666667  0.16666667       0.014
   0.50000000  0.16666667  0.16666667       0.007
   0.25000000  0.25000000  0.16666667       0.014
   0.33333333  0.25000000  0.16666667       0.028
   0.41666667  0.25000000  0.16666667       0.028
   0.50000000  0.25000000  0.16666667       0.014
   0.33333333  0.33333333  0.16666667       0.014
   0.41666667  0.33333333  0.16666667       0.028
   0.50000000  0.33333333  0.16666667       0.014
   0.41666667  0.41666667  0.16666667       0.014
   0.50000000  0.41666667  0.16666667       0.014
   0.50000000  0.50000000  0.16666667       0.003
   0.25000000  0.25000000  0.25000000       0.005
   0.33333333  0.25000000  0.25000000       0.014
   0.41666667  0.25000000  0.25000000       0.014
   0.50000000  0.25000000  0.25000000       0.007
   0.33333333  0.33333333  0.25000000       0.014
   0.41666667  0.33333333  0.25000000       0.028
   0.50000000  0.33333333  0.25000000       0.014
   0.41666667  0.41666667  0.25000000       0.014
   0.50000000  0.41666667  0.25000000       0.014
   0.50000000  0.50000000  0.25000000       0.003
   0.33333333  0.33333333  0.33333333       0.005
   0.41666667  0.33333333  0.33333333       0.014
   0.50000000  0.33333333  0.33333333       0.007
   0.41666667  0.41666667  0.33333333       0.014
   0.50000000  0.41666667  0.33333333       0.014
   0.50000000  0.50000000  0.33333333       0.003
   0.41666667  0.41666667  0.41666667       0.005
   0.50000000  0.41666667  0.41666667       0.007
   0.50000000  0.50000000  0.41666667       0.003
   0.50000000  0.50000000  0.50000000       0.001
 
 position of ions in fractional coordinates (direct lattice) 
   0.50000000  0.50000000  0.00000000
   0.50000000  0.00000000  0.50000000
   0.00000000  0.50000000  0.50000000
   0.00000000  0.00000000  0.00000000
 
 position of ions in cartesian coordinates  (Angst):
   2.11958584  2.11958584  0.00000000
   2.11958584  0.00000000  2.11958584
   0.00000000  2.11958584  2.11958584
   0.00000000  0.00000000  0.00000000
 


--------------------------------------------------------------------------------------------------------


 k-point  1 :  0.00000.00000.0000  plane waves:   3575
 k-point  2 :  0.08330.00000.0000  plane waves:   3587
 k-point  3 :  0.16670.00000.0000  plane waves:   3555
 k-point  4 :  0.25000.00000.0000  plane waves:   3575
 k-point  5 :  0.33330.00000.0000  plane waves:   3555
 k-point  6 :  0.41670.00000.0000  plane waves:   3547
 k-point  7 :  0.50000.00000.0000  plane waves:   3546
 k-point  8 :  0.08330.08330.0000  plane waves:   3569
 k-point  9 :  0.16670.08330.0000  plane waves:   3580
 k-point 10 :  0.25000.08330.0000  plane waves:   3569
 k-point 11 :  0.33330.08330.0000  plane waves:   3554
 k-point 12 :  0.41670.08330.0000  plane waves:   3540
 k-point 13 :  0.50000.08330.0000  plane waves:   3538
 k-point 14 :  0.16670.16670.0000  plane waves:   3571
 k-point 15 :  0.25000.16670.0000  plane waves:   3567
 k-point 16 :  0.33330.16670.0000  plane waves:   3565
 k-point 17 :  0.41670.16670.0000  plane waves:   3553
 k-point 18 :  0.50000.16670.0000  plane waves:   3548
 k-point 19 :  0.25000.25000.0000  plane waves:   3553
 k-point 20 :  0.33330.25000.0000  plane waves:   3557
 k-point 21 :  0.41670.25000.0000  plane waves:   3549
 k-point 22 :  0.50000.25000.0000  plane waves:   3552
 k-point 23 :  0.33330.33330.0000  plane waves:   3564
 k-point 24 :  0.41670.33330.0000  plane waves:   3540
 k-point 25 :  0.50000.33330.0000  plane waves:   3536
 k-point 26 :  0.41670.41670.0000  plane waves:   3546
 k-point 27 :  0.50000.41670.0000  plane waves:   3554
 k-point 28 :  0.50000.50000.0000  plane waves:   3556
 k-point 29 :  0.08330.08330.0833  plane waves:   3584
 k-point 30 :  0.16670.08330.0833  plane waves:   3583
 k-point 31 :  0.25000.08330.0833  plane waves:   3571
 k-point 32 :  0.33330.08330.0833  plane waves:   3558
 k-point 33 :  0.41670.08330.0833  plane waves:   3547
 k-point 34 :  0.50000.08330.0833  plane waves:   3548
 k-point 35 :  0.16670.16670.0833  plane waves:   3573
 k-point 36 :  0.25000.16670.0833  plane waves:   3571
 k-point 37 :  0.33330.16670.0833  plane waves:   3560
 k-point 38 :  0.41670.16670.0833  plane waves:   3551
 k-point 39 :  0.50000.16670.0833  plane waves:   3536
 k-point 40 :  0.25000.25000.0833  plane waves:   3555
 k-point 41 :  0.33330.25000.0833  plane waves:   3550
 k-point 42 :  0.41670.25000.0833  plane waves:   3558
 k-point 43 :  0.50000.25000.0833  plane waves:   3542
 k-point 44 :  0.33330.33330.0833  plane waves:   3547
 k-point 45 :  0.41670.33330.0833  plane waves:   3542
 k-point 46 :  0.50000.33330.0833  plane waves:   3546
 k-point 47 :  0.41670.41670.0833  plane waves:   3547
 k-point 48 :  0.50000.41670.0833  plane waves:   3558
 k-point 49 :  0.50000.50000.0833  plane waves:   3556
 k-point 50 :  0.16670.16670.1667  plane waves:   3596
 k-point 51 :  0.25000.16670.1667  plane waves:   3561
 k-point 52 :  0.33330.16670.1667  plane waves:   3551
 k-point 53 :  0.41670.16670.1667  plane waves:   3545
 k-point 54 :  0.50000.16670.1667  plane waves:   3518
 k-point 55 :  0.25000.25000.1667  plane waves:   3556
 k-point 56 :  0.33330.25000.1667  plane waves:   3555
 k-point 57 :  0.41670.25000.1667  plane waves:   3555
 k-point 58 :  0.50000.25000.1667  plane waves:   3540
 k-point 59 :  0.33330.33330.1667  plane waves:   3561
 k-point 60 :  0.41670.33330.1667  plane waves:   3544
 k-point 61 :  0.50000.33330.1667  plane waves:   3538
 k-point 62 :  0.41670.41670.1667  plane waves:   3544
 k-point 63 :  0.50000.41670.1667  plane waves:   3542
 k-point 64 :  0.50000.50000.1667  plane waves:   3556
 k-point 65 :  0.25000.25000.2500  plane waves:   3560
 k-point 66 :  0.33330.25000.2500  plane waves:   3552
 k-point 67 :  0.41670.25000.2500  plane waves:   3543
 k-point 68 :  0.50000.25000.2500  plane waves:   3548
 k-point 69 :  0.33330.33330.2500  plane waves:   3545
 k-point 70 :  0.41670.33330.2500  plane waves:   3550
 k-point 71 :  0.50000.33330.2500  plane waves:   3548
 k-point 72 :  0.41670.41670.2500  plane waves:   3557
 k-point 73 :  0.50000.41670.2500  plane waves:   3548
 k-point 74 :  0.50000.50000.2500  plane waves:   3556
 k-point 75 :  0.33330.33330.3333  plane waves:   3554
 k-point 76 :  0.41670.33330.3333  plane waves:   3552
 k-point 77 :  0.50000.33330.3333  plane waves:   3562
 k-point 78 :  0.41670.41670.3333  plane waves:   3543
 k-point 79 :  0.50000.41670.3333  plane waves:   3540
 k-point 80 :  0.50000.50000.3333  plane waves:   3520
 k-point 81 :  0.41670.41670.4167  plane waves:   3551
 k-point 82 :  0.50000.41670.4167  plane waves:   3540
 k-point 83 :  0.50000.50000.4167  plane waves:   3532
 k-point 84 :  0.50000.50000.5000  plane waves:   3544

 maximum and minimum number of plane-waves per node :   3596  3518

 maximum number of plane-waves:   3596
 maximal index in each direction: 
   IXMAX=  9   IYMAX=  9   IZMAX=  9
   IXMIN= -9   IYMIN= -9   IZMIN= -9

 NGX is ok and might be reduce to  38
 NGY is ok and might be reduce to  38
 NGZ is ok and might be reduce to  38

 parallel 3dFFT wavefunction:
    minimum data exchange during FFTs selected (reduces bandwidth)
 parallel 3dFFT charge:
    minimum data exchange during FFTs selected (reduces bandwidth)

 For storing wavefunctions   57.31 MBYTES are necessary
 For predicting wavefunctions    2.68 MBYTES are necessary
Broyden mixing: mesh for mixing (old mesh)
   NGX = 19   NGY = 19   NGZ = 19
  (NGX  = 80   NGY  = 80   NGZ  = 80)
 gives a total of   6859 points
 initial charge density was supplied:
 charge density of overlapping atoms calculated
 number of electron   12.0000000 magnetization 
 keeping initial charge density in first step


--------------------------------------------------------------------------------------------------------


 Maximum index for augmentation-charges        63427 (set IRDMAX)


--------------------------------------------------------------------------------------------------------


 First call to EWALD:  gamma=   0.418
 Maximum number of real-space cells 3x 3x 3
 Maximum number of reciprocal cells 3x 3x 3

    FEWALD:  VPU time    0.00: CPU time    0.00


----------------------------------------- Iteration    1(   1)  ---------------------------------------


    POTLOK:  VPU time    0.12: CPU time    0.12
    SETDIJ:  VPU time    0.11: CPU time    0.11
    EDDAV :  VPU time    3.15: CPU time    3.17
    DOS   :  VPU time    0.00: CPU time   -0.00
    ------------------------------------------
      LOOP:  VPU time    3.38: CPU time    3.40

 eigenvalue-minimisations  :  2016
 total energy-change (2. order) : 0.1052741E+02  (-0.5142237E+03)
 number of electron   12.0000000 magnetization 
 augmentation part    12.0000000 magnetization 

 Free energy of the ion-electron system (eV)
  ---------------------------------------------------
  alpha Z        PSCENC =        -0.70544419
  Ewald energy   TEWEN  =      -280.33275957
  -1/2 Hartree   DENC   =        -0.71337382
  -V(xc)+E(xc)   XCENC  =      -105.96154836
  PAW double counting   =       142.21701965      -14.39593217
  entropy T*S    EENTRO =        -0.00013011
  eigenvalues    EBANDS =        56.26518960
  atomic energy  EATOM  =       214.15438658
  ---------------------------------------------------
  free energy    TOTEN  =        10.52740761 eV

  energy without entropy =       10.52753772  energy(sigma->0) =       10.52747267


--------------------------------------------------------------------------------------------------------




----------------------------------------- Iteration    1(   2)  ---------------------------------------


    EDDAV :  VPU time    3.51: CPU time    3.52
    DOS   :  VPU time    0.00: CPU time   -0.00
    ------------------------------------------
      LOOP:  VPU time    3.52: CPU time    3.52

 eigenvalue-minimisations  :  2448
 total energy-change (2. order) :-0.2439644E+02  (-0.2291618E+02)
 number of electron   12.0000000 magnetization 
 augmentation part    12.0000000 magnetization 

 Free energy of the ion-electron system (eV)
  ---------------------------------------------------
  alpha Z        PSCENC =        -0.70544419
  Ewald energy   TEWEN  =      -280.33275957
  -1/2 Hartree   DENC   =        -0.71337382
  -V(xc)+E(xc)   XCENC  =      -105.96154836
  PAW double counting   =       142.21701965      -14.39593217
  entropy T*S    EENTRO =        -0.00004409
  eigenvalues    EBANDS =        31.86865980
  atomic energy  EATOM  =       214.15438658
  ---------------------------------------------------
  free energy    TOTEN  =       -13.86903616 eV

  energy without entropy =      -13.86899207  energy(sigma->0) =      -13.86901412


--------------------------------------------------------------------------------------------------------




----------------------------------------- Iteration    1(   3)  ---------------------------------------


    EDDAV :  VPU time    3.27: CPU time    3.27
    DOS   :  VPU time    0.00: CPU time   -0.00
    ------------------------------------------
      LOOP:  VPU time    3.27: CPU time    3.28

 eigenvalue-minimisations  :  2676
 total energy-change (2. order) :-0.8861418E+00  (-0.8605981E+00)
 number of electron   12.0000000 magnetization 
 augmentation part    12.0000000 magnetization 

 Free energy of the ion-electron system (eV)
  ---------------------------------------------------
  alpha Z        PSCENC =        -0.70544419
  Ewald energy   TEWEN  =      -280.33275957
  -1/2 Hartree   DENC   =        -0.71337382
  -V(xc)+E(xc)   XCENC  =      -105.96154836
  PAW double counting   =       142.21701965      -14.39593217
  entropy T*S    EENTRO =        -0.00010788
  eigenvalues    EBANDS =        30.98258177
  atomic energy  EATOM  =       214.15438658
  ---------------------------------------------------
  free energy    TOTEN  =       -14.75517797 eV

  energy without entropy =      -14.75507010  energy(sigma->0) =      -14.75512404


--------------------------------------------------------------------------------------------------------




----------------------------------------- Iteration    1(   4)  ---------------------------------------


    EDDAV :  VPU time    2.29: CPU time    2.29
    DOS   :  VPU time    0.00: CPU time   -0.00
    ------------------------------------------
      LOOP:  VPU time    2.29: CPU time    2.29

 eigenvalue-minimisations  :  2324
 total energy-change (2. order) :-0.8993350E-02  (-0.8987176E-02)
 number of electron   12.0000000 magnetization 
 augmentation part    12.0000000 magnetization 

 Free energy of the ion-electron system (eV)
  ---------------------------------------------------
  alpha Z        PSCENC =        -0.70544419
  Ewald energy   TEWEN  =      -280.33275957
  -1/2 Hartree   DENC   =        -0.71337382
  -V(xc)+E(xc)   XCENC  =      -105.96154836
  PAW double counting   =       142.21701965      -14.39593217
  entropy T*S    EENTRO =        -0.00009338
  eigenvalues    EBANDS =        30.97357392
  atomic energy  EATOM  =       214.15438658
  ---------------------------------------------------
  free energy    TOTEN  =       -14.76417133 eV

  energy without entropy =      -14.76407795  energy(sigma->0) =      -14.76412464


--------------------------------------------------------------------------------------------------------




----------------------------------------- Iteration    1(   5)  ---------------------------------------


    EDDAV :  VPU time    2.41: CPU time    2.41
    DOS   :  VPU time    0.00: CPU time   -0.00
    CHARGE:  VPU time    0.23: CPU time    0.23
    MIXING:  VPU time    0.00: CPU time    0.00
    ------------------------------------------
      LOOP:  VPU time    2.64: CPU time    2.65

 eigenvalue-minimisations  :  2504
 total energy-change (2. order) :-0.8888308E-04  (-0.8888171E-04)
 number of electron   12.0000000 magnetization 
 augmentation part    -0.1625413 magnetization 

 Broyden mixing:
  rms(total) = 0.17337E+00    rms(broyden)= 0.17337E+00
  rms(prec ) = 0.40869E+00
  weight for this iteration     100.00

 Free energy of the ion-electron system (eV)
  ---------------------------------------------------
  alpha Z        PSCENC =        -0.70544419
  Ewald energy   TEWEN  =      -280.33275957
  -1/2 Hartree   DENC   =        -0.71337382
  -V(xc)+E(xc)   XCENC  =      -105.96154836
  PAW double counting   =       142.21701965      -14.39593217
  entropy T*S    EENTRO =        -0.00009332
  eigenvalues    EBANDS =        30.97348498
  atomic energy  EATOM  =       214.15438658
  ---------------------------------------------------
  free energy    TOTEN  =       -14.76426021 eV

  energy without entropy =      -14.76416689  energy(sigma->0) =      -14.76421355


--------------------------------------------------------------------------------------------------------




----------------------------------------- Iteration    1(   6)  ---------------------------------------


    POTLOK:  VPU time    0.09: CPU time    0.09
    SETDIJ:  VPU time    0.08: CPU time    0.08
    EDDAV :  VPU time    2.23: CPU time    2.24
    DOS   :  VPU time    0.00: CPU time   -0.00
    CHARGE:  VPU time    0.22: CPU time    0.22
    MIXING:  VPU time    0.00: CPU time    0.00
    ------------------------------------------
      LOOP:  VPU time    2.63: CPU time    2.64

 eigenvalue-minimisations  :  2260
 total energy-change (2. order) : 0.4832853E-01  (-0.8913368E-03)
 number of electron   12.0000000 magnetization 
 augmentation part    -0.1652374 magnetization 

 Broyden mixing:
  rms(total) = 0.10737E+00    rms(broyden)= 0.10737E+00
  rms(prec ) = 0.25445E+00
  weight for this iteration     100.00

 eigenvalues of (default mixing * dielectric matrix)
  average eigenvalue GAMMA=   2.6165
  2.6165

 Free energy of the ion-electron system (eV)
  ---------------------------------------------------
  alpha Z        PSCENC =        -0.70544419
  Ewald energy   TEWEN  =      -280.33275957
  -1/2 Hartree   DENC   =        -0.53205131
  -V(xc)+E(xc)   XCENC  =      -105.86685689
  PAW double counting   =       141.75425653      -13.91607192
  entropy T*S    EENTRO =        -0.00008802
  eigenvalues    EBANDS =        30.72869709
  atomic energy  EATOM  =       214.15438658
  ---------------------------------------------------
  free energy    TOTEN  =       -14.71593168 eV

  energy without entropy =      -14.71584367  energy(sigma->0) =      -14.71588768


--------------------------------------------------------------------------------------------------------




----------------------------------------- Iteration    1(   7)  ---------------------------------------


    POTLOK:  VPU time    0.09: CPU time    0.09
    SETDIJ:  VPU time    0.08: CPU time    0.08
    EDDAV :  VPU time    2.18: CPU time    2.18
    DOS   :  VPU time    0.00: CPU time   -0.00
    CHARGE:  VPU time    0.22: CPU time    0.23
    MIXING:  VPU time    0.00: CPU time    0.00
    ------------------------------------------
      LOOP:  VPU time    2.58: CPU time    2.58

 eigenvalue-minimisations  :  2164
 total energy-change (2. order) : 0.3459485E-01  (-0.2649948E-02)
 number of electron   12.0000000 magnetization 
 augmentation part    -0.1701801 magnetization 

 Broyden mixing:
  rms(total) = 0.49343E-02    rms(broyden)= 0.49343E-02
  rms(prec ) = 0.80522E-02
  weight for this iteration     100.00

 eigenvalues of (default mixing * dielectric matrix)
  average eigenvalue GAMMA=   2.5295
  2.5295  2.5295

 Free energy of the ion-electron system (eV)
  ---------------------------------------------------
  alpha Z        PSCENC =        -0.70544419
  Ewald energy   TEWEN  =      -280.33275957
  -1/2 Hartree   DENC   =        -0.40216873
  -V(xc)+E(xc)   XCENC  =      -105.66063569
  PAW double counting   =       141.08945393      -13.23146017
  entropy T*S    EENTRO =        -0.00007264
  eigenvalues    EBANDS =        30.40736365
  atomic energy  EATOM  =       214.15438658
  ---------------------------------------------------
  free energy    TOTEN  =       -14.68133683 eV

  energy without entropy =      -14.68126419  energy(sigma->0) =      -14.68130051


--------------------------------------------------------------------------------------------------------




----------------------------------------- Iteration    1(   8)  ---------------------------------------


    POTLOK:  VPU time    0.09: CPU time    0.09
    SETDIJ:  VPU time    0.08: CPU time    0.08
    EDDAV :  VPU time    2.39: CPU time    2.39
    DOS   :  VPU time    0.00: CPU time   -0.00
    CHARGE:  VPU time    0.23: CPU time    0.23
    MIXING:  VPU time    0.00: CPU time    0.00
    ------------------------------------------
      LOOP:  VPU time    2.79: CPU time    2.79

 eigenvalue-minimisations  :  2464
 total energy-change (2. order) : 0.1860732E-04  (-0.1632452E-04)
 number of electron   12.0000000 magnetization 
 augmentation part    -0.1703467 magnetization 

 Broyden mixing:
  rms(total) = 0.12708E-02    rms(broyden)= 0.12708E-02
  rms(prec ) = 0.27440E-02
  weight for this iteration     100.00

 eigenvalues of (default mixing * dielectric matrix)
  average eigenvalue GAMMA=   2.0612
  0.9570  2.6756  2.5511

 Free energy of the ion-electron system (eV)
  ---------------------------------------------------
  alpha Z        PSCENC =        -0.70544419
  Ewald energy   TEWEN  =      -280.33275957
  -1/2 Hartree   DENC   =        -0.41040245
  -V(xc)+E(xc)   XCENC  =      -105.65610981
  PAW double counting   =       141.28507442      -13.43926087
  entropy T*S    EENTRO =        -0.00007238
  eigenvalues    EBANDS =        30.42327003
  atomic energy  EATOM  =       214.15438658
  ---------------------------------------------------
  free energy    TOTEN  =       -14.68131822 eV

  energy without entropy =      -14.68124585  energy(sigma->0) =      -14.68128204


--------------------------------------------------------------------------------------------------------




----------------------------------------- Iteration    1(   9)  ---------------------------------------


    POTLOK:  VPU time    0.09: CPU time    0.09
    SETDIJ:  VPU time    0.08: CPU time    0.08
    EDDAV :  VPU time    2.33: CPU time    2.34
    DOS   :  VPU time    0.00: CPU time   -0.00
    CHARGE:  VPU time    0.22: CPU time    0.23
    MIXING:  VPU time    0.00: CPU time    0.00
    ------------------------------------------
      LOOP:  VPU time    2.74: CPU time    2.74

 eigenvalue-minimisations  :  2376
 total energy-change (2. order) :-0.2454760E-05  (-0.4454769E-06)
 number of electron   12.0000000 magnetization 
 augmentation part    -0.1704576 magnetization 

 Broyden mixing:
  rms(total) = 0.14314E-03    rms(broyden)= 0.14314E-03
  rms(prec ) = 0.22090E-03
  weight for this iteration     100.00

 eigenvalues of (default mixing * dielectric matrix)
  average eigenvalue GAMMA=   2.0838
  1.0067  2.6080  2.6080  2.1124

 Free energy of the ion-electron system (eV)
  ---------------------------------------------------
  alpha Z        PSCENC =        -0.70544419
  Ewald energy   TEWEN  =      -280.33275957
  -1/2 Hartree   DENC   =        -0.41296924
  -V(xc)+E(xc)   XCENC  =      -105.65188359
  PAW double counting   =       141.32947821      -13.48705428
  entropy T*S    EENTRO =        -0.00007213
  eigenvalues    EBANDS =        30.42499753
  atomic energy  EATOM  =       214.15438658
  ---------------------------------------------------
  free energy    TOTEN  =       -14.68132068 eV

  energy without entropy =      -14.68124855  energy(sigma->0) =      -14.68128461


--------------------------------------------------------------------------------------------------------




----------------------------------------- Iteration    1(  10)  ---------------------------------------


    POTLOK:  VPU time    0.09: CPU time    0.09
    SETDIJ:  VPU time    0.08: CPU time    0.08
    EDDAV :  VPU time    2.46: CPU time    2.46
    DOS   :  VPU time    0.00: CPU time   -0.00
    CHARGE:  VPU time    0.22: CPU time    0.22
    MIXING:  VPU time    0.00: CPU time    0.00
    ------------------------------------------
      LOOP:  VPU time    2.86: CPU time    2.86

 eigenvalue-minimisations  :  2568
 total energy-change (2. order) : 0.1569976E-05  (-0.6878677E-08)
 number of electron   12.0000000 magnetization 
 augmentation part    -0.1704607 magnetization 

 Broyden mixing:
  rms(total) = 0.32231E-04    rms(broyden)= 0.32231E-04
  rms(prec ) = 0.69923E-04
  weight for this iteration     100.00

 eigenvalues of (default mixing * dielectric matrix)
  average eigenvalue GAMMA=   1.9836
  2.7373  2.7373  2.4691  1.0190  0.9552

 Free energy of the ion-electron system (eV)
  ---------------------------------------------------
  alpha Z        PSCENC =        -0.70544419
  Ewald energy   TEWEN  =      -280.33275957
  -1/2 Hartree   DENC   =        -0.41299434
  -V(xc)+E(xc)   XCENC  =      -105.65195972
  PAW double counting   =       141.31162470      -13.46850295
  entropy T*S    EENTRO =        -0.00007212
  eigenvalues    EBANDS =        30.42440249
  atomic energy  EATOM  =       214.15438658
  ---------------------------------------------------
  free energy    TOTEN  =       -14.68131911 eV

  energy without entropy =      -14.68124699  energy(sigma->0) =      -14.68128305


--------------------------------------------------------------------------------------------------------




----------------------------------------- Iteration    1(  11)  ---------------------------------------


    POTLOK:  VPU time    0.09: CPU time    0.09
    SETDIJ:  VPU time    0.08: CPU time    0.08
    EDDAV :  VPU time    1.75: CPU time    1.75
    DOS   :  VPU time    0.00: CPU time   -0.00
    CHARGE:  VPU time    0.23: CPU time    0.23
    MIXING:  VPU time    0.00: CPU time    0.00
    ------------------------------------------
      LOOP:  VPU time    2.16: CPU time    2.16

 eigenvalue-minimisations  :  1528
 total energy-change (2. order) : 0.1201693E-06  (-0.1255348E-09)
 number of electron   12.0000000 magnetization 
 augmentation part    -0.1704619 magnetization 

 Broyden mixing:
  rms(total) = 0.36651E-05    rms(broyden)= 0.36650E-05
  rms(prec ) = 0.43626E-05
  weight for this iteration     100.00

 eigenvalues of (default mixing * dielectric matrix)
  average eigenvalue GAMMA=   2.0190
  1.0053  1.0053  2.6420  2.6420  2.4097  2.4097

 Free energy of the ion-electron system (eV)
  ---------------------------------------------------
  alpha Z        PSCENC =        -0.70544419
  Ewald energy   TEWEN  =      -280.33275957
  -1/2 Hartree   DENC   =        -0.41308032
  -V(xc)+E(xc)   XCENC  =      -105.65190722
  PAW double counting   =       141.30800343      -13.46478460
  entropy T*S    EENTRO =        -0.00007211
  eigenvalues    EBANDS =        30.42433901
  atomic energy  EATOM  =       214.15438658
  ---------------------------------------------------
  free energy    TOTEN  =       -14.68131899 eV

  energy without entropy =      -14.68124688  energy(sigma->0) =      -14.68128293


--------------------------------------------------------------------------------------------------------




----------------------------------------- Iteration    1(  12)  ---------------------------------------


    POTLOK:  VPU time    0.09: CPU time    0.09
    SETDIJ:  VPU time    0.08: CPU time    0.08
    EDDAV :  VPU time    1.69: CPU time    1.69
    DOS   :  VPU time    0.00: CPU time   -0.00
    CHARGE:  VPU time    0.23: CPU time    0.23
    MIXING:  VPU time    0.00: CPU time    0.00
    ------------------------------------------
      LOOP:  VPU time    2.10: CPU time    2.10

 eigenvalue-minimisations  :  1416
 total energy-change (2. order) :-0.4066715E-07  (-0.2599012E-10)
 number of electron   12.0000000 magnetization 
 augmentation part    -0.1704617 magnetization 

 Broyden mixing:
  rms(total) = 0.89941E-06    rms(broyden)= 0.89940E-06
  rms(prec ) = 0.18041E-05
  weight for this iteration     100.00

 eigenvalues of (default mixing * dielectric matrix)
  average eigenvalue GAMMA=   1.9145
  2.7153  2.7153  2.5929  2.4112  1.0044  1.0044  0.9580

 Free energy of the ion-electron system (eV)
  ---------------------------------------------------
  alpha Z        PSCENC =        -0.70544419
  Ewald energy   TEWEN  =      -280.33275957
  -1/2 Hartree   DENC   =        -0.41307915
  -V(xc)+E(xc)   XCENC  =      -105.65191028
  PAW double counting   =       141.30896373      -13.46577734
  entropy T*S    EENTRO =        -0.00007211
  eigenvalues    EBANDS =        30.42437331
  atomic energy  EATOM  =       214.15438658
  ---------------------------------------------------
  free energy    TOTEN  =       -14.68131903 eV

  energy without entropy =      -14.68124692  energy(sigma->0) =      -14.68128297


--------------------------------------------------------------------------------------------------------




----------------------------------------- Iteration    1(  13)  ---------------------------------------


    POTLOK:  VPU time    0.09: CPU time    0.09
    SETDIJ:  VPU time    0.08: CPU time    0.08
    EDDAV :  VPU time    1.63: CPU time    1.63
    DOS   :  VPU time    0.00: CPU time   -0.00
    ------------------------------------------
      LOOP:  VPU time    1.80: CPU time    1.81

 eigenvalue-minimisations  :  1316
 total energy-change (2. order) : 0.2296076E-08  (-0.3808293E-11)
 number of electron   12.0000000 magnetization 
 augmentation part    -0.1704617 magnetization 

 Free energy of the ion-electron system (eV)
  ---------------------------------------------------
  alpha Z        PSCENC =        -0.70544419
  Ewald energy   TEWEN  =      -280.33275957
  -1/2 Hartree   DENC   =        -0.41308063
  -V(xc)+E(xc)   XCENC  =      -105.65190965
  PAW double counting   =       141.30894658      -13.46575961
  entropy T*S    EENTRO =        -0.00007211
  eigenvalues    EBANDS =        30.42437356
  atomic energy  EATOM  =       214.15438658
  ---------------------------------------------------
  free energy    TOTEN  =       -14.68131903 eV

  energy without entropy =      -14.68124691  energy(sigma->0) =      -14.68128297


--------------------------------------------------------------------------------------------------------




 average (electrostatic) potential at core
  the test charge radii are     1.0406
  (the norm of the test charge is              1.0000)
       1 -74.2334       2 -74.2334       3 -74.2334       4 -74.2334
 
 
 
 E-fermi :   6.6014     XC(G=0):  -9.6882     alpha+bet :-12.8884
   add alpha+bet to get absolut eigen values

 k-point   1 :       0.0000    0.0000    0.0000
  band No.  band energies     occupation 
      1      -3.5984      2.00000
      2       4.0040      2.00000
      3       4.0040      2.00000
      4       4.0040      2.00000
      5       4.9682      2.00000
      6       4.9682      2.00000
      7       4.9682      2.00000
      8      11.5512      0.00000
      9      11.5512      0.00000
     10      11.5512      0.00000
     11      11.5512      0.00000
     12      11.5512      0.00000

 k-point   2 :       0.0833    0.0000    0.0000
  band No.  band energies     occupation 
      1      -3.5412      2.00000
      2       3.1337      2.00000
      3       4.0571      2.00000
      4       4.0571      2.00000
      5       5.0245      2.00000
      6       5.0245      2.00000
      7       5.9391      2.00000
      8      10.4434      0.00000
      9      10.4434      0.00000
     10      11.1171      0.00000
     11      11.1171      0.00000
     12      11.6009      0.00000

 k-point   3 :       0.1667    0.0000    0.0000
  band No.  band energies     occupation 
      1      -3.3697      2.00000
      2       2.0113      2.00000
      3       4.2164      2.00000
      4       4.2164      2.00000
      5       5.1931      2.00000
      6       5.1931      2.00000
      7       7.3631      0.00000
      8       9.3266      0.00000
      9       9.3266      0.00000
     10      10.2556      0.00000
     11      10.2556      0.00000
     12      11.7502      0.00000

 k-point   4 :       0.2500    0.0000    0.0000
  band No.  band energies     occupation 
      1      -3.0844      2.00000
      2       0.9663      2.00000
      3       4.4821      2.00000
      4       4.4821      2.00000
      5       5.4731      2.00000
      6       5.4731      2.00000
      7       8.3145      0.00000
      8       8.3145      0.00000
      9       8.9090      0.00000
     10       9.3363      0.00000
     11       9.3363      0.00000
     12      11.9991      0.00000

 k-point   5 :       0.3333    0.0000    0.0000
  band No.  band energies     occupation 
      1      -2.6857      2.00000
      2       0.0207      2.00000
      3       4.8541      2.00000
      4       4.8541      2.00000
      5       5.8631      2.00000
      6       5.8631      2.00000
      7       7.4088      0.00000
      8       7.4088      0.00000
      9       8.4625      0.00000
     10       8.4625      0.00000
     11      10.5519      0.00000
     12      12.3476      0.00000

 k-point   6 :       0.4167    0.0000    0.0000
  band No.  band energies     occupation 
      1      -2.1746      2.00000
      2      -0.8197      2.00000
      3       5.3327      2.00000
      4       5.3327      2.00000
      5       6.3608      2.00000
      6       6.3608      2.00000
      7       6.6100      0.22659
      8       6.6100      0.22659
      9       7.6673      0.00000
     10       7.6673      0.00000
     11      12.2789      0.00000
     12      12.7956      0.00000

 k-point   7 :       0.5000    0.0000    0.0000
  band No.  band energies     occupation 
      1      -1.5521      2.00000
      2      -1.5521      2.00000
      3       5.9179      2.00000
      4       5.9179      2.00000
      5       5.9179      2.00000
      6       5.9179      2.00000
      7       6.9400      0.00000
      8       6.9400      0.00000
      9       6.9880      0.00000
     10       6.9880      0.00000
     11      13.3430      0.00000
     12      13.3430      0.00000

 k-point   8 :       0.0833    0.0833    0.0000
  band No.  band energies     occupation 
      1      -3.4840      2.00000
      2       3.1882      2.00000
      3       3.1882      2.00000
      4       4.1102      2.00000
      5       5.0807      2.00000
      6       5.9940      2.00000
      7       5.9940      2.00000
      8       9.5806      0.00000
      9      10.4962      0.00000
     10      10.4962      0.00000
     11      11.1678      0.00000
     12      11.1678      0.00000

 k-point   9 :       0.1667    0.0833    0.0000
  band No.  band energies     occupation 
      1      -3.3126      2.00000
      2       2.0664      2.00000
      3       3.3517      2.00000
      4       4.2695      2.00000
      5       5.2491      2.00000
      6       6.1583      2.00000
      7       7.4171      0.00000
      8       8.5040      0.00000
      9       9.3796      0.00000
     10      10.3075      0.00000
     11      10.6546      0.00000
     12      11.1135      0.00000

 k-point  10 :       0.2500    0.0833    0.0000
  band No.  band energies     occupation 
      1      -3.0274      2.00000
      2       1.0219      2.00000
      3       3.6238      2.00000
      4       4.5352      2.00000
      5       5.5289      2.00000
      6       6.4315      2.00000
      7       7.5016      0.00000
      8       8.3676      0.00000
      9       8.9623      0.00000
     10       9.3891      0.00000
     11      10.2293      0.00000
     12      10.9184      0.00000

 k-point  11 :       0.3333    0.0833    0.0000
  band No.  band energies     occupation 
      1      -2.6289      2.00000
      2       0.0766      2.00000
      3       4.0042      2.00000
      4       4.9073      2.00000
      5       5.9182      2.00000
      6       6.5949      1.64357
      7       6.8127      0.00000
      8       7.4620      0.00000
      9       8.5161      0.00000
     10       9.3682      0.00000
     11      10.6042      0.00000
     12      11.2871      0.00000

 k-point  12 :       0.4167    0.0833    0.0000
  band No.  band energies     occupation 
      1      -2.1180      2.00000
      2      -0.7635      2.00000
      3       4.4924      2.00000
      4       5.3859      2.00000
      5       5.7881      2.00000
      6       6.4171      2.00000
      7       6.6631      0.00000
      8       7.2999      0.00000
      9       7.7217      0.00000
     10       8.5838      0.00000
     11      11.7602      0.00000
     12      12.3084      0.00000

 k-point  13 :       0.5000    0.0833    0.0000
  band No.  band energies     occupation 
      1      -1.4957      2.00000
      2      -1.4957      2.00000
      3       5.0875      2.00000
      4       5.0875      2.00000
      5       5.9711      2.00000
      6       5.9711      2.00000
      7       7.0187      0.00000
      8       7.0187      0.00000
      9       7.8923      0.00000
     10       7.8923      0.00000
     11      12.3367      0.00000
     12      12.3367      0.00000

 k-point  14 :       0.1667    0.1667    0.0000
  band No.  band energies     occupation 
      1      -3.1415      2.00000
      2       2.2317      2.00000
      3       2.2317      2.00000
      4       4.4289      2.00000
      5       5.4171      2.00000
      6       7.4266      0.00000
      7       7.5791      0.00000
      8       7.5791      0.00000
      9       9.5387      0.00000
     10       9.5387      0.00000
     11      10.4629      0.00000
     12      10.4629      0.00000

 k-point  15 :       0.2500    0.1667    0.0000
  band No.  band energies     occupation 
      1      -2.8565      2.00000
      2       1.1884      2.00000
      3       2.5068      2.00000
      4       4.6946      2.00000
      5       5.6956      2.00000
      6       6.4195      2.00000
      7       7.8484      0.00000
      8       8.5270      0.00000
      9       9.1220      0.00000
     10       9.5473      0.00000
     11       9.8038      0.00000
     12      10.7214      0.00000

 k-point  16 :       0.3333    0.1667    0.0000
  band No.  band energies     occupation 
      1      -2.4584      2.00000
      2       0.2442      2.00000
      3       2.8914      2.00000
      4       5.0667      2.00000
      5       5.5039      2.00000
      6       6.0867      2.00000
      7       7.6215      0.00000
      8       8.2238      0.00000
      9       8.6767      0.00000
     10      10.1746      0.00000
     11      10.7223      0.00000
     12      10.7591      0.00000

 k-point  17 :       0.4167    0.1667    0.0000
  band No.  band energies     occupation 
      1      -1.9481      2.00000
      2      -0.5951      2.00000
      3       3.3846      2.00000
      4       4.6928      2.00000
      5       5.5454      2.00000
      6       6.5823      1.99313
      7       6.8227      0.00000
      8       7.8834      0.00000
      9       8.7044      0.00000
     10       9.9632      0.00000
     11      10.6507      0.00000
     12      11.5402      0.00000

 k-point  18 :       0.5000    0.1667    0.0000
  band No.  band energies     occupation 
      1      -1.3265      2.00000
      2      -1.3265      2.00000
      3       3.9855      2.00000
      4       3.9855      2.00000
      5       6.1306      2.00000
      6       6.1306      2.00000
      7       7.1830      0.00000
      8       7.1830      0.00000
      9       9.2859      0.00000
     10       9.2859      0.00000
     11      11.2317      0.00000
     12      11.2317      0.00000

 k-point  19 :       0.2500    0.2500    0.0000
  band No.  band energies     occupation 
      1      -2.5721      2.00000
      2       1.4656      2.00000
      3       1.4656      2.00000
      4       4.9604      2.00000
      5       5.4029      2.00000
      6       5.9762      2.00000
      7       8.7925      0.00000
      8       8.7925      0.00000
      9       9.3869      0.00000
     10       9.3869      0.00000
     11       9.8107      0.00000
     12       9.8107      0.00000

 k-point  20 :       0.3333    0.2500    0.0000
  band No.  band energies     occupation 
      1      -2.1748      2.00000
      2       0.5231      2.00000
      3       1.8530      2.00000
      4       4.4845      2.00000
      5       5.3325      2.00000
      6       6.3627      2.00000
      7       7.8873      0.00000
      8       8.9427      0.00000
      9       9.1642      0.00000
     10       9.7576      0.00000
     11      10.1755      0.00000
     12      11.0233      0.00000

 k-point  21 :       0.4167    0.2500    0.0000
  band No.  band energies     occupation 
      1      -1.6653      2.00000
      2      -0.3147      2.00000
      3       2.3498      2.00000
      4       3.6673      2.00000
      5       5.8112      2.00000
      6       6.8570      0.00000
      7       7.0886      0.00000
      8       8.1533      0.00000
      9       9.6417      0.00000
     10      10.2286      0.00000
     11      10.6437      0.00000
     12      10.9127      0.00000

 k-point  22 :       0.5000    0.2500    0.0000
  band No.  band energies     occupation 
      1      -1.0448      2.00000
      2      -1.0448      2.00000
      3       2.9550      2.00000
      4       2.9550      2.00000
      5       6.3965      2.00000
      6       6.3965      2.00000
      7       7.4555      0.00000
      8       7.4555      0.00000
      9      10.2247      0.00000
     10      10.2247      0.00000
     11      10.7959      0.00000
     12      10.7959      0.00000

 k-point  23 :       0.3333    0.3333    0.0000
  band No.  band energies     occupation 
      1      -1.7784      2.00000
      2       0.9128      2.00000
      3       0.9128      2.00000
      4       3.5600      2.00000
      5       5.7048      2.00000
      6       6.7479      0.00000
      7       8.2593      0.00000
      8       8.2593      0.00000
      9       9.3141      0.00000
     10       9.3141      0.00000
     11      10.8063      0.00000
     12      11.3839      0.00000

 k-point  24 :       0.4167    0.3333    0.0000
  band No.  band energies     occupation 
      1      -1.2702      2.00000
      2       0.0771      2.00000
      3       1.4126      2.00000
      4       2.7379      2.00000
      5       6.1835      2.00000
      6       7.2397      0.00000
      7       7.4608      0.00000
      8       8.5291      0.00000
      9       8.7375      0.00000
     10       9.7884      0.00000
     11      10.0115      0.00000
     12      11.0322      0.00000

 k-point  25 :       0.5000    0.3333    0.0000
  band No.  band energies     occupation 
      1      -0.6513      2.00000
      2      -0.6513      2.00000
      3       2.0214      2.00000
      4       2.0214      2.00000
      5       6.7688      0.00000
      6       6.7688      0.00000
      7       7.8350      0.00000
      8       7.8350      0.00000
      9       9.3217      0.00000
     10       9.3217      0.00000
     11      10.3625      0.00000
     12      10.3625      0.00000

 k-point  26 :       0.4167    0.4167    0.0000
  band No.  band energies     occupation 
      1      -0.7636      2.00000
      2       0.5794      2.00000
      3       0.5794      2.00000
      4       1.9115      2.00000
      5       6.6623      0.00000
      6       7.7282      0.00000
      7       7.9394      0.00000
      8       7.9394      0.00000
      9       9.0088      0.00000
     10       9.0088      0.00000
     11       9.2150      0.00000
     12      10.2664      0.00000

 k-point  27 :       0.5000    0.4167    0.0000
  band No.  band energies     occupation 
      1      -0.1466      2.00000
      2      -0.1466      2.00000
      3       1.1914      2.00000
      4       1.1914      2.00000
      5       7.2476      0.00000
      6       7.2476      0.00000
      7       8.3195      0.00000
      8       8.3195      0.00000
      9       8.5242      0.00000
     10       8.5242      0.00000
     11       9.5894      0.00000
     12       9.5894      0.00000

 k-point  28 :       0.5000    0.5000    0.0000
  band No.  band energies     occupation 
      1       0.4681      2.00000
      2       0.4681      2.00000
      3       0.4681      2.00000
      4       0.4681      2.00000
      5       7.8327      0.00000
      6       7.8327      0.00000
      7       7.8327      0.00000
      8       7.8327      0.00000
      9       8.9059      0.00000
     10       8.9059      0.00000
     11       8.9059      0.00000
     12       8.9059      0.00000

 k-point  29 :       0.0833    0.0833    0.0833
  band No.  band energies     occupation 
      1      -3.4269      2.00000
      2       3.2427      2.00000
      3       3.2427      2.00000
      4       3.2427      2.00000
      5       6.0488      2.00000
      6       6.0488      2.00000
      7       6.0488      2.00000
      8       9.6334      0.00000
      9       9.6334      0.00000
     10       9.6334      0.00000
     11      11.7007      0.00000
     12      11.7007      0.00000

 k-point  30 :       0.1667    0.0833    0.0833
  band No.  band energies     occupation 
      1      -3.2556      2.00000
      2       2.1215      2.00000
      3       3.4061      2.00000
      4       3.4061      2.00000
      5       6.2130      2.00000
      6       6.2130      2.00000
      7       7.4712      0.00000
      8       8.5572      0.00000
      9       8.5572      0.00000
     10       9.7920      0.00000
     11      11.1647      0.00000
     12      11.1647      0.00000

 k-point  31 :       0.2500    0.0833    0.0833
  band No.  band energies     occupation 
      1      -2.9704      2.00000
      2       1.0774      2.00000
      3       3.6782      2.00000
      4       3.6782      2.00000
      5       6.4860      2.00000
      6       6.4860      2.00000
      7       7.5551      0.00000
      8       7.5551      0.00000
      9       9.0156      0.00000
     10      10.0559      0.00000
     11      10.2816      0.00000
     12      10.2816      0.00000

 k-point  32 :       0.3333    0.0833    0.0833
  band No.  band energies     occupation 
      1      -2.5721      2.00000
      2       0.1325      2.00000
      3       4.0585      2.00000
      4       4.0585      2.00000
      5       6.6475      0.00000
      6       6.6475      0.00000
      7       6.8678      0.00000
      8       6.8678      0.00000
      9       9.4212      0.00000
     10       9.4212      0.00000
     11      10.4239      0.00000
     12      10.6577      0.00000

 k-point  33 :       0.4167    0.0833    0.0833
  band No.  band energies     occupation 
      1      -2.0613      2.00000
      2      -0.7074      2.00000
      3       4.5464      2.00000
      4       4.5464      2.00000
      5       5.8429      2.00000
      6       5.8429      2.00000
      7       7.3546      0.00000
      8       7.3546      0.00000
      9       8.6372      0.00000
     10       8.6372      0.00000
     11      10.8974      0.00000
     12      12.1510      0.00000

 k-point  34 :       0.5000    0.0833    0.0833
  band No.  band energies     occupation 
      1      -1.4393      2.00000
      2      -1.4393      2.00000
      3       5.1220      2.00000
      4       5.1220      2.00000
      5       5.1614      2.00000
      6       5.1614      2.00000
      7       7.9347      0.00000
      8       7.9347      0.00000
      9       7.9571      0.00000
     10       7.9571      0.00000
     11      11.4735      0.00000
     12      11.4735      0.00000

 k-point  35 :       0.1667    0.1667    0.0833
  band No.  band energies     occupation 
      1      -3.0844      2.00000
      2       2.2867      2.00000
      3       2.2867      2.00000
      4       3.5694      2.00000
      5       6.3769      2.00000
      6       7.4802      0.00000
      7       7.6330      0.00000
      8       7.6330      0.00000
      9       8.7167      0.00000
     10       8.7167      0.00000
     11      11.3185      0.00000
     12      11.3185      0.00000

 k-point  36 :       0.2500    0.1667    0.0833
  band No.  band energies     occupation 
      1      -2.7996      2.00000
      2       1.2439      2.00000
      3       2.5618      2.00000
      4       3.8411      2.00000
      5       6.4714      2.00000
      6       6.6510      0.00000
      7       7.7150      0.00000
      8       7.9025      0.00000
      9       8.9820      0.00000
     10       9.1756      0.00000
     11      10.4383      0.00000
     12      11.5633      0.00000

 k-point  37 :       0.3333    0.1667    0.0833
  band No.  band energies     occupation 
      1      -2.4017      2.00000
      2       0.3000      2.00000
      3       2.9462      2.00000
      4       4.2209      2.00000
      5       5.5597      2.00000
      6       6.8092      0.00000
      7       7.0304      0.00000
      8       8.2777      0.00000
      9       9.3535      0.00000
     10       9.5798      0.00000
     11      10.7744      0.00000
     12      10.8136      0.00000

 k-point  38 :       0.4167    0.1667    0.0833
  band No.  band energies     occupation 
      1      -1.8915      2.00000
      2      -0.5390      2.00000
      3       3.4392      2.00000
      4       4.6953      2.00000
      5       4.7614      2.00000
      6       6.0046      2.00000
      7       7.5169      0.00000
      8       8.7549      0.00000
      9       8.7999      0.00000
     10       9.8297      0.00000
     11      10.0159      0.00000
     12      11.0925      0.00000

 k-point  39 :       0.5000    0.1667    0.0833
  band No.  band energies     occupation 
      1      -1.2701      2.00000
      2      -1.2701      2.00000
      3       4.0397      2.00000
      4       4.0397      2.00000
      5       5.3044      2.00000
      6       5.3044      2.00000
      7       8.1071      0.00000
      8       8.1071      0.00000
      9       9.3390      0.00000
     10       9.3390      0.00000
     11      10.4099      0.00000
     12      10.4099      0.00000

 k-point  40 :       0.2500    0.2500    0.0833
  band No.  band energies     occupation 
      1      -2.5153      2.00000
      2       1.5210      2.00000
      3       1.5210      2.00000
      4       4.1123      2.00000
      5       5.4590      2.00000
      6       6.9220      0.00000
      7       7.9823      0.00000
      8       7.9823      0.00000
      9       9.4405      0.00000
     10       9.4405      0.00000
     11      10.6990      0.00000
     12      10.6990      0.00000

 k-point  41 :       0.3333    0.2500    0.0833
  band No.  band energies     occupation 
      1      -2.1181      2.00000
      2       0.5788      2.00000
      3       1.9082      2.00000
      4       4.4775      2.00000
      5       4.5545      2.00000
      6       7.0773      0.00000
      7       7.3014      0.00000
      8       8.3556      0.00000
      9       9.8037      0.00000
     10       9.8499      0.00000
     11      10.8930      0.00000
     12      11.0455      0.00000

 k-point  42 :       0.4167    0.2500    0.0833
  band No.  band energies     occupation 
      1      -1.6088      2.00000
      2      -0.2587      2.00000
      3       2.4048      2.00000
      4       3.7214      2.00000
      5       4.9806      2.00000
      6       6.2736      2.00000
      7       7.7866      0.00000
      8       8.8344      0.00000
      9       9.0632      0.00000
     10      10.1049      0.00000
     11      10.2813      0.00000
     12      11.4994      0.00000

 k-point  43 :       0.5000    0.2500    0.0833
  band No.  band energies     occupation 
      1      -0.9886      2.00000
      2      -0.9886      2.00000
      3       3.0097      2.00000
      4       3.0097      2.00000
      5       5.5741      2.00000
      6       5.5741      2.00000
      7       8.3753      0.00000
      8       8.3753      0.00000
      9       9.4180      0.00000
     10       9.4180      0.00000
     11      10.8483      0.00000
     12      10.8483      0.00000

 k-point  44 :       0.3333    0.3333    0.0833
  band No.  band energies     occupation 
      1      -1.7219      2.00000
      2       0.9684      2.00000
      3       0.9684      2.00000
      4       3.6142      2.00000
      5       4.8725      2.00000
      6       7.4522      0.00000
      7       7.4522      0.00000
      8       7.6794      0.00000
      9      10.0020      0.00000
     10      10.2107      0.00000
     11      10.2107      0.00000
     12      11.4361      0.00000

 k-point  45 :       0.4167    0.3333    0.0833
  band No.  band energies     occupation 
      1      -1.2139      2.00000
      2       0.1329      2.00000
      3       1.4680      2.00000
      4       2.7926      2.00000
      5       5.3585      2.00000
      6       6.6498      0.00000
      7       7.9332      0.00000
      8       8.1628      0.00000
      9       9.2097      0.00000
     10       9.4343      0.00000
     11      10.6810      0.00000
     12      11.8924      0.00000

 k-point  46 :       0.5000    0.3333    0.0833
  band No.  band energies     occupation 
      1      -0.5951      2.00000
      2      -0.5951      2.00000
      3       2.0765      2.00000
      4       2.0765      2.00000
      5       5.9514      2.00000
      6       5.9514      2.00000
      7       8.5194      0.00000
      8       8.5194      0.00000
      9       8.7492      0.00000
     10       8.7492      0.00000
     11      11.2513      0.00000
     12      11.2513      0.00000

 k-point  47 :       0.4167    0.4167    0.0833
  band No.  band energies     occupation 
      1      -0.7075      2.00000
      2       0.6351      2.00000
      3       0.6351      2.00000
      4       1.9667      2.00000
      5       5.8438      2.00000
      6       7.1325      0.00000
      7       7.1325      0.00000
      8       8.4140      0.00000
      9       8.6439      0.00000
     10       9.9089      0.00000
     11       9.9089      0.00000
     12      11.1564      0.00000

 k-point  48 :       0.5000    0.4167    0.0833
  band No.  band energies     occupation 
      1      -0.0907      2.00000
      2      -0.0907      2.00000
      3       1.2468      2.00000
      4       1.2468      2.00000
      5       6.4355      2.00000
      6       6.4355      2.00000
      7       7.7210      0.00000
      8       7.7210      0.00000
      9       9.2273      0.00000
     10       9.2273      0.00000
     11      10.4843      0.00000
     12      10.4843      0.00000

 k-point  49 :       0.5000    0.5000    0.0833
  band No.  band energies     occupation 
      1       0.5238      2.00000
      2       0.5238      2.00000
      3       0.5238      2.00000
      4       0.5238      2.00000
      5       7.0257      0.00000
      6       7.0257      0.00000
      7       7.0257      0.00000
      8       7.0257      0.00000
      9       9.8071      0.00000
     10       9.8071      0.00000
     11       9.8071      0.00000
[...]
      2      -0.8199      2.00000
      3       3.1733      2.00000
      4       3.1733      2.00000
      5       4.4779      2.00000
      6       4.4779      2.00000
      7       8.3480      0.00000
      8       8.3480      0.00000
      9       9.7621      0.00000
     10       9.7621      0.00000
     11      11.0051      0.00000
     12      11.0051      0.00000

 k-point  59 :       0.3333    0.3333    0.1667
  band No.  band energies     occupation 
      1      -1.5525      2.00000
      2       1.1349      2.00000
      3       1.1349      2.00000
      4       3.7256      2.00000
      5       3.8215      2.00000
      6       6.3699      2.00000
      7       6.3699      2.00000
      8       8.9358      0.00000
      9       9.0782      0.00000
     10      11.5334      0.00000
     11      11.5334      0.00000
     12      11.6104      0.00000

 k-point  60 :       0.4167    0.3333    0.1667
  band No.  band energies     occupation 
      1      -1.0450      2.00000
      2       0.3003      2.00000
      3       1.6339      2.00000
      4       2.9563      2.00000
      5       4.2606      2.00000
      6       5.5619      2.00000
      7       6.8543      0.00000
      8       8.1390      0.00000
      9       9.5543      0.00000
     10      10.8013      0.00000
     11      12.0140      0.00000
     12      12.0476      0.00000

 k-point  61 :       0.5000    0.3333    0.1667
  band No.  band energies     occupation 
      1      -0.4269      2.00000
      2      -0.4269      2.00000
      3       2.2416      2.00000
      4       2.2416      2.00000
      5       4.8580      2.00000
      6       4.8580      2.00000
      7       7.4444      0.00000
      8       7.4444      0.00000
      9      10.1308      0.00000
     10      10.1308      0.00000
     11      12.5753      0.00000
     12      12.5816      0.00000

 k-point  62 :       0.4167    0.4167    0.1667
  band No.  band energies     occupation 
      1      -0.5392      2.00000
      2       0.8020      2.00000
      3       0.8020      2.00000
      4       2.1319      2.00000
      5       4.7495      2.00000
      6       6.0482      2.00000
      7       6.0482      2.00000
      8       7.3385      0.00000
      9      10.0282      0.00000
     10      11.2689      0.00000
     11      11.2689      0.00000
     12      12.4929      0.00000

 k-point  63 :       0.5000    0.4167    0.1667
  band No.  band energies     occupation 
      1       0.0770      2.00000
      2       0.0770      2.00000
      3       1.4130      2.00000
      4       1.4130      2.00000
      5       5.3460      2.00000
      6       5.3460      2.00000
      7       6.6409      0.00000
      8       6.6409      0.00000
      9      10.6018      0.00000
     10      10.6018      0.00000
     11      11.8347      0.00000
     12      11.8347      0.00000

 k-point  64 :       0.5000    0.5000    0.1667
  band No.  band energies     occupation 
      1       0.6907      2.00000
      2       0.6907      2.00000
      3       0.6907      2.00000
      4       0.6907      2.00000
      5       5.9408      2.00000
      6       5.9408      2.00000
      7       5.9408      2.00000
      8       5.9408      2.00000
      9      11.1719      0.00000
     10      11.1719      0.00000
     11      11.1719      0.00000
     12      11.1719      0.00000

 k-point  65 :       0.2500    0.2500    0.2500
  band No.  band energies     occupation 
      1      -2.0615      2.00000
      2       1.9632      2.00000
      3       1.9632      2.00000
      4       1.9632      2.00000
      5       5.8921      2.00000
      6       5.8921      2.00000
      7       5.8921      2.00000
      8       9.7341      0.00000
      9       9.8637      0.00000
     10       9.8637      0.00000
     11       9.8637      0.00000
     12      12.8972      0.00000

 k-point  66 :       0.3333    0.2500    0.2500
  band No.  band energies     occupation 
      1      -1.6655      2.00000
      2       1.0237      2.00000
      3       2.3491      2.00000
      4       2.3491      2.00000
      5       4.9758      2.00000
      6       4.9758      2.00000
      7       6.2701      2.00000
      8       8.8380      0.00000
      9      10.2315      0.00000
     10      10.2315      0.00000
     11      11.4887      0.00000
     12      12.5839      0.00000

 k-point  67 :       0.4167    0.2500    0.2500
  band No.  band energies     occupation 
      1      -1.1577      2.00000
      2       0.1886      2.00000
      3       2.8433      2.00000
      4       2.8433      2.00000
      5       4.1619      2.00000
      6       4.1619      2.00000
      7       6.7549      0.00000
      8       8.0406      0.00000
      9      10.7001      0.00000
     10      10.7001      0.00000
     11      11.9114      0.00000
     12      11.9114      0.00000

 k-point  68 :       0.5000    0.2500    0.2500
  band No.  band energies     occupation 
      1      -0.5392      2.00000
      2      -0.5392      2.00000
      3       3.3938      2.00000
      4       3.3938      2.00000
      5       3.5046      2.00000
      6       3.5046      2.00000
      7       7.3456      0.00000
      8       7.3456      0.00000
      9      11.2358      0.00000
     10      11.2358      0.00000
     11      11.2944      0.00000
     12      11.2944      0.00000

 k-point  69 :       0.3333    0.3333    0.2500
  band No.  band energies     occupation 
      1      -1.2704      2.00000
      2       1.4121      2.00000
      3       1.4121      2.00000
      4       2.7331      2.00000
      5       4.0553      2.00000
      6       5.3557      2.00000
      7       5.3557      2.00000
      8       7.9369      0.00000
      9      10.5980      0.00000
     10      11.8473      0.00000
     11      11.8473      0.00000
     12      12.9399      0.00000

 k-point  70 :       0.4167    0.3333    0.2500
  band No.  band energies     occupation 
      1      -0.7639      2.00000
      2       0.5790      2.00000
      3       1.9099      2.00000
      4       3.1707      2.00000
      5       3.2924      2.00000
      6       4.5428      2.00000
      7       5.8429      2.00000
      8       7.1353      0.00000
      9      11.0648      0.00000
     10      12.2403      0.00000
     11      12.3331      0.00000
     12      13.3910      0.00000

 k-point  71 :       0.5000    0.3333    0.2500
  band No.  band energies     occupation 
      1      -0.1469      2.00000
      2      -0.1469      2.00000
      3       2.5156      2.00000
      4       2.5156      2.00000
      5       3.8354      2.00000
      6       3.8354      2.00000
      7       6.4366      2.00000
      8       6.4366      2.00000
      9      11.6260      0.00000
     10      11.6260      0.00000
     11      12.8397      0.00000
     12      12.8397      0.00000

 k-point  72 :       0.4167    0.4167    0.2500
  band No.  band energies     occupation 
      1      -0.2590      2.00000
      2       1.0796      2.00000
      3       1.0796      2.00000
      4       2.4058      2.00000
      5       3.7264      2.00000
      6       5.0320      2.00000
      7       5.0320      2.00000
      8       6.3300      2.00000
      9      11.5293      0.00000
     10      12.7253      0.00000
     11      12.7253      0.00000
     12      13.9095      0.00000

 k-point  73 :       0.5000    0.4167    0.2500
  band No.  band energies     occupation 
      1       0.3560      2.00000
      2       0.3560      2.00000
      3       1.6893      2.00000
      4       1.6893      2.00000
      5       4.3256      2.00000
      6       4.3256      2.00000
      7       5.6282      2.00000
      8       5.6282      2.00000
      9      12.0879      0.00000
     10      12.0879      0.00000
     11      13.2775      0.00000
     12      13.2775      0.00000

 k-point  74 :       0.5000    0.5000    0.2500
  band No.  band energies     occupation 
      1       0.9686      2.00000
      2       0.9686      2.00000
      3       0.9686      2.00000
      4       0.9686      2.00000
      5       4.9239      2.00000
      6       4.9239      2.00000
      7       4.9239      2.00000
      8       4.9239      2.00000
      9      12.6431      0.00000
     10      12.6431      0.00000
     11      12.6431      0.00000
     12      12.6431      0.00000

 k-point  75 :       0.3333    0.3333    0.3333
  band No.  band energies     occupation 
      1      -0.8764      2.00000
      2       1.7992      2.00000
      3       1.7992      2.00000
      4       1.7992      2.00000
      5       4.4365      2.00000
      6       4.4365      2.00000
      7       4.4365      2.00000
      8       7.0309      0.00000
      9      12.2053      0.00000
     10      12.2053      0.00000
     11      12.2053      0.00000
     12      13.9427      0.00000

 k-point  76 :       0.4167    0.3333    0.3333
  band No.  band energies     occupation 
      1      -0.3712      2.00000
      2       0.9684      2.00000
      3       2.2946      2.00000
      4       2.2946      2.00000
      5       3.6204      2.00000
      6       3.6204      2.00000
      7       4.9261      2.00000
      8       6.2251      2.00000
      9      12.6564      0.00000
     10      12.6564      0.00000
     11      13.7508      0.00000
     12      13.7584      0.00000

 k-point  77 :       0.5000    0.3333    0.3333
  band No.  band energies     occupation 
      1       0.2442      2.00000
      2       0.2442      2.00000
      3       2.8344      2.00000
      4       2.8344      2.00000
      5       2.9734      2.00000
      6       2.9734      2.00000
      7       5.5228      2.00000
      8       5.5228      2.00000
      9      13.1341      0.00000
     10      13.1341      0.00000
     11      13.2497      0.00000
     12      13.2497      0.00000

 k-point  78 :       0.4167    0.4167    0.3333
  band No.  band energies     occupation 
      1       0.1325      2.00000
      2       1.4674      2.00000
      3       1.4674      2.00000
      4       2.7219      2.00000
      5       2.8669      2.00000
      6       4.1111      2.00000
      7       4.1111      2.00000
      8       5.4156      2.00000
      9      13.1066      0.00000
     10      14.1614      0.00000
     11      14.1617      0.00000
     12      14.3337      0.00000

 k-point  79 :       0.5000    0.4167    0.3333
  band No.  band energies     occupation 
      1       0.7458      2.00000
      2       0.7458      2.00000
      3       2.0741      2.00000
      4       2.0741      2.00000
      5       3.4023      2.00000
      6       3.4023      2.00000
      7       4.7102      2.00000
      8       4.7102      2.00000
      9      13.6346      0.00000
     10      13.6346      0.00000
     11      14.7220      0.00000
     12      14.7402      0.00000

 k-point  80 :       0.5000    0.5000    0.3333
  band No.  band energies     occupation 
      1       1.3565      2.00000
      2       1.3565      2.00000
      3       1.3565      2.00000
      4       1.3565      2.00000
      5       4.0024      2.00000
      6       4.0024      2.00000
      7       4.0024      2.00000
      8       4.0024      2.00000
      9      14.1637      0.00000
     10      14.1637      0.00000
     11      14.1637      0.00000
     12      14.1637      0.00000

 k-point  81 :       0.4167    0.4167    0.4167
  band No.  band energies     occupation 
      1       0.6343      2.00000
      2       1.9633      2.00000
      3       1.9633      2.00000
      4       1.9633      2.00000
      5       3.2939      2.00000
      6       3.2939      2.00000
      7       3.2939      2.00000
      8       4.6025      2.00000
      9      14.7147      0.00000
     10      14.7147      0.00000
     11      14.7147      0.00000
     12      15.2743      0.00000

 k-point  82 :       0.5000    0.4167    0.4167
  band No.  band energies     occupation 
      1       1.2454      2.00000
      2       1.2454      2.00000
      3       2.4962      2.00000
      4       2.4962      2.00000
      5       2.6537      2.00000
      6       2.6537      2.00000
      7       3.8943      2.00000
      8       3.8943      2.00000
      9      15.0946      0.00000
     10      15.0946      0.00000
     11      15.2498      0.00000
     12      15.2498      0.00000

 k-point  83 :       0.5000    0.5000    0.4167
  band No.  band energies     occupation 
      1       1.8526      2.00000
      2       1.8526      2.00000
      3       1.8526      2.00000
      4       1.8526      2.00000
      5       3.1848      2.00000
      6       3.1848      2.00000
      7       3.1848      2.00000
      8       3.1848      2.00000
      9      15.6340      0.00000
     10      15.6340      0.00000
     11      15.6340      0.00000
     12      15.6340      0.00000

 k-point  84 :       0.5000    0.5000    0.5000
  band No.  band energies     occupation 
      1       2.3830      2.00000
      2       2.3830      2.00000
      3       2.3830      2.00000
      4       2.3830      2.00000
      5       2.5470      2.00000
      6       2.5470      2.00000
      7       2.5470      2.00000
      8       2.5470      2.00000
      9      16.5564      0.00000
     10      16.5564      0.00000
     11      16.5564      0.00000
     12      16.5564      0.00000


--------------------------------------------------------------------------------------------------------


 soft charge-density along one line, spin component           1
         0         1         2         3         4         5         6         7         8         9
 total charge-density along one line
 
 pseudopotential strength for first ion, spin component:           1
  8.490  -0.004  -0.000   0.000  -0.000  -0.000   0.000  -0.000
 -0.004   0.000  -0.000   0.000  -0.000   0.000  -0.000   0.000
 -0.000  -0.000   1.982  -0.000  -0.000  -0.022   0.000   0.000
  0.000   0.000  -0.000   1.982  -0.000   0.000  -0.022   0.000
 -0.000  -0.000  -0.000  -0.000   1.982   0.000   0.000  -0.022
 -0.000   0.000  -0.022   0.000   0.000  -0.013   0.000   0.000
  0.000  -0.000   0.000  -0.022   0.000   0.000  -0.013   0.000
 -0.000   0.000   0.000   0.000  -0.022   0.000   0.000  -0.013
 total augmentation occupancy for first ion, spin component:           1
  1.401  -0.317   0.000  -0.000   0.000   0.000  -0.000   0.000
 -0.317   0.345   0.000  -0.000   0.000  -0.000   0.000  -0.000
  0.000   0.000   0.630  -0.089   0.022  -0.120   0.014   0.003
 -0.000  -0.000  -0.089   0.690  -0.023   0.014  -0.100   0.006
  0.000   0.000   0.022  -0.023   0.558   0.003   0.006  -0.123
  0.000  -0.000  -0.120   0.014   0.003   0.026  -0.002  -0.001
 -0.000   0.000   0.014  -0.100   0.006  -0.002   0.016  -0.001
  0.000  -0.000   0.003   0.006  -0.123  -0.001  -0.001   0.031


------------------------ aborting loop because EDIFF is reached ----------------------------------------




--------------------------------------------------------------------------------------------------------


    CHARGE:  VPU time    0.23: CPU time    0.23
    FORLOC:  VPU time    0.01: CPU time    0.01
    FORNL :  VPU time    0.68: CPU time    0.68
    STRESS:  VPU time    2.22: CPU time    2.22
    FORCOR:  VPU time    0.10: CPU time    0.10
    FORHAR:  VPU time    0.02: CPU time    0.02
    MIXING:  VPU time    0.00: CPU time    0.00


--------------------------------------------------------------------------------------------------------



  FREE ENERGIE OF THE ION-ELECTRON SYSTEM (eV)
  ---------------------------------------------------
  free  energy   TOTEN  =       -14.681319 eV

  energy  without entropy=      -14.681247  energy(sigma->0) =      -14.681283
 

  FORCE on cell =-STRESS in cart. coord.  units (eV/reduce length):
  Direction    X        Y        Z        XY       YZ       ZX
  --------------------------------------------------------------------------------------
  Alpha Z     -0.71     -0.71     -0.71
  Ewald      -93.44    -93.44    -93.44     -0.00     -0.00     -0.00
  Hartree      0.14      0.14      0.14     -0.00     -0.00     -0.00
  E(xc)      -32.84    -32.84    -32.84      0.00      0.00     -0.00
  Local       -1.33     -1.33     -1.33     -0.00      0.00      0.00
  n-local     73.41     73.89     75.02     -0.08      0.35      0.10
  augment     -4.56     -4.56     -4.56     -0.00      0.00      0.00
  Kinetic     52.26     55.29     57.23      2.00     -7.40     -1.92
  -------------------------------------------------------------------------------------
  Total       -3.71     -3.71     -3.71      0.00     -0.00     -0.00
  in kB      -77.97    -77.97    -77.97      0.00     -0.00     -0.00
  external pressure =      -77.97 kB  Pullay stress =        0.00 kB


 VOLUME and BASIS-vectors are now :
 -----------------------------------------------------------------------------
  energy-cutoff  :      750.00
  volume of cell :       76.18
      direct lattice vectors                 reciprocal lattice vectors
     4.239171688  0.000000000  0.000000000     0.235895140  0.000000000  0.000000000
     0.000000000  4.239171688  0.000000000     0.000000000  0.235895140  0.000000000
     0.000000000  0.000000000  4.239171688     0.000000000  0.000000000  0.235895140

  length of vectors
     4.239171688  4.239171688  4.239171688     0.235895140  0.235895140  0.235895140


 FORCES acting on ions
    electron-ion (+dipol)            ewald-force                    non-local-force                 convergence-correction
 -----------------------------------------------------------------------------------------------
   -.147E-14 -.617E-13 0.199E-13   0.372E-15 0.103E-14 -.478E-15   0.210E-25 0.323E-26 0.000E+00   -.134E-15 -.148E-15 0.149E-15
   -.142E-14 -.136E-14 -.595E-13   0.326E-15 -.722E-15 0.342E-15   0.000E+00 0.889E-26 -.129E-25   -.135E-15 0.152E-15 -.151E-15
   -.722E-16 -.128E-14 -.929E-15   -.383E-15 0.680E-15 0.349E-15   0.000E+00 -.129E-25 0.323E-26   0.160E-15 -.170E-15 -.154E-15
   -.692E-18 -.103E-14 -.102E-14   -.428E-15 -.107E-14 -.490E-16   0.000E+00 -.254E-25 0.162E-26   0.165E-15 0.160E-15 0.143E-15
 -----------------------------------------------------------------------------------------------
   -.297E-14 -.654E-13 -.415E-13   -.113E-15 -.829E-16 0.164E-15   0.210E-25 -.263E-25 -.808E-26   0.557E-16 -.600E-17 -.123E-16
 
 
 POSITION                                       TOTAL-FORCE (eV/Angst)
 -----------------------------------------------------------------------------------
      2.11959      2.11959      0.00000         0.000000     -0.000000      0.000000
      2.11959      0.00000      2.11959        -0.000000     -0.000000     -0.000000
      0.00000      2.11959      2.11959         0.000000     -0.000000     -0.000000
      0.00000      0.00000      0.00000        -0.000000      0.000000      0.000000
 -----------------------------------------------------------------------------------
    total drift:                               -0.000000     -0.000000     -0.000000


--------------------------------------------------------------------------------------------------------



 mean value of Nose-termostat <S>:     1.000 mean value of <T> :     0.000
 mean temperature <T/S>/<1/S>  :     0.000

     LOOP+:  VPU time   38.04: CPU time   38.11
  
  
 General timing and accounting informations for this job:
 ========================================================
  
                  Total CPU time used (sec):       39.430
                            User time (sec):       34.477
                          System time (sec):        4.953
                         Elapsed time (sec):       39.514
  
                   Maximum memory used (kb):      254968.
                   Average memory used (kb):           0.
  
                          Minor page faults:       151287
                          Major page faults:            0
                 Voluntary context switches:          821
