 vasp.4.6.28 25Jul05 complex 
 executed on             LinuxIFC date 2017.01.06  19:06:57
 running on    4 nodes
 distr:  one band on    1 nodes,    4 groups


--------------------------------------------------------------------------------------------------------


 INCAR:
 POTCAR:   PAW_PBE Au 06Sep2000                   
 POTCAR:   PAW_PBE Au 06Sep2000                   
   VRHFIN =Au: s1d10                                                            
   LEXCH  = PE                                                                  
   EATOM  =   926.0567 eV,   68.0632 Ry                                         
                                                                                
   TITEL  = PAW_PBE Au 06Sep2000                                                
   LULTRA =        F    use ultrasoft PP ?                                      
   IUNSCR =        1    unscreen: 0-lin 1-nonlin 2-no                           
   RPACOR =    2.330    partial core radius                                     
   POMASS =  196.966; ZVAL   =   11.000    mass and valenz                      
   RCORE  =    2.500    outmost cutoff radius                                   
   RWIGS  =    2.840; RWIGS  =    1.503    wigner-seitz radius (au A)           
   ENMAX  =  229.948; ENMIN  =  172.461 eV                                      
   RCLOC  =    1.964    cutoff for local pot                                    
   LCOR   =        T    correct aug charges                                     
   LPAW   =        T    paw PP                                                  
   EAUG   =  356.670                                                            
   DEXC   =    -.025                                                            
   RMAX   =    3.041    core radius for proj-oper                               
   RAUG   =    1.300    factor for augmentation sphere                          
   RDEP   =    2.598    radius for radial grids                                 
   QCUT   =   -4.111; QGAM   =    8.222    optimization parameters              
                                                                                
   Description                                                                  
     l     E      TYP  RCUT    TYP  RCUT                                        
     2   .000     23  2.500                                                     
     2   .000     23  2.500                                                     
     0   .000     23  2.500                                                     
     0   .000     23  2.500                                                     
     1  -.200     23  2.500                                                     
     1   .000     23  2.500                                                     
     3   .000      7   .000                                                     
  local pseudopotential read in
  partial core-charges read in
  atomic valenz-charges read in
  non local Contribution for L=           2  read in
    real space projection operators read in
  non local Contribution for L=           2  read in
    real space projection operators read in
  non local Contribution for L=           0  read in
    real space projection operators read in
  non local Contribution for L=           0  read in
    real space projection operators read in
  non local Contribution for L=           1  read in
    real space projection operators read in
  non local Contribution for L=           1  read in
    real space projection operators read in
    PAW grid and wavefunctions read in
 
   number of l-projection  operators is LMAX  =           6
   number of lm-projection operators is LMMAX =          18
 

 ----------------------------------------------------------------------------- 
|                                                                             |
|  ADVICE TO THIS USER RUNNING 'VASP/VAMP'   (HEAR YOUR MASTER'S VOICE ...):  |
|                                                                             |
|      You have a (more or less) 'large supercell' and for larger cells       |
|      it might be more efficient to use real space projection operators      |
|      So try LREAL= Auto  in the INCAR   file.                               |
|      Mind: If you want to do an extremely accurate calculations keep the    |
|      reciprocal projection scheme          (i.e. LREAL=.FALSE.)             |
|                                                                             |
 ----------------------------------------------------------------------------- 

 PAW_PBE Au 06Sep2000                   :
 energy of atom  1       EATOM= -926.0567
 kinetic energy error for atom=    0.0013 (will be added to EATOM!!)
 
 EXHCAR: internal setup
 exchange correlation table for  LEXCH =        8
   RHO(1)=    0.500       N(1)  =     2000
   RHO(2)=  100.500       N(2)  =     4000
 
 POSCAR: No title                                
  positions in direct lattice
  No initial velocities read in
 


--------------------------------------------------------------------------------------------------------


 ion  position               nearest neighbor table
   1  0.750  0.750  0.500-   3 2.98   5 2.98  14 2.98  19 2.98  20 2.98  26 2.98  11 2.98   6 2.98
                            18 2.98  29 2.98  10 2.98   8 2.98
   2  0.750  0.750  0.000-  12 2.96  10 2.98  11 2.98   8 2.98  18 2.98  22 2.98  27 2.98  26 2.98
                             5 2.98  32 2.98   3 2.98  20 2.98
   3  0.750  0.000  0.250-  12 2.96   5 2.98   9 2.98   1 2.98  19 2.98  28 2.98  18 2.98   6 2.98
                            27 2.98  13 2.98   4 2.98   2 2.98
   4  0.750  0.250  0.500-   6 2.98   8 2.98  10 2.98  13 2.98  29 2.98  31 2.98  21 2.98  28 2.98
                            14 2.98  19 2.98   3 2.98  20 2.98
   5  0.000  0.750  0.250-   1 2.98   3 2.98  14 2.98  15 2.98  25 2.98   2 2.98   7 2.98  16 2.98
                            10 2.98  22 2.98   6 2.98  12 2.98
   6  0.000  0.000  0.500-   4 2.98   7 2.98   8 2.98  11 2.98  13 2.98  16 2.98   1 2.98   3 2.98
                            17 2.98  23 2.98  21 2.98   5 2.98
   7  0.250  0.750  0.500-   6 2.98  11 2.98  16 2.98  18 2.98  29 2.98  30 2.98  19 2.98  26 2.98
                             5 2.98  14 2.98  25 2.98  23 2.98
   8  0.750  0.000  0.750-  12 2.96   4 2.98   6 2.98  11 2.98   2 2.98  27 2.98  31 2.98  26 2.98
                            19 2.98  21 2.98   9 2.98   1 2.98
   9  0.750  0.250  0.000-  12 2.96   3 2.98  20 2.98  21 2.98  28 2.98  32 2.98  27 2.98  13 2.98
                            31 2.98  22 2.98  10 2.98   8 2.98
  10  0.750  0.500  0.250-   2 2.98   4 2.98  13 2.98  18 2.98  22 2.98  29 2.98  14 2.98  28 2.98
                             5 2.98  32 2.98   9 2.98   1 2.98
  11  0.000  0.750  0.750-   2 2.98   6 2.98   7 2.98   8 2.98  22 2.98  30 2.98  20 2.98   1 2.98
                            23 2.98  15 2.98  14 2.98  12 2.98
  12  0.998  0.000  0.000-   9 2.96   3 2.96   8 2.96   2 2.96   5 2.98  21 2.98  11 2.98  13 2.98
                            15 2.99  23 2.99  24 2.99  16 2.99
  13  0.000  0.250  0.250-   4 2.98   6 2.98  10 2.98  16 2.98  22 2.98  24 2.98  17 2.98   3 2.98
                             9 2.98  25 2.98  14 2.98  12 2.98
  14  0.000  0.500  0.500-   1 2.98   5 2.98  17 2.98  20 2.98  21 2.98  25 2.98   7 2.98  10 2.98
                             4 2.98  30 2.98  13 2.98  11 2.98
  15  0.250  0.750  0.000-   5 2.98  23 2.98  25 2.98  26 2.98  32 2.98  18 2.98  22 2.98  27 2.98
                            11 2.98  30 2.98  16 2.98  12 2.99
  16  0.250  0.000  0.250-   6 2.98   7 2.98  13 2.98  18 2.98  24 2.98  27 2.98   5 2.98  19 2.98
                            28 2.98  17 2.98  15 2.98  12 2.99
  17  0.250  0.250  0.500-  14 2.98  19 2.98  21 2.98  23 2.98  25 2.98  28 2.98   6 2.98  13 2.98
                            29 2.98  31 2.98  30 2.98  16 2.98
  18  0.500  0.750  0.250-   2 2.98   7 2.98  10 2.98  16 2.98  27 2.98  29 2.98   1 2.98  25 2.98
                             3 2.98  15 2.98  19 2.98  32 2.98
  19  0.500  0.000  0.500-   1 2.98   3 2.98  17 2.98  23 2.98  26 2.98  28 2.98   4 2.98   7 2.98
                             8 2.98  16 2.98  18 2.98  31 2.98
  20  0.750  0.500  0.750-   1 2.98   9 2.98  14 2.98  21 2.98  26 2.98  32 2.98  11 2.98  29 2.98
                            31 2.98  22 2.98   4 2.98   2 2.98
  21  0.000  0.250  0.750-   9 2.98  14 2.98  17 2.98  20 2.98  23 2.98   8 2.98   4 2.98  24 2.98
                            30 2.98  22 2.98   6 2.98  12 2.98
  22  0.000  0.500  0.000-   2 2.98  10 2.98  11 2.98  13 2.98  24 2.98  30 2.98  20 2.98   9 2.98
                            25 2.98  15 2.98  21 2.98   5 2.98
  23  0.250  0.000  0.750-  15 2.98  17 2.98  19 2.98  21 2.98  26 2.98  11 2.98   6 2.98  27 2.98
                            31 2.98  24 2.98   7 2.98  12 2.99
  24  0.250  0.250  0.000-  13 2.98  16 2.98  22 2.98  27 2.98  30 2.98  31 2.98  21 2.98  28 2.98
                            32 2.98  25 2.98  23 2.98  12 2.99
  25  0.250  0.500  0.250-   5 2.98  14 2.98  15 2.98  17 2.98  28 2.98  32 2.98  22 2.98  13 2.98
                            29 2.98  18 2.98  24 2.98   7 2.98
  26  0.500  0.750  0.750-   1 2.98  15 2.98  19 2.98  20 2.98  23 2.98  32 2.98   8 2.98   2 2.98
                            30 2.98   7 2.98  27 2.98  29 2.98
  27  0.500  0.000  0.000-   2 2.98   8 2.98  16 2.98  18 2.98  24 2.98  31 2.98   9 2.98  23 2.98
                            15 2.98   3 2.98  28 2.98  26 2.98
  28  0.500  0.250  0.250-   3 2.98   9 2.98  17 2.98  19 2.98  25 2.98  32 2.98  10 2.98  24 2.98
                            16 2.98   4 2.98  29 2.98  27 2.98
  29  0.500  0.500  0.500-   4 2.98   7 2.98  10 2.98  18 2.98  30 2.98  31 2.98  20 2.98  25 2.98
                            17 2.98   1 2.98  26 2.98  28 2.98
  30  0.250  0.500  0.750-   7 2.98  11 2.98  22 2.98  24 2.98  29 2.98  31 2.98  26 2.98  14 2.98
                            21 2.98  32 2.98  17 2.98  15 2.98
  31  0.500  0.250  0.750-   4 2.98   8 2.98  24 2.98  27 2.98  29 2.98  30 2.98   9 2.98  17 2.98
                            20 2.98  23 2.98  19 2.98  32 2.98
  32  0.500  0.500  0.000-   9 2.98  15 2.98  20 2.98  25 2.98  26 2.98  28 2.98   2 2.98  10 2.98
                            24 2.98  30 2.98  18 2.98  31 2.98
 
  LATTYP: Found a simple cubic cell.
 ALAT       =     8.4203047900
  
  Lattice vectors:
  
 A1 = (   8.4203047900,   0.0000000000,   0.0000000000)
 A2 = (   0.0000001500,   8.4203047900,   0.0000000000)
 A3 = (   0.0000001500,   0.0000001500,   8.4203047900)
 Subroutine PRICEL returns:
 Original cell was already a primitive cell.
 

Analysis of symmetry for initial positions (statically):

 Routine SETGRP: Setting up the symmetry group for a 
 simple cubic supercell.


 Subroutine GETGRP returns: Found  8 space group operations
 (whereof  8 operations were pure point group operations)
 out of a pool of 48 trial point group operations.


The static configuration has the point symmetry C_4v.

Analysis of symmetry for dynamics (positions and initial velocities):

 Subroutine DYNSYM returns: Found  8 space group operations
 (whereof  8 operations were pure point group operations)
 out of a pool of  8 trial space group operations
 (whereof  8 operations were pure point group operations)
 and found also     1 'primitive' translations


The dynamic configuration has the point symmetry C_4v.
 
 
 KPOINTS: Automatic mesh                          

Automatic generation of k-mesh.
 
 Subroutine IBZKPT returns following result:
 ===========================================
 
 Found      6 irreducible k-points:
 
 Following reciprocal coordinates:
            Coordinates               Weight
  0.000000  0.000000  0.000000      1.000000
  0.333333 -0.000000  0.000000      2.000000
  0.000000  0.333333 -0.000000      4.000000
  0.333333  0.333333  0.000000      8.000000
  0.000000  0.333333  0.333333      4.000000
  0.333333  0.333333  0.333333      8.000000
 
 Following cartesian coordinates:
            Coordinates               Weight
  0.000000  0.000000  0.000000      1.000000
  0.039587 -0.000000 -0.000000      2.000000
  0.000000  0.039587 -0.000000      4.000000
  0.039587  0.039587 -0.000000      8.000000
  0.000000  0.039587  0.039587      4.000000
  0.039587  0.039587  0.039587      8.000000
 


--------------------------------------------------------------------------------------------------------




 Dimension of arrays:
   k-Points           NKPTS =      6   number of bands    NBANDS=    212
   number of dos      NEDOS =    301   number of ions     NIONS =     32
   non local maximal  LDIM  =      6   non local SUM 2l+1 LMDIM =     18
   total plane-waves  NPLWV = 343000
   max r-space proj   IRMAX =      1   max aug-charges    IRDMAX= 281240
   dimension x,y,z NGX =    70 NGY =   70 NGZ =   70
   dimension x,y,z NGXF=   140 NGYF=  140 NGZF=  140
   support grid    NGXF=   280 NGYF=  280 NGZF=  280
   ions per type =              32
 NGX,Y,Z   is equivalent  to a cutoff of  13.82, 13.82, 13.82 a.u.
 NGXF,Y,Z  is equivalent  to a cutoff of  27.64, 27.64, 27.64 a.u.


 I would recommend the setting:
   dimension x,y,z NGX =    67 NGY =   67 NGZ =   67
 SYSTEM =  No title                                
 POSCAR =  No title                                

 Startparameter for this run:
   NWRITE =      2    write-flag & timer
   PREC   = accura    medium, high low
   ISTART =      1    job   : 0-new  1-cont  2-samecut
   ICHARG =      0    charge: 1-file 2-atom 10-const
   ISPIN  =      1    spin polarized calculation?
   LNONCOLLINEAR =      F non collinear calculations
   LSORBIT =      F    spin-orbit coupling
   INIWAV =      1    electr: 0-lowe 1-rand  2-diag
   LASPH  =      F    aspherical Exc in radial PAW
   METAGGA=      F    non-selfconsistent MetaGGA calc.

 Electronic Relaxation 1
   ENCUT  =  600.0 eV  44.10 Ry    6.64 a.u.  16.82 16.82 16.82*2*pi/ulx,y,z
   ENINI  =  600.0     initial cutoff
   ENAUG  =  356.7 eV  augmentation charge cutoff
   NELM   =     60;   NELMIN=  2; NELMDL=  0     # of ELM steps 
   EDIFF  = 0.1E-04   stopping-criterion for ELM
   LREAL  =      F    real-space projection
   LCOMPAT=      F    compatible to vasp.4.4
   LREAL_COMPAT= F    compatible to vasp.4.5.1-3
   GGA_COMPAT  = T    GGA compatible to vasp.4.4-vasp.4.6
   LMAXPAW     = -100 max onsite density
   LMAXMIX     =    2 max onsite mixed and CHGCAR
   VOSKOWN=      1    Vosko Wilk Nusair interpolation
   ROPT   =    0.00000
 Ionic relaxation
   EDIFFG = -.2E-01   stopping-criterion for IOM
   NSW    =      0    number of steps for IOM
   NBLOCK =      1;   KBLOCK =      1    inner block; outer block 
   IBRION =     -1    ionic relax: 0-MD 1-quasi-New 2-CG
   NFREE  =      0    steps in history (QN), initial steepest desc. (CG)
   ISIF   =      2    stress and relaxation
   IWAVPR =     10    prediction:  0-non 1-charg 2-wave 3-comb
   ISYM   =      2    0-nonsym 1-usesym 2-fastsym
   LCORR  =      T    Harris-Foulkes like correction to forces

   POTIM  =   0.50    time-step for ionic-motion
   TEIN   =    0.0    initial temperature
   TEBEG  =    0.0;   TEEND  =   0.0 temperature during run
   SMASS  =  -3.00    Nose mass-parameter (am)
   estimated Nose-frequenzy (Omega)   =  0.10E-29 period in steps =****** mass=  -0.162E-26a.u.
   NPACO  =    256;   APACO  = 16.0  distance and # of slots for P.C.
   PSTRESS=    0.0 pullay stress

  Mass of Ions in am
   POMASS = 196.97
  Ionic Valenz
   ZVAL   =  11.00
  Atomic Wigner-Seitz radii
   RWIGS  =   1.34
   NELECT =     352.0000    total number of electrons
   NUPDOWN=      -1.0000    fix difference up-down

 DOS related values:
   EMIN   =  10.00;   EMAX   =-10.00  energy-range for DOS
   ISMEAR =     1;   SIGMA  =   0.20  broadening in eV -4-tet -1-fermi 0-gaus

 Electronic relaxation 2 (details)
   IALGO  =     38    algorithm
   LDIAG  =      T    sub-space diagonalisation
   IMIX   =      4    mixing-type and parameters
     AMIX     =   0.40;   BMIX     =  1.00
     AMIX_MAG =   1.60;   BMIX_MAG =  1.00
     AMIN     =   0.10
     WC   =   100.;   INIMIX=   1;  MIXPRE=   1

 Intra band minimization:
   WEIMIN = 0.0000     energy-eigenvalue tresh-hold
   EBREAK =  0.12E-07  absolut break condition
   DEPER  =   0.30     relativ break condition  

   TIME   =   0.10     timestep for ELM

  volume/ion in A,a.u.               =      18.66       125.90
  Fermi-wavevector in a.u.,eV,Ry     =   1.372760 25.639766  1.884470

 Second variation
   LSECVAR=     F    do a second variation
 
 Write flags
   LWAVE  =      F    write WAVECAR
   LCHARG =      F    write CHGCAR
   LVTOT  =      F    write LOCPOT, local potential
   LELF   =      F    write electronic localiz. function (ELF)
   LORBIT =      0    0 simple, 1 ext, 2 COOP (PROOUT)


 Dipole corrections
   IDIPOL =      0    1-x, 2-y, 3-z
   LDIPOL =      F    correct potential



--------------------------------------------------------------------------------------------------------


 Static calculation
 charge density will be updated during run
 non-spin polarized calculation
 Variant of blocked Davidson
 Davidson routine will perform the subspace rotation
 performe sub-space diagonalisation
    after iterative eigenvector-optimisation
 modified Broyden-mixing scheme, WC =      100.0
 initial mixing is a Kerker type mixing with AMIX =  0.4000 and BMIX =      1.0000
 Hartree-type preconditioning will be used
 using additional bands           36
 reciprocal scheme for non local part
 use partial core corrections
 calculate Harris-corrections to forces 
   (improved forces if not selfconsistent)
 use gradient corrections 
 use of overlap-Matrix (Vanderbilt PP)
 Methfessel and Paxton  Order N= 1 SIGMA  =   0.20


--------------------------------------------------------------------------------------------------------


  energy-cutoff  :      600.00
  volume of cell :      597.01
      direct lattice vectors                 reciprocal lattice vectors
     8.420304790  0.000000000  0.000000000     0.118760547 -0.000000002 -0.000000002
     0.000000150  8.420304790  0.000000000     0.000000000  0.118760547 -0.000000002
     0.000000150  0.000000150  8.420304790     0.000000000  0.000000000  0.118760547

  length of vectors
     8.420304790  8.420304790  8.420304790     0.118760547  0.118760547  0.118760547


 
 old parameters found on file WAVECAR:
  energy-cutoff  :      600.00
  volume of cell :      597.01
      direct lattice vectors                 reciprocal lattice vectors
     8.420304790  0.000000000  0.000000000     0.118760547 -0.000000002 -0.000000002
     0.000000150  8.420304790  0.000000000     0.000000000  0.118760547 -0.000000002
     0.000000150  0.000000150  8.420304790     0.000000000  0.000000000  0.118760547

  length of vectors

 
 k-points in units of 2pi/SCALE and weight: Automatic mesh                          
   0.00000000  0.00000000  0.00000000       0.037
   0.03958685 -0.00000000 -0.00000000       0.074
   0.00000000  0.03958685 -0.00000000       0.148
   0.03958685  0.03958685 -0.00000000       0.296
   0.00000000  0.03958685  0.03958685       0.148
   0.03958685  0.03958685  0.03958685       0.296
 
 k-points in reciprocal lattice and weights: Automatic mesh                          
   0.00000000  0.00000000  0.00000000       0.037
   0.33333333 -0.00000000  0.00000000       0.074
   0.00000000  0.33333333 -0.00000000       0.148
   0.33333333  0.33333333  0.00000000       0.296
   0.00000000  0.33333333  0.33333333       0.148
   0.33333333  0.33333333  0.33333333       0.296
 
 position of ions in fractional coordinates (direct lattice) 
   0.75000000  0.75000000  0.50000000
   0.75000000  0.75000000  0.00000000
   0.75000000  0.00000000  0.25000000
   0.75000000  0.25000000  0.50000000
   0.00000000  0.75000000  0.25000000
   0.00000000  0.00000000  0.50000000
   0.25000000  0.75000000  0.50000000
   0.75000000  0.00000000  0.75000000
   0.75000000  0.25000000  0.00000000
   0.75000000  0.50000000  0.25000000
   0.00000000  0.75000000  0.75000000
   0.99762500  0.00000000  0.00000000
   0.00000000  0.25000000  0.25000000
   0.00000000  0.50000000  0.50000000
   0.25000000  0.75000000  0.00000000
   0.25000000  0.00000000  0.25000000
   0.25000000  0.25000000  0.50000000
   0.50000000  0.75000000  0.25000000
   0.50000000  0.00000000  0.50000000
   0.75000000  0.50000000  0.75000000
   0.00000000  0.25000000  0.75000000
   0.00000000  0.50000000  0.00000000
   0.25000000  0.00000000  0.75000000
   0.25000000  0.25000000  0.00000000
   0.25000000  0.50000000  0.25000000
   0.50000000  0.75000000  0.75000000
   0.50000000  0.00000000  0.00000000
   0.50000000  0.25000000  0.25000000
   0.50000000  0.50000000  0.50000000
   0.25000000  0.50000000  0.75000000
   0.50000000  0.25000000  0.75000000
   0.50000000  0.50000000  0.00000000
 
 position of ions in cartesian coordinates  (Angst):
   6.31522878  6.31522867  4.21015239
   6.31522870  6.31522859  0.00000000
   6.31522863  0.00000004  2.10507620
   6.31522870  2.10507627  4.21015239
   0.00000015  6.31522863  2.10507620
   0.00000007  0.00000007  4.21015239
   2.10507638  6.31522867  4.21015239
   6.31522870  0.00000011  6.31522859
   6.31522863  2.10507620  0.00000000
   6.31522870  4.21015243  2.10507620
   0.00000022  6.31522870  6.31522859
   8.40030657  0.00000000  0.00000000
   0.00000007  2.10507623  2.10507620
   0.00000015  4.21015247  4.21015239
   2.10507631  6.31522859  0.00000000
   2.10507623  0.00000004  2.10507620
   2.10507631  2.10507627  4.21015239
   4.21015255  6.31522863  2.10507620
   4.21015247  0.00000007  4.21015239
   6.31522878  4.21015251  6.31522859
   0.00000015  2.10507631  6.31522859
   0.00000007  4.21015239  0.00000000
   2.10507631  0.00000011  6.31522859
   2.10507623  2.10507620  0.00000000
   2.10507631  4.21015243  2.10507620
   4.21015262  6.31522870  6.31522859
   4.21015239  0.00000000  0.00000000
   4.21015247  2.10507623  2.10507620
   4.21015254  4.21015247  4.21015239
   2.10507638  4.21015251  6.31522859
   4.21015255  2.10507631  6.31522859
   4.21015247  4.21015239  0.00000000
 


--------------------------------------------------------------------------------------------------------


 k-point  1 :  0.00000.00000.0000  plane waves:  19933
 k-point  2 :  0.3333-.00000.0000  plane waves:  19950
 k-point  3 :  0.00000.3333-.0000  plane waves:  19950
 k-point  4 :  0.33330.33330.0000  plane waves:  19874
 k-point  5 :  0.00000.33330.3333  plane waves:  19874
 k-point  6 :  0.33330.33330.3333  plane waves:  19940

 maximum and minimum number of plane-waves per node :  19950 19874

 maximum number of plane-waves:  19950
 maximal index in each direction: 
   IXMAX= 16   IYMAX= 16   IZMAX= 16
   IXMIN=-17   IYMIN=-17   IZMIN=-17

 NGX is ok and might be reduce to  68
 NGY is ok and might be reduce to  68
 NGZ is ok and might be reduce to  68

 parallel 3dFFT wavefunction:
    minimum data exchange during FFTs selected (reduces bandwidth)
 parallel 3dFFT charge:
    minimum data exchange during FFTs selected (reduces bandwidth)

 For storing wavefunctions  405.42 MBYTES are necessary
 For predicting wavefunctions  146.14 MBYTES are necessary
Broyden mixing: mesh for mixing (old mesh)
   NGX = 33   NGY = 33   NGZ = 33
  (NGX  =140   NGY  =140   NGZ  =140)
 gives a total of  35937 points
 charge density for first step will be calculated from the start-wavefunctions


--------------------------------------------------------------------------------------------------------


 Maximum index for augmentation-charges        68196 (set IRDMAX)


--------------------------------------------------------------------------------------------------------


 initial charge from wavefunction
 First call to EWALD:  gamma=   0.210
 Maximum number of real-space cells 3x 3x 3
 Maximum number of reciprocal cells 3x 3x 3

    FEWALD:  VPU time    0.01: CPU time    0.01


----------------------------------------- Iteration    1(   1)  ---------------------------------------


    POTLOK:  VPU time    0.96: CPU time    0.96
    SETDIJ:  VPU time    2.11: CPU time    2.12
    EDDAV :  VPU time  231.75: CPU time  232.16
    DOS   :  VPU time    0.00: CPU time   -0.00
    CHARGE:  VPU time    9.97: CPU time    9.98
    MIXING:  VPU time    0.02: CPU time    0.02
    ------------------------------------------
      LOOP:  VPU time  244.83: CPU time  245.26

 eigenvalue-minimisations  :  2748
 total energy-change (2. order) :-0.1041864E+03  (-0.5630665E+02)
 number of electron  352.0000009 magnetization 
 augmentation part   131.5017928 magnetization 

 Broyden mixing:
  rms(total) = 0.53403E+00    rms(broyden)= 0.50177E+00
  rms(prec ) = 0.76783E+00
  weight for this iteration     100.00

 Free energy of the ion-electron system (eV)
  ---------------------------------------------------
  alpha Z        PSCENC =      3212.27451446
  Ewald energy   TEWEN  =    -30359.09718454
  -1/2 Hartree   DENC   =     -3918.78810748
  -V(xc)+E(xc)   XCENC  =       446.67105682
  PAW double counting   =     23150.43228780   -22480.02592396
  entropy T*S    EENTRO =        -0.02846177
  eigenvalues    EBANDS =       210.60138057
  atomic energy  EATOM  =     29633.77399530
  ---------------------------------------------------
  free energy    TOTEN  =      -104.18644280 eV

  energy without entropy =     -104.15798104  energy(sigma->0) =     -104.17695555


--------------------------------------------------------------------------------------------------------




----------------------------------------- Iteration    1(   2)  ---------------------------------------


    POTLOK:  VPU time    1.15: CPU time    1.15
    SETDIJ:  VPU time    2.82: CPU time    2.82
    EDDAV :  VPU time  192.64: CPU time  193.09
    DOS   :  VPU time    0.00: CPU time   -0.00
    CHARGE:  VPU time    7.69: CPU time    7.72
    MIXING:  VPU time    0.03: CPU time    0.03
    ------------------------------------------
      LOOP:  VPU time  204.35: CPU time  204.83

 eigenvalue-minimisations  :  2684
 total energy-change (2. order) :-0.1767061E+00  (-0.1433901E+01)
 number of electron  352.0000009 magnetization 
 augmentation part   129.8724516 magnetization 

 Broyden mixing:
  rms(total) = 0.10118E+00    rms(broyden)= 0.10118E+00
  rms(prec ) = 0.13361E+00
  weight for this iteration     100.00

 eigenvalues of (default mixing * dielectric matrix)
  average eigenvalue GAMMA=   1.0570
  1.0570

 Free energy of the ion-electron system (eV)
  ---------------------------------------------------
  alpha Z        PSCENC =      3212.27451446
  Ewald energy   TEWEN  =    -30359.09718454
  -1/2 Hartree   DENC   =     -3988.37989972
  -V(xc)+E(xc)   XCENC  =       465.83388726
  PAW double counting   =     23488.11938131   -22814.84322544
  entropy T*S    EENTRO =        -0.03755587
  eigenvalues    EBANDS =       257.99293832
  atomic energy  EATOM  =     29633.77399530
  ---------------------------------------------------
  free energy    TOTEN  =      -104.36314893 eV

  energy without entropy =     -104.32559306  energy(sigma->0) =     -104.35063031


--------------------------------------------------------------------------------------------------------




----------------------------------------- Iteration    1(   3)  ---------------------------------------


    POTLOK:  VPU time    1.07: CPU time    1.07
    SETDIJ:  VPU time    2.57: CPU time    2.58
    EDDAV :  VPU time  200.62: CPU time  201.23
    DOS   :  VPU time    0.00: CPU time   -0.00
    CHARGE:  VPU time    9.03: CPU time    9.05
    MIXING:  VPU time    0.02: CPU time    0.02
    ------------------------------------------
      LOOP:  VPU time  213.33: CPU time  213.99

 eigenvalue-minimisations  :  2668
 total energy-change (2. order) :-0.1830588E-01  (-0.3871798E-01)
 number of electron  352.0000009 magnetization 
 augmentation part   129.5967427 magnetization 

 Broyden mixing:
  rms(total) = 0.58176E-01    rms(broyden)= 0.58176E-01
  rms(prec ) = 0.63139E-01
  weight for this iteration     100.00

 eigenvalues of (default mixing * dielectric matrix)
  average eigenvalue GAMMA=   1.2114
  1.2114  1.2114

 Free energy of the ion-electron system (eV)
  ---------------------------------------------------
  alpha Z        PSCENC =      3212.27451446
  Ewald energy   TEWEN  =    -30359.09718454
  -1/2 Hartree   DENC   =     -3998.67888543
  -V(xc)+E(xc)   XCENC  =       466.28745637
  PAW double counting   =     23652.75613862   -22978.34124507
  entropy T*S    EENTRO =        -0.03883619
  eigenvalues    EBANDS =       266.68259167
  atomic energy  EATOM  =     29633.77399530
  ---------------------------------------------------
  free energy    TOTEN  =      -104.38145481 eV

  energy without entropy =     -104.34261862  energy(sigma->0) =     -104.36850941


--------------------------------------------------------------------------------------------------------




----------------------------------------- Iteration    1(   4)  ---------------------------------------


    POTLOK:  VPU time    1.04: CPU time    1.05
    SETDIJ:  VPU time    2.54: CPU time    2.55
    EDDAV :  VPU time  130.89: CPU time  131.15
    DOS   :  VPU time    0.00: CPU time   -0.00
    CHARGE:  VPU time    4.17: CPU time    4.17
    MIXING:  VPU time    0.01: CPU time    0.02
    ------------------------------------------
      LOOP:  VPU time  138.68: CPU time  138.95

 eigenvalue-minimisations  :  3064
 total energy-change (2. order) :-0.8938380E-03  (-0.8765507E-03)
 number of electron  352.0000009 magnetization 
 augmentation part   129.5977332 magnetization 

 Broyden mixing:
  rms(total) = 0.31771E-01    rms(broyden)= 0.31771E-01
  rms(prec ) = 0.34068E-01
  weight for this iteration     100.00

 eigenvalues of (default mixing * dielectric matrix)
  average eigenvalue GAMMA=   1.5262
  2.5479  1.1252  0.9056

 Free energy of the ion-electron system (eV)
  ---------------------------------------------------
  alpha Z        PSCENC =      3212.27451446
  Ewald energy   TEWEN  =    -30359.09718454
  -1/2 Hartree   DENC   =     -3998.74942011
  -V(xc)+E(xc)   XCENC  =       466.30348950
  PAW double counting   =     23734.34391337   -23059.48979224
  entropy T*S    EENTRO =        -0.03868704
  eigenvalues    EBANDS =       266.29682266
  atomic energy  EATOM  =     29633.77399530
  ---------------------------------------------------
  free energy    TOTEN  =      -104.38234865 eV

  energy without entropy =     -104.34366160  energy(sigma->0) =     -104.36945297


--------------------------------------------------------------------------------------------------------




----------------------------------------- Iteration    1(   5)  ---------------------------------------


    POTLOK:  VPU time    0.66: CPU time    0.66
    SETDIJ:  VPU time    1.28: CPU time    1.28
    EDDAV :  VPU time  190.62: CPU time  190.74
    DOS   :  VPU time    0.00: CPU time   -0.00
    CHARGE:  VPU time    8.84: CPU time    8.85
    MIXING:  VPU time    0.02: CPU time    0.03
    ------------------------------------------
      LOOP:  VPU time  201.44: CPU time  201.57

 eigenvalue-minimisations  :  2716
 total energy-change (2. order) :-0.3760913E-03  (-0.1085702E-03)
 number of electron  352.0000009 magnetization 
 augmentation part   129.6064749 magnetization 

 Broyden mixing:
  rms(total) = 0.33899E-02    rms(broyden)= 0.33898E-02
  rms(prec ) = 0.51517E-02
  weight for this iteration     100.00

 eigenvalues of (default mixing * dielectric matrix)
  average eigenvalue GAMMA=   1.4220
  2.5401  1.1401  1.1401  0.8676

 Free energy of the ion-electron system (eV)
  ---------------------------------------------------
  alpha Z        PSCENC =      3212.27451446
  Ewald energy   TEWEN  =    -30359.09718454
  -1/2 Hartree   DENC   =     -3999.22473065
  -V(xc)+E(xc)   XCENC  =       466.33998195
  PAW double counting   =     23827.39657818   -23152.02694595
  entropy T*S    EENTRO =        -0.03856466
  eigenvalues    EBANDS =       266.21963118
  atomic energy  EATOM  =     29633.77399530
  ---------------------------------------------------
  free energy    TOTEN  =      -104.38272474 eV

  energy without entropy =     -104.34416008  energy(sigma->0) =     -104.36986985


--------------------------------------------------------------------------------------------------------




----------------------------------------- Iteration    1(   6)  ---------------------------------------


    POTLOK:  VPU time    1.01: CPU time    1.01
    SETDIJ:  VPU time    2.36: CPU time    2.37
    EDDAV :  VPU time   99.77: CPU time   99.96
    DOS   :  VPU time    0.00: CPU time   -0.00
    CHARGE:  VPU time    3.68: CPU time    3.68
    MIXING:  VPU time    0.02: CPU time    0.02
    ------------------------------------------
      LOOP:  VPU time  106.85: CPU time  107.05

 eigenvalue-minimisations  :  2716
 total energy-change (2. order) : 0.1180174E-04  (-0.1770037E-04)
 number of electron  352.0000009 magnetization 
 augmentation part   129.5969056 magnetization 

 Broyden mixing:
  rms(total) = 0.98903E-03    rms(broyden)= 0.98903E-03
  rms(prec ) = 0.14040E-02
  weight for this iteration     100.00

 eigenvalues of (default mixing * dielectric matrix)
  average eigenvalue GAMMA=   1.4055
  2.5301  0.8580  1.0577  1.0577  1.5241

 Free energy of the ion-electron system (eV)
  ---------------------------------------------------
  alpha Z        PSCENC =      3212.27451446
  Ewald energy   TEWEN  =    -30359.09718454
  -1/2 Hartree   DENC   =     -3999.81972565
  -V(xc)+E(xc)   XCENC  =       466.36731515
  PAW double counting   =     23834.94618135   -23159.52037451
  entropy T*S    EENTRO =        -0.03864061
  eigenvalues    EBANDS =       266.73120612
  atomic energy  EATOM  =     29633.77399530
  ---------------------------------------------------
  free energy    TOTEN  =      -104.38271294 eV

  energy without entropy =     -104.34407233  energy(sigma->0) =     -104.36983273


--------------------------------------------------------------------------------------------------------




----------------------------------------- Iteration    1(   7)  ---------------------------------------


    POTLOK:  VPU time    0.59: CPU time    0.59
    SETDIJ:  VPU time    0.94: CPU time    0.94
    EDDAV :  VPU time   33.16: CPU time   33.20
    DOS   :  VPU time    0.00: CPU time   -0.00
    ------------------------------------------
      LOOP:  VPU time   34.70: CPU time   34.74

 eigenvalue-minimisations  :  1440
 total energy-change (2. order) : 0.3550951E-05  (-0.1102794E-05)
 number of electron  352.0000009 magnetization 
 augmentation part   129.5969056 magnetization 

 Free energy of the ion-electron system (eV)
  ---------------------------------------------------
  alpha Z        PSCENC =      3212.27451446
  Ewald energy   TEWEN  =    -30359.09718454
  -1/2 Hartree   DENC   =     -3999.86837800
  -V(xc)+E(xc)   XCENC  =       466.37008442
  PAW double counting   =     23834.48040370   -23159.05375779
  entropy T*S    EENTRO =        -0.03864406
  eigenvalues    EBANDS =       266.77625712
  atomic energy  EATOM  =     29633.77399530
  ---------------------------------------------------
  free energy    TOTEN  =      -104.38270938 eV

  energy without entropy =     -104.34406532  energy(sigma->0) =     -104.36982803


--------------------------------------------------------------------------------------------------------




 average (electrostatic) potential at core
  the test charge radii are     1.2098
  (the norm of the test charge is              1.0000)
       1 -46.3753       2 -46.3776       3 -46.3776       4 -46.3753       5 -46.3750
       6 -46.3750       7 -46.3746       8 -46.3776       9 -46.3776      10 -46.3753
      11 -46.3750      12 -46.3749      13 -46.3750      14 -46.3750      15 -46.3724
      16 -46.3724      17 -46.3746      18 -46.3751      19 -46.3750      20 -46.3753
      21 -46.3750      22 -46.3750      23 -46.3724      24 -46.3724      25 -46.3746
      26 -46.3751      27 -46.3750      28 -46.3751      29 -46.3750      30 -46.3746
      31 -46.3751      32 -46.3750
 
 
 
 E-fermi :   4.5684     XC(G=0): -12.1839     alpha+bet : -9.3019
   add alpha+bet to get absolut eigen values

 k-point   1 :       0.0000    0.0000    0.0000
  band No.  band energies     occupation 
      1      -4.2953      2.00000
      2      -2.0487      2.00000
      3      -2.0422      2.00000
      4      -2.0422      2.00000
      5      -2.0422      2.00000
      6      -2.0422      2.00000
      7      -2.0359      2.00000
      8      -1.9254      2.00000
      9      -1.9254      2.00000
     10      -1.9254      2.00000
     11      -1.9253      2.00000
     12      -1.6766      2.00000
     13      -1.6766      2.00000
     14      -1.6765      2.00000
     15      -1.4159      2.00000
     16      -1.4158      2.00000
     17      -1.4158      2.00000
     18      -0.8376      2.00000
     19      -0.8347      2.00000
     20      -0.8347      2.00000
     21      -0.8312      2.00000
     22      -0.8309      2.00000
     23      -0.8308      2.00000
     24      -0.8307      2.00000
     25      -0.8307      2.00000
     26      -0.8304      2.00000
     27      -0.8270      2.00000
     28      -0.8270      2.00000
     29      -0.8241      2.00000
     30      -0.7076      2.00000
     31      -0.7034      2.00000
     32      -0.7034      2.00000
     33      -0.7034      2.00000
     34      -0.7034      2.00000
     35      -0.6993      2.00000
     36      -0.6049      2.00000
     37      -0.6007      2.00000
     38      -0.6007      2.00000
     39      -0.6006      2.00000
     40      -0.6006      2.00000
     41      -0.5965      2.00000
     42      -0.0887      2.00000
     43      -0.0835      2.00000
     44      -0.0835      2.00000
     45      -0.0809      2.00000
     46      -0.0809      2.00000
     47      -0.0809      2.00000
     48      -0.0809      2.00000
     49      -0.0808      2.00000
     50      -0.0808      2.00000
     51      -0.0788      2.00000
     52      -0.0788      2.00000
     53      -0.0740      2.00000
     54      -0.0231      2.00000
     55      -0.0231      2.00000
     56      -0.0187      2.00000
     57      -0.0187      2.00000
     58      -0.0187      2.00000
     59      -0.0187      2.00000
     60      -0.0187      2.00000
     61      -0.0185      2.00000
     62      -0.0185      2.00000
     63      -0.0177      2.00000
     64      -0.0138      2.00000
     65      -0.0138      2.00000
     66       0.2276      2.00000
     67       0.2348      2.00000
     68       0.2350      2.00000
     69       0.2350      2.00000
     70       0.2355      2.00000
     71       0.2355      2.00000
     72       0.2355      2.00000
     73       0.2355      2.00000
     74       0.2360      2.00000
     75       0.2360      2.00000
     76       0.2360      2.00000
     77       0.2431      2.00000
     78       0.3271      2.00000
     79       0.3272      2.00000
     80       0.3272      2.00000
     81       0.3273      2.00000
     82       0.3274      2.00000
     83       0.3274      2.00000
     84       0.3274      2.00000
     85       0.3277      2.00000
     86       0.3529      2.00000
     87       0.3529      2.00000
     88       0.3529      2.00000
     89       0.9863      2.00000
     90       0.9903      2.00000
     91       0.9905      2.00000
     92       0.9905      2.00000
     93       0.9906      2.00000
     94       0.9947      2.00000
     95       1.1498      2.00000
     96       1.1515      2.00000
     97       1.1538      2.00000
     98       1.1538      2.00000
     99       1.1549      2.00000
    100       1.1549      2.00000
    101       1.1549      2.00000
    102       1.1549      2.00000
    103       1.1560      2.00000
    104       1.1560      2.00000
    105       1.1587      2.00000
    106       1.1598      2.00000
    107       1.4138      2.00000
    108       1.4138      2.00000
    109       1.4190      2.00000
    110       1.4190      2.00000
    111       1.4194      2.00000
    112       1.4194      2.00000
    113       1.4195      2.00000
    114       1.4195      2.00000
    115       1.4198      2.00000
    116       1.4198      2.00000
    117       1.4247      2.00000
    118       1.4247      2.00000
    119       1.5474      2.00000
    120       1.5508      2.00000
    121       1.5508      2.00000
    122       1.5509      2.00000
    123       1.5510      2.00000
    124       1.5545      2.00000
    125       1.6446      2.00000
    126       1.6450      2.00000
    127       1.6450      2.00000
    128       1.6467      2.00000
    129       1.6499      2.00000
    130       1.6506      2.00000
    131       1.6507      2.00000
    132       1.6507      2.00000
    133       1.6507      2.00000
    134       1.6510      2.00000
    135       1.6516      2.00000
    136       1.6531      2.00000
    137       1.6570      2.00000
    138       1.6570      2.00000
    139       2.1175      2.00000
    140       2.1199      2.00000
    141       2.1200      2.00000
    142       2.1200      2.00000
    143       2.1200      2.00000
    144       2.1225      2.00000
    145       2.6302      2.00000
    146       2.6302      2.00000
    147       2.6303      2.00000
    148       2.6695      2.00000
    149       2.6696      2.00000
    150       2.6696      2.00000
    151       2.6696      2.00000
    152       2.6696      2.00000
    153       2.6696      2.00000
    154       2.6696      2.00000
    155       2.6697      2.00000
    156       2.9407      2.00000
    157       2.9416      2.00000
    158       2.9417      2.00000
    159       2.9417      2.00000
    160       2.9418      2.00000
    161       2.9418      2.00000
    162       2.9431      2.00000
    163       2.9433      2.00000
    164       2.9433      2.00000
    165       2.9433      2.00000
    166       2.9433      2.00000
    167       2.9443      2.00000
    168       4.0780      2.00286
    169       4.0781      2.00287
    170       4.0781      2.00287
    171       4.0782      2.00287
    172       4.2450      2.04455
    173       4.2462      2.04512
    174       4.2462      2.04512
    175       4.2476      2.04577
    176       4.2485      2.04617
    177       4.2485      2.04619
    178       4.2485      2.04620
    179       4.2485      2.04620
    180       4.2496      2.04667
    181       4.2510      2.04733
    182       4.2510      2.04733
    183       4.2523      2.04793
    184       5.9126     -0.00000
    185       5.9126     -0.00000
    186       5.9127     -0.00000
    187       7.2663     -0.00000
    188       7.2663     -0.00000
    189       7.2663     -0.00000
    190       7.2664     -0.00000
    191       8.9734     -0.00000
    192       8.9737     -0.00000
    193       8.9739     -0.00000
    194       8.9739     -0.00000
    195       8.9739     -0.00000
    196       8.9744     -0.00000
    197       9.7581     -0.00000
    198       9.7583     -0.00000
    199       9.7583     -0.00000
    200      10.6613      0.00000
    201      10.6613      0.00000
    202      10.6676      0.00000
    203      10.6676      0.00000
    204      10.6684      0.00000
    205      10.6684      0.00000
    206      10.6685      0.00000
    207      10.6687      0.00000
    208      10.6693      0.00000
    209      10.6693      0.00000
    210      10.6755      0.00000
    211      10.6755      0.00000
    212      12.7521      0.00000

 k-point   2 :       0.3333   -0.0000    0.0000
  band No.  band energies     occupation 
      1      -3.9981      2.00000
      2      -3.1560      2.00000
      3      -1.8328      2.00000
      4      -1.8326      2.00000
      5      -1.8326      2.00000
      6      -1.8326      2.00000
      7      -1.7632      2.00000
      8      -1.7631      2.00000
      9      -1.7631      2.00000
     10      -1.7631      2.00000
     11      -1.5880      2.00000
     12      -1.4942      2.00000
     13      -1.4887      2.00000
     14      -1.4881      2.00000
     15      -1.3134      2.00000
     16      -1.3134      2.00000
     17      -1.3133      2.00000
     18      -1.3131      2.00000
     19      -1.3130      2.00000
     20      -1.3025      2.00000
     21      -1.3024      2.00000
     22      -1.3024      2.00000
     23      -1.3024      2.00000
     24      -1.2582      2.00000
     25      -1.2582      2.00000
     26      -1.0225      2.00000
     27      -1.0224      2.00000
     28      -1.0224      2.00000
     29      -0.7888      2.00000
     30      -0.7888      2.00000
     31      -0.5780      2.00000
     32      -0.5775      2.00000
     33      -0.5775      2.00000
     34      -0.5775      2.00000
     35      -0.5442      2.00000
     36      -0.5442      2.00000
     37      -0.5442      2.00000
     38      -0.5439      2.00000
     39      -0.5145      2.00000
     40      -0.5144      2.00000
     41      -0.5144      2.00000
     42      -0.5144      2.00000
     43      -0.2968      2.00000
     44      -0.2967      2.00000
     45      -0.2967      2.00000
     46      -0.2966      2.00000
     47      -0.1499      2.00000
     48      -0.1498      2.00000
     49      -0.1498      2.00000
     50      -0.1498      2.00000
     51      -0.1448      2.00000
     52      -0.0933      2.00000
     53      -0.0933      2.00000
     54      -0.0933      2.00000
     55      -0.0932      2.00000
     56      -0.0076      2.00000
     57      -0.0054      2.00000
     58      -0.0054      2.00000
     59      -0.0053      2.00000
     60       0.0034      2.00000
     61       0.0035      2.00000
     62       0.0035      2.00000
     63       0.0058      2.00000
     64       0.1353      2.00000
     65       0.1353      2.00000
     66       0.1354      2.00000
     67       0.1354      2.00000
     68       0.2150      2.00000
     69       0.2673      2.00000
     70       0.2674      2.00000
     71       0.2674      2.00000
     72       0.2674      2.00000
     73       0.2991      2.00000
     74       0.2992      2.00000
     75       0.2992      2.00000
     76       0.2994      2.00000
     77       0.4549      2.00000
     78       0.4550      2.00000
     79       0.4550      2.00000
     80       0.4552      2.00000
     81       0.4795      2.00000
     82       0.4795      2.00000
     83       0.5962      2.00000
     84       0.5962      2.00000
     85       0.5963      2.00000
     86       0.5963      2.00000
     87       0.8052      2.00000
     88       0.8052      2.00000
     89       0.8059      2.00000
     90       0.8060      2.00000
     91       0.8071      2.00000
     92       0.8072      2.00000
     93       0.8079      2.00000
     94       0.8079      2.00000
     95       0.8487      2.00000
     96       0.8487      2.00000
     97       1.0185      2.00000
     98       1.0185      2.00000
     99       1.1566      2.00000
    100       1.3535      2.00000
    101       1.3536      2.00000
    102       1.3536      2.00000
    103       1.3536      2.00000
    104       1.4145      2.00000
    105       1.4145      2.00000
    106       1.4146      2.00000
    107       1.4147      2.00000
    108       1.4461      2.00000
    109       1.4461      2.00000
    110       1.4461      2.00000
    111       1.4462      2.00000
    112       1.4482      2.00000
    113       1.4483      2.00000
    114       1.4483      2.00000
    115       1.4483      2.00000
    116       1.5017      2.00000
    117       1.5839      2.00000
    118       1.5841      2.00000
    119       1.5842      2.00000
    120       1.5842      2.00000
    121       1.6012      2.00000
    122       1.6012      2.00000
    123       1.6014      2.00000
    124       1.6014      2.00000
    125       1.7079      2.00000
    126       1.8787      2.00000
    127       1.9033      2.00000
    128       1.9038      2.00000
    129       1.9455      2.00000
    130       1.9456      2.00000
    131       1.9456      2.00000
    132       1.9456      2.00000
    133       1.9608      2.00000
    134       2.0453      2.00000
    135       2.0453      2.00000
    136       2.0453      2.00000
    137       2.0455      2.00000
    138       2.0965      2.00000
    139       2.0965      2.00000
    140       2.1225      2.00000
    141       2.1225      2.00000
    142       2.1225      2.00000
    143       2.1225      2.00000
    144       2.2053      2.00000
    145       2.2053      2.00000
    146       2.3700      2.00000
    147       2.4020      2.00000
    148       2.4022      2.00000
    149       2.4022      2.00000
    150       2.4022      2.00000
    151       2.4228      2.00000
    152       2.4231      2.00000
    153       2.4930      2.00000
    154       2.4930      2.00000
    155       2.4930      2.00000
    156       2.4932      2.00000
    157       2.5595      2.00000
    158       2.6802      2.00000
    159       2.6802      2.00000
    160       2.6803      2.00000
    161       2.6803      2.00000
    162       2.6930      2.00000
    163       2.6930      2.00000
    164       2.9409      2.00000
    165       2.9420      2.00000
    166       2.9428      2.00000
    167       2.9441      2.00000
    168       3.2270      2.00000
    169       3.2271      2.00000
    170       3.2271      2.00000
    171       3.2271      2.00000
    172       4.1496      2.01167
    173       4.1975      2.02486
    174       4.1976      2.02489
    175       4.1976      2.02490
    176       4.1976      2.02490
    177       4.2463      2.04515
    178       4.2463      2.04515
    179       4.2463      2.04517
    180       4.2469      2.04542
    181       5.6183     -0.00000
    182       5.6183     -0.00000
    183       5.6183     -0.00000
    184       5.6183     -0.00000
    185       6.8671     -0.00000
    186       6.8671     -0.00000
    187       7.5087     -0.00000
    188       7.5087     -0.00000
    189       7.5087     -0.00000
    190       7.5087     -0.00000
    191       8.2646     -0.00000
    192       8.2646     -0.00000
    193       8.2646     -0.00000
    194       8.2646     -0.00000
    195       8.6810     -0.00000
    196       8.6810     -0.00000
    197       9.1535     -0.00000
    198       9.1535     -0.00000
    199       9.5466     -0.00000
    200       9.5467     -0.00000
    201      10.5235      0.00000
    202      10.5235      0.00000
    203      10.5236      0.00000
    204      10.5236      0.00000
    205      11.0921      0.00000
    206      11.0921      0.00000
    207      11.0922      0.00000
    208      11.0922      0.00000
    209      11.1898      0.00000
    210      11.1898      0.00000
    211      11.1898      0.00000
    212      11.1898      0.00000

 k-point   3 :       0.0000    0.3333   -0.0000
  band No.  band energies     occupation 
      1      -3.9980      2.00000
      2      -3.1560      2.00000
      3      -1.8376      2.00000
      4      -1.8326      2.00000
      5      -1.8326      2.00000
      6      -1.8280      2.00000
      7      -1.7635      2.00000
      8      -1.7634      2.00000
      9      -1.7628      2.00000
     10      -1.7626      2.00000
     11      -1.5880      2.00000
     12      -1.4935      2.00000
     13      -1.4887      2.00000
     14      -1.4886      2.00000
     15      -1.3181      2.00000
     16      -1.3144      2.00000
     17      -1.3133      2.00000
     18      -1.3123      2.00000
     19      -1.3093      2.00000
     20      -1.3032      2.00000
     21      -1.3027      2.00000
     22      -1.3020      2.00000
     23      -1.3007      2.00000
     24      -1.2584      2.00000
     25      -1.2582      2.00000
     26      -1.0225      2.00000
     27      -1.0225      2.00000
     28      -1.0224      2.00000
     29      -0.7889      2.00000
     30      -0.7888      2.00000
     31      -0.5805      2.00000
     32      -0.5778      2.00000
     33      -0.5776      2.00000
     34      -0.5749      2.00000
     35      -0.5467      2.00000
     36      -0.5446      2.00000
     37      -0.5441      2.00000
     38      -0.5417      2.00000
     39      -0.5176      2.00000
     40      -0.5144      2.00000
     41      -0.5142      2.00000
     42      -0.5111      2.00000
     43      -0.2998      2.00000
     44      -0.2967      2.00000
     45      -0.2966      2.00000
     46      -0.2935      2.00000
     47      -0.1529      2.00000
     48      -0.1499      2.00000
     49      -0.1498      2.00000
     50      -0.1467      2.00000
     51      -0.1447      2.00000
     52      -0.0964      2.00000
     53      -0.0934      2.00000
     54      -0.0933      2.00000
     55      -0.0904      2.00000
     56      -0.0103      2.00000
     57      -0.0052      2.00000
     58      -0.0052      2.00000
     59      -0.0017      2.00000
     60       0.0003      2.00000
     61       0.0034      2.00000
     62       0.0034      2.00000
     63       0.0081      2.00000
     64       0.1333      2.00000
     65       0.1351      2.00000
     66       0.1354      2.00000
     67       0.1370      2.00000
     68       0.2149      2.00000
     69       0.2661      2.00000
     70       0.2670      2.00000
     71       0.2676      2.00000
     72       0.2683      2.00000
     73       0.2964      2.00000
     74       0.2993      2.00000
     75       0.2994      2.00000
     76       0.3022      2.00000
     77       0.4545      2.00000
     78       0.4552      2.00000
     79       0.4552      2.00000
     80       0.4560      2.00000
     81       0.4795      2.00000
     82       0.4797      2.00000
     83       0.5928      2.00000
     84       0.5962      2.00000
     85       0.5963      2.00000
     86       0.5997      2.00000
     87       0.8037      2.00000
     88       0.8041      2.00000
     89       0.8046      2.00000
     90       0.8069      2.00000
     91       0.8073      2.00000
     92       0.8081      2.00000
     93       0.8084      2.00000
     94       0.8099      2.00000
     95       0.8488      2.00000
     96       0.8488      2.00000
     97       1.0183      2.00000
     98       1.0183      2.00000
     99       1.1564      2.00000
    100       1.3513      2.00000
    101       1.3534      2.00000
    102       1.3535      2.00000
    103       1.3555      2.00000
    104       1.4103      2.00000
    105       1.4146      2.00000
    106       1.4147      2.00000
    107       1.4178      2.00000
    108       1.4423      2.00000
    109       1.4434      2.00000
    110       1.4461      2.00000
    111       1.4474      2.00000
    112       1.4474      2.00000
    113       1.4485      2.00000
    114       1.4514      2.00000
    115       1.4520      2.00000
    116       1.5017      2.00000
    117       1.5819      2.00000
    118       1.5842      2.00000
    119       1.5845      2.00000
    120       1.5865      2.00000
    121       1.5990      2.00000
    122       1.6011      2.00000
    123       1.6013      2.00000
    124       1.6034      2.00000
    125       1.7081      2.00000
    126       1.8790      2.00000
    127       1.9033      2.00000
    128       1.9034      2.00000
    129       1.9438      2.00000
    130       1.9447      2.00000
    131       1.9464      2.00000
    132       1.9474      2.00000
    133       1.9605      2.00000
    134       2.0426      2.00000
    135       2.0453      2.00000
    136       2.0453      2.00000
    137       2.0481      2.00000
    138       2.0965      2.00000
    139       2.0967      2.00000
    140       2.1204      2.00000
    141       2.1225      2.00000
    142       2.1226      2.00000
    143       2.1245      2.00000
    144       2.2051      2.00000
    145       2.2052      2.00000
    146       2.3701      2.00000
    147       2.4003      2.00000
    148       2.4022      2.00000
    149       2.4022      2.00000
    150       2.4042      2.00000
    151       2.4228      2.00000
    152       2.4229      2.00000
    153       2.4915      2.00000
    154       2.4930      2.00000
    155       2.4930      2.00000
    156       2.4946      2.00000
    157       2.5595      2.00000
    158       2.6795      2.00000
    159       2.6802      2.00000
    160       2.6803      2.00000
    161       2.6809      2.00000
    162       2.6930      2.00000
    163       2.6931      2.00000
    164       2.9421      2.00000
    165       2.9422      2.00000
    166       2.9429      2.00000
    167       2.9430      2.00000
    168       3.2250      2.00000
    169       3.2270      2.00000
    170       3.2271      2.00000
    171       3.2290      2.00000
    172       4.1501      2.01177
    173       4.1954      2.02412
    174       4.1966      2.02453
    175       4.1988      2.02529
    176       4.1997      2.02564
    177       4.2441      2.04416
    178       4.2458      2.04493
    179       4.2469      2.04541
    180       4.2487      2.04627
    181       5.6158     -0.00000
    182       5.6182     -0.00000
    183       5.6182     -0.00000
    184       5.6208     -0.00000
    185       6.8671     -0.00000
    186       6.8672     -0.00000
    187       7.5067     -0.00000
    188       7.5087     -0.00000
    189       7.5087     -0.00000
    190       7.5107     -0.00000
    191       8.2621     -0.00000
    192       8.2644     -0.00000
    193       8.2647     -0.00000
    194       8.2672     -0.00000
    195       8.6809     -0.00000
    196       8.6810     -0.00000
    197       9.1535     -0.00000
    198       9.1536     -0.00000
    199       9.5466     -0.00000
    200       9.5467     -0.00000
    201      10.5216      0.00000
    202      10.5234      0.00000
    203      10.5238      0.00000
    204      10.5256      0.00000
    205      11.0891      0.00000
    206      11.0918      0.00000
    207      11.0920      0.00000
    208      11.0951      0.00000
    209      11.1842      0.00000
    210      11.1899      0.00000
    211      11.1906      0.00000
    212      11.1960      0.00000

 k-point   4 :       0.3333    0.3333    0.0000
  band No.  band energies     occupation 
      1      -3.7133      2.00000
      2      -2.9107      2.00000
      3      -2.9060      2.00000
      4      -2.2234      2.00000
      5      -1.7872      2.00000
      6      -1.7871      2.00000
      7      -1.7540      2.00000
      8      -1.7538      2.00000
      9      -1.5631      2.00000
     10      -1.5615      2.00000
     11      -1.5607      2.00000
     12      -1.5591      2.00000
     13      -1.4749      2.00000
     14      -1.4749      2.00000
     15      -1.3923      2.00000
     16      -1.3921      2.00000
     17      -1.3872      2.00000
     18      -1.2800      2.00000
     19      -1.2773      2.00000
     20      -1.1641      2.00000
     21      -1.1633      2.00000
     22      -1.0475      2.00000
     23      -1.0356      2.00000
     24      -1.0323      2.00000
     25      -0.9699      2.00000
     26      -0.9687      2.00000
     27      -0.9659      2.00000
     28      -0.9646      2.00000
     29      -0.8992      2.00000
     30      -0.8984      2.00000
     31      -0.8969      2.00000
     32      -0.8964      2.00000
     33      -0.8947      2.00000
     34      -0.7216      2.00000
     35      -0.7201      2.00000
     36      -0.7183      2.00000
     37      -0.7165      2.00000
     38      -0.5699      2.00000
     39      -0.5669      2.00000
     40      -0.5460      2.00000
     41      -0.5458      2.00000
     42      -0.5367      2.00000
     43      -0.5354      2.00000
     44      -0.4496      2.00000
     45      -0.4496      2.00000
     46      -0.3012      2.00000
     47      -0.3011      2.00000
     48      -0.1642      2.00000
     49      -0.1464      2.00000
     50      -0.1447      2.00000
     51      -0.1440      2.00000
     52      -0.1422      2.00000
     53      -0.1201      2.00000
     54      -0.1109      2.00000
     55      -0.1086      2.00000
     56       0.0646      2.00000
     57       0.0646      2.00000
     58       0.1161      2.00000
     59       0.1180      2.00000
     60       0.1724      2.00000
     61       0.2322      2.00000
     62       0.2348      2.00000
     63       0.2354      2.00000
     64       0.2379      2.00000
     65       0.3121      2.00000
     66       0.3122      2.00000
     67       0.3269      2.00000
     68       0.3274      2.00000
     69       0.3299      2.00000
     70       0.3305      2.00000
     71       0.3368      2.00000
     72       0.3369      2.00000
     73       0.4822      2.00000
     74       0.4822      2.00000
     75       0.5253      2.00000
     76       0.5419      2.00000
     77       0.5421      2.00000
     78       0.5580      2.00000
     79       0.5673      2.00000
     80       0.6012      2.00000
     81       0.6489      2.00000
     82       0.6499      2.00000
     83       0.6503      2.00000
     84       0.6519      2.00000
     85       0.6566      2.00000
     86       0.6613      2.00000
     87       0.6817      2.00000
     88       0.6820      2.00000
     89       0.7048      2.00000
     90       0.7050      2.00000
     91       0.8510      2.00000
     92       0.8547      2.00000
     93       0.8686      2.00000
     94       0.8698      2.00000
     95       0.8711      2.00000
     96       0.8722      2.00000
     97       0.9201      2.00000
     98       0.9210      2.00000
     99       0.9728      2.00000
    100       0.9778      2.00000
    101       0.9992      2.00000
    102       1.0538      2.00000
    103       1.0538      2.00000
    104       1.1166      2.00000
    105       1.1183      2.00000
    106       1.1204      2.00000
    107       1.1222      2.00000
    108       1.1820      2.00000
    109       1.2918      2.00000
    110       1.2939      2.00000
    111       1.3198      2.00000
    112       1.3199      2.00000
    113       1.4123      2.00000
    114       1.4124      2.00000
    115       1.4555      2.00000
    116       1.4557      2.00000
    117       1.4745      2.00000
    118       1.5728      2.00000
    119       1.7104      2.00000
    120       1.7759      2.00000
    121       1.7773      2.00000
    122       1.8133      2.00000
    123       1.8140      2.00000
    124       1.8271      2.00000
    125       1.8285      2.00000
    126       1.8402      2.00000
    127       1.9608      2.00000
    128       1.9639      2.00000
    129       1.9815      2.00000
    130       1.9841      2.00000
    131       2.0624      2.00000
    132       2.0632      2.00000
    133       2.0648      2.00000
    134       2.0660      2.00000
    135       2.0835      2.00000
    136       2.0868      2.00000
    137       2.0902      2.00000
    138       2.0926      2.00000
    139       2.1764      2.00000
    140       2.1793      2.00000
    141       2.2136      2.00000
    142       2.2136      2.00000
    143       2.2575      2.00000
    144       2.3012      2.00000
    145       2.3390      2.00000
    146       2.3390      2.00000
    147       2.3892      2.00000
    148       2.3898      2.00000
    149       2.3899      2.00000
    150       2.3905      2.00000
    151       2.4487      2.00000
    152       2.4538      2.00000
    153       2.4547      2.00000
    154       2.5801      2.00000
    155       2.5801      2.00000
    156       2.6004      2.00000
    157       2.6005      2.00000
    158       2.6076      2.00000
    159       2.6077      2.00000
    160       2.6842      2.00000
    161       2.6856      2.00000
    162       2.6886      2.00000
    163       2.6901      2.00000
    164       2.6905      2.00000
    165       2.6925      2.00000
    166       2.7718      2.00000
    167       3.1457      2.00000
    168       3.1459      2.00000
    169       3.1496      2.00000
    170       3.1499      2.00000
    171       3.1517      2.00000
    172       3.1521      2.00000
    173       3.2568      2.00000
    174       3.2576      2.00000
    175       4.4506      1.82998
    176       4.4518      1.82430
    177       5.0888     -0.00145
    178       5.0900     -0.00141
    179       5.8528     -0.00000
    180       5.8546     -0.00000
    181       5.8547     -0.00000
    182       5.8562     -0.00000
    183       5.8930     -0.00000
    184       5.8932     -0.00000
    185       6.4202     -0.00000
    186       6.4228     -0.00000
    187       6.9140     -0.00000
    188       7.2671     -0.00000
    189       7.2671     -0.00000
    190       7.6262     -0.00000
    191       7.6536     -0.00000
    192       7.6537     -0.00000
    193       8.3912     -0.00000
    194       8.3932     -0.00000
    195       8.5930     -0.00000
    196       8.5930     -0.00000
    197       9.0984     -0.00000
    198       9.0996     -0.00000
    199       9.1000     -0.00000
    200       9.1013     -0.00000
    201       9.1941     -0.00000
    202       9.2709     -0.00000
    203       9.2752     -0.00000
    204      10.0611      0.00000
    205      10.0612      0.00000
    206      10.7098      0.00000
    207      11.1742      0.00000
    208      11.1754      0.00000
    209      11.3091      0.00000
    210      11.5719      0.00000
    211      11.6618      0.00000
    212      11.7280      0.00000

 k-point   5 :       0.0000    0.3333    0.3333
  band No.  band energies     occupation 
      1      -3.7133      2.00000
      2      -2.9084      2.00000
      3      -2.9083      2.00000
      4      -2.2234      2.00000
      5      -1.7875      2.00000
      6      -1.7869      2.00000
      7      -1.7557      2.00000
      8      -1.7520      2.00000
      9      -1.5636      2.00000
     10      -1.5617      2.00000
     11      -1.5604      2.00000
     12      -1.5585      2.00000
     13      -1.4750      2.00000
     14      -1.4749      2.00000
     15      -1.3921      2.00000
     16      -1.3921      2.00000
     17      -1.3872      2.00000
     18      -1.2787      2.00000
     19      -1.2786      2.00000
     20      -1.1637      2.00000
     21      -1.1637      2.00000
     22      -1.0471      2.00000
     23      -1.0342      2.00000
     24      -1.0342      2.00000
     25      -0.9676      2.00000
     26      -0.9675      2.00000
     27      -0.9671      2.00000
     28      -0.9670      2.00000
     29      -0.8978      2.00000
     30      -0.8975      2.00000
     31      -0.8973      2.00000
     32      -0.8965      2.00000
     33      -0.8961      2.00000
     34      -0.7208      2.00000
     35      -0.7208      2.00000
     36      -0.7174      2.00000
     37      -0.7173      2.00000
     38      -0.5685      2.00000
     39      -0.5684      2.00000
     40      -0.5459      2.00000
     41      -0.5458      2.00000
     42      -0.5361      2.00000
     43      -0.5361      2.00000
     44      -0.4496      2.00000
     45      -0.4496      2.00000
     46      -0.3031      2.00000
     47      -0.2993      2.00000
     48      -0.1644      2.00000
     49      -0.1448      2.00000
     50      -0.1445      2.00000
     51      -0.1443      2.00000
     52      -0.1438      2.00000
     53      -0.1197      2.00000
     54      -0.1100      2.00000
     55      -0.1099      2.00000
     56       0.0645      2.00000
     57       0.0645      2.00000
     58       0.1170      2.00000
     59       0.1171      2.00000
     60       0.1724      2.00000
     61       0.2329      2.00000
     62       0.2349      2.00000
     63       0.2353      2.00000
     64       0.2374      2.00000
     65       0.3104      2.00000
     66       0.3135      2.00000
     67       0.3252      2.00000
     68       0.3284      2.00000
     69       0.3288      2.00000
     70       0.3329      2.00000
     71       0.3369      2.00000
     72       0.3371      2.00000
     73       0.4799      2.00000
     74       0.4850      2.00000
     75       0.5252      2.00000
     76       0.5417      2.00000
     77       0.5421      2.00000
     78       0.5580      2.00000
     79       0.5671      2.00000
     80       0.6014      2.00000
     81       0.6493      2.00000
     82       0.6502      2.00000
     83       0.6504      2.00000
     84       0.6505      2.00000
     85       0.6588      2.00000
     86       0.6597      2.00000
     87       0.6821      2.00000
     88       0.6821      2.00000
     89       0.7048      2.00000
     90       0.7049      2.00000
     91       0.8527      2.00000
     92       0.8527      2.00000
     93       0.8689      2.00000
     94       0.8698      2.00000
     95       0.8711      2.00000
     96       0.8720      2.00000
     97       0.9205      2.00000
     98       0.9206      2.00000
     99       0.9752      2.00000
    100       0.9754      2.00000
    101       0.9991      2.00000
    102       1.0528      2.00000
    103       1.0546      2.00000
    104       1.1188      2.00000
    105       1.1188      2.00000
    106       1.1200      2.00000
    107       1.1201      2.00000
    108       1.1818      2.00000
    109       1.2927      2.00000
    110       1.2928      2.00000
    111       1.3187      2.00000
    112       1.3208      2.00000
    113       1.4124      2.00000
    114       1.4124      2.00000
    115       1.4556      2.00000
    116       1.4557      2.00000
    117       1.4744      2.00000
    118       1.5728      2.00000
    119       1.7106      2.00000
    120       1.7766      2.00000
    121       1.7767      2.00000
    122       1.8136      2.00000
    123       1.8137      2.00000
    124       1.8274      2.00000
    125       1.8276      2.00000
    126       1.8405      2.00000
    127       1.9624      2.00000
    128       1.9625      2.00000
    129       1.9825      2.00000
    130       1.9826      2.00000
    131       2.0628      2.00000
    132       2.0639      2.00000
    133       2.0644      2.00000
    134       2.0655      2.00000
    135       2.0856      2.00000
    136       2.0856      2.00000
    137       2.0911      2.00000
    138       2.0911      2.00000
    139       2.1779      2.00000
    140       2.1779      2.00000
    141       2.2122      2.00000
    142       2.2152      2.00000
    143       2.2574      2.00000
    144       2.3013      2.00000
    145       2.3387      2.00000
    146       2.3392      2.00000
    147       2.3884      2.00000
    148       2.3895      2.00000
    149       2.3902      2.00000
    150       2.3913      2.00000
    151       2.4487      2.00000
    152       2.4541      2.00000
    153       2.4542      2.00000
    154       2.5798      2.00000
    155       2.5804      2.00000
    156       2.6003      2.00000
    157       2.6005      2.00000
    158       2.6075      2.00000
    159       2.6076      2.00000
    160       2.6853      2.00000
    161       2.6853      2.00000
    162       2.6897      2.00000
    163       2.6897      2.00000
    164       2.6909      2.00000
    165       2.6909      2.00000
    166       2.7718      2.00000
    167       3.1454      2.00000
    168       3.1466      2.00000
    169       3.1506      2.00000
    170       3.1506      2.00000
    171       3.1509      2.00000
    172       3.1509      2.00000
    173       3.2571      2.00000
    174       3.2572      2.00000
    175       4.4512      1.82750
    176       4.4512      1.82729
    177       5.0893     -0.00143
    178       5.0893     -0.00143
    179       5.8508     -0.00000
    180       5.8540     -0.00000
    181       5.8552     -0.00000
    182       5.8582     -0.00000
    183       5.8931     -0.00000
    184       5.8933     -0.00000
    185       6.4214     -0.00000
    186       6.4215     -0.00000
    187       6.9139     -0.00000
    188       7.2671     -0.00000
    189       7.2671     -0.00000
    190       7.6263     -0.00000
    191       7.6536     -0.00000
    192       7.6537     -0.00000
    193       8.3922     -0.00000
    194       8.3922     -0.00000
    195       8.5930     -0.00000
    196       8.5931     -0.00000
    197       9.0969     -0.00000
    198       9.0997     -0.00000
    199       9.1000     -0.00000
    200       9.1026     -0.00000
    201       9.1939     -0.00000
    202       9.2730     -0.00000
    203       9.2734     -0.00000
    204      10.0597      0.00000
    205      10.0626      0.00000
    206      10.7098      0.00000
    207      11.1748      0.00000
    208      11.1749      0.00000
    209      11.3091      0.00000
    210      11.5695      0.00000
    211      11.6518      0.00000
    212      11.7279      0.00000

 k-point   6 :       0.3333    0.3333    0.3333
  band No.  band energies     occupation 
      1      -3.4494      2.00000
      2      -2.7162      2.00000
      3      -2.7130      2.00000
      4      -2.7099      2.00000
      5      -2.1994      2.00000
      6      -2.1968      2.00000
      7      -2.1944      2.00000
      8      -2.0687      2.00000
      9      -1.3813      2.00000
     10      -1.3811      2.00000
     11      -1.3808      2.00000
     12      -1.3132      2.00000
     13      -1.3129      2.00000
     14      -1.3127      2.00000
     15      -1.2530      2.00000
     16      -1.2507      2.00000
     17      -1.2484      2.00000
     18      -1.1017      2.00000
     19      -1.1009      2.00000
     20      -1.0986      2.00000
     21      -1.0986      2.00000
     22      -1.0964      2.00000
     23      -1.0956      2.00000
     24      -1.0138      2.00000
     25      -1.0113      2.00000
     26      -1.0093      2.00000
     27      -1.0024      2.00000
     28      -1.0015      2.00000
     29      -0.9999      2.00000
     30      -0.9997      2.00000
     31      -0.9985      2.00000
     32      -0.9974      2.00000
     33      -0.9391      2.00000
     34      -0.9383      2.00000
     35      -0.9376      2.00000
     36      -0.6410      2.00000
     37      -0.6399      2.00000
     38      -0.6388      2.00000
     39      -0.4739      2.00000
     40      -0.4721      2.00000
     41      -0.4708      2.00000
     42      -0.4708      2.00000
     43      -0.4695      2.00000
     44      -0.4678      2.00000
     45      -0.1689      2.00000
     46      -0.1671      2.00000
     47      -0.1656      2.00000
     48      -0.1418      2.00000
     49      -0.1402      2.00000
     50      -0.1390      2.00000
     51      -0.1390      2.00000
     52      -0.1379      2.00000
     53      -0.1359      2.00000
     54       0.0026      2.00000
     55       0.0044      2.00000
     56       0.0063      2.00000
     57       0.0328      2.00000
     58       0.0331      2.00000
     59       0.0336      2.00000
     60       0.1784      2.00000
     61       0.2094      2.00000
     62       0.2116      2.00000
     63       0.2139      2.00000
     64       0.3259      2.00000
     65       0.3264      2.00000
     66       0.3282      2.00000
     67       0.3284      2.00000
     68       0.3299      2.00000
     69       0.3305      2.00000
     70       0.4892      2.00000
     71       0.4894      2.00000
     72       0.5662      2.00000
     73       0.5663      2.00000
     74       0.5917      2.00000
     75       0.5933      2.00000
     76       0.5951      2.00000
     77       0.6523      2.00000
     78       0.6535      2.00000
     79       0.6546      2.00000
     80       0.6767      2.00000
     81       0.6768      2.00000
     82       0.6783      2.00000
     83       0.6788      2.00000
     84       0.6788      2.00000
     85       0.6800      2.00000
     86       0.6801      2.00000
     87       0.6827      2.00000
     88       0.6830      2.00000
     89       0.7013      2.00000
     90       0.7027      2.00000
     91       0.7045      2.00000
     92       0.7282      2.00000
     93       0.7291      2.00000
     94       0.7301      2.00000
     95       0.7453      2.00000
     96       0.7480      2.00000
     97       0.7509      2.00000
     98       0.8259      2.00000
     99       0.8260      2.00000
    100       0.8261      2.00000
    101       0.9835      2.00000
    102       0.9854      2.00000
    103       0.9871      2.00000
    104       1.1076      2.00000
    105       1.2608      2.00000
    106       1.2637      2.00000
    107       1.2661      2.00000
    108       1.2782      2.00000
    109       1.2786      2.00000
    110       1.2808      2.00000
    111       1.2808      2.00000
    112       1.2833      2.00000
    113       1.2834      2.00000
    114       1.4898      2.00000
    115       1.4907      2.00000
    116       1.4913      2.00000
    117       1.5105      2.00000
    118       1.5137      2.00000
    119       1.5162      2.00000
    120       1.5462      2.00000
    121       1.5483      2.00000
    122       1.5506      2.00000
    123       1.6088      2.00000
    124       1.6090      2.00000
    125       1.6325      2.00000
    126       1.6351      2.00000
    127       1.6375      2.00000
    128       1.6887      2.00000
    129       1.6900      2.00000
    130       1.6912      2.00000
    131       1.6912      2.00000
    132       1.6924      2.00000
    133       1.6938      2.00000
    134       1.9406      2.00000
    135       1.9426      2.00000
    136       1.9445      2.00000
    137       1.9983      2.00000
    138       1.9984      2.00000
    139       1.9984      2.00000
    140       2.1772      2.00000
    141       2.1772      2.00000
    142       2.3461      2.00000
    143       2.3476      2.00000
    144       2.3491      2.00000
    145       2.5258      2.00000
    146       2.5261      2.00000
    147       2.5268      2.00000
    148       2.5375      2.00000
    149       2.5390      2.00000
    150       2.5394      2.00000
    151       2.5396      2.00000
    152       2.5399      2.00000
    153       2.5415      2.00000
    154       2.6598      2.00000
    155       2.6601      2.00000
    156       2.6605      2.00000
    157       2.6719      2.00000
    158       2.6731      2.00000
    159       2.6735      2.00000
    160       2.6736      2.00000
    161       2.6741      2.00000
    162       2.6753      2.00000
    163       2.7053      2.00000
    164       2.7055      2.00000
    165       2.7058      2.00000
    166       2.7931      2.00000
    167       2.7932      2.00000
    168       2.7933      2.00000
    169       3.6193      2.00000
    170       3.6210      2.00000
    171       3.6227      2.00000
    172       4.6404      0.43242
    173       4.6417      0.42366
    174       4.6432      0.41372
    175       4.6432      0.41365
    176       4.6446      0.40389
    177       4.6459      0.39547
    178       5.2541     -0.00001
    179       5.2550     -0.00001
    180       5.2558     -0.00001
    181       5.6945     -0.00000
    182       5.6958     -0.00000
    183       5.6970     -0.00000
    184       6.8333     -0.00000
    185       6.8356     -0.00000
    186       6.8366     -0.00000
    187       6.8367     -0.00000
    188       6.8376     -0.00000
    189       6.8401     -0.00000
    190       7.3261     -0.00000
    191       7.3262     -0.00000
    192       7.3263     -0.00000
    193       7.9180     -0.00000
    194       7.9202     -0.00000
    195       7.9226     -0.00000
    196       8.4596     -0.00000
    197       8.4611     -0.00000
    198       8.4626     -0.00000
    199       9.4684     -0.00000
    200       9.4688     -0.00000
    201       9.4712     -0.00000
    202       9.4712     -0.00000
    203       9.4736     -0.00000
    204       9.4740     -0.00000
    205      10.6822      0.00000
    206      10.6827      0.00000
    207      10.6847      0.00000
    208      10.6847      0.00000
    209      10.6867      0.00000
    210      10.6872      0.00000
    211      10.8884      0.00000
    212      10.8887      0.00000


--------------------------------------------------------------------------------------------------------


 soft charge-density along one line, spin component           1
         0         1         2         3         4         5         6         7         8         9
 total charge-density along one line
 
 pseudopotential strength for first ion, spin component:           1
-10.155   0.000   0.000   0.000   0.000  -0.053  -0.000  -0.000
  0.000 -10.155   0.000   0.000  -0.000  -0.000  -0.053  -0.000
  0.000   0.000 -10.141   0.000  -0.000  -0.000  -0.000  -0.055
  0.000   0.000   0.000 -10.155   0.000  -0.000  -0.000  -0.000
  0.000  -0.000  -0.000   0.000 -10.141  -0.000   0.000   0.000
 -0.053  -0.000  -0.000  -0.000  -0.000   0.277   0.000   0.000
 -0.000  -0.053  -0.000  -0.000   0.000   0.000   0.277   0.000
 -0.000  -0.000  -0.055  -0.000   0.000   0.000   0.000   0.278
 -0.000  -0.000  -0.000  -0.053  -0.000   0.000   0.000   0.000
 -0.000   0.000   0.000  -0.000  -0.055   0.000  -0.000  -0.000
 -0.000  -0.000   0.000  -0.000  -0.000   0.000   0.000  -0.000
  0.000   0.000  -0.000   0.000   0.000  -0.000  -0.000   0.000
  0.000  -0.000   0.000   0.000   0.000  -0.000   0.000  -0.000
  0.000  -0.000  -0.000   0.000   0.000  -0.000   0.000   0.000
 -0.000   0.000  -0.000  -0.000   0.000   0.000  -0.000   0.000
 -0.000   0.000  -0.000  -0.000  -0.000   0.000  -0.000   0.000
 -0.000   0.000   0.000  -0.000  -0.000   0.000  -0.000  -0.000
  0.000  -0.000   0.000   0.000  -0.000  -0.000   0.000  -0.000
 total augmentation occupancy for first ion, spin component:           1
  1.901   0.000  -0.006  -0.000   0.000  -0.051   0.000   0.003   0.000  -0.000   0.011   0.002   0.000  -0.000  -0.000   0.000
  0.000   1.909   0.003  -0.000  -0.005   0.000  -0.058  -0.002   0.001   0.003   0.011   0.002   0.000  -0.000   0.000  -0.000
 -0.006   0.003   1.957   0.003  -0.002   0.003  -0.002  -0.099  -0.002   0.001   0.011   0.003   0.000  -0.000  -0.000   0.000
 -0.000  -0.000   0.003   1.916   0.005   0.000   0.001  -0.002  -0.065  -0.003   0.011   0.003  -0.000   0.000   0.000   0.000
  0.000  -0.005  -0.002   0.005   1.950  -0.000   0.003   0.001  -0.003  -0.094   0.006   0.002   0.000  -0.000  -0.000   0.000
 -0.051   0.000   0.003   0.000  -0.000   0.162  -0.000   0.001  -0.001   0.000  -0.005   0.001  -0.000   0.000   0.000  -0.000
  0.000  -0.058  -0.002   0.001   0.003  -0.000   0.167   0.000  -0.001  -0.000  -0.006  -0.000  -0.000  -0.000  -0.000   0.000
  0.003  -0.002  -0.099  -0.002   0.001   0.001   0.000   0.133   0.001  -0.000  -0.008  -0.001  -0.000   0.000   0.000  -0.000
  0.000   0.001  -0.002  -0.065  -0.003  -0.001  -0.001   0.001   0.172   0.001  -0.007  -0.001   0.000  -0.000  -0.000  -0.000
 -0.000   0.003   0.001  -0.003  -0.094   0.000  -0.000  -0.000   0.001   0.131  -0.004  -0.001  -0.000   0.000   0.000  -0.000
  0.011   0.011   0.011   0.011   0.006  -0.005  -0.006  -0.008  -0.007  -0.004   1.035  -0.332   0.000  -0.000  -0.000  -0.000
  0.002   0.002   0.003   0.003   0.002   0.001  -0.000  -0.001  -0.001  -0.001  -0.332   0.202   0.000  -0.000   0.000   0.000
  0.000   0.000   0.000  -0.000   0.000  -0.000  -0.000  -0.000   0.000  -0.000   0.000   0.000   0.134   0.002   0.003  -0.010
 -0.000  -0.000  -0.000   0.000  -0.000   0.000  -0.000   0.000  -0.000   0.000  -0.000  -0.000   0.002   0.134   0.002  -0.000
 -0.000   0.000  -0.000   0.000  -0.000   0.000  -0.000   0.000  -0.000   0.000  -0.000   0.000   0.003   0.002   0.134  -0.000
  0.000  -0.000   0.000   0.000   0.000  -0.000   0.000  -0.000  -0.000  -0.000  -0.000   0.000  -0.010  -0.000  -0.000   0.001
 -0.000  -0.000   0.000   0.000   0.000   0.000   0.000  -0.000  -0.000  -0.000   0.000   0.000  -0.000  -0.010  -0.000   0.000
 -0.000  -0.000  -0.000  -0.000   0.000   0.000   0.000  -0.000   0.000  -0.000   0.000  -0.000  -0.000  -0.000  -0.010   0.000


------------------------ aborting loop because EDIFF is reached ----------------------------------------




--------------------------------------------------------------------------------------------------------


    CHARGE:  VPU time    3.61: CPU time    3.62
    FORLOC:  VPU time    0.12: CPU time    0.12
    FORNL :  VPU time   25.18: CPU time   25.19
    STRESS:  VPU time   41.40: CPU time   41.44
    FORCOR:  VPU time    0.69: CPU time    0.69
    FORHAR:  VPU time    0.24: CPU time    0.24
    MIXING:  VPU time    0.01: CPU time    0.02


--------------------------------------------------------------------------------------------------------



  FREE ENERGIE OF THE ION-ELECTRON SYSTEM (eV)
  ---------------------------------------------------
  free  energy   TOTEN  =      -104.382709 eV

  energy  without entropy=     -104.344065  energy(sigma->0) =     -104.369828
 

  FORCE on cell =-STRESS in cart. coord.  units (eV/reduce length):
  Direction    X        Y        Z        XY       YZ       ZX
  --------------------------------------------------------------------------------------
  Alpha Z   3212.27   3212.27   3212.27
  Ewald   -10119.83 -10119.69 -10119.69     -0.00     -0.00     -0.00
  Hartree   1333.21   1333.32   1333.32     -0.00     -0.00     -0.00
  E(xc)    -1583.35  -1583.36  -1583.36     -0.00     -0.00     -0.00
  Local     2502.01   2501.74   2501.74      0.00      0.00      0.00
  n-local  -1621.67  -1627.01  -1616.31      6.46      6.27      6.08
  augment   1375.83   1375.82   1375.82     -0.00     -0.00     -0.00
  Kinetic   4888.91   4883.93   4893.88      3.39      3.77      4.15
  -------------------------------------------------------------------------------------
  Total      -12.61    -12.65    -12.65     -0.00     -0.00     -0.00
  in kB      -33.84    -33.95    -33.95     -0.00     -0.00     -0.00
  external pressure =      -33.91 kB  Pullay stress =        0.00 kB


 VOLUME and BASIS-vectors are now :
 -----------------------------------------------------------------------------
  energy-cutoff  :      600.00
  volume of cell :      597.01
      direct lattice vectors                 reciprocal lattice vectors
     8.420304790  0.000000000  0.000000000     0.118760547 -0.000000002 -0.000000002
     0.000000150  8.420304790  0.000000000     0.000000000  0.118760547 -0.000000002
     0.000000150  0.000000150  8.420304790     0.000000000  0.000000000  0.118760547

  length of vectors
     8.420304790  8.420304790  8.420304790     0.118760547  0.118760547  0.118760547


 FORCES acting on ions
    electron-ion (+dipol)            ewald-force                    non-local-force                 convergence-correction
 -----------------------------------------------------------------------------------------------
   0.269E-01 0.153E+00 -.137E-07   -.279E-01 -.152E+00 0.150E-07   0.399E-03 -.396E-03 0.593E-20   0.164E-03 0.263E-03 0.275E-09
   0.950E+00 0.184E+01 -.966E-08   -.958E+00 -.185E+01 0.285E-09   -.607E-02 -.291E-02 -.678E-20   0.385E-03 -.315E-03 -.413E-09
   0.950E+00 -.302E-07 -.184E+01   -.958E+00 0.328E-07 0.185E+01   -.607E-02 0.518E-10 0.291E-02   0.385E-03 0.245E-09 0.316E-03
   0.269E-01 -.153E+00 0.799E-08   -.279E-01 0.152E+00 -.877E-08   0.399E-03 0.396E-03 0.000E+00   0.164E-03 -.263E-03 -.153E-09
   -.118E+01 -.932E-02 0.932E-02   0.119E+01 0.892E-02 -.892E-02   -.615E-02 -.677E-04 0.677E-04   -.137E-02 0.589E-03 -.589E-03
   -.624E+00 0.243E-08 0.402E-07   0.633E+00 -.166E-08 -.447E-07   -.499E-02 0.134E-20 0.000E+00   -.272E-02 0.513E-09 -.893E-09
   0.330E-01 -.152E+00 0.765E-08   -.336E-01 0.151E+00 -.840E-08   0.364E-03 0.558E-03 0.000E+00   -.175E-03 -.366E-03 -.141E-09
   0.950E+00 0.232E-07 0.184E+01   -.958E+00 -.328E-07 -.185E+01   -.607E-02 -.518E-10 -.291E-02   0.385E-03 -.419E-09 -.316E-03
   0.950E+00 -.184E+01 0.259E-08   -.958E+00 0.185E+01 -.286E-09   -.607E-02 0.291E-02 0.000E+00   0.385E-03 0.315E-03 0.239E-09
   0.269E-01 0.525E-08 -.153E+00   -.279E-01 -.606E-08 0.152E+00   0.399E-03 0.705E-11 0.396E-03   0.164E-03 -.158E-09 -.263E-03
   -.118E+01 -.932E-02 -.932E-02   0.119E+01 0.892E-02 0.892E-02   -.615E-02 -.677E-04 -.677E-04   -.137E-02 0.589E-03 0.589E-03
   -.754E+01 0.115E-06 0.476E-07   0.758E+01 -.128E-06 -.128E-06   0.690E-01 0.660E-19 0.542E-19   -.159E-01 0.144E-08 0.144E-08
   -.118E+01 0.932E-02 0.932E-02   0.119E+01 -.892E-02 -.892E-02   -.615E-02 0.677E-04 0.677E-04   -.137E-02 -.589E-03 -.589E-03
   -.257E+00 0.112E-07 0.112E-07   0.261E+00 -.119E-07 -.119E-07   -.106E-03 0.206E-19 0.271E-19   -.260E-02 -.408E-09 -.407E-09
   0.962E+00 -.181E+01 0.244E-08   -.970E+00 0.182E+01 -.257E-09   -.541E-02 0.238E-02 0.000E+00   -.688E-03 0.116E-02 0.247E-09
   0.962E+00 0.228E-07 0.181E+01   -.970E+00 -.322E-07 -.182E+01   -.541E-02 -.424E-10 -.238E-02   -.688E-03 -.371E-09 -.116E-02
   0.330E-01 0.152E+00 -.140E-07   -.336E-01 -.151E+00 0.153E-07   0.364E-03 -.558E-03 -.169E-20   -.175E-03 0.366E-03 0.252E-09
   0.667E+00 0.248E-02 -.248E-02   -.672E+00 -.267E-02 0.267E-02   0.175E-02 0.130E-03 -.130E-03   0.276E-02 0.471E-04 -.471E-04
   0.503E+00 -.225E-08 -.270E-07   -.497E+00 0.164E-08 0.283E-07   -.565E-02 0.181E-20 0.542E-19   0.377E-02 -.530E-09 0.772E-09
   0.269E-01 -.110E-07 0.153E+00   -.279E-01 0.123E-07 -.152E+00   0.399E-03 -.705E-11 -.396E-03   0.164E-03 0.280E-09 0.263E-03
   -.118E+01 0.932E-02 -.932E-02   0.119E+01 -.892E-02 0.892E-02   -.615E-02 0.677E-04 -.677E-04   -.137E-02 -.589E-03 0.589E-03
   -.624E+00 0.405E-07 0.241E-08   0.633E+00 -.447E-07 -.166E-08   -.499E-02 -.241E-19 0.108E-18   -.272E-02 -.893E-09 0.513E-09
   0.962E+00 -.298E-07 -.181E+01   -.970E+00 0.323E-07 0.182E+01   -.541E-02 0.424E-10 0.238E-02   -.688E-03 0.268E-09 0.116E-02
   0.962E+00 0.181E+01 -.954E-08   -.970E+00 -.182E+01 0.314E-09   -.541E-02 -.238E-02 0.474E-19   -.688E-03 -.116E-02 -.350E-09
   0.330E-01 -.113E-07 0.152E+00   -.336E-01 0.126E-07 -.151E+00   0.364E-03 -.994E-11 -.558E-03   -.175E-03 0.259E-09 0.366E-03
   0.667E+00 0.248E-02 0.248E-02   -.672E+00 -.267E-02 -.267E-02   0.175E-02 0.130E-03 0.130E-03   0.276E-02 0.471E-04 0.471E-04
   0.198E+01 -.528E-08 0.635E-07   -.200E+01 0.220E-08 0.220E-08   0.119E-01 -.541E-21 0.000E+00   0.904E-03 -.106E-08 -.106E-08
   0.667E+00 -.248E-02 -.248E-02   -.672E+00 0.267E-02 0.267E-02   0.175E-02 -.130E-03 -.130E-03   0.276E-02 -.471E-04 -.471E-04
   0.238E+00 -.998E-08 -.999E-08   -.244E+00 0.105E-07 0.105E-07   0.165E-02 0.114E-19 0.000E+00   0.254E-02 0.425E-09 0.425E-09
   0.330E-01 0.492E-08 -.152E+00   -.336E-01 -.571E-08 0.151E+00   0.364E-03 0.994E-11 0.558E-03   -.175E-03 -.148E-09 -.366E-03
   0.667E+00 -.248E-02 0.248E-02   -.672E+00 0.267E-02 -.267E-02   0.175E-02 -.130E-03 0.130E-03   0.276E-02 -.471E-04 0.471E-04
   0.503E+00 -.268E-07 -.227E-08   -.497E+00 0.283E-07 0.164E-08   -.565E-02 -.304E-19 0.000E+00   0.377E-02 0.772E-09 -.530E-09
 -----------------------------------------------------------------------------------------------
   0.888E-02 -.552E-10 -.130E-09   0.558E-12 -.155E-12 -.340E-12   0.697E-03 0.241E-18 -.407E-18   -.869E-02 0.994E-10 0.990E-10
 
 
 POSITION                                       TOTAL-FORCE (eV/Angst)
 -----------------------------------------------------------------------------------
      6.31523      6.31523      4.21015        -0.000455      0.000638      0.000000
      6.31523      6.31523      0.00000        -0.014174     -0.016484      0.000000
      6.31523      0.00000      2.10508        -0.014174      0.000000      0.016484
      6.31523      2.10508      4.21015        -0.000455     -0.000638     -0.000000
      0.00000      6.31523      2.10508         0.005571      0.000118     -0.000118
      0.00000      0.00000      4.21015         0.001725      0.000000      0.000000
      2.10508      6.31523      4.21015        -0.000474     -0.000686      0.000000
      6.31523      0.00000      6.31523        -0.014174     -0.000000     -0.016484
      6.31523      2.10508      0.00000        -0.014174      0.016484      0.000000
      6.31523      4.21015      2.10508        -0.000455     -0.000000     -0.000638
      0.00000      6.31523      6.31523         0.005571      0.000118      0.000118
      8.40031      0.00000      0.00000         0.090240      0.000000     -0.000000
      0.00000      2.10508      2.10508         0.005571     -0.000118     -0.000118
      0.00000      4.21015      4.21015         0.001532     -0.000000      0.000000
      2.10508      6.31523      0.00000        -0.013468      0.015391      0.000000
      2.10508      0.00000      2.10508        -0.013468     -0.000000     -0.015391
      2.10508      2.10508      4.21015        -0.000474      0.000686     -0.000000
      4.21015      6.31523      2.10508        -0.000379     -0.000013      0.000013
      4.21015      0.00000      4.21015         0.003759      0.000000      0.000000
      6.31523      4.21015      6.31523        -0.000455      0.000000      0.000638
      0.00000      2.10508      6.31523         0.005571     -0.000118      0.000118
      0.00000      4.21015      0.00000         0.001725      0.000000      0.000000
      2.10508      0.00000      6.31523        -0.013468      0.000000      0.015391
      2.10508      2.10508      0.00000        -0.013468     -0.015391      0.000000
      2.10508      4.21015      2.10508        -0.000474      0.000000      0.000686
      4.21015      6.31523      6.31523        -0.000379     -0.000013     -0.000013
      4.21015      0.00000      0.00000        -0.006713     -0.000000     -0.000000
      4.21015      2.10508      2.10508        -0.000379      0.000013      0.000013
      4.21015      4.21015      4.21015        -0.002512     -0.000000      0.000000
      2.10508      4.21015      6.31523        -0.000474     -0.000000     -0.000686
      4.21015      2.10508      6.31523        -0.000379      0.000013     -0.000013
      4.21015      4.21015      0.00000         0.003759     -0.000000      0.000000
 -----------------------------------------------------------------------------------
    total drift:                                0.000889      0.000000     -0.000000


--------------------------------------------------------------------------------------------------------



 mean value of Nose-termostat <S>:     1.000 mean value of <T> :     0.000
 mean temperature <T/S>/<1/S>  :     0.000

     LOOP+:  VPU time 1215.50: CPU time 1217.79

 ----------------------------------------------------------------------------- 
|                                                                             |
|           W    W    AA    RRRRR   N    N  II  N    N   GGGG   !!!           |
|           W    W   A  A   R    R  NN   N  II  NN   N  G    G  !!!           |
|           W    W  A    A  R    R  N N  N  II  N N  N  G       !!!           |
|           W WW W  AAAAAA  RRRRR   N  N N  II  N  N N  G  GGG   !            |
|           WW  WW  A    A  R   R   N   NN  II  N   NN  G    G                |
|           W    W  A    A  R    R  N    N  II  N    N   GGGG   !!!           |
|                                                                             |
|      The partial DOS and the PROCAR file are not evaluated for NPAR/=1      |
|      please rerun with NPAR=1                                               |
|                                                                             |
 ----------------------------------------------------------------------------- 

  
  
 General timing and accounting informations for this job:
 ========================================================
  
                  Total CPU time used (sec):     1269.735
                            User time (sec):     1242.559
                          System time (sec):       27.176
                         Elapsed time (sec):     1272.087
  
                   Maximum memory used (kb):      875300.
                   Average memory used (kb):           0.
  
                          Minor page faults:       149873
                          Major page faults:            0
                 Voluntary context switches:          843
