       N       E                     dE             d eps       ncg     rms          rms(c)
DAV:   1     0.418249117297E+04    0.41825E+04   -0.18254E+05  1696   0.186E+03
DAV:   2     0.133935716182E+03   -0.40486E+04   -0.38747E+04  1704   0.522E+02
DAV:   3    -0.104108332274E+03   -0.23804E+03   -0.21925E+03  1880   0.133E+02
DAV:   4    -0.112002383168E+03   -0.78941E+01   -0.77816E+01  1824   0.236E+01
DAV:   5    -0.112169062667E+03   -0.16668E+00   -0.16624E+00  1876   0.289E+00    0.159E+01
DAV:   6    -0.104888159789E+03    0.72809E+01   -0.20167E+01  1780   0.157E+01    0.417E+00
DAV:   7    -0.104462237404E+03    0.42592E+00   -0.13373E+00  1864   0.336E+00    0.176E+00
DAV:   8    -0.104383398909E+03    0.78838E-01   -0.64421E-02  1744   0.924E-01    0.156E-01
DAV:   9    -0.104383580880E+03   -0.18197E-03   -0.66917E-03  1880   0.261E-01    0.914E-02
DAV:  10    -0.104383590523E+03   -0.96432E-05   -0.72412E-04  1752   0.794E-02    0.977E-03
DAV:  11    -0.104383603002E+03   -0.12478E-04   -0.14668E-05  1072   0.110E-02    0.238E-03
DAV:  12    -0.104383599522E+03    0.34796E-05   -0.19734E-06   936   0.515E-03
   1 F= -.10438360E+03 E0= -.10437071E+03  d E =-.104384E+03
