 running on    4 nodes
 distr:  one band on    1 nodes,    4 groups
 vasp.4.6.28 25Jul05 complex 
 POSCAR found :  1 types and  108 ions

 ----------------------------------------------------------------------------- 
|                                                                             |
|  ADVICE TO THIS USER RUNNING 'VASP/VAMP'   (HEAR YOUR MASTER'S VOICE ...):  |
|                                                                             |
|      You have a (more or less) 'large supercell' and for larger cells       |
|      it might be more efficient to use real space projection operators      |
|      So try LREAL= Auto  in the INCAR   file.                               |
|      Mind: If you want to do an extremely accurate calculations keep the    |
|      reciprocal projection scheme          (i.e. LREAL=.FALSE.)             |
|                                                                             |
 ----------------------------------------------------------------------------- 

 LDA part: xc-table for Pade appr. of Perdew
 found WAVECAR, reading the header
 POSCAR, INCAR and KPOINTS ok, starting setup
 WARNING: wrap around errors must be expected
 FFT: planning ...           1
 reading WAVECAR
 the WAVECAR file was read sucessfully
 initial charge from wavefunction
 entering main loop
       N       E                     dE             d eps       ncg     rms          rms(c)
DAV:   1    -0.396240648806E+03   -0.39624E+03   -0.22048E+00  1472   0.289E+00    0.740E-01
DAV:   2    -0.396252528008E+03   -0.11879E-01   -0.13573E-01  1584   0.553E+00    0.132E+00
DAV:   3    -0.396213566951E+03    0.38961E-01   -0.77966E-02  1576   0.385E+00    0.326E-01
DAV:   4    -0.396213523909E+03    0.43042E-04   -0.24711E-02  2000   0.114E+00    0.264E-01
DAV:   5    -0.396212698254E+03    0.82566E-03   -0.78776E-03  1648   0.710E-01    0.703E-02
DAV:   6    -0.396212830108E+03   -0.13185E-03   -0.18727E-03  1512   0.211E-01    0.639E-02
DAV:   7    -0.396212830965E+03   -0.85711E-06   -0.77326E-04  1520   0.197E-01    0.409E-02
DAV:   8    -0.396212830363E+03    0.60195E-06   -0.18896E-04  1544   0.102E-01    0.246E-02
DAV:   9    -0.396212823943E+03    0.64200E-05   -0.68538E-05  1504   0.635E-02
   1 F= -.39621282E+03 E0= -.39610067E+03  d E =-.336460E+00

 ----------------------------------------------------------------------------- 
|                                                                             |
|           W    W    AA    RRRRR   N    N  II  N    N   GGGG   !!!           |
|           W    W   A  A   R    R  NN   N  II  NN   N  G    G  !!!           |
|           W    W  A    A  R    R  N N  N  II  N N  N  G       !!!           |
|           W WW W  AAAAAA  RRRRR   N  N N  II  N  N N  G  GGG   !            |
|           WW  WW  A    A  R   R   N   NN  II  N   NN  G    G                |
|           W    W  A    A  R    R  N    N  II  N    N   GGGG   !!!           |
|                                                                             |
|      The partial DOS and the PROCAR file are not evaluated for NPAR/=1      |
|      please rerun with NPAR=1                                               |
|                                                                             |
 ----------------------------------------------------------------------------- 

