       N       E                     dE             d eps       ncg     rms          rms(c)
DAV:   1    -0.102115757942E+03   -0.10212E+03   -0.35246E+00   432   0.419E+00    0.988E-01
DAV:   2    -0.102041159779E+03    0.74598E-01   -0.27433E-01   584   0.307E+00    0.485E-01
DAV:   3    -0.102037316143E+03    0.38436E-02   -0.37500E-02   484   0.104E+00    0.239E-01
DAV:   4    -0.102037362769E+03   -0.46626E-04   -0.56683E-03   460   0.247E-01    0.122E-01
DAV:   5    -0.102037344131E+03    0.18638E-04   -0.46885E-04   544   0.978E-02    0.440E-02
DAV:   6    -0.102037350805E+03   -0.66736E-05   -0.98167E-05   444   0.567E-02
   1 F= -.10203735E+03 E0= -.10198006E+03  d E =-.171863E+00
