   4   4   0   0
  0.1803971E+02  0.4163225E-09  0.4163225E-09  0.4163225E-09  0.5000000E-15
  1.000000000000000E-004
  CAR 
 unknown system                          
     14.71931173     -5.23855740  301      3.09563003      1.00000000
     -5.239  0.0000E+00  0.0000E+00
     -5.172  0.0000E+00  0.0000E+00
     -5.106  0.0000E+00  0.0000E+00
     -5.039  0.0000E+00  0.0000E+00
     -4.972  0.0000E+00  0.0000E+00
     -4.906  0.0000E+00  0.0000E+00
     -4.839  0.0000E+00  0.0000E+00
     -4.773  0.0000E+00  0.0000E+00
     -4.706  0.0000E+00  0.0000E+00
     -4.640  0.0000E+00  0.0000E+00
     -4.573  0.0000E+00  0.0000E+00
     -4.507  0.0000E+00  0.0000E+00
     -4.440  0.0000E+00  0.0000E+00
     -4.374  0.1859E-10  0.1237E-11
     -4.307  0.1739E-01  0.1157E-02
     -4.241  0.1042E+00  0.8092E-02
     -4.174  0.2080E+00  0.2194E-01
     -4.108  0.1384E+00  0.3120E-01
     -4.041  0.1029E+00  0.3809E-01
     -3.975  0.4130E+00  0.6567E-01
     -3.908  0.4160E+00  0.9364E-01
     -3.842  0.5591E-10  0.9375E-01
     -3.775  0.2086E+00  0.1076E+00
     -3.708  0.5217E+00  0.1423E+00
     -3.642  0.4175E+00  0.1701E+00
     -3.575  0.4628E+00  0.2009E+00
     -3.509  0.9670E-01  0.2074E+00
     -3.442  0.9652E+00  0.2716E+00
     -3.376  0.2846E+00  0.2905E+00
     -3.309  0.3988E+00  0.3170E+00
     -3.243  0.5376E+00  0.3528E+00
     -3.176  0.1034E+01  0.4218E+00
     -3.110  0.5258E+00  0.4574E+00
     -3.043  0.1456E+01  0.5543E+00
     -2.977  0.2716E+01  0.7350E+00
     -2.910  0.5792E+01  0.1120E+01
     -2.844  0.7544E+01  0.1622E+01
     -2.777  0.9100E+01  0.2228E+01
     -2.711  0.1085E+02  0.2951E+01
     -2.644  0.1197E+02  0.3748E+01
     -2.578  0.1764E+02  0.4922E+01
     -2.511  0.1716E+02  0.6065E+01
     -2.444  0.1115E+02  0.6809E+01
     -2.378  0.1583E+02  0.7862E+01
     -2.311  0.1106E+02  0.8598E+01
     -2.245  0.1178E+02  0.9383E+01
     -2.178  0.7624E+01  0.9891E+01
     -2.112  0.7284E+01  0.1038E+02
     -2.045  0.1324E+02  0.1126E+02
     -1.979  0.7561E+01  0.1176E+02
     -1.912  0.1307E+02  0.1263E+02
     -1.846  0.1133E+02  0.1339E+02
     -1.779  0.1337E+02  0.1428E+02
     -1.713  0.1099E+02  0.1501E+02
     -1.646  0.8909E+01  0.1560E+02
     -1.580  0.1381E+02  0.1652E+02
     -1.513  0.1263E+02  0.1736E+02
     -1.447  0.1700E+02  0.1849E+02
     -1.380  0.1962E+02  0.1980E+02
     -1.314  0.2100E+02  0.2120E+02
     -1.247  0.1166E+02  0.2198E+02
     -1.180  0.1633E+02  0.2307E+02
     -1.114  0.1020E+02  0.2375E+02
     -1.047  0.1043E+02  0.2444E+02
     -0.981  0.1382E+02  0.2536E+02
     -0.914  0.9026E+01  0.2596E+02
     -0.848  0.1185E+02  0.2675E+02
     -0.781  0.1519E+02  0.2776E+02
     -0.715  0.1461E+02  0.2873E+02
     -0.648  0.1424E+02  0.2968E+02
     -0.582  0.1444E+02  0.3064E+02
     -0.515  0.1405E+02  0.3158E+02
     -0.449  0.9446E+01  0.3221E+02
     -0.382  0.1336E+02  0.3310E+02
     -0.316  0.9578E+01  0.3373E+02
     -0.249  0.1160E+02  0.3451E+02
     -0.183  0.1479E+02  0.3549E+02
     -0.116  0.9536E+01  0.3613E+02
     -0.050  0.1587E+02  0.3718E+02
      0.017  0.1691E+02  0.3831E+02
      0.084  0.2384E+02  0.3990E+02
      0.150  0.1153E+02  0.4067E+02
      0.217  0.8764E+01  0.4125E+02
      0.283  0.1738E+01  0.4137E+02
      0.350  0.3988E+00  0.4139E+02
      0.416  0.1065E-01  0.4139E+02
      0.483  0.1401E+01  0.4149E+02
      0.549  0.1703E+01  0.4160E+02
      0.616  0.1642E+01  0.4171E+02
      0.682  0.1066E+01  0.4178E+02
      0.749  0.2859E+00  0.4180E+02
      0.815  0.4628E+00  0.4183E+02
      0.882  0.9216E+00  0.4189E+02
      0.948  0.3000E-03  0.4189E+02
      1.015  0.1041E+00  0.4190E+02
      1.081  0.1828E+01  0.4202E+02
      1.148  0.1806E+01  0.4214E+02
      1.214  0.1160E+01  0.4222E+02
      1.281  0.1098E+01  0.4229E+02
      1.348  0.1407E+01  0.4239E+02
      1.414  0.4311E-14  0.4239E+02
      1.481  0.7978E+00  0.4244E+02
      1.547  0.4548E+00  0.4247E+02
      1.614  0.4204E+00  0.4250E+02
      1.680  0.1353E+00  0.4251E+02
      1.747  0.2207E+01  0.4265E+02
      1.813  0.1272E+01  0.4274E+02
      1.880  0.1062E+01  0.4281E+02
      1.946  0.8658E+00  0.4287E+02
      2.013  0.1863E+01  0.4299E+02
      2.079  0.3186E+00  0.4301E+02
      2.146  0.1918E-03  0.4301E+02
      2.212  0.1301E+01  0.4310E+02
      2.279  0.1229E+01  0.4318E+02
      2.345  0.3919E+00  0.4321E+02
      2.412  0.4176E+00  0.4323E+02
      2.478  0.1489E+01  0.4333E+02
      2.545  0.1380E+01  0.4343E+02
      2.612  0.1108E+01  0.4350E+02
      2.678  0.1654E+01  0.4361E+02
      2.745  0.5113E+00  0.4364E+02
      2.811  0.2311E+01  0.4380E+02
      2.878  0.1000E+01  0.4386E+02
      2.944  0.8347E+00  0.4392E+02
      3.011  0.4032E+00  0.4395E+02
      3.077  0.4404E+00  0.4398E+02
      3.144  0.8266E+00  0.4403E+02
      3.210  0.5341E+00  0.4407E+02
      3.277  0.1398E+01  0.4416E+02
      3.343  0.1965E+01  0.4429E+02
      3.410  0.1771E+01  0.4441E+02
      3.476  0.1189E+01  0.4449E+02
      3.543  0.1589E+01  0.4459E+02
      3.609  0.1204E+01  0.4467E+02
      3.676  0.8836E+00  0.4473E+02
      3.742  0.2411E-09  0.4473E+02
      3.809  0.7678E+00  0.4478E+02
      3.876  0.1180E+01  0.4486E+02
      3.942  0.1977E+01  0.4499E+02
      4.009  0.1085E+01  0.4507E+02
      4.075  0.1594E-01  0.4507E+02
      4.142  0.6729E+00  0.4511E+02
      4.208  0.1840E+01  0.4523E+02
      4.275  0.1156E+01  0.4531E+02
      4.341  0.8037E+00  0.4536E+02
      4.408  0.2487E+01  0.4553E+02
      4.474  0.7883E+00  0.4558E+02
      4.541  0.9261E+00  0.4565E+02
      4.607  0.7908E+00  0.4570E+02
      4.674  0.8351E+00  0.4575E+02
      4.740  0.5218E-01  0.4576E+02
      4.807  0.1776E+01  0.4588E+02
      4.873  0.1622E+01  0.4598E+02
      4.940  0.1490E+00  0.4599E+02
      5.006  0.1668E+01  0.4610E+02
      5.073  0.6271E+00  0.4615E+02
      5.140  0.1385E+01  0.4624E+02
      5.206  0.1519E+01  0.4634E+02
      5.273  0.8258E+00  0.4640E+02
      5.339  0.6673E-01  0.4640E+02
      5.406  0.2326E+01  0.4656E+02
      5.472  0.3421E+00  0.4658E+02
      5.539  0.1649E+01  0.4669E+02
      5.605  0.2882E+00  0.4671E+02
      5.672  0.5469E+00  0.4674E+02
      5.738  0.6732E-01  0.4675E+02
      5.805  0.1180E+01  0.4683E+02
      5.871  0.1007E+01  0.4689E+02
      5.938  0.2674E+00  0.4691E+02
      6.004  0.1023E+01  0.4698E+02
      6.071  0.2073E+01  0.4712E+02
      6.137  0.4267E+00  0.4715E+02
      6.204  0.7911E+00  0.4720E+02
      6.270  0.1296E+01  0.4728E+02
      6.337  0.3839E+00  0.4731E+02
      6.404  0.9383E+00  0.4737E+02
      6.470  0.5932E+00  0.4741E+02
      6.537  0.6593E+00  0.4746E+02
      6.603  0.1674E+01  0.4757E+02
      6.670  0.3117E+01  0.4778E+02
      6.736  0.9336E+00  0.4784E+02
      6.803  0.9516E+00  0.4790E+02
      6.869  0.3313E+00  0.4792E+02
      6.936  0.1531E+01  0.4802E+02
      7.002  0.1696E+01  0.4814E+02
      7.069  0.1226E+01  0.4822E+02
      7.135  0.2061E+01  0.4836E+02
      7.202  0.1003E+01  0.4842E+02
      7.268  0.1379E+01  0.4852E+02
      7.335  0.1833E+01  0.4864E+02
      7.401  0.1498E+01  0.4874E+02
      7.468  0.1583E+01  0.4884E+02
      7.534  0.1284E+01  0.4893E+02
      7.601  0.1407E+01  0.4902E+02
      7.668  0.2637E+00  0.4904E+02
      7.734  0.1782E-04  0.4904E+02
      7.801  0.1278E+01  0.4912E+02
      7.867  0.1063E+01  0.4920E+02
      7.934  0.3705E+01  0.4944E+02
      8.000  0.1366E+01  0.4953E+02
      8.067  0.2803E-11  0.4953E+02
      8.133  0.6255E+00  0.4958E+02
      8.200  0.1311E+01  0.4966E+02
      8.266  0.2594E+01  0.4984E+02
      8.333  0.2650E+00  0.4985E+02
      8.399  0.8350E+00  0.4991E+02
      8.466  0.1202E+01  0.4999E+02
      8.532  0.8863E+00  0.5005E+02
      8.599  0.8341E+00  0.5010E+02
      8.665  0.1917E+01  0.5023E+02
      8.732  0.1205E+01  0.5031E+02
      8.798  0.1871E+01  0.5044E+02
      8.865  0.3101E+00  0.5046E+02
      8.932  0.9482E+00  0.5052E+02
      8.998  0.8351E+00  0.5058E+02
      9.065  0.1576E+01  0.5068E+02
      9.131  0.1234E+01  0.5076E+02
      9.198  0.1153E+01  0.5084E+02
      9.264  0.6310E+00  0.5088E+02
      9.331  0.1251E+01  0.5097E+02
      9.397  0.1751E+01  0.5108E+02
      9.464  0.1913E+01  0.5121E+02
      9.530  0.1186E+01  0.5129E+02
      9.597  0.1620E+01  0.5140E+02
      9.663  0.1098E+01  0.5147E+02
      9.730  0.1066E+01  0.5154E+02
      9.796  0.2157E+00  0.5155E+02
      9.863  0.2177E+01  0.5170E+02
      9.929  0.2265E+01  0.5185E+02
      9.996  0.2317E+01  0.5200E+02
     10.062  0.3892E+01  0.5226E+02
     10.129  0.9665E+00  0.5233E+02
     10.196  0.1801E+01  0.5245E+02
     10.262  0.1015E+01  0.5252E+02
     10.329  0.1826E+01  0.5264E+02
     10.395  0.1423E+01  0.5273E+02
     10.462  0.2214E+00  0.5275E+02
     10.528  0.1043E+01  0.5282E+02
     10.595  0.9421E+00  0.5288E+02
     10.661  0.3014E+01  0.5308E+02
     10.728  0.2858E+01  0.5327E+02
     10.794  0.2030E+01  0.5340E+02
     10.861  0.1935E+01  0.5353E+02
     10.927  0.2084E+01  0.5367E+02
     10.994  0.1408E+01  0.5377E+02
     11.060  0.1380E+01  0.5386E+02
     11.127  0.1445E+01  0.5395E+02
     11.193  0.5829E+00  0.5399E+02
     11.260  0.1225E+01  0.5407E+02
     11.326  0.3095E+01  0.5428E+02
     11.393  0.1626E+01  0.5439E+02
     11.460  0.1560E+01  0.5449E+02
     11.526  0.1349E+01  0.5458E+02
     11.593  0.1193E+01  0.5466E+02
     11.659  0.4823E+00  0.5469E+02
     11.726  0.1935E+01  0.5482E+02
     11.792  0.9263E+00  0.5488E+02
     11.859  0.2483E+01  0.5505E+02
     11.925  0.1449E+01  0.5515E+02
     11.992  0.2234E+01  0.5529E+02
     12.058  0.1116E+01  0.5537E+02
     12.125  0.8274E+00  0.5542E+02
     12.191  0.6767E+00  0.5547E+02
     12.258  0.9932E+00  0.5554E+02
     12.324  0.1221E+01  0.5562E+02
     12.391  0.3116E-01  0.5562E+02
     12.457  0.3940E+00  0.5565E+02
     12.524  0.2315E+01  0.5580E+02
     12.590  0.2087E+00  0.5581E+02
     12.657  0.3794E+00  0.5584E+02
     12.724  0.7298E-01  0.5584E+02
     12.790  0.4110E+00  0.5587E+02
     12.857  0.4180E+00  0.5590E+02
     12.923  0.1206E+01  0.5598E+02
     12.990  0.4561E-01  0.5598E+02
     13.056  0.0000E+00  0.5598E+02
     13.123  0.0000E+00  0.5598E+02
     13.189  0.0000E+00  0.5598E+02
     13.256  0.0000E+00  0.5598E+02
     13.322  0.3961E-01  0.5599E+02
     13.389  0.6477E-01  0.5599E+02
     13.455  0.0000E+00  0.5599E+02
     13.522  0.4153E-16  0.5599E+02
     13.588  0.1640E-01  0.5599E+02
     13.655  0.9995E-03  0.5599E+02
     13.721  0.0000E+00  0.5599E+02
     13.788  0.4339E-04  0.5599E+02
     13.854  0.1391E+00  0.5600E+02
     13.921  0.0000E+00  0.5600E+02
     13.988  0.0000E+00  0.5600E+02
     14.054  0.0000E+00  0.5600E+02
     14.121  0.0000E+00  0.5600E+02
     14.187  0.0000E+00  0.5600E+02
     14.254  0.0000E+00  0.5600E+02
     14.320  0.0000E+00  0.5600E+02
     14.387  0.0000E+00  0.5600E+02
     14.453  0.0000E+00  0.5600E+02
     14.520  0.0000E+00  0.5600E+02
     14.586  0.0000E+00  0.5600E+02
     14.653  0.0000E+00  0.5600E+02
     14.719  0.0000E+00  0.5600E+02
