    4    4    1    1
  0.1803971E+02  0.4163225E-09  0.4163225E-09  0.4163225E-09  0.5000000E-15
  1.000000000000000E-004
  CAR 
 unknown system                          
   44   84   28
 
  0.0000000E+00  0.0000000E+00  0.0000000E+00  0.5787037E-03
   1       -4.3314
   2       -3.0803
   3       -3.0803
   4       -3.0803
   5       -2.9623
   6       -2.9623
   7       -2.9623
   8       -1.6041
   9       -1.6041
  10       -1.6041
  11       -0.6673
  12       -0.6673
  13        0.0236
  14        0.0236
  15        0.0236
  16        0.2405
  17        0.2405
  18        0.2405
  19        0.2405
  20        0.2405
  21        0.2405
  22        4.6991
  23        4.6991
  24        4.6991
  25        9.3553
  26        9.3553
  27        9.3553
  28       13.5772
 
  0.8333333E-01  0.0000000E+00  0.0000000E+00  0.3472222E-02
   1       -4.2618
   2       -3.0527
   3       -3.0445
   4       -3.0445
   5       -2.9413
   6       -2.9303
   7       -2.9303
   8       -1.6298
   9       -1.5798
  10       -1.5798
  11       -0.6930
  12       -0.6561
  13       -0.0106
  14       -0.0106
  15        0.0112
  16        0.1207
  17        0.1207
  18        0.1985
  19        0.1985
  20        0.2406
  21        0.2406
  22        4.2181
  23        4.8774
  24        4.8774
  25        9.3674
  26        9.3674
  27        9.9477
  28       13.3244
 
  0.1666667E+00  0.0000000E+00  0.0000000E+00  0.3472222E-02
   1       -4.0565
   2       -2.9733
   3       -2.9414
   4       -2.9414
   5       -2.8796
   6       -2.8344
   7       -2.8344
   8       -1.7047
   9       -1.5075
  10       -1.5075
  11       -0.7650
  12       -0.6230
  13       -0.1892
  14       -0.1892
  15       -0.1095
  16       -0.1095
  17       -0.0248
  18        0.0786
  19        0.0786
  20        0.2407
  21        0.2407
  22        3.1885
  23        5.3618
  24        5.3618
  25        9.4051
  26        9.4051
  27       11.3108
  28       12.6607
 
  0.2500000E+00  0.0000000E+00  0.0000000E+00  0.3472222E-02
   1       -3.7290
   2       -2.8539
   3       -2.7861
   4       -2.7861
   5       -2.7802
   6       -2.6754
   7       -2.6754
   8       -1.8219
   9       -1.3894
  10       -1.3894
  11       -0.8652
  12       -0.5967
  13       -0.5967
  14       -0.5701
  15       -0.2598
  16       -0.2598
  17       -0.1032
  18       -0.1032
  19       -0.0818
  20        0.2410
  21        0.2410
  22        2.0478
  23        6.0572
  24        6.0572
  25        9.4721
  26        9.4721
  27       11.7821
  28       11.7821
 
  0.3333333E+00  0.0000000E+00  0.0000000E+00  0.3472222E-02
   1       -3.3135
   2       -2.7184
   3       -2.6484
   4       -2.6071
   5       -2.6071
   6       -2.4544
   7       -2.4544
   8       -1.9716
   9       -1.2291
  10       -1.2291
  11       -1.0314
  12       -1.0314
  13       -0.9518
  14       -0.5006
  15       -0.4347
  16       -0.4347
  17       -0.3257
  18       -0.3257
  19       -0.1554
  20        0.2412
  21        0.2412
  22        0.9679
  23        6.8888
  24        6.8888
  25        9.5689
  26        9.5689
  27       10.8048
  28       10.8048
 
  0.4166667E+00  0.0000000E+00  0.0000000E+00  0.3472222E-02
   1       -2.8967
   2       -2.6149
   3       -2.4915
   4       -2.4534
   5       -2.4534
   6       -2.1737
   7       -2.1737
   8       -2.1414
   9       -1.4525
  10       -1.4525
  11       -1.0323
  12       -1.0323
  13       -0.9285
  14       -0.5861
  15       -0.5861
  16       -0.5669
  17       -0.5669
  18       -0.4188
  19       -0.2402
  20        0.0416
  21        0.2413
  22        0.2413
  23        7.8089
  24        7.8089
  25        9.6779
  26        9.6779
  27        9.7935
  28        9.7935
 
  0.5000000E+00  0.0000000E+00  0.0000000E+00  0.1736111E-02
   1       -2.6398
   2       -2.6398
   3       -2.3901
   4       -2.3901
   5       -2.3188
   6       -2.3188
   7       -1.8374
   8       -1.8374
   9       -1.8374
  10       -1.8374
  11       -0.8077
  12       -0.8077
  13       -0.8077
  14       -0.8077
  15       -0.6486
  16       -0.6486
  17       -0.6243
  18       -0.6243
  19       -0.3300
  20       -0.3300
  21        0.2414
  22        0.2414
  23        8.7857
  24        8.7857
  25        8.7857
  26        8.7857
  27        9.7342
  28        9.7342
 
  0.8333333E-01  0.8333333E-01  0.0000000E+00  0.6944444E-02
   1       -4.1931
   2       -3.0166
   3       -3.0166
   4       -3.0153
   5       -2.9098
   6       -2.9098
   7       -2.8929
   8       -1.6393
   9       -1.5711
  10       -1.5571
  11       -0.6998
  12       -0.6614
  13       -0.0434
  14       -0.0409
  15       -0.0409
  16        0.0376
  17        0.0961
  18        0.0961
  19        0.1984
  20        0.1984
  21        0.2115
  22        4.3881
  23        4.3881
  24        5.0482
  25        9.3792
  26        9.9681
  27        9.9681
  28       12.4974
 
  0.1666667E+00  0.8333333E-01  0.0000000E+00  0.1388889E-01
   1       -3.9908
   2       -2.9365
   3       -2.9291
   4       -2.9129
   5       -2.8493
   6       -2.8152
   7       -2.7843
   8       -1.7045
   9       -1.5065
  10       -1.4905
  11       -0.7619
  12       -0.6306
  13       -0.2785
  14       -0.2407
  15       -0.1402
  16       -0.1384
  17       -0.0736
  18        0.0370
  19        0.0782
  20        0.1970
  21        0.1982
  22        3.3539
  23        4.8438
  24        5.5163
  25        9.4142
  26       10.0305
  27       11.3367
  28       11.5601
 
  0.2500000E+00  0.8333333E-01  0.0000000E+00  0.1388889E-01
   1       -3.6684
   2       -2.8157
   3       -2.7906
   4       -2.7563
   5       -2.7520
   6       -2.6584
   7       -2.6149
   8       -1.8170
   9       -1.3902
  10       -1.3865
  11       -0.8514
  12       -0.6677
  13       -0.6279
  14       -0.5710
  15       -0.3105
  16       -0.2832
  17       -0.2367
  18       -0.1041
  19       -0.0392
  20        0.1941
  21        0.1978
  22        2.2208
  23        5.4839
  24        6.1953
  25        9.4606
  26       10.1348
  27       10.6455
  28       11.8860
 
  0.3333333E+00  0.8333333E-01  0.0000000E+00  0.1388889E-01
   1       -3.2600
   2       -2.6780
   3       -2.6230
   4       -2.6145
   5       -2.5759
   6       -2.4407
   7       -2.4004
   8       -1.9623
   9       -1.2723
  10       -1.2305
  11       -1.0876
  12       -1.0477
  13       -0.8985
  14       -0.5346
  15       -0.4904
  16       -0.4517
  17       -0.4173
  18       -0.3269
  19       -0.1302
  20        0.1940
  21        0.1972
  22        1.1630
  23        6.2295
  24        7.0136
  25        9.3508
  26        9.9702
  27       10.2589
  28       10.9072
 
  0.4166667E+00  0.8333333E-01  0.0000000E+00  0.1388889E-01
   1       -2.8496
   2       -2.5716
   3       -2.4696
   4       -2.4440
   5       -2.4215
   6       -2.1646
   7       -2.1494
   8       -2.1278
   9       -1.4898
  10       -1.4577
  11       -1.1929
  12       -1.0340
  13       -0.7934
  14       -0.7738
  15       -0.5959
  16       -0.5764
  17       -0.5685
  18       -0.3903
  19       -0.2414
  20        0.1946
  21        0.1964
  22        0.2842
  23        7.0303
  24        7.9238
  25        8.6747
  26        9.8974
  27        9.9520
  28       10.2959
 
  0.5000000E+00  0.8333333E-01  0.0000000E+00  0.6944444E-02
   1       -2.5945
   2       -2.5945
   3       -2.3633
   4       -2.3633
   5       -2.3009
   6       -2.3009
   7       -1.8484
   8       -1.8484
   9       -1.8344
  10       -1.8344
  11       -1.0457
  12       -1.0457
  13       -0.8094
  14       -0.8094
  15       -0.6492
  16       -0.6492
  17       -0.4589
  18       -0.4589
  19       -0.2382
  20       -0.2382
  21        0.1955
  22        0.1955
  23        7.8543
  24        7.8543
  25        8.8938
  26        8.8938
  27       10.1423
  28       10.1423
 
  0.1666667E+00  0.1666667E+00  0.0000000E+00  0.6944444E-02
   1       -3.7976
   2       -2.8741
   3       -2.8305
   4       -2.8305
   5       -2.7586
   6       -2.7586
   7       -2.6562
   8       -1.7317
   9       -1.4745
  10       -1.4415
  11       -0.7858
  12       -0.6143
  13       -0.4446
  14       -0.4446
  15       -0.4241
  16       -0.2225
  17       -0.0636
  18       -0.0636
  19        0.0770
  20        0.0770
  21        0.1260
  22        3.7855
  23        3.7855
  24        5.9474
  25        9.4203
  26       10.4815
  27       11.4059
  28       11.4059
 
  0.2500000E+00  0.1666667E+00  0.0000000E+00  0.1388889E-01
   1       -3.4914
   2       -2.7650
   3       -2.7056
   4       -2.6702
   5       -2.6677
   6       -2.6085
   7       -2.4769
   8       -1.8152
   9       -1.3785
  10       -1.3728
  11       -0.8481
  12       -0.8312
  13       -0.7336
  14       -0.6533
  15       -0.5357
  16       -0.3521
  17       -0.2135
  18       -0.1065
  19       -0.1014
  20        0.0750
  21        0.0876
  22        2.6530
  23        4.3761
  24        6.5869
  25        9.1207
  26        9.8232
  27       11.4546
  28       12.1894
 
  0.3333333E+00  0.1666667E+00  0.0000000E+00  0.1388889E-01
   1       -3.1058
   2       -2.6059
   3       -2.5611
   4       -2.5474
   5       -2.4848
   6       -2.4007
   7       -2.2722
   8       -1.9407
   9       -1.3317
  10       -1.2278
  11       -1.2262
  12       -1.1017
  13       -0.8908
  14       -0.8566
  15       -0.5035
  16       -0.4066
  17       -0.3938
  18       -0.3304
  19       -0.1848
  20        0.0726
  21        0.0728
  22        1.6104
  23        5.0552
  24        7.3717
  25        8.2673
  26        9.8615
  27       11.2060
  28       11.2466
 
  0.4166667E+00  0.1666667E+00  0.0000000E+00  0.1388889E-01
   1       -2.7166
   2       -2.4463
   3       -2.4201
   4       -2.4048
   5       -2.3282
   6       -2.1384
   7       -2.0900
   8       -2.0728
   9       -1.5852
  10       -1.4759
  11       -1.3515
  12       -1.1338
  13       -1.0354
  14       -0.7192
  15       -0.6287
  16       -0.5723
  17       -0.5640
  18       -0.3144
  19       -0.2113
  20        0.0683
  21        0.0701
  22        0.7454
  23        5.7890
  24        7.3919
  25        8.2562
  26       10.0764
  27       10.2001
  28       10.8080
 
  0.5000000E+00  0.1666667E+00  0.0000000E+00  0.6944444E-02
   1       -2.4659
   2       -2.4659
   3       -2.2908
   4       -2.2908
   5       -2.2488
   6       -2.2488
   7       -1.8691
   8       -1.8691
   9       -1.8269
  10       -1.8269
  11       -1.3140
  12       -1.3140
  13       -0.8127
  14       -0.8127
  15       -0.6589
  16       -0.6589
  17       -0.5001
  18       -0.5001
  19        0.0683
  20        0.0683
  21        0.1347
  22        0.1347
  23        6.5669
  24        6.5669
  25        9.2079
  26        9.2079
  27       10.3956
  28       10.3956
 
  0.2500000E+00  0.2500000E+00  0.0000000E+00  0.6944444E-02
   1       -3.2145
   2       -2.6881
   3       -2.5381
   4       -2.5381
   5       -2.5286
   6       -2.5286
   7       -2.2961
   8       -1.8465
   9       -1.3487
  10       -1.3213
  11       -1.0359
  12       -1.0359
  13       -0.9319
  14       -0.8951
  15       -0.4605
  16       -0.4088
  17       -0.2330
  18       -0.2330
  19       -0.1101
  20       -0.1101
  21       -0.0122
  22        3.2236
  23        3.2236
  24        7.1808
  25        8.1139
  26        9.8212
  27       12.5082
  28       12.5082
 
  0.3333333E+00  0.2500000E+00  0.0000000E+00  0.1388889E-01
   1       -2.8716
   2       -2.5588
   3       -2.4236
   4       -2.3817
   5       -2.3424
   6       -2.3373
   7       -2.1025
   8       -1.9253
   9       -1.4021
  10       -1.3567
  11       -1.2542
  12       -1.2066
  13       -1.2004
  14       -0.9131
  15       -0.5894
  16       -0.4053
  17       -0.3346
  18       -0.3082
  19       -0.1938
  20       -0.1137
  21       -0.0730
  22        2.1693
  23        3.8725
  24        7.1050
  25        7.9243
  26        9.9978
  27       11.6788
  28       11.8023
 
  0.4166667E+00  0.2500000E+00  0.0000000E+00  0.1388889E-01
   1       -2.5251
   2       -2.3841
   3       -2.3006
   4       -2.2536
   5       -2.1814
   6       -2.0984
   7       -2.0385
   8       -1.9444
   9       -1.7070
  10       -1.5148
  11       -1.4484
  12       -1.4449
  13       -1.0251
  14       -0.8071
  15       -0.6921
  16       -0.5806
  17       -0.5752
  18       -0.4411
  19       -0.1159
  20       -0.1023
  21        0.1225
  22        1.2787
  23        4.5798
  24        6.1833
  25        8.7752
  26       10.2767
  27       10.6783
  28       11.1738
 
  0.5000000E+00  0.2500000E+00  0.0000000E+00  0.6944444E-02
   1       -2.2795
   2       -2.2795
   3       -2.2020
   4       -2.2020
   5       -2.1684
   6       -2.1684
   7       -1.8611
   8       -1.8611
   9       -1.8198
  10       -1.8198
  11       -1.5229
  12       -1.5229
  13       -0.8113
  14       -0.8113
  15       -0.6965
  16       -0.6965
  17       -0.6218
  18       -0.6218
  19       -0.1137
  20       -0.1137
  21        0.5955
  22        0.5955
  23        5.3462
  24        5.3462
  25        9.7020
  26        9.7020
  27       10.6651
  28       10.6651
 
  0.3333333E+00  0.3333333E+00  0.0000000E+00  0.6944444E-02
   1       -2.5953
   2       -2.4673
   3       -2.2558
   4       -2.2558
   5       -2.1670
   6       -2.1670
   7       -1.9389
   8       -1.9212
   9       -1.5836
  10       -1.5836
  11       -1.3714
  12       -1.3653
  13       -1.1230
  14       -0.9894
  15       -0.6982
  16       -0.4740
  17       -0.4740
  18       -0.3369
  19       -0.3369
  20       -0.1956
  21        0.1234
  22        2.7954
  23        2.7954
  24        6.0418
  25        8.6276
  26       10.2329
  27       12.2958
  28       12.3170
 
  0.4166667E+00  0.3333333E+00  0.0000000E+00  0.1388889E-01
   1       -2.3292
   2       -2.3256
   3       -2.1635
   4       -2.0509
   5       -2.0231
   6       -1.9977
   7       -1.9906
   8       -1.8258
   9       -1.7833
  10       -1.7141
  11       -1.5854
  12       -1.4569
  13       -0.9845
  14       -0.9447
  15       -0.7878
  16       -0.6502
  17       -0.6051
  18       -0.5716
  19       -0.3330
  20       -0.2745
  21        0.5496
  22        1.8698
  23        3.4830
  24        5.0901
  25        9.4441
  26       10.5706
  27       11.3019
  28       11.6073
 
  0.5000000E+00  0.3333333E+00  0.0000000E+00  0.6944444E-02
   1       -2.1463
   2       -2.1463
   3       -2.1044
   4       -2.1044
   5       -2.0706
   6       -2.0706
   7       -1.8210
   8       -1.8210
   9       -1.7719
  10       -1.7719
  11       -1.6268
  12       -1.6268
  13       -0.7945
  14       -0.7945
  15       -0.7815
  16       -0.7815
  17       -0.7784
  18       -0.7784
  19       -0.3158
  20       -0.3158
  21        1.1213
  22        1.1213
  23        4.2424
  24        4.2424
  25       10.3437
  26       10.3437
  27       11.0246
  28       11.0246
 
  0.4166667E+00  0.4166667E+00  0.0000000E+00  0.6944444E-02
   1       -2.2444
   2       -2.1695
   3       -2.0048
   4       -2.0048
   5       -1.9655
   6       -1.9587
   7       -1.9587
   8       -1.7649
   9       -1.7649
  10       -1.6959
  11       -1.6397
  12       -1.4432
  13       -1.0336
  14       -0.8942
  15       -0.8884
  16       -0.7794
  17       -0.7794
  18       -0.5523
  19       -0.5523
  20       -0.4135
  21        1.0757
  22        2.5283
  23        2.5283
  24        4.1212
  25       10.2289
  26       10.9717
  27       12.0406
  28       12.0410
 
  0.5000000E+00  0.4166667E+00  0.0000000E+00  0.6944444E-02
   1       -2.1208
   2       -2.1208
   3       -2.0572
   4       -2.0572
   5       -1.9721
   6       -1.9721
   7       -1.8417
   8       -1.8417
   9       -1.6190
  10       -1.6190
  11       -1.5636
  12       -1.5636
  13       -0.9425
  14       -0.9425
  15       -0.9021
  16       -0.9021
  17       -0.7467
  18       -0.7467
  19       -0.5043
  20       -0.5043
  21        1.7276
  22        1.7276
  23        3.2721
  24        3.2721
  25       11.1020
  26       11.1020
  27       11.4927
  28       11.4927
 
  0.5000000E+00  0.5000000E+00  0.0000000E+00  0.1736111E-02
   1       -2.0902
   2       -2.0902
   3       -2.0902
   4       -2.0902
   5       -1.8918
   6       -1.8918
   7       -1.8918
   8       -1.8918
   9       -1.5067
  10       -1.5067
  11       -1.5067
  12       -1.5067
  13       -1.0031
  14       -1.0031
  15       -1.0031
  16       -1.0031
  17       -0.6519
  18       -0.6519
  19       -0.6519
  20       -0.6519
  21        2.4375
  22        2.4375
  23        2.4375
  24        2.4375
  25       11.9505
  26       11.9505
  27       11.9505
  28       11.9505
 
  0.8333333E-01  0.8333333E-01  0.8333333E-01  0.4629630E-02
   1       -4.1256
   2       -2.9881
   3       -2.9881
   4       -2.9881
   5       -2.8720
   6       -2.8720
   7       -2.8720
   8       -1.6453
   9       -1.5505
  10       -1.5505
  11       -0.6856
  12       -0.6856
  13       -0.0730
  14       -0.0730
  15       -0.0730
  16       -0.0080
  17       -0.0080
  18       -0.0080
  19        0.1900
  20        0.1900
  21        0.1900
  22        4.5496
  23        4.5496
  24        4.5496
  25        9.9871
  26        9.9871
  27        9.9871
  28       12.6071
 
  0.1666667E+00  0.8333333E-01  0.8333333E-01  0.1388889E-01
   1       -3.9269
   2       -2.9107
   3       -2.9034
   4       -2.9034
   5       -2.8096
   6       -2.7627
   7       -2.7627
   8       -1.7003
   9       -1.4936
  10       -1.4894
  11       -0.7512
  12       -0.6437
  13       -0.3108
  14       -0.3108
  15       -0.1616
  16       -0.1422
  17       -0.1422
  18       -0.1393
  19        0.1315
  20        0.1768
  21        0.1768
  22        3.5075
  23        4.9867
  24        4.9867
  25       10.0392
  26       10.0392
  27       11.3538
  28       11.6757
 
  0.2500000E+00  0.8333333E-01  0.8333333E-01  0.1388889E-01
   1       -3.6112
   2       -2.7967
   3       -2.7662
   4       -2.7662
   5       -2.7067
   6       -2.5938
   7       -2.5938
   8       -1.8058
   9       -1.3897
  10       -1.3892
  11       -0.8308
  12       -0.6916
  13       -0.6916
  14       -0.5769
  15       -0.3419
  16       -0.3042
  17       -0.2797
  18       -0.2797
  19        0.0480
  20        0.1670
  21        0.1670
  22        2.3745
  23        5.6080
  24        5.6080
  25       10.0564
  26       10.0564
  27       10.8380
  28       10.8380
 
  0.3333333E+00  0.8333333E-01  0.8333333E-01  0.1388889E-01
   1       -3.2129
   2       -2.6684
   3       -2.5894
   4       -2.5894
   5       -2.5694
   6       -2.3831
   7       -2.3831
   8       -1.9440
   9       -1.2925
  10       -1.2528
  11       -1.0984
  12       -1.0984
  13       -0.8407
  14       -0.5978
  15       -0.4894
  16       -0.4866
  17       -0.4459
  18       -0.4459
  19       -0.0516
  20        0.1616
  21        0.1616
  22        1.3196
  23        6.3382
  24        6.3382
  25        9.5852
  26        9.5852
  27       10.5980
  28       10.5980
 
  0.4166667E+00  0.8333333E-01  0.8333333E-01  0.1388889E-01
   1       -2.8151
   2       -2.5615
   3       -2.4173
   4       -2.4152
   5       -2.4152
   6       -2.1443
   7       -2.1443
   8       -2.1008
   9       -1.4856
  10       -1.4856
  11       -1.2506
  12       -1.0851
  13       -0.8827
  14       -0.6891
  15       -0.6484
  16       -0.5944
  17       -0.5944
  18       -0.3867
  19       -0.1612
  20        0.1590
  21        0.1590
  22        0.4300
  23        7.1273
  24        7.1273
  25        8.7761
  26        8.7761
  27       10.7960
  28       10.7960
 
  0.5000000E+00  0.8333333E-01  0.8333333E-01  0.6944444E-02
   1       -2.5722
   2       -2.5722
   3       -2.3369
   4       -2.3369
   5       -2.2620
   6       -2.2620
   7       -1.9228
   8       -1.9228
   9       -1.7655
  10       -1.7655
  11       -1.1342
  12       -1.1342
  13       -0.8936
  14       -0.8936
  15       -0.6571
  16       -0.6571
  17       -0.2751
  18       -0.2751
  19       -0.2300
  20       -0.2300
  21        0.1582
  22        0.1582
  23        7.9244
  24        7.9244
  25        7.9670
  26        7.9670
  27       10.9579
  28       10.9579
 
  0.1666667E+00  0.1666667E+00  0.8333333E-01  0.1388889E-01
   1       -3.7398
   2       -2.8522
   3       -2.8316
   4       -2.8316
   5       -2.6972
   6       -2.6972
   7       -2.6326
   8       -1.7151
   9       -1.4673
  10       -1.4467
  11       -0.7605
  12       -0.6354
  13       -0.4694
  14       -0.4665
  15       -0.4665
  16       -0.2738
  17       -0.2067
  18       -0.2067
  19        0.1259
  20        0.1259
  21        0.1348
  22        3.9156
  23        3.9156
  24        5.3815
  25        9.9698
  26       10.7029
  27       11.3307
  28       11.3307
 
  0.2500000E+00  0.1666667E+00  0.8333333E-01  0.2777778E-01
   1       -3.4452
   2       -2.7464
   3       -2.7289
   4       -2.6993
   5       -2.5865
   6       -2.5281
   7       -2.4536
   8       -1.7844
   9       -1.3863
  10       -1.3800
  11       -0.8451
  12       -0.8107
  13       -0.7792
  14       -0.6729
  15       -0.5536
  16       -0.3923
  17       -0.3472
  18       -0.3091
  19        0.0542
  20        0.0966
  21        0.0978
  22        2.7730
  23        4.4842
  24        5.9565
  25        9.2837
  26       10.4875
  27       10.7709
  28       11.8415
 
  0.3333333E+00  0.1666667E+00  0.8333333E-01  0.2777778E-01
   1       -3.0798
   2       -2.6152
   3       -2.5896
   4       -2.5224
   5       -2.4383
   6       -2.3270
   7       -2.2542
   8       -1.8940
   9       -1.3414
  10       -1.2661
  11       -1.2246
  12       -1.1362
  13       -0.9129
  14       -0.7800
  15       -0.5362
  16       -0.5283
  17       -0.4554
  18       -0.4258
  19       -0.0414
  20        0.0714
  21        0.0747
  22        1.7152
  23        5.1463
  24        6.6435
  25        8.3598
  26        9.9033
  27       10.6853
  28       11.9988
 
  0.4166667E+00  0.1666667E+00  0.8333333E-01  0.2777778E-01
   1       -2.7226
   2       -2.5178
   3       -2.4014
   4       -2.3350
   5       -2.2802
   6       -2.1294
   7       -2.0797
   8       -2.0198
   9       -1.5527
  10       -1.4761
  11       -1.3695
  12       -1.1596
  13       -1.1171
  14       -0.7417
  15       -0.6501
  16       -0.6050
  17       -0.5779
  18       -0.2353
  19       -0.1662
  20        0.0590
  21        0.0613
  22        0.8172
  23        5.8675
  24        7.3152
  25        7.5632
  26        9.0443
  27       11.0248
  28       11.9453
 
  0.5000000E+00  0.1666667E+00  0.8333333E-01  0.1388889E-01
   1       -2.5147
   2       -2.5147
   3       -2.2652
   4       -2.2652
   5       -2.1441
   6       -2.1441
   7       -2.0007
   8       -2.0007
   9       -1.6952
  10       -1.6952
  11       -1.3389
  12       -1.3389
  13       -0.9401
  14       -0.9401
  15       -0.6874
  16       -0.6874
  17       -0.3343
  18       -0.3343
  19        0.0562
  20        0.0562
  21        0.1457
  22        0.1457
  23        6.6343
  24        6.6343
  25        8.2195
  26        8.2195
  27       11.4772
  28       11.4772
 
  0.2500000E+00  0.2500000E+00  0.8333333E-01  0.1388889E-01
   1       -3.1902
   2       -2.6752
   3       -2.6081
   4       -2.6081
   5       -2.4131
   6       -2.4131
   7       -2.2747
   8       -1.7870
   9       -1.3562
  10       -1.3471
  11       -1.0418
  12       -1.0418
  13       -0.9606
  14       -0.8408
  15       -0.5244
  16       -0.4315
  17       -0.4122
  18       -0.4122
  19        0.0080
  20        0.0080
  21        0.0211
  22        3.3167
  23        3.3167
  24        6.4717
  25        8.2072
  26       10.6250
  27       11.2828
  28       11.2828
 
  0.3333333E+00  0.2500000E+00  0.8333333E-01  0.2777778E-01
   1       -2.8857
   2       -2.5520
   3       -2.5130
   4       -2.4394
   5       -2.2544
   6       -2.2191
   7       -2.0918
   8       -1.8313
   9       -1.3834
  10       -1.3610
  11       -1.2611
  12       -1.2526
  13       -1.2148
  14       -0.8208
  15       -0.6471
  16       -0.5799
  17       -0.5214
  18       -0.2186
  19       -0.1016
  20       -0.0437
  21       -0.0392
  22        2.2421
  23        3.9469
  24        6.9647
  25        7.3392
  26       10.3426
  27       10.9014
  28       11.8821
 
  0.4166667E+00  0.2500000E+00  0.8333333E-01  0.2777778E-01
   1       -2.6023
   2       -2.4380
   3       -2.3825
   4       -2.2375
   5       -2.0909
   6       -2.0816
   7       -1.9761
   8       -1.8934
   9       -1.6212
  10       -1.4662
  11       -1.4508
  12       -1.4423
  13       -1.1340
  14       -0.7762
  15       -0.7431
  16       -0.6584
  17       -0.6566
  18       -0.2465
  19       -0.0765
  20       -0.0752
  21        0.1023
  22        1.3212
  23        4.6414
  24        6.2229
  25        7.8786
  26        9.4644
  27       11.3036
  28       12.4839
 
  0.5000000E+00  0.2500000E+00  0.8333333E-01  0.1388889E-01
   1       -2.4410
   2       -2.4410
   3       -2.1921
   4       -2.1921
   5       -2.0364
   6       -2.0364
   7       -1.9563
   8       -1.9563
   9       -1.6239
  10       -1.6239
  11       -1.5259
  12       -1.5259
  13       -0.9685
  14       -0.9685
  15       -0.7533
  16       -0.7533
  17       -0.4377
  18       -0.4377
  19       -0.0870
  20       -0.0870
  21        0.6006
  22        0.6006
  23        5.3982
  24        5.3982
  25        8.6437
  26        8.6437
  27       11.8355
  28       11.8355
 
  0.3333333E+00  0.3333333E+00  0.8333333E-01  0.1388889E-01
   1       -2.6725
   2       -2.4722
   3       -2.3701
   4       -2.3701
   5       -2.0543
   6       -2.0543
   7       -1.9355
   8       -1.7897
   9       -1.5416
  10       -1.5416
  11       -1.3539
  12       -1.3358
  13       -1.2330
  14       -0.8566
  15       -0.7699
  16       -0.6544
  17       -0.6544
  18       -0.1808
  19       -0.1808
  20       -0.1417
  21        0.0990
  22        2.8497
  23        2.8497
  24        6.0694
  25        7.7646
  26       10.9082
  27       10.9082
  28       11.2337
 
  0.4166667E+00  0.3333333E+00  0.8333333E-01  0.2777778E-01
   1       -2.4873
   2       -2.3507
   3       -2.3364
   4       -2.2116
   5       -1.9758
   6       -1.8723
   7       -1.8547
   8       -1.7788
   9       -1.6673
  10       -1.6492
  11       -1.4503
  12       -1.4386
  13       -1.1501
  14       -0.8603
  15       -0.8277
  16       -0.7630
  17       -0.7505
  18       -0.3466
  19       -0.2366
  20       -0.2160
  21        0.5328
  22        1.8991
  23        3.5267
  24        5.1246
  25        8.4414
  26       10.0139
  27       11.5827
  28       11.6925
 
  0.5000000E+00  0.3333333E+00  0.8333333E-01  0.1388889E-01
   1       -2.3691
   2       -2.3691
   3       -2.2057
   4       -2.2057
   5       -1.9604
   6       -1.9604
   7       -1.7636
   8       -1.7636
   9       -1.6189
  10       -1.6189
  11       -1.5401
  12       -1.5401
  13       -1.0038
  14       -1.0038
  15       -0.8594
  16       -0.8594
  17       -0.5475
  18       -0.5475
  19       -0.2491
  20       -0.2491
  21        1.1240
  22        1.1240
  23        4.2803
  24        4.2803
  25        9.1937
  26        9.1937
  27       12.2825
  28       12.2826
 
  0.4166667E+00  0.4166667E+00  0.8333333E-01  0.1388889E-01
   1       -2.3922
   2       -2.3000
   3       -2.2500
   4       -2.2500
   5       -1.8445
   6       -1.8445
   7       -1.8369
   8       -1.7483
   9       -1.5954
  10       -1.5954
  11       -1.4115
  12       -1.3657
  13       -1.1688
  14       -0.9686
  15       -0.9094
  16       -0.9094
  17       -0.7439
  18       -0.4154
  19       -0.4154
  20       -0.3387
  21        1.0664
  22        2.5523
  23        2.5523
  24        4.1496
  25        9.1031
  26       10.6724
  27       10.6724
  28       12.2065
 
  0.5000000E+00  0.4166667E+00  0.8333333E-01  0.1388889E-01
   1       -2.3141
   2       -2.3141
   3       -2.2450
   4       -2.2450
   5       -1.8673
   6       -1.8673
   7       -1.7736
   8       -1.7736
   9       -1.4573
  10       -1.4573
  11       -1.4326
  12       -1.4326
  13       -1.0649
  14       -1.0649
  15       -0.9909
  16       -0.9909
  17       -0.6033
  18       -0.6033
  19       -0.4135
  20       -0.4135
  21        1.7327
  22        1.7327
  23        3.2964
  24        3.2964
  25        9.8475
  26        9.8475
  27       11.4265
  28       11.4265
 
  0.5000000E+00  0.5000000E+00  0.8333333E-01  0.3472222E-02
   1       -2.2778
   2       -2.2778
   3       -2.2778
   4       -2.2778
   5       -1.8120
   6       -1.8120
   7       -1.8120
   8       -1.8120
   9       -1.3483
  10       -1.3483
  11       -1.3483
  12       -1.3483
  13       -1.0991
  14       -1.0991
  15       -1.0991
  16       -1.0991
  17       -0.5501
  18       -0.5501
  19       -0.5501
  20       -0.5501
  21        2.4503
  22        2.4503
  23        2.4503
  24        2.4503
  25       10.5928
  26       10.5928
  27       10.5928
  28       10.5928
 
  0.1666667E+00  0.1666667E+00  0.1666667E+00  0.4629630E-02
   1       -3.5722
   2       -2.7922
   3       -2.7922
   4       -2.7922
   5       -2.5606
   6       -2.5606
   7       -2.5606
   8       -1.6863
   9       -1.4432
  10       -1.4432
  11       -0.6887
  12       -0.6887
  13       -0.5985
  14       -0.5985
  15       -0.5985
  16       -0.4004
  17       -0.4004
  18       -0.4004
  19        0.1384
  20        0.1384
  21        0.1384
  22        4.2721
  23        4.2721
  24        4.2721
  25       10.6106
  26       10.6106
  27       10.6106
  28       11.7777
 
  0.2500000E+00  0.1666667E+00  0.1666667E+00  0.1388889E-01