 running on    4 nodes
 distr:  one band on    1 nodes,    4 groups
 vasp.4.6.28 25Jul05 complex 
 POSCAR found :  1 types and   32 ions

 ----------------------------------------------------------------------------- 
|                                                                             |
|  ADVICE TO THIS USER RUNNING 'VASP/VAMP'   (HEAR YOUR MASTER'S VOICE ...):  |
|                                                                             |
|      You have a (more or less) 'large supercell' and for larger cells       |
|      it might be more efficient to use real space projection operators      |
|      So try LREAL= Auto  in the INCAR   file.                               |
|      Mind: If you want to do an extremely accurate calculations keep the    |
|      reciprocal projection scheme          (i.e. LREAL=.FALSE.)             |
|                                                                             |
 ----------------------------------------------------------------------------- 

 LDA part: xc-table for Pade appr. of Perdew
 found WAVECAR, reading the header
  number of k-points has changed, file:  20 present:  40
  trying to continue reading WAVECAR, but it might fail
 POSCAR, INCAR and KPOINTS ok, starting setup
 FFT: planning ...           1
 reading WAVECAR
 the WAVECAR file was read sucessfully
 initial charge from wavefunction
 entering main loop
       N       E                     dE             d eps       ncg     rms          rms(c)
RMM:   1    -0.107441127106E+03   -0.10744E+03   -0.67797E+02 17602   0.446E+01BRMIX: very serious problems
 the old and the new charge density differ
 old charge density:   344.20511 new  352.00000
    0.857E+00
RMM:   2    -0.104683826414E+03    0.27573E+01   -0.12294E+01 18012   0.100E+01    0.150E+00
RMM:   3    -0.104689629422E+03   -0.58030E-02   -0.93570E-01 18530   0.224E+00    0.779E-01
RMM:   4    -0.104693170054E+03   -0.35406E-02   -0.39071E-02 18703   0.294E-01    0.337E-01
RMM:   5    -0.104693763607E+03   -0.59355E-03   -0.28095E-03 18372   0.145E-01    0.778E-02
RMM:   6    -0.104693602593E+03    0.16101E-03   -0.10706E-03 18307   0.100E-01    0.123E-02
RMM:   7    -0.104693600216E+03    0.23774E-05   -0.60111E-05 13687   0.116E-02
   1 F= -.10469360E+03 E0= -.10469718E+03  d E =0.107250E-01

 ----------------------------------------------------------------------------- 
|                                                                             |
|           W    W    AA    RRRRR   N    N  II  N    N   GGGG   !!!           |
|           W    W   A  A   R    R  NN   N  II  NN   N  G    G  !!!           |
|           W    W  A    A  R    R  N N  N  II  N N  N  G       !!!           |
|           W WW W  AAAAAA  RRRRR   N  N N  II  N  N N  G  GGG   !            |
|           WW  WW  A    A  R   R   N   NN  II  N   NN  G    G                |
|           W    W  A    A  R    R  N    N  II  N    N   GGGG   !!!           |
|                                                                             |
|      The partial DOS and the PROCAR file are not evaluated for NPAR/=1      |
|      please rerun with NPAR=1                                               |
|                                                                             |
 ----------------------------------------------------------------------------- 

