       N       E                     dE             d eps       ncg     rms          rms(c)
RMM:   1    -0.107441725630E+03   -0.10744E+03   -0.67799E+02 17599   0.446E+01    0.857E+00
RMM:   2    -0.104683708329E+03    0.27580E+01   -0.12297E+01 18006   0.100E+01    0.150E+00
RMM:   3    -0.104689637400E+03   -0.59291E-02   -0.93669E-01 18529   0.224E+00    0.779E-01
RMM:   4    -0.104693169439E+03   -0.35320E-02   -0.38980E-02 18688   0.295E-01    0.334E-01
RMM:   5    -0.104693762616E+03   -0.59318E-03   -0.27679E-03 18394   0.143E-01    0.776E-02
RMM:   6    -0.104693602587E+03    0.16003E-03   -0.10658E-03 18300   0.996E-02    0.123E-02
RMM:   7    -0.104693600242E+03    0.23448E-05   -0.60082E-05 13685   0.116E-02
   1 F= -.10469360E+03 E0= -.10469718E+03  d E =0.107250E-01
