       N       E                     dE             d eps       ncg     rms          rms(c)
RMM:   1    -0.107441127106E+03   -0.10744E+03   -0.67797E+02 17602   0.446E+01    0.857E+00
RMM:   2    -0.104683826414E+03    0.27573E+01   -0.12294E+01 18012   0.100E+01    0.150E+00
RMM:   3    -0.104689629422E+03   -0.58030E-02   -0.93570E-01 18530   0.224E+00    0.779E-01
RMM:   4    -0.104693170054E+03   -0.35406E-02   -0.39071E-02 18703   0.294E-01    0.337E-01
RMM:   5    -0.104693763607E+03   -0.59355E-03   -0.28095E-03 18372   0.145E-01    0.778E-02
RMM:   6    -0.104693602593E+03    0.16101E-03   -0.10706E-03 18307   0.100E-01    0.123E-02
RMM:   7    -0.104693600216E+03    0.23774E-05   -0.60111E-05 13687   0.116E-02
   1 F= -.10469360E+03 E0= -.10469718E+03  d E =0.107250E-01
