 vasp.4.6.28 25Jul05 complex 
 executed on             LinuxIFC date 2017.01.24  12:34:56
 running on    4 nodes
 distr:  one band on    1 nodes,    4 groups


--------------------------------------------------------------------------------------------------------


 INCAR:
 POTCAR:   PAW_PBE Au 06Sep2000                   
 POTCAR:   PAW_PBE Au 06Sep2000                   
   VRHFIN =Au: s1d10                                                            
   LEXCH  = PE                                                                  
   EATOM  =   926.0567 eV,   68.0632 Ry                                         
                                                                                
   TITEL  = PAW_PBE Au 06Sep2000                                                
   LULTRA =        F    use ultrasoft PP ?                                      
   IUNSCR =        1    unscreen: 0-lin 1-nonlin 2-no                           
   RPACOR =    2.330    partial core radius                                     
   POMASS =  196.966; ZVAL   =   11.000    mass and valenz                      
   RCORE  =    2.500    outmost cutoff radius                                   
   RWIGS  =    2.840; RWIGS  =    1.503    wigner-seitz radius (au A)           
   ENMAX  =  229.948; ENMIN  =  172.461 eV                                      
   RCLOC  =    1.964    cutoff for local pot                                    
   LCOR   =        T    correct aug charges                                     
   LPAW   =        T    paw PP                                                  
   EAUG   =  356.670                                                            
   DEXC   =    -.025                                                            
   RMAX   =    3.041    core radius for proj-oper                               
   RAUG   =    1.300    factor for augmentation sphere                          
   RDEP   =    2.598    radius for radial grids                                 
   QCUT   =   -4.111; QGAM   =    8.222    optimization parameters              
                                                                                
   Description                                                                  
     l     E      TYP  RCUT    TYP  RCUT                                        
     2   .000     23  2.500                                                     
     2   .000     23  2.500                                                     
     0   .000     23  2.500                                                     
     0   .000     23  2.500                                                     
     1  -.200     23  2.500                                                     
     1   .000     23  2.500                                                     
     3   .000      7   .000                                                     
  local pseudopotential read in
  partial core-charges read in
  atomic valenz-charges read in
  non local Contribution for L=           2  read in
    real space projection operators read in
  non local Contribution for L=           2  read in
    real space projection operators read in
  non local Contribution for L=           0  read in
    real space projection operators read in
  non local Contribution for L=           0  read in
    real space projection operators read in
  non local Contribution for L=           1  read in
    real space projection operators read in
  non local Contribution for L=           1  read in
    real space projection operators read in
    PAW grid and wavefunctions read in
 
   number of l-projection  operators is LMAX  =           6
   number of lm-projection operators is LMMAX =          18
 

 ----------------------------------------------------------------------------- 
|                                                                             |
|  ADVICE TO THIS USER RUNNING 'VASP/VAMP'   (HEAR YOUR MASTER'S VOICE ...):  |
|                                                                             |
|      You have a (more or less) 'large supercell' and for larger cells       |
|      it might be more efficient to use real space projection operators      |
|      So try LREAL= Auto  in the INCAR   file.                               |
|      Mind: If you want to do an extremely accurate calculations keep the    |
|      reciprocal projection scheme          (i.e. LREAL=.FALSE.)             |
|                                                                             |
 ----------------------------------------------------------------------------- 

 PAW_PBE Au 06Sep2000                   :
 energy of atom  1       EATOM= -926.0567
 kinetic energy error for atom=    0.0013 (will be added to EATOM!!)
 
 EXHCAR: internal setup
 exchange correlation table for  LEXCH =        8
   RHO(1)=    0.500       N(1)  =     2000
   RHO(2)=  100.500       N(2)  =     4000
 
 POSCAR: No title                                
  positions in direct lattice
  No initial velocities read in
 


--------------------------------------------------------------------------------------------------------


 ion  position               nearest neighbor table
   1  0.750  0.750  0.500-   3 2.95  14 2.95  19 2.95  20 2.95   5 2.95  26 2.95   6 2.95  29 2.95
                            11 2.95  18 2.95  10 2.95   8 2.95
   2  0.750  0.750  0.000-   8 2.95  10 2.95  22 2.95  27 2.95  11 2.95  18 2.95  12 2.95  32 2.95
                             5 2.95  26 2.95   3 2.95  20 2.95
   3  0.750  0.000  0.250-   1 2.95   5 2.95   9 2.95  28 2.95  19 2.95  12 2.95  13 2.95  18 2.95
                            27 2.95   6 2.95   4 2.95   2 2.95
   4  0.750  0.250  0.500-   6 2.95   8 2.95  10 2.95  29 2.95  13 2.95  31 2.95  14 2.95  19 2.95
                            21 2.95  28 2.95   3 2.95  20 2.95
   5  0.000  0.750  0.250-   3 2.95  12 2.95  14 2.95  25 2.95  15 2.95   1 2.95  16 2.95  10 2.95
                             2 2.95   7 2.95  22 2.95   6 2.95
   6  0.000  0.000  0.500-   4 2.95   7 2.95  11 2.95  13 2.95   8 2.95  16 2.95   1 2.95  17 2.95
                             3 2.95  23 2.95  21 2.95   5 2.95
   7  0.250  0.750  0.500-   6 2.95  16 2.95  29 2.95  30 2.95  11 2.95  18 2.95  14 2.95  19 2.95
                             5 2.95  26 2.95  25 2.95  23 2.95
   8  0.750  0.000  0.750-   2 2.95   4 2.95  11 2.95  31 2.95  27 2.95   6 2.95  21 2.95  26 2.95
                            12 2.95  19 2.95   9 2.95   1 2.95
   9  0.750  0.250  0.000-   3 2.95  12 2.95  20 2.95  32 2.95  28 2.95  21 2.95  22 2.95  27 2.95
                            31 2.95  13 2.95  10 2.95   8 2.95
  10  0.750  0.500  0.250-   2 2.95   4 2.95  13 2.95  18 2.95  22 2.95  29 2.95  28 2.95   5 2.95
                            14 2.95  32 2.95   9 2.95   1 2.95
  11  0.000  0.750  0.750-   6 2.95   8 2.95  22 2.95  30 2.95   7 2.95   2 2.95  23 2.95  20 2.95
                             1 2.95  15 2.95  14 2.95  12 2.95
  12  0.000  0.000  0.000-   5 2.95   9 2.95  15 2.95  21 2.95   3 2.95  23 2.95   2 2.95  24 2.95
                            16 2.95   8 2.95  13 2.95  11 2.95
  13  0.000  0.250  0.250-   6 2.95  10 2.95  16 2.95  22 2.95   4 2.95  24 2.95   3 2.95  25 2.95
                            17 2.95   9 2.95  14 2.95  12 2.95
  14  0.000  0.500  0.500-   1 2.95   5 2.95  17 2.95  21 2.95  20 2.95  25 2.95   4 2.95   7 2.95
                            10 2.95  30 2.95  13 2.95  11 2.95
  15  0.250  0.750  0.000-  12 2.95  23 2.95  25 2.95  32 2.95  26 2.95   5 2.95  27 2.95  22 2.95
                            11 2.95  18 2.95  30 2.95  16 2.95
  16  0.250  0.000  0.250-   7 2.95  13 2.95  18 2.95  24 2.95   6 2.95  27 2.95   5 2.95  28 2.95
                            19 2.95  12 2.95  17 2.95  15 2.95
  17  0.250  0.250  0.500-  14 2.95  19 2.95  23 2.95  25 2.95  21 2.95  28 2.95   6 2.95  29 2.95
                            13 2.95  31 2.95  30 2.95  16 2.95
  18  0.500  0.750  0.250-  10 2.95  16 2.95  27 2.95  29 2.95   2 2.95   7 2.95   3 2.95  25 2.95
                             1 2.95  15 2.95  19 2.95  32 2.95
  19  0.500  0.000  0.500-   1 2.95  17 2.95  26 2.95  28 2.95   3 2.95  23 2.95   4 2.95   7 2.95
                             8 2.95  16 2.95  18 2.95  31 2.95
  20  0.750  0.500  0.750-   1 2.95   9 2.95  21 2.95  26 2.95  14 2.95  32 2.95  31 2.95  11 2.95
                            22 2.95  29 2.95   4 2.95   2 2.95
  21  0.000  0.250  0.750-  12 2.95  14 2.95  20 2.95  23 2.95   9 2.95  17 2.95   8 2.95  30 2.95
                            24 2.95   4 2.95  22 2.95   6 2.95
  22  0.000  0.500  0.000-   2 2.95  11 2.95  13 2.95  24 2.95  10 2.95  30 2.95   9 2.95  15 2.95
                            25 2.95  20 2.95  21 2.95   5 2.95
  23  0.250  0.000  0.750-  15 2.95  17 2.95  21 2.95  26 2.95  12 2.95  19 2.95  11 2.95  31 2.95
                            27 2.95   6 2.95  24 2.95   7 2.95
  24  0.250  0.250  0.000-  16 2.95  22 2.95  27 2.95  30 2.95  13 2.95  31 2.95  12 2.95  32 2.95
                            28 2.95  21 2.95  25 2.95  23 2.95
  25  0.250  0.500  0.250-   5 2.95  15 2.95  17 2.95  28 2.95  14 2.95  32 2.95  13 2.95  18 2.95
                            29 2.95  22 2.95  24 2.95   7 2.95
  26  0.500  0.750  0.750-  19 2.95  20 2.95  23 2.95  32 2.95   1 2.95  15 2.95  30 2.95   8 2.95
                             7 2.95   2 2.95  27 2.95  29 2.95
  27  0.500  0.000  0.000-   2 2.95  18 2.95  24 2.95  31 2.95  16 2.95   8 2.95   9 2.95  15 2.95
                             3 2.95  23 2.95  28 2.95  26 2.95
  28  0.500  0.250  0.250-   3 2.95  19 2.95  25 2.95  32 2.95  17 2.95   9 2.95  10 2.95  16 2.95
                             4 2.95  24 2.95  29 2.95  27 2.95
  29  0.500  0.500  0.500-   4 2.95   7 2.95  18 2.95  31 2.95  30 2.95  10 2.95  17 2.95   1 2.95
                            20 2.95  25 2.95  26 2.95  28 2.95
  30  0.250  0.500  0.750-   7 2.95  11 2.95  24 2.95  31 2.95  29 2.95  22 2.95  21 2.95  26 2.95
                            14 2.95  32 2.95  17 2.95  15 2.95
  31  0.500  0.250  0.750-   8 2.95  27 2.95  29 2.95  30 2.95  24 2.95   4 2.95  20 2.95  23 2.95
                             9 2.95  17 2.95  19 2.95  32 2.95
  32  0.500  0.500  0.000-   9 2.95  15 2.95  26 2.95  28 2.95  20 2.95  25 2.95  24 2.95   2 2.95
                            10 2.95  30 2.95  18 2.95  31 2.95
 
  LATTYP: Found a simple cubic cell.
 ALAT       =     8.3377527800
  
  Lattice vectors:
  
 A1 = (   8.3377527800,   0.0000000000,   0.0000000000)
 A2 = (   0.0000001500,   8.3377527800,   0.0000000000)
 A3 = (   0.0000001500,   0.0000001500,   8.3377527800)
 Subroutine PRICEL returns following result:
 
  LATTYP: Found a face centered cubic cell.
 ALAT       =     4.1688764275
  
  Lattice vectors:
  
 A1 = (   2.0844382325,   2.0844381950,   0.0000000000)
 A2 = (   2.0844381575,  -0.0000000375,  -2.0844381950)
 A3 = (   0.0000000000,   2.0844381575,  -2.0844381950)
 
  32 primitive cells build up your supercell.
 

Analysis of symmetry for initial positions (statically):

 Routine SETGRP: Setting up the symmetry group for a 
 simple cubic supercell.


 Subroutine GETGRP returns: Found 48 space group operations
 (whereof 48 operations were pure point group operations)
 out of a pool of 48 trial point group operations.


The static configuration has the point symmetry O_h .

Analysis of symmetry for dynamics (positions and initial velocities):

 Subroutine DYNSYM returns: Found 48 space group operations
 (whereof 48 operations were pure point group operations)
 out of a pool of 48 trial space group operations
 (whereof 48 operations were pure point group operations)
 and found also    32 'primitive' translations


The dynamic configuration has the point symmetry O_h .
 
 
 KPOINTS: Automatic mesh                          

Automatic generation of k-mesh.
 
 Subroutine IBZKPT returns following result:
 ===========================================
 
 Found     20 irreducible k-points:
 
 Following reciprocal coordinates:
            Coordinates               Weight
  0.062500  0.062500  0.062500      8.000000
  0.187500  0.062500  0.062500     24.000000
  0.312500  0.062500  0.062500     24.000000
  0.437500  0.062500  0.062500     24.000000
  0.187500  0.187500  0.062500     24.000000
  0.312500  0.187500  0.062500     48.000000
  0.437500  0.187500  0.062500     48.000000
  0.312500  0.312500  0.062500     24.000000
  0.437500  0.312500  0.062500     48.000000
  0.437500  0.437500  0.062500     24.000000
  0.187500  0.187500  0.187500      8.000000
  0.312500  0.187500  0.187500     24.000000
  0.437500  0.187500  0.187500     24.000000
  0.312500  0.312500  0.187500     24.000000
  0.437500  0.312500  0.187500     48.000000
  0.437500  0.437500  0.187500     24.000000
  0.312500  0.312500  0.312500      8.000000
  0.437500  0.312500  0.312500     24.000000
  0.437500  0.437500  0.312500     24.000000
  0.437500  0.437500  0.437500      8.000000
 
 Following cartesian coordinates:
            Coordinates               Weight
  0.007496  0.007496  0.007496      8.000000
  0.022488  0.007496  0.007496     24.000000
  0.037480  0.007496  0.007496     24.000000
  0.052472  0.007496  0.007496     24.000000
  0.022488  0.022488  0.007496     24.000000
  0.037480  0.022488  0.007496     48.000000
  0.052472  0.022488  0.007496     48.000000
  0.037480  0.037480  0.007496     24.000000
  0.052472  0.037480  0.007496     48.000000
  0.052472  0.052472  0.007496     24.000000
  0.022488  0.022488  0.022488      8.000000
  0.037480  0.022488  0.022488     24.000000
  0.052472  0.022488  0.022488     24.000000
  0.037480  0.037480  0.022488     24.000000
  0.052472  0.037480  0.022488     48.000000
  0.052472  0.052472  0.022488     24.000000
  0.037480  0.037480  0.037480      8.000000
  0.052472  0.037480  0.037480     24.000000
  0.052472  0.052472  0.037480     24.000000
  0.052472  0.052472  0.052472      8.000000
 


--------------------------------------------------------------------------------------------------------




 Dimension of arrays:
   k-Points           NKPTS =     20   number of bands    NBANDS=    212
   number of dos      NEDOS =    301   number of ions     NIONS =     32
   non local maximal  LDIM  =      6   non local SUM 2l+1 LMDIM =     18
   total plane-waves  NPLWV = 343000
   max r-space proj   IRMAX =      1   max aug-charges    IRDMAX= 289671
   dimension x,y,z NGX =    70 NGY =   70 NGZ =   70
   dimension x,y,z NGXF=   140 NGYF=  140 NGZF=  140
   support grid    NGXF=   280 NGYF=  280 NGZF=  280
   ions per type =              32
 NGX,Y,Z   is equivalent  to a cutoff of  13.96, 13.96, 13.96 a.u.
 NGXF,Y,Z  is equivalent  to a cutoff of  27.91, 27.91, 27.91 a.u.


 I would recommend the setting:
   dimension x,y,z NGX =    67 NGY =   67 NGZ =   67
 SYSTEM =  No title                                
 POSCAR =  No title                                

 Startparameter for this run:
   NWRITE =      2    write-flag & timer
   PREC   = accura    medium, high low
   ISTART =      0    job   : 0-new  1-cont  2-samecut
   ICHARG =      2    charge: 1-file 2-atom 10-const
   ISPIN  =      1    spin polarized calculation?
   LNONCOLLINEAR =      F non collinear calculations
   LSORBIT =      F    spin-orbit coupling
   INIWAV =      1    electr: 0-lowe 1-rand  2-diag
   LASPH  =      F    aspherical Exc in radial PAW
   METAGGA=      F    non-selfconsistent MetaGGA calc.

 Electronic Relaxation 1
   ENCUT  =  600.0 eV  44.10 Ry    6.64 a.u.  16.65 16.65 16.65*2*pi/ulx,y,z
   ENINI  =  600.0     initial cutoff
   ENAUG  =  356.7 eV  augmentation charge cutoff
   NELM   =     60;   NELMIN=  2; NELMDL=-12     # of ELM steps 
   EDIFF  = 0.1E-04   stopping-criterion for ELM
   LREAL  =      F    real-space projection
   LCOMPAT=      F    compatible to vasp.4.4
   LREAL_COMPAT= F    compatible to vasp.4.5.1-3
   GGA_COMPAT  = T    GGA compatible to vasp.4.4-vasp.4.6
   LMAXPAW     = -100 max onsite density
   LMAXMIX     =    2 max onsite mixed and CHGCAR
   VOSKOWN=      1    Vosko Wilk Nusair interpolation
   ROPT   =    0.00000
 Ionic relaxation
   EDIFFG = -.2E-01   stopping-criterion for IOM
   NSW    =    100    number of steps for IOM
   NBLOCK =      1;   KBLOCK =    100    inner block; outer block 
   IBRION =      2    ionic relax: 0-MD 1-quasi-New 2-CG
   NFREE  =      1    steps in history (QN), initial steepest desc. (CG)
   ISIF   =      2    stress and relaxation
   IWAVPR =     11    prediction:  0-non 1-charg 2-wave 3-comb
   ISYM   =      2    0-nonsym 1-usesym 2-fastsym
   LCORR  =      T    Harris-Foulkes like correction to forces

   POTIM  =   0.50    time-step for ionic-motion
   TEIN   =    0.0    initial temperature
   TEBEG  =    0.0;   TEEND  =   0.0 temperature during run
   SMASS  =  -3.00    Nose mass-parameter (am)
   estimated Nose-frequenzy (Omega)   =  0.10E-29 period in steps =****** mass=  -0.159E-26a.u.
   NPACO  =    256;   APACO  = 16.0  distance and # of slots for P.C.
   PSTRESS=    0.0 pullay stress

  Mass of Ions in am
   POMASS = 196.97
  Ionic Valenz
   ZVAL   =  11.00
  Atomic Wigner-Seitz radii
   RWIGS  =   1.34
   NELECT =     352.0000    total number of electrons
   NUPDOWN=      -1.0000    fix difference up-down

 DOS related values:
   EMIN   =  10.00;   EMAX   =-10.00  energy-range for DOS
   ISMEAR =     1;   SIGMA  =   0.20  broadening in eV -4-tet -1-fermi 0-gaus

 Electronic relaxation 2 (details)
   IALGO  =     48    algorithm
   LDIAG  =      T    sub-space diagonalisation
   IMIX   =      4    mixing-type and parameters
     AMIX     =   0.40;   BMIX     =  1.00
     AMIX_MAG =   1.60;   BMIX_MAG =  1.00
     AMIN     =   0.10
     WC   =   100.;   INIMIX=   1;  MIXPRE=   1

 Intra band minimization:
   WEIMIN = 0.0010     energy-eigenvalue tresh-hold
   EBREAK =  0.12E-07  absolut break condition
   DEPER  =   0.30     relativ break condition  

   TIME   =   0.10     timestep for ELM

  volume/ion in A,a.u.               =      18.11       122.23
  Fermi-wavevector in a.u.,eV,Ry     =   1.386352 26.149998  1.921971

 Second variation
   LSECVAR=     F    do a second variation
 
 Write flags
   LWAVE  =      T    write WAVECAR
   LCHARG =      F    write CHGCAR
   LVTOT  =      F    write LOCPOT, local potential
   LELF   =      F    write electronic localiz. function (ELF)
   LORBIT =      0    0 simple, 1 ext, 2 COOP (PROOUT)


 Dipole corrections
   IDIPOL =      0    1-x, 2-y, 3-z
   LDIPOL =      F    correct potential



--------------------------------------------------------------------------------------------------------


 conjugate gradient relaxation of ions
 charge density will be updated during run
 non-spin polarized calculation
 RMM-DIIS sequential band-by-band
 performe sub-space diagonalisation
    before iterative eigenvector-optimisation
 modified Broyden-mixing scheme, WC =      100.0
 initial mixing is a Kerker type mixing with AMIX =  0.4000 and BMIX =      1.0000
 Hartree-type preconditioning will be used
 using additional bands           36
 reciprocal scheme for non local part
 use partial core corrections
 calculate Harris-corrections to forces 
   (improved forces if not selfconsistent)
 use gradient corrections 
 use of overlap-Matrix (Vanderbilt PP)
 Methfessel and Paxton  Order N= 1 SIGMA  =   0.20


--------------------------------------------------------------------------------------------------------


  energy-cutoff  :      600.00
  volume of cell :      579.62
      direct lattice vectors                 reciprocal lattice vectors
     8.337752780  0.000000000  0.000000000     0.119936394 -0.000000002 -0.000000002
     0.000000150  8.337752780  0.000000000     0.000000000  0.119936394 -0.000000002
     0.000000150  0.000000150  8.337752780     0.000000000  0.000000000  0.119936394

  length of vectors
     8.337752780  8.337752780  8.337752780     0.119936394  0.119936394  0.119936394


 
 k-points in units of 2pi/SCALE and weight: Automatic mesh                          
   0.00749602  0.00749602  0.00749602       0.016
   0.02248807  0.00749602  0.00749602       0.047
   0.03748012  0.00749602  0.00749602       0.047
   0.05247217  0.00749602  0.00749602       0.047
   0.02248807  0.02248807  0.00749602       0.047
   0.03748012  0.02248807  0.00749602       0.094
   0.05247217  0.02248807  0.00749602       0.094
   0.03748012  0.03748012  0.00749602       0.047
   0.05247217  0.03748012  0.00749602       0.094
   0.05247217  0.05247217  0.00749602       0.047
   0.02248807  0.02248807  0.02248807       0.016
   0.03748012  0.02248807  0.02248807       0.047
   0.05247217  0.02248807  0.02248807       0.047
   0.03748012  0.03748012  0.02248807       0.047
   0.05247217  0.03748012  0.02248807       0.094
   0.05247217  0.05247217  0.02248807       0.047
   0.03748012  0.03748012  0.03748012       0.016
   0.05247217  0.03748012  0.03748012       0.047
   0.05247217  0.05247217  0.03748012       0.047
   0.05247217  0.05247217  0.05247217       0.016
 
 k-points in reciprocal lattice and weights: Automatic mesh                          
   0.06250000  0.06250000  0.06250000       0.016
   0.18750000  0.06250000  0.06250000       0.047
   0.31250000  0.06250000  0.06250000       0.047
   0.43750000  0.06250000  0.06250000       0.047
   0.18750000  0.18750000  0.06250000       0.047
   0.31250000  0.18750000  0.06250000       0.094
   0.43750000  0.18750000  0.06250000       0.094
   0.31250000  0.31250000  0.06250000       0.047
   0.43750000  0.31250000  0.06250000       0.094
   0.43750000  0.43750000  0.06250000       0.047
   0.18750000  0.18750000  0.18750000       0.016
   0.31250000  0.18750000  0.18750000       0.047
   0.43750000  0.18750000  0.18750000       0.047
   0.31250000  0.31250000  0.18750000       0.047
   0.43750000  0.31250000  0.18750000       0.094
   0.43750000  0.43750000  0.18750000       0.047
   0.31250000  0.31250000  0.31250000       0.016
   0.43750000  0.31250000  0.31250000       0.047
   0.43750000  0.43750000  0.31250000       0.047
   0.43750000  0.43750000  0.43750000       0.016
 
 position of ions in fractional coordinates (direct lattice) 
   0.75000000  0.75000000  0.50000000
   0.75000000  0.75000000  0.00000000
   0.75000000  0.00000000  0.25000000
   0.75000000  0.25000000  0.50000000
   0.00000000  0.75000000  0.25000000
   0.00000000  0.00000000  0.50000000
   0.25000000  0.75000000  0.50000000
   0.75000000  0.00000000  0.75000000
   0.75000000  0.25000000  0.00000000
   0.75000000  0.50000000  0.25000000
   0.00000000  0.75000000  0.75000000
   0.00000000  0.00000000  0.00000000
   0.00000000  0.25000000  0.25000000
   0.00000000  0.50000000  0.50000000
   0.25000000  0.75000000  0.00000000
   0.25000000  0.00000000  0.25000000
   0.25000000  0.25000000  0.50000000
   0.50000000  0.75000000  0.25000000
   0.50000000  0.00000000  0.50000000
   0.75000000  0.50000000  0.75000000
   0.00000000  0.25000000  0.75000000
   0.00000000  0.50000000  0.00000000
   0.25000000  0.00000000  0.75000000
   0.25000000  0.25000000  0.00000000
   0.25000000  0.50000000  0.25000000
   0.50000000  0.75000000  0.75000000
   0.50000000  0.00000000  0.00000000
   0.50000000  0.25000000  0.25000000
   0.50000000  0.50000000  0.50000000
   0.25000000  0.50000000  0.75000000
   0.50000000  0.25000000  0.75000000
   0.50000000  0.50000000  0.00000000
 
 position of ions in cartesian coordinates  (Angst):
   6.25331477  6.25331466  4.16887639
   6.25331470  6.25331459  0.00000000
   6.25331462  0.00000004  2.08443820
   6.25331470  2.08443827  4.16887639
   0.00000015  6.25331462  2.08443820
   0.00000007  0.00000007  4.16887639
   2.08443838  6.25331466  4.16887639
   6.25331470  0.00000011  6.25331459
   6.25331462  2.08443820  0.00000000
   6.25331470  4.16887643  2.08443820
   0.00000022  6.25331470  6.25331459
   0.00000000  0.00000000  0.00000000
   0.00000007  2.08443823  2.08443820
   0.00000015  4.16887647  4.16887639
   2.08443831  6.25331459  0.00000000
   2.08443823  0.00000004  2.08443820
   2.08443831  2.08443827  4.16887639
   4.16887654  6.25331462  2.08443820
   4.16887647  0.00000007  4.16887639
   6.25331477  4.16887650  6.25331459
   0.00000015  2.08443831  6.25331459
   0.00000007  4.16887639  0.00000000
   2.08443831  0.00000011  6.25331459
   2.08443823  2.08443820  0.00000000
   2.08443831  4.16887643  2.08443820
   4.16887662  6.25331470  6.25331459
   4.16887639  0.00000000  0.00000000
   4.16887647  2.08443823  2.08443820
   4.16887654  4.16887647  4.16887639
   2.08443838  4.16887650  6.25331459
   4.16887654  2.08443831  6.25331459
   4.16887647  4.16887639  0.00000000
 


--------------------------------------------------------------------------------------------------------


 k-point  1 :  0.06250.06250.0625  plane waves:  19366
 k-point  2 :  0.18750.06250.0625  plane waves:  19379
 k-point  3 :  0.31250.06250.0625  plane waves:  19373
 k-point  4 :  0.43750.06250.0625  plane waves:  19337
 k-point  5 :  0.18750.18750.0625  plane waves:  19359
 k-point  6 :  0.31250.18750.0625  plane waves:  19355
 k-point  7 :  0.43750.18750.0625  plane waves:  19337
 k-point  8 :  0.31250.31250.0625  plane waves:  19332
 k-point  9 :  0.43750.31250.0625  plane waves:  19338
 k-point 10 :  0.43750.43750.0625  plane waves:  19333
 k-point 11 :  0.18750.18750.1875  plane waves:  19357
 k-point 12 :  0.31250.18750.1875  plane waves:  19336
 k-point 13 :  0.43750.18750.1875  plane waves:  19349
 k-point 14 :  0.31250.31250.1875  plane waves:  19334
 k-point 15 :  0.43750.31250.1875  plane waves:  19335
 k-point 16 :  0.43750.43750.1875  plane waves:  19356
 k-point 17 :  0.31250.31250.3125  plane waves:  19360
 k-point 18 :  0.43750.31250.3125  plane waves:  19338
 k-point 19 :  0.43750.43750.3125  plane waves:  19340
 k-point 20 :  0.43750.43750.4375  plane waves:  19370

 maximum and minimum number of plane-waves per node :  19379 19332

 maximum number of plane-waves:  19379
 maximal index in each direction: 
   IXMAX= 16   IYMAX= 16   IZMAX= 16
   IXMIN=-17   IYMIN=-17   IZMIN=-17

 NGX is ok and might be reduce to  68
 NGY is ok and might be reduce to  68
 NGZ is ok and might be reduce to  68

 parallel 3dFFT wavefunction:
    minimum data exchange during FFTs selected (reduces bandwidth)
 parallel 3dFFT charge:
    minimum data exchange during FFTs selected (reduces bandwidth)

 For storing wavefunctions 1312.65 MBYTES are necessary
 For predicting wavefunctions  142.23 MBYTES are necessary
Broyden mixing: mesh for mixing (old mesh)
   NGX = 33   NGY = 33   NGZ = 33
  (NGX  =140   NGY  =140   NGZ  =140)
 gives a total of  35937 points
 initial charge density was supplied:
 charge density of overlapping atoms calculated
 number of electron  352.0000000 magnetization 
 keeping initial charge density in first step


--------------------------------------------------------------------------------------------------------


 Maximum index for augmentation-charges        70396 (set IRDMAX)


--------------------------------------------------------------------------------------------------------


 First call to EWALD:  gamma=   0.213
 Maximum number of real-space cells 3x 3x 3
 Maximum number of reciprocal cells 3x 3x 3

    FEWALD:  VPU time    0.00: CPU time    0.00


----------------------------------------- Iteration    1(   1)  ---------------------------------------


    POTLOK:  VPU time    0.38: CPU time    0.38
    SETDIJ:  VPU time    0.57: CPU time    0.57
    EDDIAG:  VPU time   13.20: CPU time   13.21
  RMM-DIIS:  VPU time   38.33: CPU time   38.39
    ORTHCH:  VPU time    1.53: CPU time    1.53
    DOS   :  VPU time    0.00: CPU time   -0.00
    ------------------------------------------
      LOOP:  VPU time   54.03: CPU time   54.10

 eigenvalue-minimisations  :  4240
 total energy-change (2. order) : 0.4456016E+04  (-0.1612846E+05)
 number of electron  352.0000000 magnetization 
 augmentation part   352.0000000 magnetization 

 Free energy of the ion-electron system (eV)
  ---------------------------------------------------
  alpha Z        PSCENC =      3308.63642344
  Ewald energy   TEWEN  =    -30659.75884326
  -1/2 Hartree   DENC   =     -4218.47024183
  -V(xc)+E(xc)   XCENC  =       484.97269040
  PAW double counting   =     23920.39735419   -23172.13309131
  entropy T*S    EENTRO =        -0.02406489
  eigenvalues    EBANDS =      5158.62192175
  atomic energy  EATOM  =     29633.77399530
  ---------------------------------------------------
  free energy    TOTEN  =      4456.01614379 eV

  energy without entropy =     4456.04020869  energy(sigma->0) =     4456.02416542


--------------------------------------------------------------------------------------------------------




----------------------------------------- Iteration    1(   2)  ---------------------------------------


    EDDIAG:  VPU time   13.14: CPU time   13.16
  RMM-DIIS:  VPU time   37.90: CPU time   37.97
    ORTHCH:  VPU time    1.53: CPU time    1.53
    DOS   :  VPU time    0.00: CPU time   -0.00
    ------------------------------------------
      LOOP:  VPU time   52.59: CPU time   52.68

 eigenvalue-minimisations  :  4240
 total energy-change (2. order) :-0.3521143E+04  (-0.3796127E+04)
 number of electron  352.0000000 magnetization 
 augmentation part   352.0000000 magnetization 

 Free energy of the ion-electron system (eV)
  ---------------------------------------------------
  alpha Z        PSCENC =      3308.63642344
  Ewald energy   TEWEN  =    -30659.75884326
  -1/2 Hartree   DENC   =     -4218.47024183
  -V(xc)+E(xc)   XCENC  =       484.97269040
  PAW double counting   =     23920.39735419   -23172.13309131
  entropy T*S    EENTRO =        -0.01733659
  eigenvalues    EBANDS =      1637.47188511
  atomic energy  EATOM  =     29633.77399530
  ---------------------------------------------------
  free energy    TOTEN  =       934.87283545 eV

  energy without entropy =      934.89017205  energy(sigma->0) =      934.87861432


--------------------------------------------------------------------------------------------------------




----------------------------------------- Iteration    1(   3)  ---------------------------------------


    EDDIAG:  VPU time   13.16: CPU time   13.19
  RMM-DIIS:  VPU time   39.22: CPU time   39.29
    ORTHCH:  VPU time    1.53: CPU time    1.53
    DOS   :  VPU time    0.00: CPU time   -0.00
    ------------------------------------------
      LOOP:  VPU time   53.94: CPU time   54.03

 eigenvalue-minimisations  :  4240
 total energy-change (2. order) :-0.7222669E+03  (-0.7832573E+03)
 number of electron  352.0000000 magnetization 
 augmentation part   352.0000000 magnetization 

 Free energy of the ion-electron system (eV)
  ---------------------------------------------------
  alpha Z        PSCENC =      3308.63642344
  Ewald energy   TEWEN  =    -30659.75884326
  -1/2 Hartree   DENC   =     -4218.47024183
  -V(xc)+E(xc)   XCENC  =       484.97269040
  PAW double counting   =     23920.39735419   -23172.13309131
  entropy T*S    EENTRO =         0.02675549
  eigenvalues    EBANDS =       915.16092449
  atomic energy  EATOM  =     29633.77399530
  ---------------------------------------------------
  free energy    TOTEN  =       212.60596692 eV

  energy without entropy =      212.57921142  energy(sigma->0) =      212.59704842


--------------------------------------------------------------------------------------------------------




----------------------------------------- Iteration    1(   4)  ---------------------------------------


    EDDIAG:  VPU time   13.11: CPU time   13.13
  RMM-DIIS:  VPU time   38.62: CPU time   38.68
    ORTHCH:  VPU time    1.53: CPU time    1.53
    DOS   :  VPU time    0.00: CPU time   -0.00
    ------------------------------------------
      LOOP:  VPU time   53.28: CPU time   53.37

 eigenvalue-minimisations  :  4240
 total energy-change (2. order) :-0.2086962E+03  (-0.1621135E+03)
 number of electron  352.0000000 magnetization 
 augmentation part   352.0000000 magnetization 

 Free energy of the ion-electron system (eV)
  ---------------------------------------------------
  alpha Z        PSCENC =      3308.63642344
  Ewald energy   TEWEN  =    -30659.75884326
  -1/2 Hartree   DENC   =     -4218.47024183
  -V(xc)+E(xc)   XCENC  =       484.97269040
  PAW double counting   =     23920.39735419   -23172.13309131
  entropy T*S    EENTRO =         0.00873572
  eigenvalues    EBANDS =       706.48275990
  atomic energy  EATOM  =     29633.77399530
  ---------------------------------------------------
  free energy    TOTEN  =         3.90978256 eV

  energy without entropy =        3.90104683  energy(sigma->0) =        3.90687065


--------------------------------------------------------------------------------------------------------




----------------------------------------- Iteration    1(   5)  ---------------------------------------


    EDDIAG:  VPU time   13.11: CPU time   13.13
  RMM-DIIS:  VPU time   38.62: CPU time   38.68
    ORTHCH:  VPU time    1.53: CPU time    1.53
    DOS   :  VPU time    0.00: CPU time   -0.00
    ------------------------------------------
      LOOP:  VPU time   53.29: CPU time   53.37

 eigenvalue-minimisations  :  4240
 total energy-change (2. order) :-0.7640281E+02  (-0.5331029E+02)
 number of electron  352.0000000 magnetization 
 augmentation part   352.0000000 magnetization 

 Free energy of the ion-electron system (eV)
  ---------------------------------------------------
  alpha Z        PSCENC =      3308.63642344
  Ewald energy   TEWEN  =    -30659.75884326
  -1/2 Hartree   DENC   =     -4218.47024183
  -V(xc)+E(xc)   XCENC  =       484.97269040
  PAW double counting   =     23920.39735419   -23172.13309131
  entropy T*S    EENTRO =         0.00540547
  eigenvalues    EBANDS =       630.08327977
  atomic energy  EATOM  =     29633.77399530
  ---------------------------------------------------
  free energy    TOTEN  =       -72.49302783 eV

  energy without entropy =      -72.49843330  energy(sigma->0) =      -72.49482965


--------------------------------------------------------------------------------------------------------




----------------------------------------- Iteration    1(   6)  ---------------------------------------


    EDDIAG:  VPU time   13.12: CPU time   13.14
  RMM-DIIS:  VPU time   37.86: CPU time   37.91
    ORTHCH:  VPU time    1.53: CPU time    1.53
    DOS   :  VPU time    0.00: CPU time   -0.00
    ------------------------------------------
      LOOP:  VPU time   52.53: CPU time   52.61

 eigenvalue-minimisations  :  4240
 total energy-change (2. order) :-0.2514238E+02  (-0.1958614E+02)
 number of electron  352.0000000 magnetization 
 augmentation part   352.0000000 magnetization 

 Free energy of the ion-electron system (eV)
  ---------------------------------------------------
  alpha Z        PSCENC =      3308.63642344
  Ewald energy   TEWEN  =    -30659.75884326
  -1/2 Hartree   DENC   =     -4218.47024183
  -V(xc)+E(xc)   XCENC  =       484.97269040
  PAW double counting   =     23920.39735419   -23172.13309131
  entropy T*S    EENTRO =         0.01316513
  eigenvalues    EBANDS =       604.93314453
  atomic energy  EATOM  =     29633.77399530
  ---------------------------------------------------
  free energy    TOTEN  =       -97.63540341 eV

  energy without entropy =      -97.64856853  energy(sigma->0) =      -97.63979178


--------------------------------------------------------------------------------------------------------




----------------------------------------- Iteration    1(   7)  ---------------------------------------


    EDDIAG:  VPU time   13.66: CPU time   13.68
  RMM-DIIS:  VPU time   54.61: CPU time   54.72
    ORTHCH:  VPU time    1.69: CPU time    1.70
    DOS   :  VPU time    0.00: CPU time   -0.00
    ------------------------------------------
      LOOP:  VPU time   70.00: CPU time   70.13

 eigenvalue-minimisations  :  4240
 total energy-change (2. order) :-0.9706348E+01  (-0.7917335E+01)
 number of electron  352.0000000 magnetization 
 augmentation part   352.0000000 magnetization 

 Free energy of the ion-electron system (eV)
  ---------------------------------------------------
  alpha Z        PSCENC =      3308.63642344
  Ewald energy   TEWEN  =    -30659.75884326
  -1/2 Hartree   DENC   =     -4218.47024183
  -V(xc)+E(xc)   XCENC  =       484.97269040
  PAW double counting   =     23920.39735419   -23172.13309131
  entropy T*S    EENTRO =         0.02114916
  eigenvalues    EBANDS =       595.21881289
  atomic energy  EATOM  =     29633.77399530
  ---------------------------------------------------
  free energy    TOTEN  =      -107.34175101 eV

  energy without entropy =     -107.36290018  energy(sigma->0) =     -107.34880074


--------------------------------------------------------------------------------------------------------




----------------------------------------- Iteration    1(   8)  ---------------------------------------


    EDDIAG:  VPU time   18.04: CPU time   18.07
  RMM-DIIS:  VPU time   52.95: CPU time   53.04
    ORTHCH:  VPU time    1.70: CPU time    1.70
    DOS   :  VPU time    0.00: CPU time   -0.00
    ------------------------------------------
      LOOP:  VPU time   72.72: CPU time   72.85

 eigenvalue-minimisations  :  4240
 total energy-change (2. order) :-0.3243542E+01  (-0.2941952E+01)
 number of electron  352.0000000 magnetization 
 augmentation part   352.0000000 magnetization 

 Free energy of the ion-electron system (eV)
  ---------------------------------------------------
  alpha Z        PSCENC =      3308.63642344
  Ewald energy   TEWEN  =    -30659.75884326
  -1/2 Hartree   DENC   =     -4218.47024183
  -V(xc)+E(xc)   XCENC  =       484.97269040
  PAW double counting   =     23920.39735419   -23172.13309131
  entropy T*S    EENTRO =         0.02228091
  eigenvalues    EBANDS =       591.97413912
  atomic energy  EATOM  =     29633.77399530
  ---------------------------------------------------
  free energy    TOTEN  =      -110.58529304 eV

  energy without entropy =     -110.60757395  energy(sigma->0) =     -110.59272001


--------------------------------------------------------------------------------------------------------




----------------------------------------- Iteration    1(   9)  ---------------------------------------


    EDDIAG:  VPU time   18.04: CPU time   18.09
  RMM-DIIS:  VPU time   99.49: CPU time   99.75
    ORTHCH:  VPU time    1.73: CPU time    1.73
    DOS   :  VPU time    0.00: CPU time   -0.00
    ------------------------------------------
      LOOP:  VPU time  119.28: CPU time  119.60

 eigenvalue-minimisations  :  8865
 total energy-change (2. order) :-0.1797264E+01  (-0.1690844E+01)
 number of electron  352.0000000 magnetization 
 augmentation part   352.0000000 magnetization 

 Free energy of the ion-electron system (eV)
  ---------------------------------------------------
  alpha Z        PSCENC =      3308.63642344
  Ewald energy   TEWEN  =    -30659.75884326
  -1/2 Hartree   DENC   =     -4218.47024183
  -V(xc)+E(xc)   XCENC  =       484.97269040
  PAW double counting   =     23920.39735419   -23172.13309131
  entropy T*S    EENTRO =         0.02172155
  eigenvalues    EBANDS =       590.17743480
  atomic energy  EATOM  =     29633.77399530
  ---------------------------------------------------
  free energy    TOTEN  =      -112.38255672 eV

  energy without entropy =     -112.40427827  energy(sigma->0) =     -112.38979724


--------------------------------------------------------------------------------------------------------




----------------------------------------- Iteration    1(  10)  ---------------------------------------


    EDDIAG:  VPU time   18.11: CPU time   18.16
  RMM-DIIS:  VPU time  109.55: CPU time  109.84
    ORTHCH:  VPU time    1.64: CPU time    1.64
    DOS   :  VPU time    0.00: CPU time   -0.00
    ------------------------------------------
      LOOP:  VPU time  129.33: CPU time  129.68

 eigenvalue-minimisations  :  9667
 total energy-change (2. order) :-0.2141604E+00  (-0.2112983E+00)
 number of electron  352.0000000 magnetization 
 augmentation part   352.0000000 magnetization 

 Free energy of the ion-electron system (eV)
  ---------------------------------------------------
  alpha Z        PSCENC =      3308.63642344
  Ewald energy   TEWEN  =    -30659.75884326
  -1/2 Hartree   DENC   =     -4218.47024183
  -V(xc)+E(xc)   XCENC  =       484.97269040
  PAW double counting   =     23920.39735419   -23172.13309131
  entropy T*S    EENTRO =         0.02193151
  eigenvalues    EBANDS =       589.96306445
  atomic energy  EATOM  =     29633.77399530
  ---------------------------------------------------
  free energy    TOTEN  =      -112.59671711 eV

  energy without entropy =     -112.61864862  energy(sigma->0) =     -112.60402761


--------------------------------------------------------------------------------------------------------




----------------------------------------- Iteration    1(  11)  ---------------------------------------


    EDDIAG:  VPU time   18.24: CPU time   18.29
  RMM-DIIS:  VPU time  102.74: CPU time  103.02
    ORTHCH:  VPU time    1.69: CPU time    1.70
    DOS   :  VPU time   -0.00: CPU time   -0.00
    ------------------------------------------
      LOOP:  VPU time  122.70: CPU time  123.03

 eigenvalue-minimisations  :  8975
 total energy-change (2. order) :-0.6599536E-02  (-0.5462712E-02)
 number of electron  352.0000000 magnetization 
 augmentation part   352.0000000 magnetization 

 Free energy of the ion-electron system (eV)
  ---------------------------------------------------
  alpha Z        PSCENC =      3308.63642344
  Ewald energy   TEWEN  =    -30659.75884326
  -1/2 Hartree   DENC   =     -4218.47024183
  -V(xc)+E(xc)   XCENC  =       484.97269040
  PAW double counting   =     23920.39735419   -23172.13309131
  entropy T*S    EENTRO =         0.02193887
  eigenvalues    EBANDS =       589.95645755
  atomic energy  EATOM  =     29633.77399530
  ---------------------------------------------------
  free energy    TOTEN  =      -112.60331665 eV

  energy without entropy =     -112.62525552  energy(sigma->0) =     -112.61062960


--------------------------------------------------------------------------------------------------------




----------------------------------------- Iteration    1(  12)  ---------------------------------------


    EDDIAG:  VPU time   18.01: CPU time   18.06
  RMM-DIIS:  VPU time   97.34: CPU time   97.59
    ORTHCH:  VPU time    1.69: CPU time    1.70
    DOS   :  VPU time    0.00: CPU time   -0.00
    CHARGE:  VPU time    9.67: CPU time    9.69
    MIXING:  VPU time    0.01: CPU time    0.01
    ------------------------------------------
      LOOP:  VPU time  126.75: CPU time  127.09

 eigenvalue-minimisations  :  8720
 total energy-change (2. order) :-0.1104652E-02  (-0.1041613E-02)
 number of electron  352.0000005 magnetization 
 augmentation part   124.1439382 magnetization 

 Broyden mixing:
  rms(total) = 0.16192E+01    rms(broyden)= 0.16192E+01
  rms(prec ) = 0.24802E+01
  weight for this iteration     100.00

 Free energy of the ion-electron system (eV)
  ---------------------------------------------------
  alpha Z        PSCENC =      3308.63642344
  Ewald energy   TEWEN  =    -30659.75884326
  -1/2 Hartree   DENC   =     -4218.47024183
  -V(xc)+E(xc)   XCENC  =       484.97269040
  PAW double counting   =     23920.39735419   -23172.13309131
  entropy T*S    EENTRO =         0.02194256
  eigenvalues    EBANDS =       589.95534921
  atomic energy  EATOM  =     29633.77399530
  ---------------------------------------------------
  free energy    TOTEN  =      -112.60442130 eV

  energy without entropy =     -112.62636386  energy(sigma->0) =     -112.61173548


--------------------------------------------------------------------------------------------------------




----------------------------------------- Iteration    1(  13)  ---------------------------------------


    POTLOK:  VPU time    0.45: CPU time    0.45
    SETDIJ:  VPU time    0.83: CPU time    0.83
    EDDIAG:  VPU time   17.86: CPU time   17.90
  RMM-DIIS:  VPU time   97.94: CPU time   98.20
    ORTHCH:  VPU time    1.69: CPU time    1.69
    DOS   :  VPU time    0.00: CPU time   -0.00
    CHARGE:  VPU time    9.60: CPU time    9.63
    MIXING:  VPU time    0.01: CPU time    0.01
    ------------------------------------------
      LOOP:  VPU time  128.41: CPU time  128.76

 eigenvalue-minimisations  :  8480
 total energy-change (2. order) : 0.7369336E+01  (-0.2010852E+01)
 number of electron  352.0000005 magnetization 
 augmentation part   128.2926747 magnetization 

 Broyden mixing:
  rms(total) = 0.45042E+00    rms(broyden)= 0.45042E+00
  rms(prec ) = 0.67436E+00
  weight for this iteration     100.00

 eigenvalues of (default mixing * dielectric matrix)
  average eigenvalue GAMMA=   1.2511
  1.2511

 Free energy of the ion-electron system (eV)
  ---------------------------------------------------
  alpha Z        PSCENC =      3308.63642344
  Ewald energy   TEWEN  =    -30659.75884326
  -1/2 Hartree   DENC   =     -3973.64430451
  -V(xc)+E(xc)   XCENC  =       474.17650591
  PAW double counting   =     23686.60201663   -22974.89060522
  entropy T*S    EENTRO =         0.01286758
  eigenvalues    EBANDS =       399.85685923
  atomic energy  EATOM  =     29633.77399530
  ---------------------------------------------------
  free energy    TOTEN  =      -105.23508490 eV

  energy without entropy =     -105.24795248  energy(sigma->0) =     -105.23937409


--------------------------------------------------------------------------------------------------------




----------------------------------------- Iteration    1(  14)  ---------------------------------------


    POTLOK:  VPU time    0.45: CPU time    0.45
    SETDIJ:  VPU time    0.82: CPU time    0.82
    EDDIAG:  VPU time   17.88: CPU time   17.93
  RMM-DIIS:  VPU time   97.86: CPU time   98.12
    ORTHCH:  VPU time    1.69: CPU time    1.70
    DOS   :  VPU time    0.00: CPU time   -0.00
    CHARGE:  VPU time    9.61: CPU time    9.63
    MIXING:  VPU time    0.01: CPU time    0.01
    ------------------------------------------
      LOOP:  VPU time  128.35: CPU time  128.69

 eigenvalue-minimisations  :  8481
 total energy-change (2. order) : 0.4535047E+00  (-0.2412700E+00)
 number of electron  352.0000005 magnetization 
 augmentation part   129.4662169 magnetization 

 Broyden mixing:
  rms(total) = 0.17180E+00    rms(broyden)= 0.17180E+00
  rms(prec ) = 0.19545E+00
  weight for this iteration     100.00

 eigenvalues of (default mixing * dielectric matrix)
  average eigenvalue GAMMA=   1.7687
  1.2840  2.2534

 Free energy of the ion-electron system (eV)
  ---------------------------------------------------
  alpha Z        PSCENC =      3308.63642344
  Ewald energy   TEWEN  =    -30659.75884326
  -1/2 Hartree   DENC   =     -3892.53982824
  -V(xc)+E(xc)   XCENC  =       470.50454341
  PAW double counting   =     23733.67465893   -23045.22593709
  entropy T*S    EENTRO =         0.01054102
  eigenvalues    EBANDS =       346.14286632
  atomic energy  EATOM  =     29633.77399530
  ---------------------------------------------------
  free energy    TOTEN  =      -104.78158017 eV

  energy without entropy =     -104.79212119  energy(sigma->0) =     -104.78509385


--------------------------------------------------------------------------------------------------------




----------------------------------------- Iteration    1(  15)  ---------------------------------------


    POTLOK:  VPU time    0.46: CPU time    0.46
    SETDIJ:  VPU time    0.82: CPU time    0.83
    EDDIAG:  VPU time   17.92: CPU time   17.97
  RMM-DIIS:  VPU time   97.32: CPU time   97.58
    ORTHCH:  VPU time    1.69: CPU time    1.70
    DOS   :  VPU time    0.00: CPU time   -0.00
    CHARGE:  VPU time    9.63: CPU time    9.65
    MIXING:  VPU time    0.01: CPU time    0.01
    ------------------------------------------
      LOOP:  VPU time  127.88: CPU time  128.22

 eigenvalue-minimisations  :  8485
 total energy-change (2. order) : 0.8640010E-01  (-0.1006779E-01)
 number of electron  352.0000005 magnetization 
 augmentation part   129.3370746 magnetization 

 Broyden mixing:
  rms(total) = 0.25933E-01    rms(broyden)= 0.25932E-01
  rms(prec ) = 0.39629E-01
  weight for this iteration     100.00

 eigenvalues of (default mixing * dielectric matrix)
  average eigenvalue GAMMA=   1.7591
  1.2890  1.2890  2.6993

 Free energy of the ion-electron system (eV)
  ---------------------------------------------------
  alpha Z        PSCENC =      3308.63642344
  Ewald energy   TEWEN  =    -30659.75884326
  -1/2 Hartree   DENC   =     -3879.38585471
  -V(xc)+E(xc)   XCENC  =       469.76432037
  PAW double counting   =     23916.46364825   -23244.58616612
  entropy T*S    EENTRO =         0.01087572
  eigenvalues    EBANDS =       350.38642094
  atomic energy  EATOM  =     29633.77399530
  ---------------------------------------------------
  free energy    TOTEN  =      -104.69518007 eV

  energy without entropy =     -104.70605579  energy(sigma->0) =     -104.69880531


--------------------------------------------------------------------------------------------------------




----------------------------------------- Iteration    1(  16)  ---------------------------------------


    POTLOK:  VPU time    0.45: CPU time    0.45
    SETDIJ:  VPU time    0.83: CPU time    0.83
    EDDIAG:  VPU time   18.07: CPU time   18.11
  RMM-DIIS:  VPU time   99.76: CPU time   99.95
    ORTHCH:  VPU time    1.69: CPU time    1.70
    DOS   :  VPU time    0.00: CPU time   -0.00
    CHARGE:  VPU time    9.58: CPU time    9.60
    MIXING:  VPU time    0.01: CPU time    0.01
    ------------------------------------------
      LOOP:  VPU time  130.43: CPU time  130.68

 eigenvalue-minimisations  :  8555
 total energy-change (2. order) : 0.3611540E-03  (-0.1570171E-02)
 number of electron  352.0000005 magnetization 
 augmentation part   129.4307499 magnetization 

 Broyden mixing:
  rms(total) = 0.98400E-02    rms(broyden)= 0.98397E-02
  rms(prec ) = 0.13585E-01
  weight for this iteration     100.00

 eigenvalues of (default mixing * dielectric matrix)
  average eigenvalue GAMMA=   1.8746
  1.0305  1.1893  2.6392  2.6392

 Free energy of the ion-electron system (eV)
  ---------------------------------------------------
  alpha Z        PSCENC =      3308.63642344
  Ewald energy   TEWEN  =    -30659.75884326
  -1/2 Hartree   DENC   =     -3871.86495881
  -V(xc)+E(xc)   XCENC  =       469.41371992
  PAW double counting   =     23938.50032413   -23268.83242908
  entropy T*S    EENTRO =         0.01067008
  eigenvalues    EBANDS =       345.42627935
  atomic energy  EATOM  =     29633.77399530
  ---------------------------------------------------
  free energy    TOTEN  =      -104.69481892 eV

  energy without entropy =     -104.70548900  energy(sigma->0) =     -104.69837562


--------------------------------------------------------------------------------------------------------




----------------------------------------- Iteration    1(  17)  ---------------------------------------


    POTLOK:  VPU time    0.48: CPU time    0.49
    SETDIJ:  VPU time    0.82: CPU time    0.82
    EDDIAG:  VPU time   18.35: CPU time   18.40
  RMM-DIIS:  VPU time  101.55: CPU time  101.83
    ORTHCH:  VPU time    1.69: CPU time    1.70
    DOS   :  VPU time    0.00: CPU time   -0.00
    CHARGE:  VPU time    9.30: CPU time    9.32
    MIXING:  VPU time    0.01: CPU time    0.01
    ------------------------------------------
      LOOP:  VPU time  132.22: CPU time  132.58

 eigenvalue-minimisations  :  8602
 total energy-change (2. order) : 0.1152236E-03  (-0.5267695E-04)
 number of electron  352.0000005 magnetization 
 augmentation part   129.4298850 magnetization 

 Broyden mixing:
  rms(total) = 0.42555E-02    rms(broyden)= 0.42555E-02
  rms(prec ) = 0.58229E-02
  weight for this iteration     100.00

 eigenvalues of (default mixing * dielectric matrix)
  average eigenvalue GAMMA=   1.7104
  2.8124  2.3985  1.0441  1.1485  1.1485

 Free energy of the ion-electron system (eV)
  ---------------------------------------------------
  alpha Z        PSCENC =      3308.63642344
  Ewald energy   TEWEN  =    -30659.75884326
  -1/2 Hartree   DENC   =     -3873.63330874
  -V(xc)+E(xc)   XCENC  =       469.48738436
  PAW double counting   =     23945.45278308   -23274.58375733
  entropy T*S    EENTRO =         0.01069427
  eigenvalues    EBANDS =       345.91992519
  atomic energy  EATOM  =     29633.77399530
  ---------------------------------------------------
  free energy    TOTEN  =      -104.69470370 eV

  energy without entropy =     -104.70539797  energy(sigma->0) =     -104.69826845


--------------------------------------------------------------------------------------------------------




----------------------------------------- Iteration    1(  18)  ---------------------------------------


    POTLOK:  VPU time    0.51: CPU time    0.51
    SETDIJ:  VPU time    0.87: CPU time    0.87
    EDDIAG:  VPU time   18.73: CPU time   18.78
  RMM-DIIS:  VPU time  100.36: CPU time  100.62
    ORTHCH:  VPU time    1.69: CPU time    1.70
    DOS   :  VPU time    0.00: CPU time   -0.00
    CHARGE:  VPU time    9.79: CPU time    9.82
    MIXING:  VPU time    0.01: CPU time    0.01
    ------------------------------------------
      LOOP:  VPU time  132.00: CPU time  132.35

 eigenvalue-minimisations  :  8483
 total energy-change (2. order) : 0.2982662E-04  (-0.2285885E-04)
 number of electron  352.0000005 magnetization 
 augmentation part   129.4168658 magnetization 

 Broyden mixing:
  rms(total) = 0.17841E-03    rms(broyden)= 0.17834E-03
  rms(prec ) = 0.21474E-03
  weight for this iteration     100.00

 eigenvalues of (default mixing * dielectric matrix)
  average eigenvalue GAMMA=   1.8851
  2.8479  2.8479  2.3935  0.9727  1.1245  1.1245

 Free energy of the ion-electron system (eV)
  ---------------------------------------------------
  alpha Z        PSCENC =      3308.63642344
  Ewald energy   TEWEN  =    -30659.75884326
  -1/2 Hartree   DENC   =     -3874.17848065
  -V(xc)+E(xc)   XCENC  =       469.50953099
  PAW double counting   =     23947.22105452   -23276.42486237
  entropy T*S    EENTRO =         0.01072263
  eigenvalues    EBANDS =       346.51578553
  atomic energy  EATOM  =     29633.77399530
  ---------------------------------------------------
  free energy    TOTEN  =      -104.69467387 eV

  energy without entropy =     -104.70539650  energy(sigma->0) =     -104.69824808


--------------------------------------------------------------------------------------------------------




----------------------------------------- Iteration    1(  19)  ---------------------------------------


    POTLOK:  VPU time    0.48: CPU time    0.48
    SETDIJ:  VPU time    0.87: CPU time    0.87
    EDDIAG:  VPU time   18.54: CPU time   18.60
  RMM-DIIS:  VPU time   61.89: CPU time   62.08
    ORTHCH:  VPU time    1.69: CPU time    1.70
    DOS   :  VPU time    0.00: CPU time   -0.00
    ------------------------------------------
      LOOP:  VPU time   83.50: CPU time   83.76

 eigenvalue-minimisations  :  4799
 total energy-change (2. order) : 0.3322482E-05  (-0.5095454E-06)
 number of electron  352.0000005 magnetization 
 augmentation part   129.4168658 magnetization 

 Free energy of the ion-electron system (eV)
  ---------------------------------------------------
  alpha Z        PSCENC =      3308.63642344
  Ewald energy   TEWEN  =    -30659.75884326
  -1/2 Hartree   DENC   =     -3874.19921181
  -V(xc)+E(xc)   XCENC  =       469.51044811
  PAW double counting   =     23946.60805232   -23275.80178719
  entropy T*S    EENTRO =         0.01072336
  eigenvalues    EBANDS =       346.52552920
  atomic energy  EATOM  =     29633.77399530
  ---------------------------------------------------
  free energy    TOTEN  =      -104.69467055 eV

  energy without entropy =     -104.70539390  energy(sigma->0) =     -104.69824500


--------------------------------------------------------------------------------------------------------




 average (electrostatic) potential at core
  the test charge radii are     1.2098
  (the norm of the test charge is              1.0000)
       1 -46.1169       2 -46.1169       3 -46.1169       4 -46.1169       5 -46.1169
       6 -46.1169       7 -46.1169       8 -46.1169       9 -46.1169      10 -46.1169
      11 -46.1169      12 -46.1169      13 -46.1169      14 -46.1169      15 -46.1169
      16 -46.1169      17 -46.1169      18 -46.1169      19 -46.1169      20 -46.1169
      21 -46.1169      22 -46.1169      23 -46.1169      24 -46.1169      25 -46.1169
      26 -46.1169      27 -46.1169      28 -46.1169      29 -46.1169      30 -46.1169
      31 -46.1169      32 -46.1169
 
 
 
 E-fermi :   5.0077     XC(G=0): -12.3568     alpha+bet : -9.5809
   add alpha+bet to get absolut eigen values

 k-point   1 :       0.0625    0.0625    0.0625
  band No.  band energies     occupation 
      1      -4.2027      2.00000
      2      -2.1155      2.00000
      3      -2.1155      2.00000
      4      -2.1155      2.00000
      5      -1.8190      2.00000
      6      -1.7955      2.00000
      7      -1.7955      2.00000
      8      -1.7955      2.00000
      9      -1.7352      2.00000
     10      -1.7352      2.00000
     11      -1.7352      2.00000
     12      -1.5553      2.00000
     13      -1.5553      2.00000
     14      -1.5553      2.00000
     15      -1.2815      2.00000
     16      -1.2815      2.00000
     17      -1.2815      2.00000
     18      -0.8841      2.00000
     19      -0.8841      2.00000
     20      -0.8841      2.00000
     21      -0.6943      2.00000
     22      -0.6943      2.00000
     23      -0.6943      2.00000
     24      -0.6943      2.00000
     25      -0.6943      2.00000
     26      -0.6943      2.00000
     27      -0.6069      2.00000
     28      -0.6069      2.00000
     29      -0.6069      2.00000
     30      -0.5646      2.00000
     31      -0.5646      2.00000
     32      -0.5646      2.00000
     33      -0.5646      2.00000
     34      -0.5646      2.00000
     35      -0.5646      2.00000
     36      -0.5245      2.00000
     37      -0.5245      2.00000
     38      -0.5245      2.00000
     39      -0.3453      2.00000
     40      -0.3453      2.00000
     41      -0.3453      2.00000
     42      -0.0126      2.00000
     43      -0.0126      2.00000
     44      -0.0126      2.00000
     45      -0.0126      2.00000
     46      -0.0126      2.00000
     47      -0.0126      2.00000
     48       0.0814      2.00000
     49       0.0814      2.00000
     50       0.0814      2.00000
     51       0.1070      2.00000
     52       0.1070      2.00000
     53       0.1070      2.00000
     54       0.1070      2.00000
     55       0.1070      2.00000
     56       0.1070      2.00000
     57       0.1767      2.00000
     58       0.1767      2.00000
     59       0.1767      2.00000
     60       0.3400      2.00000
     61       0.3400      2.00000
     62       0.3400      2.00000
     63       0.3400      2.00000
     64       0.3400      2.00000
     65       0.3400      2.00000
     66       0.4002      2.00000
     67       0.4002      2.00000
     68       0.4002      2.00000
     69       0.4002      2.00000
     70       0.4002      2.00000
     71       0.4002      2.00000
     72       0.4006      2.00000
     73       0.4006      2.00000
     74       0.4006      2.00000
     75       0.5054      2.00000
     76       0.5054      2.00000
     77       0.5054      2.00000
     78       0.5199      2.00000
     79       0.5199      2.00000
     80       0.5199      2.00000
     81       0.5414      2.00000
     82       0.5414      2.00000
     83       0.5535      2.00000
     84       0.5536      2.00000
     85       0.5536      2.00000
     86       0.5536      2.00000
     87       0.5746      2.00000
     88       0.5746      2.00000
     89       1.1502      2.00000
     90       1.1502      2.00000
     91       1.1502      2.00000
     92       1.2232      2.00000
     93       1.2232      2.00000
     94       1.2232      2.00000
     95       1.3459      2.00000
     96       1.3459      2.00000
     97       1.3459      2.00000
     98       1.4222      2.00000
     99       1.4222      2.00000
    100       1.4222      2.00000
    101       1.4222      2.00000
    102       1.4222      2.00000
    103       1.4222      2.00000
    104       1.4284      2.00000
    105       1.4284      2.00000
    106       1.4284      2.00000
    107       1.5424      2.00000
    108       1.5424      2.00000
    109       1.5424      2.00000
    110       1.6228      2.00000
    111       1.6228      2.00000
    112       1.6228      2.00000
    113       1.7902      2.00000
    114       1.7902      2.00000
    115       1.7902      2.00000
    116       1.8244      2.00000
    117       1.8244      2.00000
    118       1.8244      2.00000
    119       1.8394      2.00000
    120       1.8394      2.00000
    121       1.8394      2.00000
    122       1.8394      2.00000
    123       1.8394      2.00000
    124       1.8394      2.00000
    125       1.8852      2.00000
    126       1.8852      2.00000
    127       1.8852      2.00000
    128       1.9222      2.00000
    129       1.9222      2.00000
    130       1.9773      2.00000
    131       1.9773      2.00000
    132       1.9773      2.00000
    133       1.9773      2.00000
    134       1.9773      2.00000
    135       1.9773      2.00000
    136       2.0855      2.00000
    137       2.0855      2.00000
    138       2.0855      2.00000
    139       2.3856      2.00000
    140       2.3856      2.00000
    141       2.3856      2.00000
    142       2.4923      2.00000
    143       2.4923      2.00000
    144       2.4923      2.00000
    145       2.8492      2.00000
    146       2.8492      2.00000
    147       2.8492      2.00000
    148       2.9454      2.00000
    149       2.9454      2.00000
    150       2.9454      2.00000
    151       2.9837      2.00000
    152       2.9837      2.00000
    153       3.0070      2.00000
    154       3.0070      2.00000
    155       3.0070      2.00000
    156       3.2148      2.00000
    157       3.2148      2.00000
    158       3.2148      2.00000
    159       3.2736      2.00000
    160       3.2736      2.00000
    161       3.2736      2.00000
    162       3.2736      2.00000
    163       3.2736      2.00000
    164       3.2736      2.00000
    165       3.2778      2.00000
    166       3.2778      2.00000
    167       3.2778      2.00000
    168       4.0391      2.00000
    169       4.2032      2.00000
    170       4.2032      2.00000
    171       4.2032      2.00000
    172       4.4407      2.00046
    173       4.4407      2.00046
    174       4.4407      2.00046
    175       4.6333      2.02365
    176       4.6333      2.02365
    177       4.6333      2.02365
    178       4.6333      2.02365
    179       4.6333      2.02365
    180       4.6333      2.02365
    181       5.0819      0.41737
    182       5.0819      0.41737
    183       5.0819      0.41737
    184       6.1802     -0.00000
    185       6.1802     -0.00000
    186       6.1802     -0.00000
    187       7.8004     -0.00000
    188       7.8004     -0.00000
    189       7.8004     -0.00000
    190       8.0838     -0.00000
    191       9.3213     -0.00000
    192       9.3213     -0.00000
    193       9.3213     -0.00000
    194       9.3213     -0.00000
    195       9.3213     -0.00000
    196       9.3213     -0.00000
    197      10.4275     -0.00000
    198      10.4277     -0.00000
    199      10.4292     -0.00000
    200      10.7794      0.00000
    201      10.7794      0.00000
    202      10.7794      0.00000
    203      10.7797      0.00000
    204      10.7798      0.00000
    205      10.7816      0.00000
    206      11.5569      0.00000
    207      11.5573      0.00000
    208      11.5605      0.00000
    209      11.5682      0.00000
    210      11.5925      0.00000
    211      11.6338      0.00000
    212      12.7346      0.00000

 k-point   2 :       0.1875    0.0625    0.0625
  band No.  band energies     occupation 
      1      -4.1165      2.00000
      2      -2.5503      2.00000
      3      -2.0536      2.00000
      4      -2.0536      2.00000
      5      -1.7954      2.00000
      6      -1.7481      2.00000
      7      -1.7481      2.00000
      8      -1.7251      2.00000
      9      -1.6745      2.00000
     10      -1.6745      2.00000
     11      -1.5268      2.00000
     12      -1.5000      2.00000
     13      -1.5000      2.00000
     14      -1.4775      2.00000
     15      -1.2511      2.00000
     16      -1.2344      2.00000
     17      -1.2344      2.00000
     18      -1.0969      2.00000
     19      -1.0969      2.00000
     20      -1.0507      2.00000
     21      -0.8874      2.00000
     22      -0.8874      2.00000
     23      -0.8239      2.00000
     24      -0.8239      2.00000
     25      -0.7915      2.00000
     26      -0.6951      2.00000
     27      -0.6764      2.00000
     28      -0.6764      2.00000
     29      -0.5435      2.00000
     30      -0.5435      2.00000
     31      -0.5338      2.00000
     32      -0.5338      2.00000
     33      -0.5236      2.00000
     34      -0.5236      2.00000
     35      -0.5205      2.00000
     36      -0.5205      2.00000
     37      -0.4950      2.00000
     38      -0.4950      2.00000
     39      -0.3207      2.00000
     40      -0.3207      2.00000
     41      -0.3206      2.00000
     42      -0.3206      2.00000
     43      -0.1638      2.00000
     44      -0.0383      2.00000
     45      -0.0383      2.00000
     46      -0.0123      2.00000
     47      -0.0123      2.00000
     48       0.0030      2.00000
     49       0.0030      2.00000
     50       0.0288      2.00000
     51       0.0288      2.00000
     52       0.0987      2.00000
     53       0.0987      2.00000
     54       0.1881      2.00000
     55       0.1881      2.00000
     56       0.2008      2.00000
     57       0.2324      2.00000
     58       0.2324      2.00000
     59       0.2543      2.00000
     60       0.2543      2.00000
     61       0.2614      2.00000
     62       0.2833      2.00000
     63       0.2833      2.00000
     64       0.3470      2.00000
     65       0.3470      2.00000
     66       0.3648      2.00000
     67       0.3648      2.00000
     68       0.3822      2.00000
     69       0.3822      2.00000
     70       0.4800      2.00000
     71       0.4986      2.00000
     72       0.4986      2.00000
     73       0.5152      2.00000
     74       0.5433      2.00000
     75       0.5495      2.00000
     76       0.5495      2.00000
     77       0.5580      2.00000
     78       0.5580      2.00000
     79       0.5675      2.00000
     80       0.5945      2.00000
     81       0.5945      2.00000
     82       0.5960      2.00000
     83       0.6036      2.00000
     84       0.6086      2.00000
     85       0.6113      2.00000
     86       0.6416      2.00000
     87       0.7299      2.00000
     88       0.7299      2.00000
     89       1.0120      2.00000
     90       1.0120      2.00000
     91       1.0530      2.00000
     92       1.0530      2.00000
     93       1.1718      2.00000
     94       1.1948      2.00000
     95       1.2783      2.00000
     96       1.2783      2.00000
     97       1.2973      2.00000
     98       1.3139      2.00000
     99       1.3681      2.00000
    100       1.3681      2.00000
    101       1.4206      2.00000
    102       1.4802      2.00000
    103       1.5014      2.00000
    104       1.5014      2.00000
    105       1.5240      2.00000
    106       1.5240      2.00000
    107       1.5242      2.00000
    108       1.5242      2.00000
    109       1.5649      2.00000
    110       1.5649      2.00000
    111       1.7246      2.00000
    112       1.7246      2.00000
    113       1.7480      2.00000
    114       1.7480      2.00000
    115       1.7633      2.00000
    116       1.7633      2.00000
    117       1.8454      2.00000
    118       1.8454      2.00000
    119       1.8610      2.00000
    120       1.8610      2.00000
    121       1.8781      2.00000
    122       1.9166      2.00000
    123       1.9166      2.00000
    124       1.9413      2.00000
    125       1.9601      2.00000
    126       1.9601      2.00000
    127       1.9964      2.00000
    128       2.0175      2.00000
    129       2.0175      2.00000
    130       2.0492      2.00000
    131       2.1385      2.00000
    132       2.1385      2.00000
    133       2.1716      2.00000
    134       2.1716      2.00000
    135       2.1850      2.00000
    136       2.2255      2.00000
    137       2.2383      2.00000
    138       2.2383      2.00000
    139       2.2832      2.00000
    140       2.4363      2.00000
    141       2.4363      2.00000
    142       2.5541      2.00000
    143       2.5707      2.00000
    144       2.5707      2.00000
    145       2.5879      2.00000
    146       2.5879      2.00000
    147       2.6002      2.00000
    148       2.7798      2.00000
    149       2.8732      2.00000
    150       2.8732      2.00000
    151       2.9074      2.00000
    152       2.9174      2.00000
    153       2.9666      2.00000
    154       2.9666      2.00000
    155       2.9760      2.00000
    156       2.9767      2.00000
    157       2.9767      2.00000
    158       3.1301      2.00000
    159       3.1915      2.00000
    160       3.1915      2.00000
    161       3.1925      2.00000
    162       3.1925      2.00000
    163       3.2079      2.00000
    164       3.2735      2.00000
    165       3.2735      2.00000
    166       3.2737      2.00000
    167       3.2737      2.00000
    168       3.8149      2.00000
    169       3.8149      2.00000
    170       3.8794      2.00000
    171       4.1864      2.00000
    172       4.2189      2.00000
    173       4.2189      2.00000
    174       4.4954      2.00175
    175       4.4954      2.00175
    176       4.6322      2.02328
    177       4.6322      2.02328
    178       4.8332      2.01262
    179       5.0977      0.31709
    180       5.1251      0.17175
    181       5.1251      0.17175
    182       5.5563     -0.00073
    183       5.5832     -0.00036
    184       5.5832     -0.00036
    185       6.4996     -0.00000
    186       6.4996     -0.00000
    187       7.7998     -0.00000
    188       8.0951     -0.00000
    189       8.0951     -0.00000
    190       8.5761     -0.00000
    191       8.7117     -0.00000
    192       8.7117     -0.00000
    193       8.9256     -0.00000
    194       8.9256     -0.00000
    195       9.2560     -0.00000
    196       9.2560     -0.00000
    197      10.2019     -0.00000
    198      10.2028     -0.00000
    199      10.3583     -0.00000
    200      10.3606     -0.00000
    201      10.7117      0.00000
    202      10.7124      0.00000
    203      10.9276      0.00000
    204      10.9336      0.00000
    205      11.2449      0.00000
    206      11.6514      0.00000
    207      11.8329      0.00000
    208      11.9600      0.00000
    209      12.0219      0.00000
    210      12.1754      0.00000
    211      12.2014      0.00000
    212      12.2750      0.00000

 k-point   3 :       0.3125    0.0625    0.0625
  band No.  band energies     occupation 
      1      -3.9457      2.00000
      2      -2.9802      2.00000
      3      -1.9337      2.00000
      4      -1.9337      2.00000
      5      -1.7250      2.00000
      6      -1.6541      2.00000
      7      -1.6541      2.00000
      8      -1.6094      2.00000
      9      -1.5574      2.00000
     10      -1.5574      2.00000
     11      -1.4751      2.00000
     12      -1.3927      2.00000
     13      -1.3927      2.00000
     14      -1.3666      2.00000
     15      -1.3261      2.00000
     16      -1.3261      2.00000
     17      -1.2592      2.00000
     18      -1.1910      2.00000
     19      -1.1405      2.00000
     20      -1.1405      2.00000
     21      -1.1202      2.00000
     22      -1.1202      2.00000
     23      -1.0276      2.00000
     24      -0.9990      2.00000
     25      -0.9990      2.00000
     26      -0.8563      2.00000
     27      -0.8563      2.00000
     28      -0.8513      2.00000
     29      -0.5879      2.00000
     30      -0.5879      2.00000
     31      -0.4908      2.00000
     32      -0.4908      2.00000
     33      -0.4841      2.00000
     34      -0.4841      2.00000
     35      -0.4368      2.00000
     36      -0.4368      2.00000
     37      -0.4347      2.00000
     38      -0.4347      2.00000
     39      -0.3656      2.00000
     40      -0.3656      2.00000
     41      -0.2732      2.00000
     42      -0.2732      2.00000
     43      -0.1213      2.00000
     44      -0.1213      2.00000
     45      -0.0695      2.00000
     46      -0.0695      2.00000
     47      -0.0447      2.00000
     48      -0.0447      2.00000
     49      -0.0241      2.00000
     50      -0.0241      2.00000
     51       0.0080      2.00000
     52       0.0080      2.00000
     53       0.0127      2.00000
     54       0.1081      2.00000
     55       0.1081      2.00000
     56       0.1588      2.00000
     57       0.1588      2.00000
     58       0.1976      2.00000
     59       0.1976      2.00000
     60       0.2433      2.00000
     61       0.3067      2.00000
     62       0.3067      2.00000
     63       0.3559      2.00000
     64       0.3559      2.00000
     65       0.3562      2.00000
     66       0.3562      2.00000
     67       0.3913      2.00000
     68       0.4105      2.00000
     69       0.4105      2.00000
     70       0.4256      2.00000
     71       0.4348      2.00000
     72       0.4626      2.00000
     73       0.4626      2.00000
     74       0.5272      2.00000
     75       0.5751      2.00000
     76       0.5751      2.00000
     77       0.6312      2.00000
     78       0.6710      2.00000
     79       0.6710      2.00000
     80       0.6823      2.00000
     81       0.6844      2.00000
     82       0.6899      2.00000
     83       0.8440      2.00000
     84       0.8440      2.00000
     85       0.8542      2.00000
     86       0.8542      2.00000
     87       0.8791      2.00000
     88       0.8823      2.00000
     89       0.8823      2.00000
     90       0.9913      2.00000
     91       1.0211      2.00000
     92       1.0917      2.00000
     93       1.1102      2.00000
     94       1.1142      2.00000
     95       1.1142      2.00000
     96       1.1257      2.00000
     97       1.1555      2.00000
     98       1.1555      2.00000
     99       1.4138      2.00000
    100       1.4399      2.00000
    101       1.4399      2.00000
    102       1.5139      2.00000
    103       1.5139      2.00000
    104       1.6075      2.00000
    105       1.6075      2.00000
    106       1.6511      2.00000
    107       1.6511      2.00000
    108       1.6898      2.00000
    109       1.6898      2.00000
    110       1.7130      2.00000
    111       1.7130      2.00000
    112       1.7468      2.00000
    113       1.7468      2.00000
    114       1.7933      2.00000
    115       1.8161      2.00000
    116       1.8161      2.00000
    117       1.8455      2.00000
    118       1.8455      2.00000
    119       1.8832      2.00000
    120       1.8832      2.00000
    121       1.9056      2.00000
    122       1.9056      2.00000
    123       1.9161      2.00000
    124       1.9789      2.00000
    125       2.0619      2.00000
    126       2.0619      2.00000
    127       2.1580      2.00000
    128       2.1580      2.00000
    129       2.1883      2.00000
    130       2.1885      2.00000
    131       2.2008      2.00000
    132       2.2008      2.00000
    133       2.2100      2.00000
    134       2.3082      2.00000
    135       2.3165      2.00000
    136       2.3446      2.00000
    137       2.3446      2.00000
    138       2.3916      2.00000
    139       2.3916      2.00000
    140       2.4129      2.00000
    141       2.4266      2.00000
    142       2.4266      2.00000
    143       2.5388      2.00000
    144       2.5388      2.00000
    145       2.5452      2.00000
    146       2.5792      2.00000
    147       2.5792      2.00000
    148       2.7070      2.00000
    149       2.7705      2.00000
    150       2.7705      2.00000
    151       2.7821      2.00000
    152       2.7821      2.00000
    153       2.7829      2.00000
    154       2.8563      2.00000
    155       2.8796      2.00000
    156       2.8796      2.00000
    157       2.8930      2.00000
    158       2.9653      2.00000
    159       3.0420      2.00000
    160       3.0420      2.00000
    161       3.0429      2.00000
    162       3.0429      2.00000
    163       3.0823      2.00000
    164       3.2732      2.00000
    165       3.2732      2.00000
    166       3.2734      2.00000
    167       3.2734      2.00000
    168       3.4554      2.00000
    169       3.4554      2.00000
    170       3.8255      2.00000
    171       3.8255      2.00000
    172       3.9313      2.00000
    173       4.1516      2.00000
    174       4.5553      2.00628
    175       4.5553      2.00628
    176       4.6284      2.02201
    177       4.6284      2.02201
    178       4.6904      2.04738
[...]
    111       1.5720      2.00000
    112       1.5720      2.00000
    113       1.5720      2.00000
    114       1.5885      2.00000
    115       1.5885      2.00000
    116       1.5885      2.00000
    117       1.6934      2.00000
    118       1.6934      2.00000
    119       1.6934      2.00000
    120       1.7578      2.00000
    121       1.7578      2.00000
    122       1.7578      2.00000
    123       1.7578      2.00000
    124       1.7578      2.00000
    125       1.7578      2.00000
    126       1.8852      2.00000
    127       1.8852      2.00000
    128       1.8852      2.00000
    129       1.9586      2.00000
    130       1.9586      2.00000
    131       1.9586      2.00000
    132       1.9773      2.00000
    133       1.9773      2.00000
    134       2.0188      2.00000
    135       2.0188      2.00000
    136       2.0188      2.00000
    137       2.1466      2.00000
    138       2.1466      2.00000
    139       2.1466      2.00000
    140       2.2220      2.00000
    141       2.2220      2.00000
    142       2.2566      2.00000
    143       2.2566      2.00000
    144       2.2566      2.00000
    145       3.0339      2.00000
    146       3.0339      2.00000
    147       3.0339      2.00000
    148       3.0612      2.00000
    149       3.0612      2.00000
    150       3.0612      2.00000
    151       3.0612      2.00000
    152       3.0612      2.00000
    153       3.0612      2.00000
    154       3.0622      2.00000
    155       3.0622      2.00000
    156       3.0622      2.00000
    157       3.0622      2.00000
    158       3.0622      2.00000
    159       3.0622      2.00000
    160       3.0683      2.00000
    161       3.0683      2.00000
    162       3.0683      2.00000
    163       3.0891      2.00000
    164       3.0891      2.00000
    165       3.0891      2.00000
    166       3.1030      2.00000
    167       3.1030      2.00000
    168       3.1030      2.00000
    169       5.1394      0.11106
    170       5.1394      0.11106
    171       5.1394      0.11105
    172       5.5169     -0.00188
    173       5.5169     -0.00188
    174       5.5169     -0.00188
    175       5.5169     -0.00188
    176       5.5169     -0.00188
    177       5.5169     -0.00188
    178       5.8434     -0.00000
    179       5.8434     -0.00000
    180       5.8434     -0.00000
    181       5.9966     -0.00000
    182       5.9966     -0.00000
    183       5.9966     -0.00000
    184       6.4047     -0.00000
    185       6.4047     -0.00000
    186       6.4047     -0.00000
    187       6.4047     -0.00000
    188       6.4047     -0.00000
    189       6.4047     -0.00000
    190       6.7787     -0.00000
    191       6.7787     -0.00000
    192       6.7787     -0.00000
    193       9.2621     -0.00000
    194       9.2626     -0.00000
    195       9.2630     -0.00000
    196       9.7278     -0.00000
    197       9.7288     -0.00000
    198       9.7317     -0.00000
    199      10.0408     -0.00000
    200      10.0408     -0.00000
    201      10.0423     -0.00000
    202      10.0435     -0.00000
    203      10.0612     -0.00000
    204      10.1369     -0.00000
    205      10.5411      0.00000
    206      10.5411      0.00000
    207      10.5521      0.00000
    208      10.5750      0.00000
    209      10.6781      0.00000
    210      10.7354      0.00000
    211      10.9808      0.00000
    212      11.2753      0.00000


--------------------------------------------------------------------------------------------------------


 soft charge-density along one line, spin component           1
         0         1         2         3         4         5         6         7         8         9
 total charge-density along one line
 
 pseudopotential strength for first ion, spin component:           1
-10.041   0.000  -0.000   0.000  -0.000  -0.069  -0.000   0.000
  0.000 -10.041   0.000   0.000  -0.000  -0.000  -0.069  -0.000
 -0.000   0.000 -10.027   0.000  -0.000   0.000  -0.000  -0.071
  0.000   0.000   0.000 -10.041   0.000  -0.000  -0.000  -0.000
 -0.000  -0.000  -0.000   0.000 -10.027   0.000   0.000   0.000
 -0.069  -0.000   0.000  -0.000   0.000   0.280   0.000  -0.000
 -0.000  -0.069  -0.000  -0.000   0.000   0.000   0.280   0.000
  0.000  -0.000  -0.071  -0.000   0.000  -0.000   0.000   0.280
 -0.000  -0.000  -0.000  -0.069  -0.000   0.000   0.000   0.000
  0.000   0.000   0.000  -0.000  -0.071  -0.000  -0.000  -0.000
 -0.000  -0.000  -0.000  -0.000  -0.000   0.000   0.000  -0.000
  0.000   0.000   0.000   0.000   0.000  -0.000  -0.000  -0.000
  0.000  -0.000  -0.000   0.000  -0.000  -0.000   0.000   0.000
  0.000   0.000  -0.000   0.000   0.000  -0.000  -0.000   0.000
  0.000   0.000  -0.000  -0.000   0.000  -0.000  -0.000   0.000
 -0.000   0.000   0.000  -0.000   0.000   0.000  -0.000  -0.000
 -0.000  -0.000   0.000  -0.000  -0.000   0.000   0.000  -0.000
 -0.000  -0.000   0.000   0.000  -0.000   0.000   0.000  -0.000
 total augmentation occupancy for first ion, spin component:           1
  1.898  -0.001  -0.004   0.000   0.001  -0.042   0.001   0.001  -0.001  -0.001   0.008   0.001  -0.000  -0.000   0.000   0.000
 -0.001   1.917  -0.004  -0.002  -0.001   0.001  -0.061   0.005   0.002  -0.001   0.001  -0.002   0.000   0.000  -0.000   0.000
 -0.004  -0.004   1.965  -0.001   0.005   0.001   0.005  -0.100   0.002  -0.003   0.021   0.005   0.000   0.000   0.000   0.000
  0.000  -0.002  -0.001   1.910   0.003  -0.001   0.002   0.002  -0.049  -0.001   0.006   0.001  -0.000  -0.000   0.000  -0.000
  0.001  -0.001   0.005   0.003   1.943  -0.001  -0.001  -0.003  -0.001  -0.083  -0.007  -0.003  -0.000  -0.000  -0.000  -0.000
 -0.042   0.001   0.001  -0.001  -0.001   0.179  -0.001   0.002   0.001   0.000  -0.002   0.002   0.000  -0.000  -0.000  -0.000
  0.001  -0.061   0.005   0.002  -0.001  -0.001   0.194  -0.006  -0.001   0.004   0.003   0.003  -0.000   0.000   0.000  -0.000
  0.001   0.005  -0.100   0.002  -0.003   0.002  -0.006   0.150  -0.003   0.000  -0.014  -0.001  -0.000  -0.000  -0.000  -0.000
 -0.001   0.002   0.002  -0.049  -0.001   0.001  -0.001  -0.003   0.178  -0.001  -0.003   0.001   0.000  -0.000  -0.000   0.000
 -0.001  -0.001  -0.003  -0.001  -0.083   0.000   0.004   0.000  -0.001   0.140   0.006   0.002   0.000   0.000   0.000   0.000
  0.008   0.001   0.021   0.006  -0.007  -0.002   0.003  -0.014  -0.003   0.006   1.049  -0.351   0.000  -0.000   0.000  -0.000
  0.001  -0.002   0.005   0.001  -0.003   0.002   0.003  -0.001   0.001   0.002  -0.351   0.219   0.000  -0.000   0.000  -0.000
 -0.000   0.000   0.000  -0.000  -0.000   0.000  -0.000  -0.000   0.000   0.000   0.000   0.000   0.141  -0.001   0.003  -0.010
 -0.000   0.000   0.000  -0.000  -0.000  -0.000   0.000  -0.000  -0.000   0.000  -0.000  -0.000  -0.001   0.145   0.000  -0.000
  0.000  -0.000   0.000   0.000  -0.000  -0.000   0.000  -0.000  -0.000   0.000   0.000   0.000   0.003   0.000   0.145  -0.000
  0.000   0.000   0.000  -0.000  -0.000  -0.000  -0.000  -0.000   0.000   0.000  -0.000  -0.000  -0.010  -0.000  -0.000   0.001
 -0.000   0.000   0.000  -0.000  -0.000   0.000  -0.000  -0.000   0.000   0.000   0.000   0.000  -0.000  -0.011  -0.000   0.000
 -0.000  -0.000   0.000   0.000  -0.000  -0.000   0.000  -0.000  -0.000   0.000   0.000  -0.000  -0.000  -0.000  -0.010   0.000


------------------------ aborting loop because EDIFF is reached ----------------------------------------




--------------------------------------------------------------------------------------------------------


    CHARGE:  VPU time    9.59: CPU time    9.62
    FORLOC:  VPU time    0.09: CPU time    0.09
    FORNL :  VPU time   57.23: CPU time   57.38
    STRESS:  VPU time  136.73: CPU time  137.10
    FORCOR:  VPU time    0.52: CPU time    0.53
    FORHAR:  VPU time    0.17: CPU time    0.17
    MIXING:  VPU time    0.01: CPU time    0.01


--------------------------------------------------------------------------------------------------------



  FREE ENERGIE OF THE ION-ELECTRON SYSTEM (eV)
  ---------------------------------------------------
  free  energy   TOTEN  =      -104.694671 eV

  energy  without entropy=     -104.705394  energy(sigma->0) =     -104.698245
 

  FORCE on cell =-STRESS in cart. coord.  units (eV/reduce length):
  Direction    X        Y        Z        XY       YZ       ZX
  --------------------------------------------------------------------------------------
  Alpha Z   3308.64   3308.64   3308.64
  Ewald   -10219.96 -10219.96 -10219.96     -0.00     -0.00     -0.00
  Hartree   1291.39   1291.39   1291.39     -0.00     -0.00     -0.00
  E(xc)    -1586.25  -1586.25  -1586.25     -0.00     -0.00     -0.00
  Local     2543.08   2543.08   2543.08      0.00      0.00      0.00
  n-local  -1611.12  -1607.12  -1594.24      5.36      0.53      3.50
  augment   1375.01   1375.01   1375.01      0.00     -0.00     -0.00
  Kinetic   4886.56   4891.58   4903.18      1.49     -4.10     -0.18
  -------------------------------------------------------------------------------------
  Total        1.52      1.52      1.52      0.00      0.00      0.00
  in kB        4.20      4.20      4.20      0.00      0.00      0.00
  external pressure =        4.20 kB  Pullay stress =        0.00 kB


 VOLUME and BASIS-vectors are now :
 -----------------------------------------------------------------------------
  energy-cutoff  :      600.00
  volume of cell :      579.62
      direct lattice vectors                 reciprocal lattice vectors
     8.337752780  0.000000000  0.000000000     0.119936394 -0.000000002 -0.000000002
     0.000000150  8.337752780  0.000000000     0.000000000  0.119936394 -0.000000002
     0.000000150  0.000000150  8.337752780     0.000000000  0.000000000  0.119936394

  length of vectors
     8.337752780  8.337752780  8.337752780     0.119936394  0.119936394  0.119936394


 FORCES acting on ions
    electron-ion (+dipol)            ewald-force                    non-local-force                 convergence-correction
 -----------------------------------------------------------------------------------------------
   0.417E-12 -.124E-10 0.179E-11   -.160E-12 -.320E-13 -.641E-13   0.521E-22 -.320E-22 -.787E-23   0.238E-12 -.562E-14 -.688E-12
   0.417E-12 -.528E-12 -.282E-13   0.000E+00 0.000E+00 -.645E-13   -.417E-22 0.503E-22 0.261E-23   0.116E-12 -.395E-12 0.930E-12
   0.417E-12 -.550E-13 -.532E-11   -.135E-12 0.187E-14 -.249E-13   -.370E-22 -.137E-23 0.154E-22   0.113E-13 -.343E-12 -.752E-13
   0.429E-12 0.375E-11 0.147E-11   -.924E-13 -.213E-13 0.213E-13   0.185E-22 -.176E-22 -.184E-22   0.180E-12 -.327E-13 -.296E-12
   -.389E-13 0.422E-12 0.937E-13   0.617E-13 -.711E-14 -.711E-13   0.734E-22 0.241E-22 -.133E-22   -.215E-13 -.667E-13 -.216E-12
   -.394E-13 -.321E-13 0.273E-12   -.632E-13 -.318E-13 -.277E-13   -.587E-23 -.296E-22 -.609E-23   0.130E-12 -.181E-12 -.411E-12
   0.131E-12 -.110E-11 0.117E-11   0.107E-13 -.213E-13 -.124E-12   -.320E-22 0.157E-22 0.370E-24   -.202E-12 0.448E-15 -.372E-12
   0.417E-12 0.280E-13 0.234E-11   -.249E-13 -.233E-13 0.117E-12   0.275E-22 0.395E-23 -.168E-22   0.189E-12 0.439E-13 -.247E-12
   0.429E-12 -.815E-11 -.111E-12   -.114E-12 -.142E-13 -.120E-13   0.355E-22 -.507E-22 0.210E-22   -.767E-13 0.377E-12 0.549E-12
   0.429E-12 -.135E-11 0.661E-11   -.128E-12 -.238E-14 0.426E-13   0.106E-21 0.192E-22 0.190E-22   0.116E-12 0.392E-12 -.473E-12
   -.321E-13 0.429E-12 0.459E-12   0.614E-13 0.604E-13 -.320E-13   -.450E-22 0.255E-22 0.133E-22   0.297E-12 -.162E-12 -.817E-13
   -.390E-13 -.317E-13 -.186E-13   -.173E-13 -.319E-13 -.107E-13   -.103E-22 0.288E-22 0.754E-23   0.462E-12 -.975E-13 0.663E-12
   -.394E-13 0.127E-12 0.938E-13   -.802E-14 -.426E-13 0.107E-13   -.535E-22 -.870E-23 0.295E-22   0.300E-12 0.656E-13 -.299E-12
   -.325E-13 0.271E-12 0.265E-12   -.644E-13 -.284E-13 0.256E-13   -.245E-23 0.716E-23 0.170E-22   0.131E-12 0.225E-12 -.324E-12
   0.131E-12 0.197E-11 0.865E-12   0.426E-13 0.142E-13 -.120E-12   0.255E-22 -.420E-22 0.942E-23   -.806E-13 -.606E-13 0.606E-12
   0.132E-12 -.363E-13 -.130E-11   -.178E-13 0.204E-13 -.178E-13   0.596E-22 -.117E-22 -.187E-24   0.216E-13 -.167E-13 -.402E-12
   0.118E-12 0.164E-11 0.117E-11   0.178E-13 0.355E-13 -.823E-13   0.282E-22 -.411E-22 -.103E-22   -.146E-12 -.163E-13 -.315E-12
   0.282E-12 -.328E-11 -.308E-12   0.718E-13 0.142E-13 -.142E-13   -.139E-22 0.302E-22 0.246E-22   0.316E-13 0.221E-13 -.349E-12
   0.283E-12 -.351E-13 -.247E-11   -.331E-13 0.533E-13 -.852E-13   0.880E-23 0.767E-24 -.190E-22   -.116E-12 -.103E-12 -.584E-12
   0.429E-12 -.110E-11 -.943E-11   0.995E-13 -.358E-13 0.568E-13   -.415E-22 -.173E-22 -.729E-23   0.158E-12 0.584E-14 0.153E-12
   -.328E-13 0.120E-12 0.460E-12   0.255E-13 -.355E-13 0.817E-13   -.137E-22 0.648E-23 -.173E-22   0.279E-12 0.162E-12 0.125E-13
   -.324E-13 0.271E-12 -.134E-13   -.450E-13 -.320E-13 0.391E-13   0.115E-22 -.912E-22 0.112E-22   0.124E-12 0.130E-12 0.558E-12
   0.133E-12 -.362E-13 0.213E-11   0.320E-13 0.209E-13 0.675E-13   -.571E-22 -.131E-23 0.188E-23   -.156E-12 0.291E-13 0.941E-13
   0.118E-12 -.141E-11 0.868E-12   0.000E+00 -.142E-13 -.137E-13   -.162E-23 0.113E-21 -.565E-23   0.111E-12 0.420E-13 0.571E-12
   0.119E-12 0.280E-12 0.174E-11   -.426E-13 -.246E-13 0.426E-13   -.629E-22 0.454E-22 0.941E-23   -.760E-13 0.739E-13 -.456E-12
   0.276E-12 0.262E-11 0.456E-11   0.856E-13 0.284E-13 0.142E-13   0.224E-22 -.378E-23 -.334E-22   -.285E-12 -.209E-12 0.270E-13
   0.283E-12 0.889E-14 0.198E-11   0.923E-13 0.143E-13 0.142E-13   0.721E-22 -.689E-22 0.271E-23   -.447E-12 0.122E-12 0.849E-12
   0.283E-12 -.225E-11 -.366E-12   0.779E-13 0.995E-13 -.284E-13   0.429E-22 -.424E-22 0.278E-22   -.289E-12 -.471E-13 -.579E-12
   0.276E-12 -.270E-11 -.233E-11   0.855E-13 0.284E-13 0.611E-13   0.509E-22 -.471E-22 -.716E-23   -.123E-12 0.187E-12 -.365E-12
   0.120E-12 0.279E-12 -.912E-12   0.568E-13 0.235E-13 0.114E-12   -.286E-22 -.287E-22 -.154E-22   -.120E-12 0.275E-13 0.160E-12
   0.276E-12 -.208E-11 -.148E-11   0.184E-12 -.426E-13 0.000E+00   -.399E-22 -.825E-23 -.160E-23   -.269E-12 0.184E-12 0.247E-12
   0.275E-12 -.273E-11 0.176E-11   0.864E-13 0.286E-13 0.710E-13   0.158E-22 0.672E-22 -.211E-22   -.118E-12 -.369E-13 0.601E-12
 -----------------------------------------------------------------------------------------------
   0.633E-11 -.270E-10 0.600E-11   0.146E-12 0.255E-14 -.131E-13   0.164E-21 -.106E-21 0.119E-22   0.370E-12 0.319E-12 -.513E-12
 
 
 POSITION                                       TOTAL-FORCE (eV/Angst)
 -----------------------------------------------------------------------------------
      6.25331      6.25331      4.16888         0.000000     -0.000000      0.000000
      6.25331      6.25331      0.00000         0.000000      0.000000     -0.000000
      6.25331      0.00000      2.08444        -0.000000      0.000000      0.000000
      6.25331      2.08444      4.16888        -0.000000      0.000000     -0.000000
      0.00000      6.25331      2.08444         0.000000     -0.000000      0.000000
      0.00000      0.00000      4.16888         0.000000     -0.000000      0.000000
      2.08444      6.25331      4.16888        -0.000000      0.000000      0.000000
      6.25331      0.00000      6.25331         0.000000     -0.000000     -0.000000
      6.25331      2.08444      0.00000        -0.000000      0.000000     -0.000000
      6.25331      4.16888      2.08444         0.000000     -0.000000      0.000000
      0.00000      6.25331      6.25331        -0.000000     -0.000000     -0.000000
      0.00000      0.00000      0.00000        -0.000000     -0.000000      0.000000
      0.00000      2.08444      2.08444        -0.000000      0.000000     -0.000000
      0.00000      4.16888      4.16888        -0.000000     -0.000000     -0.000000
      2.08444      6.25331      0.00000        -0.000000      0.000000     -0.000000
      2.08444      0.00000      2.08444         0.000000     -0.000000     -0.000000
      2.08444      2.08444      4.16888         0.000000     -0.000000     -0.000000
      4.16888      6.25331      2.08444         0.000000      0.000000     -0.000000
      4.16888      0.00000      4.16888        -0.000000      0.000000      0.000000
      6.25331      4.16888      6.25331        -0.000000     -0.000000     -0.000000
      0.00000      2.08444      6.25331        -0.000000      0.000000     -0.000000
      0.00000      4.16888      0.00000        -0.000000      0.000000      0.000000
      2.08444      0.00000      6.25331         0.000000      0.000000      0.000000
      2.08444      2.08444      0.00000        -0.000000      0.000000      0.000000
      2.08444      4.16888      2.08444         0.000000      0.000000     -0.000000
      4.16888      6.25331      6.25331        -0.000000      0.000000     -0.000000
      4.16888      0.00000      0.00000         0.000000      0.000000     -0.000000
      4.16888      2.08444      2.08444         0.000000      0.000000      0.000000
      4.16888      4.16888      4.16888         0.000000      0.000000      0.000000
      2.08444      4.16888      6.25331        -0.000000      0.000000      0.000000
      4.16888      2.08444      6.25331        -0.000000      0.000000     -0.000000
      4.16888      4.16888      0.00000         0.000000     -0.000000     -0.000000
 -----------------------------------------------------------------------------------
    total drift:                                0.000000     -0.000000      0.000000


--------------------------------------------------------------------------------------------------------




--------------------------------------------------------------------------------------------------------


  
 reached required accuracy - stopping structural energy minimisation
 writing wavefunctions
     LOOP+:  VPU time 2030.92: CPU time 2041.38

 ----------------------------------------------------------------------------- 
|                                                                             |
|           W    W    AA    RRRRR   N    N  II  N    N   GGGG   !!!           |
|           W    W   A  A   R    R  NN   N  II  NN   N  G    G  !!!           |
|           W    W  A    A  R    R  N N  N  II  N N  N  G       !!!           |
|           W WW W  AAAAAA  RRRRR   N  N N  II  N  N N  G  GGG   !            |
|           WW  WW  A    A  R   R   N   NN  II  N   NN  G    G                |
|           W    W  A    A  R    R  N    N  II  N    N   GGGG   !!!           |
|                                                                             |
|      The partial DOS and the PROCAR file are not evaluated for NPAR/=1      |
|      please rerun with NPAR=1                                               |
|                                                                             |
 ----------------------------------------------------------------------------- 

  
  
 General timing and accounting informations for this job:
 ========================================================
  
                  Total CPU time used (sec):     2049.067
                            User time (sec):     2024.376
                          System time (sec):       24.691
                         Elapsed time (sec):     2059.572
  
                   Maximum memory used (kb):     1918992.
                   Average memory used (kb):           0.
  
                          Minor page faults:       409491
                          Major page faults:            0
                 Voluntary context switches:        44673
