   4   4   0   0
  0.1750391E+02  0.4121593E-09  0.4121593E-09  0.4121593E-09  0.5000000E-15
  1.000000000000000E-004
  CAR 
 unknown system                          
     15.23198402     -5.21743903  301      3.31341921      1.00000000
     -5.217  0.0000E+00  0.0000E+00
     -5.149  0.0000E+00  0.0000E+00
     -5.081  0.0000E+00  0.0000E+00
     -5.013  0.0000E+00  0.0000E+00
     -4.945  0.0000E+00  0.0000E+00
     -4.877  0.0000E+00  0.0000E+00
     -4.808  0.0000E+00  0.0000E+00
     -4.740  0.0000E+00  0.0000E+00
     -4.672  0.0000E+00  0.0000E+00
     -4.604  0.0000E+00  0.0000E+00
     -4.536  0.0000E+00  0.0000E+00
     -4.468  0.0000E+00  0.0000E+00
     -4.399  0.0000E+00  0.0000E+00
     -4.331  0.7252E-11  0.4943E-12
     -4.263  0.1698E-01  0.1157E-02
     -4.195  0.1018E+00  0.8094E-02
     -4.127  0.2031E+00  0.2195E-01
     -4.059  0.1352E+00  0.3121E-01
     -3.990  0.1006E+00  0.3811E-01
     -3.922  0.4038E+00  0.6572E-01
     -3.854  0.4063E+00  0.9367E-01
     -3.786  0.2365E-10  0.9375E-01
     -3.718  0.2037E+00  0.1076E+00
     -3.650  0.5093E+00  0.1424E+00
     -3.581  0.4075E+00  0.1701E+00
     -3.513  0.4535E+00  0.2011E+00
     -3.445  0.9242E-01  0.2074E+00
     -3.377  0.9604E+00  0.2728E+00
     -3.309  0.2595E+00  0.2905E+00
     -3.241  0.3998E+00  0.3178E+00
     -3.172  0.5152E+00  0.3529E+00
     -3.104  0.1010E+01  0.4219E+00
     -3.036  0.5179E+00  0.4578E+00
     -2.968  0.1418E+01  0.5554E+00
     -2.900  0.2631E+01  0.7350E+00
     -2.832  0.4888E+01  0.1069E+01
     -2.764  0.7202E+01  0.1561E+01
     -2.695  0.8912E+01  0.2169E+01
     -2.627  0.1038E+02  0.2877E+01
     -2.559  0.1189E+02  0.3689E+01
     -2.491  0.1443E+02  0.4674E+01
     -2.423  0.1765E+02  0.5879E+01
     -2.355  0.1104E+02  0.6631E+01
     -2.286  0.1432E+02  0.7611E+01
     -2.218  0.1263E+02  0.8472E+01
     -2.150  0.8767E+01  0.9070E+01
     -2.082  0.9840E+01  0.9743E+01
     -2.014  0.7442E+01  0.1025E+02
     -1.946  0.1185E+02  0.1106E+02
     -1.877  0.7191E+01  0.1156E+02
     -1.809  0.1131E+02  0.1233E+02
     -1.741  0.1021E+02  0.1302E+02
     -1.673  0.1275E+02  0.1389E+02
     -1.605  0.1243E+02  0.1474E+02
     -1.537  0.8760E+01  0.1534E+02
     -1.468  0.1089E+02  0.1609E+02
     -1.400  0.1038E+02  0.1680E+02
     -1.332  0.1174E+02  0.1760E+02
     -1.264  0.1996E+02  0.1896E+02
     -1.196  0.1986E+02  0.2032E+02
     -1.128  0.1484E+02  0.2133E+02
     -1.059  0.1615E+02  0.2243E+02
     -0.991  0.1085E+02  0.2317E+02
     -0.923  0.9667E+01  0.2383E+02
     -0.855  0.1185E+02  0.2464E+02
     -0.787  0.1228E+02  0.2548E+02
     -0.719  0.8482E+01  0.2606E+02
     -0.650  0.1128E+02  0.2683E+02
     -0.582  0.1552E+02  0.2789E+02
     -0.514  0.1283E+02  0.2877E+02
     -0.446  0.1320E+02  0.2967E+02
     -0.378  0.1363E+02  0.3060E+02
     -0.310  0.1370E+02  0.3153E+02
     -0.241  0.8726E+01  0.3213E+02
     -0.173  0.1258E+02  0.3299E+02
     -0.105  0.8966E+01  0.3360E+02
     -0.037  0.1166E+02  0.3440E+02
      0.031  0.1354E+02  0.3532E+02
      0.099  0.8651E+01  0.3591E+02
      0.168  0.1433E+02  0.3689E+02
      0.236  0.1568E+02  0.3796E+02
      0.304  0.1874E+02  0.3924E+02
      0.372  0.1877E+02  0.4052E+02
      0.440  0.6269E+01  0.4095E+02
      0.508  0.6435E+01  0.4138E+02
      0.577  0.1086E+00  0.4139E+02
      0.645  0.3386E+00  0.4142E+02
      0.713  0.9563E+00  0.4148E+02
      0.781  0.1443E+01  0.4158E+02
      0.849  0.2115E+01  0.4172E+02
      0.917  0.8150E+00  0.4178E+02
      0.986  0.3967E+00  0.4181E+02
      1.054  0.8084E+00  0.4186E+02
      1.122  0.4141E+00  0.4189E+02
      1.190  0.1019E+00  0.4190E+02
      1.258  0.1936E-01  0.4190E+02
      1.326  0.1627E+01  0.4201E+02
      1.395  0.2921E+01  0.4221E+02
      1.463  0.3181E+00  0.4223E+02
      1.531  0.1012E+01  0.4230E+02
      1.599  0.1232E+01  0.4239E+02
      1.667  0.6065E-09  0.4239E+02
      1.735  0.1222E+01  0.4247E+02
      1.804  0.1358E+00  0.4248E+02
      1.872  0.4075E+00  0.4251E+02
      1.940  0.2910E-01  0.4251E+02
      2.008  0.2792E+01  0.4270E+02
      2.076  0.1225E+01  0.4278E+02
      2.144  0.4072E+00  0.4281E+02
      2.213  0.1613E+01  0.4292E+02
      2.281  0.1324E+01  0.4301E+02
      2.349  0.0000E+00  0.4301E+02
      2.417  0.4744E-01  0.4302E+02
      2.485  0.1799E+01  0.4314E+02
      2.553  0.1006E+01  0.4321E+02
      2.622  0.3965E+00  0.4323E+02
      2.690  0.5780E-04  0.4323E+02
      2.758  0.2130E+01  0.4338E+02
      2.826  0.1297E+01  0.4347E+02
      2.894  0.1385E+01  0.4356E+02
      2.962  0.1152E+01  0.4364E+02
      3.030  0.1433E+01  0.4374E+02
      3.099  0.1023E+01  0.4381E+02
      3.167  0.1589E+01  0.4392E+02
      3.235  0.4116E-01  0.4392E+02
      3.303  0.9673E+00  0.4399E+02
      3.371  0.6878E+00  0.4403E+02
      3.439  0.4810E+00  0.4407E+02
      3.508  0.3912E+00  0.4409E+02
      3.576  0.1314E+01  0.4418E+02
      3.644  0.3204E+01  0.4440E+02
      3.712  0.1173E+01  0.4448E+02
      3.780  0.7163E+00  0.4453E+02
      3.848  0.9441E+00  0.4460E+02
      3.917  0.1196E+01  0.4468E+02
      3.985  0.8106E+00  0.4473E+02
      4.053  0.6945E+00  0.4478E+02
      4.121  0.9355E+00  0.4484E+02
      4.189  0.1705E+01  0.4496E+02
      4.257  0.1168E+01  0.4504E+02
      4.326  0.4401E+00  0.4507E+02
      4.394  0.3476E+00  0.4509E+02
      4.462  0.1798E+01  0.4522E+02
      4.530  0.5458E+00  0.4525E+02
      4.598  0.1602E+01  0.4536E+02
      4.666  0.1585E+01  0.4547E+02
      4.735  0.8604E+00  0.4553E+02
      4.803  0.1833E+01  0.4566E+02
      4.871  0.2051E+00  0.4567E+02
      4.939  0.4784E+00  0.4570E+02
      5.007  0.7941E+00  0.4576E+02
      5.075  0.4288E+00  0.4579E+02
      5.144  0.3035E+01  0.4599E+02
      5.212  0.8442E-12  0.4599E+02
      5.280  0.1595E+01  0.4610E+02
      5.348  0.2051E+00  0.4612E+02
      5.416  0.6984E+00  0.4617E+02
      5.484  0.2559E+01  0.4634E+02
      5.553  0.7083E+00  0.4639E+02
      5.621  0.1486E+00  0.4640E+02
      5.689  0.9651E+00  0.4646E+02
      5.757  0.1630E+01  0.4658E+02
      5.825  0.1622E+01  0.4669E+02
      5.893  0.1169E-01  0.4669E+02
      5.962  0.8033E+00  0.4674E+02
      6.030  0.5842E-07  0.4674E+02
      6.098  0.8153E+00  0.4680E+02
      6.166  0.8148E+00  0.4685E+02
      6.234  0.8816E+00  0.4691E+02
      6.302  0.9522E+00  0.4698E+02
      6.371  0.1037E+01  0.4705E+02
      6.439  0.1407E+01  0.4715E+02
      6.507  0.3967E+00  0.4717E+02
      6.575  0.1616E+01  0.4728E+02
      6.643  0.8189E-03  0.4728E+02
      6.711  0.8142E+00  0.4734E+02
      6.780  0.1119E+00  0.4735E+02
      6.848  0.8090E+00  0.4740E+02
      6.916  0.1780E+01  0.4752E+02
      6.984  0.1432E+01  0.4762E+02
      7.052  0.2040E+01  0.4776E+02
      7.120  0.8239E+00  0.4782E+02
      7.189  0.1151E+01  0.4790E+02
      7.257  0.2972E+00  0.4792E+02
      7.325  0.2132E+01  0.4806E+02
      7.393  0.1904E+01  0.4819E+02
      7.461  0.5925E+00  0.4823E+02
      7.529  0.2051E+01  0.4837E+02
      7.598  0.7323E+00  0.4842E+02
      7.666  0.2070E+01  0.4856E+02
      7.734  0.2020E+01  0.4870E+02
      7.802  0.9130E+00  0.4876E+02
      7.870  0.1130E+01  0.4884E+02
      7.938  0.1306E+01  0.4893E+02
      8.007  0.1514E+01  0.4903E+02
      8.075  0.9329E-01  0.4904E+02
      8.143  0.2628E+00  0.4906E+02
      8.211  0.1173E+01  0.4914E+02
      8.279  0.2303E+01  0.4929E+02
      8.347  0.2324E+01  0.4945E+02
      8.416  0.1199E+01  0.4953E+02
      8.484  0.3126E-01  0.4954E+02
      8.552  0.6203E+00  0.4958E+02
      8.620  0.2628E+01  0.4976E+02
      8.688  0.1394E+01  0.4985E+02
      8.756  0.7719E+00  0.4991E+02
      8.824  0.5952E-01  0.4991E+02
      8.893  0.2018E+01  0.5005E+02
      8.961  0.2055E+00  0.5006E+02
      9.029  0.1525E+01  0.5017E+02
      9.097  0.1326E+01  0.5026E+02
      9.165  0.1644E+01  0.5037E+02
      9.233  0.1005E+01  0.5044E+02
      9.302  0.8216E+00  0.5049E+02
      9.370  0.4001E+00  0.5052E+02
      9.438  0.9707E+00  0.5059E+02
      9.506  0.1506E+01  0.5069E+02
      9.574  0.1597E+01  0.5080E+02
      9.642  0.1221E+01  0.5088E+02
      9.711  0.8831E+00  0.5094E+02
      9.779  0.3526E+00  0.5097E+02
      9.847  0.1627E+01  0.5108E+02
      9.915  0.2474E+01  0.5125E+02
      9.983  0.6264E+00  0.5129E+02
     10.051  0.2578E+01  0.5146E+02
     10.120  0.4276E+00  0.5150E+02
     10.188  0.7374E+00  0.5155E+02
     10.256  0.6915E+00  0.5159E+02
     10.324  0.2778E+01  0.5178E+02
     10.392  0.1270E+01  0.5187E+02
     10.460  0.2996E+01  0.5207E+02
     10.529  0.2808E+01  0.5227E+02
     10.597  0.1572E+01  0.5237E+02
     10.665  0.1590E+01  0.5248E+02
     10.733  0.1152E+01  0.5256E+02
     10.801  0.2312E+01  0.5272E+02
     10.869  0.4340E+00  0.5275E+02
     10.938  0.5232E+00  0.5278E+02
     11.006  0.4687E+00  0.5282E+02
     11.074  0.3280E+01  0.5304E+02
     11.142  0.2932E+01  0.5324E+02
     11.210  0.1235E+01  0.5333E+02
     11.278  0.3040E+01  0.5353E+02
     11.347  0.8074E+00  0.5359E+02
     11.415  0.1678E+01  0.5370E+02
     11.483  0.1627E+01  0.5381E+02
     11.551  0.1819E+01  0.5394E+02
     11.619  0.4386E+00  0.5397E+02
     11.687  0.8650E+00  0.5403E+02
     11.756  0.2085E+01  0.5417E+02
     11.824  0.2486E+01  0.5434E+02
     11.892  0.1592E+01  0.5445E+02
     11.960  0.1921E+01  0.5458E+02
     12.028  0.5418E+00  0.5462E+02
     12.096  0.1475E+01  0.5472E+02
     12.165  0.1248E+01  0.5480E+02
     12.233  0.1069E+01  0.5487E+02
     12.301  0.1688E+01  0.5499E+02
     12.369  0.2101E+01  0.5513E+02
     12.437  0.2235E+01  0.5529E+02
     12.505  0.1158E+01  0.5536E+02
     12.574  0.4653E+00  0.5540E+02
     12.642  0.1225E+01  0.5548E+02
     12.710  0.8138E+00  0.5554E+02
     12.778  0.1222E+01  0.5562E+02
     12.846  0.0000E+00  0.5562E+02
     12.914  0.2980E+00  0.5564E+02
     12.983  0.2059E+01  0.5578E+02
     13.051  0.4273E+00  0.5581E+02
     13.119  0.5090E+00  0.5584E+02
     13.187  0.0000E+00  0.5584E+02
     13.255  0.2692E+00  0.5586E+02
     13.323  0.5338E+00  0.5590E+02
     13.392  0.8076E+00  0.5595E+02
     13.460  0.4137E+00  0.5598E+02
     13.528  0.0000E+00  0.5598E+02
     13.596  0.0000E+00  0.5598E+02
     13.664  0.0000E+00  0.5598E+02
     13.732  0.9014E-03  0.5598E+02
     13.801  0.1010E+00  0.5599E+02
     13.869  0.0000E+00  0.5599E+02
     13.937  0.0000E+00  0.5599E+02
     14.005  0.1062E-01  0.5599E+02
     14.073  0.6358E-02  0.5599E+02
     14.141  0.0000E+00  0.5599E+02
     14.210  0.0000E+00  0.5599E+02
     14.278  0.3096E-04  0.5599E+02
     14.346  0.1358E+00  0.5600E+02
     14.414  0.0000E+00  0.5600E+02
     14.482  0.0000E+00  0.5600E+02
     14.550  0.0000E+00  0.5600E+02
     14.619  0.0000E+00  0.5600E+02
     14.687  0.0000E+00  0.5600E+02
     14.755  0.0000E+00  0.5600E+02
     14.823  0.0000E+00  0.5600E+02
     14.891  0.0000E+00  0.5600E+02
     14.959  0.0000E+00  0.5600E+02
     15.027  0.0000E+00  0.5600E+02
     15.096  0.0000E+00  0.5600E+02
     15.164  0.0000E+00  0.5600E+02
     15.232  0.0000E+00  0.5600E+02
