    4    4    1    1
  0.1750391E+02  0.4121593E-09  0.4121593E-09  0.4121593E-09  0.5000000E-15
  1.000000000000000E-004
  CAR 
 unknown system                          
   44   84   28
 
  0.0000000E+00  0.0000000E+00  0.0000000E+00  0.5787037E-03
   1       -4.2879
   2       -3.0091
   3       -3.0091
   4       -3.0091
   5       -2.8806
   6       -2.8806
   7       -2.8806
   8       -1.4487
   9       -1.4487
  10       -1.4487
  11       -0.4599
  12       -0.4599
  13        0.2690
  14        0.2690
  15        0.2690
  16        0.4974
  17        0.4974
  18        0.4974
  19        0.4974
  20        0.4974
  21        0.4974
  22        4.9305
  23        4.9305
  24        4.9305
  25        9.8386
  26        9.8386
  27        9.8386
  28       14.0028
 
  0.8333333E-01  0.0000000E+00  0.0000000E+00  0.3472222E-02
   1       -4.2166
   2       -2.9801
   3       -2.9716
   4       -2.9716
   5       -2.8586
   6       -2.8470
   7       -2.8470
   8       -1.4760
   9       -1.4232
  10       -1.4232
  11       -0.4873
  12       -0.4481
  13        0.2326
  14        0.2326
  15        0.2559
  16        0.3684
  17        0.3684
  18        0.4529
  19        0.4529
  20        0.4975
  21        0.4975
  22        4.4522
  23        5.1187
  24        5.1187
  25        9.8498
  26        9.8498
  27       10.4289
  28       13.7491
 
  0.1666667E+00  0.0000000E+00  0.0000000E+00  0.3472222E-02
   1       -4.0063
   2       -2.8970
   3       -2.8638
   4       -2.8638
   5       -2.7938
   6       -2.7466
   7       -2.7466
   8       -1.5553
   9       -1.3473
  10       -1.3473
  11       -0.5638
  12       -0.4133
  13        0.0369
  14        0.0369
  15        0.1275
  16        0.1275
  17        0.2178
  18        0.3257
  19        0.3257
  20        0.4977
  21        0.4977
  22        3.4166
  23        5.6266
  24        5.6266
  25        9.8853
  26        9.8853
  27       11.7998
  28       13.0877
 
  0.2500000E+00  0.0000000E+00  0.0000000E+00  0.3472222E-02
   1       -3.6710
   2       -2.7721
   3       -2.7011
   4       -2.7011
   5       -2.6894
   6       -2.5799
   7       -2.5799
   8       -1.6794
   9       -1.2231
  10       -1.2231
  11       -0.6707
  12       -0.3956
  13       -0.3956
  14       -0.3575
  15       -0.0323
  16       -0.0323
  17        0.1330
  18        0.1330
  19        0.1576
  20        0.4979
  21        0.4979
  22        2.2606
  23        6.3500
  24        6.3500
  25        9.9492
  26        9.9492
  27       12.2032
  28       12.2032
 
  0.3333333E+00  0.0000000E+00  0.0000000E+00  0.3472222E-02
   1       -3.2457
   2       -2.6307
   3       -2.5509
   4       -2.5137
   5       -2.5137
   6       -2.3483
   7       -2.3483
   8       -1.8375
   9       -1.0545
  10       -1.0545
  11       -0.8544
  12       -0.8544
  13       -0.7648
  14       -0.2843
  15       -0.2179
  16       -0.2179
  17       -0.1022
  18       -0.1022
  19        0.0799
  20        0.4981
  21        0.4981
  22        1.1633
  23        7.2096
  24        7.2096
  25       10.0431
  26       10.0431
  27       11.2140
  28       11.2140
 
  0.4166667E+00  0.0000000E+00  0.0000000E+00  0.3472222E-02
   1       -2.8185
   2       -2.5238
   3       -2.3858
   4       -2.3526
   5       -2.3526
   6       -2.0541
   7       -2.0541
   8       -2.0169
   9       -1.2973
  10       -1.2973
  11       -0.8475
  12       -0.8475
  13       -0.7483
  14       -0.3783
  15       -0.3783
  16       -0.3570
  17       -0.3570
  18       -0.1981
  19       -0.0096
  20        0.2231
  21        0.4983
  22        0.4983
  23        8.1562
  24        8.1562
  25       10.1508
  26       10.1508
  27       10.1857
  28       10.1857
 
  0.5000000E+00  0.0000000E+00  0.0000000E+00  0.1736111E-02
   1       -2.5520
   2       -2.5520
   3       -2.2863
   4       -2.2863
   5       -2.2040
   6       -2.2040
   7       -1.7013
   8       -1.7013
   9       -1.7013
  10       -1.7013
  11       -0.6109
  12       -0.6109
  13       -0.6109
  14       -0.6109
  15       -0.4477
  16       -0.4477
  17       -0.4446
  18       -0.4446
  19       -0.1045
  20       -0.1045
  21        0.4984
  22        0.4984
  23        9.1570
  24        9.1570
  25        9.1570
  26        9.1570
  27       10.2075
  28       10.2075
 
  0.8333333E-01  0.8333333E-01  0.0000000E+00  0.6944444E-02
   1       -4.1462
   2       -2.9424
   3       -2.9424
   4       -2.9408
   5       -2.8255
   6       -2.8255
   7       -2.8082
   8       -1.4862
   9       -1.4140
  10       -1.3994
  11       -0.4945
  12       -0.4539
  13        0.1977
  14        0.2000
  15        0.2000
  16        0.2787
  17        0.3427
  18        0.3427
  19        0.4528
  20        0.4528
  21        0.4668
  22        4.6324
  23        4.6324
  24        5.2984
  25        9.8609
  26       10.4486
  27       10.4486
  28       12.9169
 
  0.1666667E+00  0.8333333E-01  0.0000000E+00  0.1388889E-01
   1       -3.9390
   2       -2.8585
   3       -2.8499
   4       -2.8338
   5       -2.7620
   6       -2.7265
   7       -2.6950
   8       -1.5553
   9       -1.3462
  10       -1.3295
  11       -0.5605
  12       -0.4215
  13       -0.0564
  14       -0.0184
  15        0.0935
  16        0.0968
  17        0.1639
  18        0.2809
  19        0.3252
  20        0.4513
  21        0.4525
  22        3.5924
  23        5.1116
  24        5.7882
  25        9.8939
  26       10.5091
  27       11.8258
  28       11.9706
 
  0.2500000E+00  0.8333333E-01  0.0000000E+00  0.1388889E-01
   1       -3.6089
   2       -2.7321
   3       -2.7045
   4       -2.6699
   5       -2.6598
   6       -2.5621
   7       -2.5180
   8       -1.6744
   9       -1.2239
  10       -1.2203
  11       -0.6561
  12       -0.4701
  13       -0.4288
  14       -0.3587
  15       -0.0883
  16       -0.0571
  17       -0.0084
  18        0.1321
  19        0.2010
  20        0.4483
  21        0.4521
  22        2.4453
  23        5.7795
  24        6.4938
  25        9.9365
  26       10.6109
  27       11.0463
  28       12.3109
 
  0.3333333E+00  0.8333333E-01  0.0000000E+00  0.1388889E-01
   1       -3.1908
   2       -2.5884
   3       -2.5242
   4       -2.5200
   5       -2.4809
   6       -2.3339
   7       -2.2932
   8       -1.8279
   9       -1.1003
  10       -1.0560
  11       -0.9134
  12       -0.8716
  13       -0.7090
  14       -0.3269
  15       -0.2738
  16       -0.2359
  17       -0.1999
  18       -0.1036
  19        0.1047
  20        0.4481
  21        0.4515
  22        1.3732
  23        6.5525
  24        7.3391
  25        9.7933
  26       10.3896
  27       10.7329
  28       11.3200
 
  0.4166667E+00  0.8333333E-01  0.0000000E+00  0.1388889E-01
   1       -2.7699
   2       -2.4786
   3       -2.3628
   4       -2.3420
   5       -2.3191
   6       -2.0445
   7       -2.0295
   8       -2.0026
   9       -1.3366
  10       -1.3028
  11       -1.0184
  12       -0.8493
  13       -0.6022
  14       -0.5840
  15       -0.3886
  16       -0.3682
  17       -0.3587
  18       -0.1688
  19       -0.0150
  20        0.4488
  21        0.4507
  22        0.4875
  23        7.3786
  24        8.2752
  25        9.0685
  26       10.2932
  27       10.4043
  28       10.7646
 
  0.5000000E+00  0.8333333E-01  0.0000000E+00  0.6944444E-02
   1       -2.5051
   2       -2.5051
   3       -2.2580
   4       -2.2580
   5       -2.1851
   6       -2.1851
   7       -1.7132
   8       -1.7132
   9       -1.6982
  10       -1.6982
  11       -0.8677
  12       -0.8677
  13       -0.6127
  14       -0.6127
  15       -0.4451
  16       -0.4451
  17       -0.2599
  18       -0.2599
  19       -0.0167
  20       -0.0167
  21        0.4497
  22        0.4497
  23        8.2252
  24        8.2252
  25        9.2689
  26        9.2689
  27       10.6017
  28       10.6017
 
  0.1666667E+00  0.1666667E+00  0.0000000E+00  0.6944444E-02
   1       -3.7412
   2       -2.7912
   3       -2.7476
   4       -2.7476
   5       -2.6670
   6       -2.6670
   7       -2.5620
   8       -1.5845
   9       -1.3124
  10       -1.2783
  11       -0.5859
  12       -0.4046
  13       -0.2323
  14       -0.2323
  15       -0.2138
  16        0.0075
  17        0.1742
  18        0.1742
  19        0.3239
  20        0.3239
  21        0.3762
  22        4.0472
  23        4.0472
  24        6.2374
  25        9.8966
  26       10.8772
  27       11.8954
  28       11.8954
 
  0.2500000E+00  0.1666667E+00  0.0000000E+00  0.1388889E-01
   1       -3.4276
   2       -2.6762
   3       -2.6168
   4       -2.5797
   5       -2.5715
   6       -2.5097
   7       -2.3747
   8       -1.6729
   9       -1.2116
  10       -1.2067
  11       -0.6526
  12       -0.6426
  13       -0.5411
  14       -0.4538
  15       -0.3224
  16       -0.1300
  17        0.0153
  18        0.1296
  19        0.1338
  20        0.3219
  21        0.3356
  22        2.9009
  23        4.6633
  24        6.9003
  25        9.5422
  26       10.2558
  27       11.9433
  28       12.6249
 
  0.3333333E+00  0.1666667E+00  0.0000000E+00  0.1388889E-01
   1       -3.0325
   2       -2.5093
   3       -2.4661
   4       -2.4450
   5       -2.3853
   6       -2.2919
   7       -2.1605
   8       -1.8056
   9       -1.1636
  10       -1.0594
  11       -1.0530
  12       -0.9288
  13       -0.7056
  14       -0.6644
  15       -0.2905
  16       -0.1877
  17       -0.1756
  18       -0.1072
  19        0.0446
  20        0.3193
  21        0.3198
  22        1.8449
  23        5.3661
  24        7.7101
  25        8.6499
  26       10.3156
  27       11.6290
  28       11.7178
 
  0.4166667E+00  0.1666667E+00  0.0000000E+00  0.1388889E-01
   1       -2.6325
   2       -2.3478
   3       -2.3149
   4       -2.2950
   5       -2.2210
   6       -2.0169
   7       -1.9632
   8       -1.9513
   9       -1.4373
  10       -1.3220
  11       -1.1849
  12       -0.9617
  13       -0.8506
  14       -0.5240
  15       -0.4232
  16       -0.3626
  17       -0.3554
  18       -0.0946
  19        0.0131
  20        0.3149
  21        0.3167
  22        0.9719
  23        6.1207
  24        7.7571
  25        8.6190
  26       10.5311
  27       10.6061
  28       11.2656
 
  0.5000000E+00  0.1666667E+00  0.0000000E+00  0.6944444E-02
   1       -2.3716
   2       -2.3716
   3       -2.1807
   4       -2.1807
   5       -2.1307
   6       -2.1307
   7       -1.7363
   8       -1.7363
   9       -1.6904
  10       -1.6904
  11       -1.1484
  12       -1.1484
  13       -0.6160
  14       -0.6160
  15       -0.4554
  16       -0.4554
  17       -0.2938
  18       -0.2938
  19        0.3148
  20        0.3148
  21        0.3604
  22        0.3604
  23        6.9163
  24        6.9163
  25        9.5935
  26        9.5935
  27       10.8499
  28       10.8499
 
  0.2500000E+00  0.2500000E+00  0.0000000E+00  0.6944444E-02
   1       -3.1437
   2       -2.5948
   3       -2.4414
   4       -2.4414
   5       -2.4257
   6       -2.4257
   7       -2.1862
   8       -1.7067
   9       -1.1825
  10       -1.1513
  11       -0.8588
  12       -0.8588
  13       -0.7505
  14       -0.7020
  15       -0.2448
  16       -0.1907
  17       -0.0062
  18       -0.0062
  19        0.1258
  20        0.1258
  21        0.2301
  22        3.4953
  23        3.4953
  24        7.5146
  25        8.4909
  26       10.2771
  27       12.9865
  28       12.9866
 
  0.3333333E+00  0.2500000E+00  0.0000000E+00  0.1388889E-01
   1       -2.7916
   2       -2.4588
   3       -2.3153
   4       -2.2782
   5       -2.2361
   6       -2.2252
   7       -1.9840
   8       -1.7901
   9       -1.2446
  10       -1.1915
  11       -1.0888
  12       -1.0394
  13       -1.0241
  14       -0.7226
  15       -0.3812
  16       -0.1886
  17       -0.1115
  18       -0.0870
  19        0.0317
  20        0.1220
  21        0.1657
  22        2.4258
  23        4.1654
  24        7.4623
  25        8.2807
  26       10.4544
  27       12.1167
  28       12.2649
 
  0.4166667E+00  0.2500000E+00  0.0000000E+00  0.1388889E-01
   1       -2.4340
   2       -2.2753
   3       -2.1858
   4       -2.1467
   5       -2.0664
   6       -1.9749
   7       -1.9096
   8       -1.8188
   9       -1.5661
  10       -1.3630
  11       -1.2917
  12       -1.2839
  13       -0.8396
  14       -0.6143
  15       -0.4900
  16       -0.3735
  17       -0.3656
  18       -0.2290
  19        0.1199
  20        0.1345
  21        0.3554
  22        1.5241
  23        4.8909
  24        6.5251
  25        9.1545
  26       10.7317
  27       11.0992
  28       11.6301
 
  0.5000000E+00  0.2500000E+00  0.0000000E+00  0.6944444E-02
   1       -2.1777
   2       -2.1777
   3       -2.0852
   4       -2.0852
   5       -2.0466
   6       -2.0466
   7       -1.7307
   8       -1.7307
   9       -1.6828
  10       -1.6828
  11       -1.3667
  12       -1.3667
  13       -0.6145
  14       -0.6145
  15       -0.4952
  16       -0.4952
  17       -0.4206
  18       -0.4206
  19        0.1223
  20        0.1223
  21        0.8343
  22        0.8343
  23        5.6732
  24        5.6732
  25       10.1030
  26       10.1030
  27       11.1195
  28       11.1195
 
  0.3333333E+00  0.3333333E+00  0.0000000E+00  0.6944444E-02
   1       -2.5060
   2       -2.3620
   3       -2.1395
   4       -2.1395
   5       -2.0530
   6       -2.0530
   7       -1.8051
   8       -1.7950
   9       -1.4353
  10       -1.4353
  11       -1.2127
  12       -1.2033
  13       -0.9424
  14       -0.8023
  15       -0.4962
  16       -0.2624
  17       -0.2624
  18       -0.1139
  19       -0.1139
  20        0.0362
  21        0.3581
  22        3.0710
  23        3.0710
  24        6.3799
  25        9.0047
  26       10.6889
  27       12.7515
  28       12.7528
 
  0.4166667E+00  0.3333333E+00  0.0000000E+00  0.1388889E-01
   1       -2.2250
   2       -2.2166
   3       -2.0423
   4       -1.9249
   5       -1.9059
   6       -1.8717
   7       -1.8600
   8       -1.6933
   9       -1.6516
  10       -1.5695
  11       -1.4372
  12       -1.3003
  13       -0.7967
  14       -0.7575
  15       -0.5910
  16       -0.4479
  17       -0.4020
  18       -0.3616
  19       -0.1096
  20       -0.0474
  21        0.7933
  22        2.1318
  23        3.7754
  24        5.4122
  25        9.8426
  26       11.0262
  27       11.7405
  28       12.0676
 
  0.5000000E+00  0.3333333E+00  0.0000000E+00  0.6944444E-02
   1       -2.0244
   2       -2.0244
   3       -1.9931
   4       -1.9931
   5       -1.9445
   6       -1.9445
   7       -1.6841
   8       -1.6841
   9       -1.6401
  10       -1.6401
  11       -1.4775
  12       -1.4775
  13       -0.5966
  14       -0.5966
  15       -0.5880
  16       -0.5880
  17       -0.5819
  18       -0.5819
  19       -0.0913
  20       -0.0913
  21        1.3735
  22        1.3735
  23        4.5498
  24        4.5498
  25       10.7630
  26       10.7630
  27       11.4813
  28       11.4813
 
  0.4166667E+00  0.4166667E+00  0.0000000E+00  0.6944444E-02
   1       -2.1271
   2       -2.0583
   3       -1.8762
   4       -1.8762
   5       -1.8342
   6       -1.8298
   7       -1.8298
   8       -1.6316
   9       -1.6316
  10       -1.5530
  11       -1.5025
  12       -1.2917
  13       -0.8495
  14       -0.7014
  15       -0.6970
  16       -0.5849
  17       -0.5849
  18       -0.3410
  19       -0.3410
  20       -0.1941
  21        1.3299
  22        2.8051
  23        2.8051
  24        4.4267
  25       10.6476
  26       11.4291
  27       12.4977
  28       12.4988
 
  0.5000000E+00  0.4166667E+00  0.0000000E+00  0.6944444E-02
   1       -1.9976
   2       -1.9976
   3       -1.9367
   4       -1.9367
   5       -1.8416
   6       -1.8416
   7       -1.7056
   8       -1.7056
   9       -1.4813
  10       -1.4813
  11       -1.4193
  12       -1.4193
  13       -0.7558
  14       -0.7558
  15       -0.7123
  16       -0.7123
  17       -0.5458
  18       -0.5458
  19       -0.2900
  20       -0.2900
  21        1.9923
  22        1.9923
  23        3.5630
  24        3.5630
  25       11.5405
  26       11.5405
  27       11.9537
  28       11.9537
 
  0.5000000E+00  0.5000000E+00  0.0000000E+00  0.1736111E-02
   1       -1.9671
   2       -1.9671
   3       -1.9671
   4       -1.9671
   5       -1.7578
   6       -1.7578
   7       -1.7578
   8       -1.7578
   9       -1.3644
  10       -1.3644
  11       -1.3644
  12       -1.3644
  13       -0.8177
  14       -0.8177
  15       -0.8177
  16       -0.8177
  17       -0.4457
  18       -0.4457
  19       -0.4457
  20       -0.4457
  21        2.7147
  22        2.7147
  23        2.7147
  24        2.7147
  25       12.4079
  26       12.4079
  27       12.4079
  28       12.4079
 
  0.8333333E-01  0.8333333E-01  0.8333333E-01  0.4629630E-02
   1       -4.0771
   2       -2.9122
   3       -2.9122
   4       -2.9122
   5       -2.7863
   6       -2.7863
   7       -2.7863
   8       -1.4928
   9       -1.3924
  10       -1.3924
  11       -0.4795
  12       -0.4795
  13        0.1663
  14        0.1663
  15        0.1663
  16        0.2302
  17        0.2302
  18        0.2302
  19        0.4440
  20        0.4440
  21        0.4440
  22        4.8028
  23        4.8028
  24        4.8028
  25       10.4670
  26       10.4670
  27       10.4670
  28       13.0304
 
  0.1666667E+00  0.8333333E-01  0.8333333E-01  0.1388889E-01
   1       -3.8736
   2       -2.8309
   3       -2.8228
   4       -2.8228
   5       -2.7210
   6       -2.6726
   7       -2.6726
   8       -1.5513
   9       -1.3328
  10       -1.3282
  11       -0.5493
  12       -0.4354
  13       -0.0916
  14       -0.0916
  15        0.0723
  16        0.0905
  17        0.0915
  18        0.0915
  19        0.3823
  20        0.4300
  21        0.4300
  22        3.7548
  23        5.2615
  24        5.2615
  25       10.5171
  26       10.5171
  27       11.8430
  28       12.0896
 
  0.2500000E+00  0.8333333E-01  0.8333333E-01  0.1388889E-01
   1       -3.5503
   2       -2.7110
   3       -2.6786
   4       -2.6786
   5       -2.6135
   6       -2.4960
   7       -2.4960
   8       -1.6629
   9       -1.2238
  10       -1.2229
  11       -0.6346
  12       -0.4958
  13       -0.4958
  14       -0.3650
  15       -0.1251
  16       -0.0789
  17       -0.0540
  18       -0.0540
  19        0.2942
  20        0.4196
  21        0.4196
  22        2.6079
  23        5.9089
  24        5.9089
  25       10.5241
  26       10.5241
  27       11.2491
  28       11.2491
 
  0.3333333E+00  0.8333333E-01  0.8333333E-01  0.1388889E-01
   1       -3.1425
   2       -2.5763
   3       -2.4934
   4       -2.4934
   5       -2.4701
   6       -2.2752
   7       -2.2752
   8       -1.8091
   9       -1.1217
  10       -1.0795
  11       -0.9249
  12       -0.9249
  13       -0.6485
  14       -0.3971
  15       -0.2728
  16       -0.2718
  17       -0.2300
  18       -0.2300
  19        0.1892
  20        0.4137
  21        0.4137
  22        1.5383
  23        6.6651
  24        6.6651
  25       10.0010
  26       10.0010
  27       11.0473
  28       11.0473
 
  0.4166667E+00  0.8333333E-01  0.8333333E-01  0.1388889E-01
   1       -2.7340
   2       -2.4661
   3       -2.3116
   4       -2.3116
   5       -2.3102
   6       -2.0242
   7       -2.0242
   8       -1.9750
   9       -1.3323
  10       -1.3323
  11       -1.0791
  12       -0.9030
  13       -0.6988
  14       -0.4857
  15       -0.4537
  16       -0.3871
  17       -0.3871
  18       -0.1645
  19        0.0734
  20        0.4110
  21        0.4110
  22        0.6380
  23        7.4781
  24        7.4781
  25        9.1685
  26        9.1685
  27       11.2561
  28       11.2561
 
  0.5000000E+00  0.8333333E-01  0.8333333E-01  0.6944444E-02
   1       -2.4809
   2       -2.4809
   3       -2.2299
   4       -2.2299
   5       -2.1455
   6       -2.1455
   7       -1.7913
   8       -1.7913
   9       -1.6263
  10       -1.6263
  11       -0.9611
  12       -0.9611
  13       -0.7013
  14       -0.7013
  15       -0.4534
  16       -0.4534
  17       -0.0467
  18       -0.0467
  19       -0.0289
  20       -0.0289
  21        0.4102
  22        0.4102
  23        8.2784
  24        8.2784
  25        8.3585
  26        8.3585
  27       11.4236
  28       11.4236
 
  0.1666667E+00  0.1666667E+00  0.8333333E-01  0.1388889E-01
   1       -3.6820
   2       -2.7681
   3       -2.7470
   4       -2.7470
   5       -2.6043
   6       -2.6043
   7       -2.5374
   8       -1.5678
   9       -1.3049
  10       -1.2837
  11       -0.5592
  12       -0.4270
  13       -0.2618
  14       -0.2565
  15       -0.2565
  16       -0.0468
  17        0.0225
  18        0.0225
  19        0.3763
  20        0.3763
  21        0.3857
  22        4.1833
  23        4.1833
  24        5.6737
  25       10.4328
  26       11.1136
  27       11.8132
  28       11.8132
 
  0.2500000E+00  0.1666667E+00  0.8333333E-01  0.2777778E-01
   1       -3.3803
   2       -2.6566
   3       -2.6387
   4       -2.6079
   5       -2.4890
   6       -2.4277
   7       -2.3504
   8       -1.6416
   9       -1.2198
  10       -1.2141
  11       -0.6576
  12       -0.6132
  13       -0.5892
  14       -0.4755
  15       -0.3412
  16       -0.1728
  17       -0.1262
  18       -0.0858
  19        0.3004
  20        0.3451
  21        0.3463
  22        3.0258
  23        4.7753
  24        6.2709
  25        9.6889
  26       10.9389
  27       11.2059
  28       12.3073
 
  0.3333333E+00  0.1666667E+00  0.8333333E-01  0.2777778E-01
   1       -3.0056
   2       -2.5192
   3       -2.4920
   4       -2.4224
   5       -2.3344
   6       -2.2169
   7       -2.1418
   8       -1.7580
   9       -1.1739
  10       -1.0934
  11       -1.0578
  12       -0.9651
  13       -0.7298
  14       -0.5844
  15       -0.3256
  16       -0.3169
  17       -0.2406
  18       -0.2075
  19        0.1989
  20        0.3183
  21        0.3217
  22        1.9526
  23        5.4596
  24        6.9797
  25        8.7449
  26       10.3178
  27       11.1423
  28       12.4769
 
  0.4166667E+00  0.1666667E+00  0.8333333E-01  0.2777778E-01
   1       -2.6375
   2       -2.4182
   3       -2.2951
   4       -2.2268
   5       -2.1690
   6       -2.0087
   7       -1.9585
   8       -1.8918
   9       -1.4032
  10       -1.3224
  11       -1.2038
  12       -0.9895
  13       -0.9368
  14       -0.5420
  15       -0.4458
  16       -0.3987
  17       -0.3761
  18       -0.0124
  19        0.0658
  20        0.3051
  21        0.3075
  22        1.0429
  23        6.2000
  24        7.6549
  25        7.9519
  26        9.4441
  27       11.4827
  28       12.4200
 
  0.5000000E+00  0.1666667E+00  0.8333333E-01  0.1388889E-01
   1       -2.4188
   2       -2.4188
   3       -2.1537
   4       -2.1537
   5       -2.0250
   6       -2.0250
   7       -1.8734
   8       -1.8734
   9       -1.5532
  10       -1.5532
  11       -1.1748
  12       -1.1748
  13       -0.7507
  14       -0.7507
  15       -0.4854
  16       -0.4854
  17       -0.1155
  18       -0.1155
  19        0.3021
  20        0.3021
  21        0.3671
  22        0.3671
  23        6.9818
  24        6.9818
  25        8.6048
  26        8.6048
  27       11.9389
  28       11.9389
 
  0.2500000E+00  0.2500000E+00  0.8333333E-01  0.1388889E-01
   1       -3.1187
   2       -2.5812
   3       -2.5114
   4       -2.5114
   5       -2.3079
   6       -2.3079
   7       -2.1638
   8       -1.6458
   9       -1.1904
  10       -1.1784
  11       -0.8652
  12       -0.8652
  13       -0.7808
  14       -0.6447
  15       -0.3122
  16       -0.2144
  17       -0.1954
  18       -0.1954
  19        0.2510
  20        0.2510
  21        0.2653
  22        3.5908
  23        3.5908
  24        6.8026
  25        8.5883
  26       11.0825
  27       11.7215
  28       11.7215
 
  0.3333333E+00  0.2500000E+00  0.8333333E-01  0.2777778E-01
   1       -2.8053
   2       -2.4515
   3       -2.4113
   4       -2.3344
   5       -2.1423
   6       -2.1046
   7       -1.9727
   8       -1.6941
   9       -1.2251
  10       -1.1964
  11       -1.0881
  12       -1.0874
  13       -1.0481
  14       -0.6255
  15       -0.4421
  16       -0.3725
  17       -0.3110
  18        0.0057
  19        0.1342
  20        0.1962
  21        0.2015
  22        2.4992
  23        4.2407
  24        7.2948
  25        7.7240
  26       10.7677
  27       11.3589
  28       12.3347
 
  0.4166667E+00  0.2500000E+00  0.8333333E-01  0.2777778E-01
   1       -2.5110
   2       -2.3335
   3       -2.2735
   4       -2.1231
   5       -1.9689
   6       -1.9624
   7       -1.8514
   8       -1.7622
   9       -1.4760
  10       -1.3126
  11       -1.2902
  12       -1.2857
  13       -0.9550
  14       -0.5793
  15       -0.5438
  16       -0.4573
  17       -0.4536
  18       -0.0205
  19        0.1615
  20        0.1632
  21        0.3332
  22        1.5650
  23        4.9521
  24        6.5595
  25        8.2619
  26        9.8764
  27       11.7618
  28       12.9532
 
  0.5000000E+00  0.2500000E+00  0.8333333E-01  0.1388889E-01
   1       -2.3396
   2       -2.3396
   3       -2.0742
   4       -2.0742
   5       -1.9128
   6       -1.9128
   7       -1.8316
   8       -1.8316
   9       -1.4795
  10       -1.4795
  11       -1.3700
  12       -1.3700
  13       -0.7813
  14       -0.7813
  15       -0.5550
  16       -0.5550
  17       -0.2244
  18       -0.2244
  19        0.1506
  20        0.1506
  21        0.8366
  22        0.8366
  23        5.7234
  24        5.7234
  25        9.0416
  26        9.0416
  27       12.2972
  28       12.2972
 
  0.3333333E+00  0.3333333E+00  0.8333333E-01  0.1388889E-01
   1       -2.5835
   2       -2.3670
   3       -2.2612
   4       -2.2612
   5       -1.9323
   6       -1.9323
   7       -1.8094
   8       -1.6521
   9       -1.3915
  10       -1.3915
  11       -1.1930
  12       -1.1757
  13       -1.0586
  14       -0.6620
  15       -0.5717
  16       -0.4517
  17       -0.4517
  18        0.0505
  19        0.0505
  20        0.0931
  21        0.3319
  22        3.1247
  23        3.1247
  24        6.4011
  25        8.1474
  26       11.3475
  27       11.3475
  28       11.6917
 
  0.4166667E+00  0.3333333E+00  0.8333333E-01  0.2777778E-01
   1       -2.3889
   2       -2.2393
   3       -2.2265
   4       -2.0951
   5       -1.8471
   6       -1.7423
   7       -1.7241
   8       -1.6418
   9       -1.5222
  10       -1.5075
  11       -1.2974
  12       -1.2829
  13       -0.9727
  14       -0.6673
  15       -0.6344
  16       -0.5664
  17       -0.5518
  18       -0.1259
  19       -0.0080
  20        0.0144
  21        0.7741
  22        2.1591
  23        3.8175
  24        5.4432
  25        8.8390
  26       10.4402
  27       12.0370
  28       12.1531
 
  0.5000000E+00  0.3333333E+00  0.8333333E-01  0.1388889E-01
   1       -2.2628
   2       -2.2628
   3       -2.0874
   4       -2.0874
   5       -1.8323
   6       -1.8323
   7       -1.6284
   8       -1.6284
   9       -1.4705
  10       -1.4705
  11       -1.3936
  12       -1.3936
  13       -0.8197
  14       -0.8197
  15       -0.6671
  16       -0.6671
  17       -0.3389
  18       -0.3389
  19       -0.0208
  20       -0.0208
  21        1.3734
  22        1.3734
  23        4.5853
  24        4.5853
  25        9.6063
  26        9.6063
  27       12.7486
  28       12.7486
 
  0.4166667E+00  0.4166667E+00  0.8333333E-01  0.1388889E-01
   1       -2.2874
   2       -2.1861
   3       -2.1358
   4       -2.1358
   5       -1.7062
   6       -1.7062
   7       -1.7028
   8       -1.6065
   9       -1.4541
  10       -1.4541
  11       -1.2598
  12       -1.2151
  13       -0.9916
  14       -0.7813
  15       -0.7212
  16       -0.7212
  17       -0.5431
  18       -0.1973
  19       -0.1973
  20       -0.1152
  21        1.3179
  22        2.8268
  23        2.8268
  24        4.4520
  25        9.5161
  26       11.1134
  27       11.1134
  28       12.6719
 
  0.5000000E+00  0.4166667E+00  0.8333333E-01  0.1388889E-01
   1       -2.2040
   2       -2.2040
   3       -2.1293
   4       -2.1293
   5       -1.7320
   6       -1.7320
   7       -1.6313
   8       -1.6313
   9       -1.3106
  10       -1.3106
  11       -1.2836
  12       -1.2836
  13       -0.8848
  14       -0.8848
  15       -0.8059
  16       -0.8059
  17       -0.3955
  18       -0.3955
  19       -0.1944
  20       -0.1944
  21        1.9945
  22        1.9945
  23        3.5846
  24        3.5846
  25       10.2750
  26       10.2750
  27       11.8818
  28       11.8818
 
  0.5000000E+00  0.5000000E+00  0.8333333E-01  0.3472222E-02
   1       -2.1647
   2       -2.1647
   3       -2.1647
   4       -2.1647
   5       -1.6721
   6       -1.6721
   7       -1.6721
   8       -1.6721
   9       -1.1986
  10       -1.1986
  11       -1.1986
  12       -1.1986
  13       -0.9187
  14       -0.9187
  15       -0.9187
  16       -0.9187
  17       -0.3385
  18       -0.3385
  19       -0.3385
  20       -0.3385
  21        2.7244
  22        2.7244
  23        2.7244
  24        2.7244
  25       11.0345
  26       11.0345
  27       11.0345
  28       11.0345
 
  0.1666667E+00  0.1666667E+00  0.1666667E+00  0.4629630E-02
   1       -3.5104
   2       -2.7047
   3       -2.7047
   4       -2.7047
   5       -2.4622
   6       -2.4622
   7       -2.4622
   8       -1.5396
   9       -1.2796
  10       -1.2796
  11       -0.4835
  12       -0.4835
  13       -0.3988
  14       -0.3988
  15       -0.3988
  16       -0.1808
  17       -0.1808
  18       -0.1808
  19        0.3897
  20        0.3897
  21        0.3897
  22        4.5549
  23        4.5549
  24        4.5549
  25       11.0397
  26       11.0397
  27       11.0397
  28       12.2432
 
  0.2500000E+00  0.1666667E+00  0.1666667E+00  0.1388889E-01