<?xml version="1.0" encoding="ISO-8859-1"?>
<modeling>
 <generator>
  <i name="program" type="string">vasp</i>
  <i name="version" type="string">4.6.28 </i>
  <i name="subversion" type="string">25Jul05 complex  parallel</i>
  <i name="platform" type="string">LinuxIFC</i>
  <i name="date" type="string">2017 01 06</i>
  <i name="time" type="string">05:37:51</i>
 </generator>
 <incar>
  <i type="string" name="PREC">accurate</i>
  <i type="int" name="IALGO">    38</i>
  <i type="logical" name="ADDGRID"> T  </i>
  <i name="EDIFF">      0.00000001</i>
  <i type="int" name="IBRION">    -1</i>
  <i name="ENCUT">    750.00000000</i>
  <i type="logical" name="LREAL"> F  </i>
  <i type="int" name="ISMEAR">     0</i>
  <i name="SIGMA">      0.01000000</i>
  <i type="logical" name="LWAVE"> F  </i>
  <i type="logical" name="LCHARG"> F  </i>
 </incar>
 <kpoints>
  <generation param="Gamma">
   <v type="int" name="divisions">      12      12      12</v>
   <v name="usershift">      0.00000000      0.00000000      0.00000000</v>
   <v name="genvec1">      0.08333333      0.00000000      0.00000000</v>
   <v name="genvec2">      0.00000000      0.08333333      0.00000000</v>
   <v name="genvec3">      0.00000000      0.00000000      0.08333333</v>
   <v name="shift">      0.00000000      0.00000000      0.00000000</v>
  </generation>
  <varray name="kpointlist" >
   <v>       0.00000000      0.00000000      0.00000000</v>
   <v>       0.08333333      0.00000000      0.00000000</v>
   <v>       0.16666667      0.00000000      0.00000000</v>
   <v>       0.25000000      0.00000000      0.00000000</v>
   <v>       0.33333333      0.00000000      0.00000000</v>
   <v>       0.41666667      0.00000000      0.00000000</v>
   <v>       0.50000000      0.00000000      0.00000000</v>
   <v>       0.08333333      0.08333333      0.00000000</v>
   <v>       0.16666667      0.08333333      0.00000000</v>
   <v>       0.25000000      0.08333333      0.00000000</v>
   <v>       0.33333333      0.08333333      0.00000000</v>
   <v>       0.41666667      0.08333333      0.00000000</v>
   <v>       0.50000000      0.08333333      0.00000000</v>
   <v>       0.16666667      0.16666667      0.00000000</v>
   <v>       0.25000000      0.16666667      0.00000000</v>
   <v>       0.33333333      0.16666667      0.00000000</v>
   <v>       0.41666667      0.16666667      0.00000000</v>
   <v>       0.50000000      0.16666667      0.00000000</v>
   <v>       0.25000000      0.25000000      0.00000000</v>
   <v>       0.33333333      0.25000000      0.00000000</v>
   <v>       0.41666667      0.25000000      0.00000000</v>
   <v>       0.50000000      0.25000000      0.00000000</v>
   <v>       0.33333333      0.33333333      0.00000000</v>
   <v>       0.41666667      0.33333333      0.00000000</v>
   <v>       0.50000000      0.33333333      0.00000000</v>
   <v>       0.41666667      0.41666667      0.00000000</v>
   <v>       0.50000000      0.41666667      0.00000000</v>
   <v>       0.50000000      0.50000000      0.00000000</v>
   <v>       0.08333333      0.08333333      0.08333333</v>
   <v>       0.16666667      0.08333333      0.08333333</v>
   <v>       0.25000000      0.08333333      0.08333333</v>
   <v>       0.33333333      0.08333333      0.08333333</v>
   <v>       0.41666667      0.08333333      0.08333333</v>
   <v>       0.50000000      0.08333333      0.08333333</v>
   <v>       0.16666667      0.16666667      0.08333333</v>
   <v>       0.25000000      0.16666667      0.08333333</v>
   <v>       0.33333333      0.16666667      0.08333333</v>
   <v>       0.41666667      0.16666667      0.08333333</v>
   <v>       0.50000000      0.16666667      0.08333333</v>
   <v>       0.25000000      0.25000000      0.08333333</v>
   <v>       0.33333333      0.25000000      0.08333333</v>
   <v>       0.41666667      0.25000000      0.08333333</v>
   <v>       0.50000000      0.25000000      0.08333333</v>
   <v>       0.33333333      0.33333333      0.08333333</v>
   <v>       0.41666667      0.33333333      0.08333333</v>
   <v>       0.50000000      0.33333333      0.08333333</v>
   <v>       0.41666667      0.41666667      0.08333333</v>
   <v>       0.50000000      0.41666667      0.08333333</v>
   <v>       0.50000000      0.50000000      0.08333333</v>
   <v>       0.16666667      0.16666667      0.16666667</v>
   <v>       0.25000000      0.16666667      0.16666667</v>
   <v>       0.33333333      0.16666667      0.16666667</v>
   <v>       0.41666667      0.16666667      0.16666667</v>
   <v>       0.50000000      0.16666667      0.16666667</v>
   <v>       0.25000000      0.25000000      0.16666667</v>
   <v>       0.33333333      0.25000000      0.16666667</v>
   <v>       0.41666667      0.25000000      0.16666667</v>
   <v>       0.50000000      0.25000000      0.16666667</v>
   <v>       0.33333333      0.33333333      0.16666667</v>
   <v>       0.41666667      0.33333333      0.16666667</v>
   <v>       0.50000000      0.33333333      0.16666667</v>
   <v>       0.41666667      0.41666667      0.16666667</v>
   <v>       0.50000000      0.41666667      0.16666667</v>
   <v>       0.50000000      0.50000000      0.16666667</v>
   <v>       0.25000000      0.25000000      0.25000000</v>
   <v>       0.33333333      0.25000000      0.25000000</v>
   <v>       0.41666667      0.25000000      0.25000000</v>
   <v>       0.50000000      0.25000000      0.25000000</v>
   <v>       0.33333333      0.33333333      0.25000000</v>
   <v>       0.41666667      0.33333333      0.25000000</v>
   <v>       0.50000000      0.33333333      0.25000000</v>
   <v>       0.41666667      0.41666667      0.25000000</v>
   <v>       0.50000000      0.41666667      0.25000000</v>
   <v>       0.50000000      0.50000000      0.25000000</v>
   <v>       0.33333333      0.33333333      0.33333333</v>
   <v>       0.41666667      0.33333333      0.33333333</v>
   <v>       0.50000000      0.33333333      0.33333333</v>
   <v>       0.41666667      0.41666667      0.33333333</v>
   <v>       0.50000000      0.41666667      0.33333333</v>
   <v>       0.50000000      0.50000000      0.33333333</v>
   <v>       0.41666667      0.41666667      0.41666667</v>
   <v>       0.50000000      0.41666667      0.41666667</v>
   <v>       0.50000000      0.50000000      0.41666667</v>
   <v>       0.50000000      0.50000000      0.50000000</v>
  </varray>
  <varray name="weights" >
   <v>       0.00057870</v>
   <v>       0.00347222</v>
   <v>       0.00347222</v>
   <v>       0.00347222</v>
   <v>       0.00347222</v>
   <v>       0.00347222</v>
   <v>       0.00173611</v>
   <v>       0.00694444</v>
   <v>       0.01388889</v>
   <v>       0.01388889</v>
   <v>       0.01388889</v>
   <v>       0.01388889</v>
   <v>       0.00694444</v>
   <v>       0.00694444</v>
   <v>       0.01388889</v>
   <v>       0.01388889</v>
   <v>       0.01388889</v>
   <v>       0.00694444</v>
   <v>       0.00694444</v>
   <v>       0.01388889</v>
   <v>       0.01388889</v>
   <v>       0.00694444</v>
   <v>       0.00694444</v>
   <v>       0.01388889</v>
   <v>       0.00694444</v>
   <v>       0.00694444</v>
   <v>       0.00694444</v>
   <v>       0.00173611</v>
   <v>       0.00462963</v>
   <v>       0.01388889</v>
   <v>       0.01388889</v>
   <v>       0.01388889</v>
   <v>       0.01388889</v>
   <v>       0.00694444</v>
   <v>       0.01388889</v>
   <v>       0.02777778</v>
   <v>       0.02777778</v>
   <v>       0.02777778</v>
   <v>       0.01388889</v>
   <v>       0.01388889</v>
   <v>       0.02777778</v>
   <v>       0.02777778</v>
   <v>       0.01388889</v>
   <v>       0.01388889</v>
   <v>       0.02777778</v>
   <v>       0.01388889</v>
   <v>       0.01388889</v>
   <v>       0.01388889</v>
   <v>       0.00347222</v>
   <v>       0.00462963</v>
   <v>       0.01388889</v>
   <v>       0.01388889</v>
   <v>       0.01388889</v>
   <v>       0.00694444</v>
   <v>       0.01388889</v>
   <v>       0.02777778</v>
   <v>       0.02777778</v>
   <v>       0.01388889</v>
   <v>       0.01388889</v>
   <v>       0.02777778</v>
   <v>       0.01388889</v>
   <v>       0.01388889</v>
   <v>       0.01388889</v>
   <v>       0.00347222</v>
   <v>       0.00462963</v>
   <v>       0.01388889</v>
   <v>       0.01388889</v>
   <v>       0.00694444</v>
   <v>       0.01388889</v>
   <v>       0.02777778</v>
   <v>       0.01388889</v>
   <v>       0.01388889</v>
   <v>       0.01388889</v>
   <v>       0.00347222</v>
   <v>       0.00462963</v>
   <v>       0.01388889</v>
   <v>       0.00694444</v>
   <v>       0.01388889</v>
   <v>       0.01388889</v>
   <v>       0.00347222</v>
   <v>       0.00462963</v>
   <v>       0.00694444</v>
   <v>       0.00347222</v>
   <v>       0.00057870</v>
  </varray>
 </kpoints>
 <parameters>
  <separator name="general" >
   <i type="string" name="SYSTEM">unknown system</i>
   <i type="logical" name="LCOMPAT"> F  </i>
  </separator>
  <separator name="electronic" >
   <i type="string" name="PREC">accura</i>
   <i name="ENMAX">    750.00000000</i>
   <i name="ENAUG">    412.49600000</i>
   <i name="EDIFF">      0.00000001</i>
   <i type="int" name="IALGO">    38</i>
   <i type="int" name="IWAVPR">    10</i>
   <i type="int" name="NBANDS">    26</i>
   <i name="NELECT">     44.00000000</i>
   <separator name="electronic smearing" >
    <i type="int" name="ISMEAR">     0</i>
    <i name="SIGMA">      0.01000000</i>
   </separator>
   <separator name="electronic projectors" >
    <i type="logical" name="LREAL"> F  </i>
    <v name="ROPT">      0.00000000</v>
    <i type="int" name="LMAXPAW">  -100</i>
    <i type="int" name="LMAXMIX">     2</i>
   </separator>
   <separator name="electronic startup" >
    <i type="int" name="ISTART">     0</i>
    <i type="int" name="ICHARG">     2</i>
    <i type="int" name="INIWAV">     1</i>
   </separator>
   <separator name="electronic spin" >
    <i type="int" name="ISPIN">     1</i>
    <i type="logical" name="LNONCOLLINEAR"> F  </i>
    <v name="MAGMOM">      1.00000000      1.00000000      1.00000000      1.00000000</v>
    <i name="NUPDOWN">     -1.00000000</i>
    <i type="logical" name="LSORBIT"> F  </i>
    <v name="SAXIS">      0.00000000      0.00000000      1.00000000</v>
    <i type="logical" name="LSPIRAL"> F  </i>
    <v name="QSPIRAL">      0.00000000      0.00000000      0.00000000</v>
    <i type="logical" name="LZEROZ"> F  </i>
   </separator>
   <separator name="electronic exchange-correlation" >
    <i type="string" name="GGA">--</i>
    <i type="int" name="VOSKOWN">     0</i>
    <i type="logical" name="LASPH"> F  </i>
    <i type="logical" name="LMETAGGA"> F  </i>
    <i type="string" name="GGA2">--</i>
   </separator>
   <separator name="electronic convergence" >
    <i type="int" name="NELM">    60</i>
    <i type="int" name="NELMDL">    -5</i>
    <i type="int" name="NELMIN">     2</i>
    <i name="ENINI">    750.00000000</i>
    <separator name="electronic convergence detail" >
     <i type="logical" name="LDIAG"> T  </i>
     <i name="WEIMIN">      0.00000000</i>
     <i name="EBREAK">      0.00000000</i>
     <i name="DEPER">      0.30000000</i>
     <i type="int" name="NRMM">     4</i>
     <i name="TIME">      0.10000000</i>
    </separator>
   </separator>
   <separator name="electronic mixer" >
    <i name="AMIX">      0.40000000</i>
    <i name="BMIX">      1.00000000</i>
    <i name="AMIN">      0.10000000</i>
    <i name="AMIX_MAG">      1.60000000</i>
    <i name="BMIX_MAG">      1.00000000</i>
    <separator name="electronic mixer details" >
     <i type="int" name="IMIX">     4</i>
     <i type="int" name="MAXMIX">   -45</i>
     <i name="WC">    100.00000000</i>
     <i type="int" name="INIMIX">     1</i>
     <i type="int" name="MIXPRE">     1</i>
     <i type="int" name="MREMOVE">     5</i>
    </separator>
   </separator>
   <separator name="electronic dipolcorrection" >
    <i type="int" name="IDIPOL">     0</i>
    <i type="logical" name="LDIPOL"> F  </i>
    <v name="DIPOL">   -100.00000000</v>
    <i name="EFIELD">      0.00000000</i>
   </separator>
  </separator>
  <separator name="grids" >
   <i type="int" name="NGX">    40</i>
   <i type="int" name="NGY">    40</i>
   <i type="int" name="NGZ">    40</i>
   <i type="int" name="NGXF">    80</i>
   <i type="int" name="NGYF">    80</i>
   <i type="int" name="NGZF">    80</i>
   <i type="logical" name="ADDGRID"> T  </i>
  </separator>
  <separator name="ionic" >
   <i type="int" name="NSW">     0</i>
   <i type="int" name="IBRION">    -1</i>
   <i type="int" name="ISIF">     2</i>
   <i name="PSTRESS">      0.00000000</i>
   <i name="EDIFFG">      0.00000010</i>
   <i type="int" name="NFREE">     0</i>
   <i name="POTIM">      0.50000000</i>
   <i name="SMASS">     -3.00000000</i>
  </separator>
  <separator name="ionic md" >
   <i name="TEBEG">      0.00010000</i>
   <i name="TEEND">      0.00010000</i>
   <i type="int" name="NBLOCK">     1</i>
   <i type="int" name="KBLOCK">     1</i>
   <i type="int" name="NPACO">   256</i>
   <i name="APACO">     16.00000000</i>
  </separator>
  <separator name="symmetry" >
   <i type="int" name="ISYM">     2</i>
   <i name="SYMPREC">      0.00001000</i>
  </separator>
  <separator name="dos" >
   <i type="logical" name="LORBIT"> F  </i>
   <v name="RWIGS">     -1.00000000</v>
   <i type="int" name="NEDOS">   301</i>
   <i name="EMIN">     10.00000000</i>
   <i name="EMAX">    -10.00000000</i>
  </separator>
  <separator name="writing" >
   <i type="int" name="NWRITE">     2</i>
   <i type="logical" name="LWAVE"> F  </i>
   <i type="logical" name="LCHARG"> F  </i>
   <i type="logical" name="LPARD"> F  </i>
   <i type="logical" name="LVTOT"> F  </i>
   <i type="logical" name="LELF"> F  </i>
   <i type="logical" name="LOPTICS"> F  </i>
   <i name="STM">      0.00000000</i>
  </separator>
  <separator name="performance" >
   <i type="int" name="NPAR">     4</i>
   <i type="int" name="NSIM">     4</i>
   <i type="int" name="NBLK">   256</i>
   <i type="logical" name="LPLANE"> T  </i>
   <i type="logical" name="LCRITICAL_MEM"> F  </i>
   <i type="logical" name="LSCALAPACK"> F  </i>
   <i type="logical" name="LSCALU"> F  </i>
   <i type="logical" name="LASYNC"> F  </i>
  </separator>
  <separator name="miscellaneous" >
   <i type="int" name="IDIOT">     3</i>
   <i type="logical" name="LMUSIC"> F  </i>
   <v name="POMASS">    107.86800000</v>
   <i type="logical" name="LCORR"> T  </i>
  </separator>
  <i type="logical" name="LREAL_COMPAT"> F  </i>
  <i type="logical" name="GGA_COMPAT"> T  </i>
  <i type="logical" name="LBERRY"> F  </i>
  <i type="int" name="ICORELEVEL">     0</i>
  <i type="logical" name="LDAU"> F  </i>
  <i type="int" name="I_CONSTRAINED_M">     0</i>
 </parameters>
 <atominfo>
  <atoms>       4</atoms>
  <types>       1</types>
  <array name="atoms" >
   <dimension dim="1">ion</dimension>
   <field type="string">element</field>
   <field type="int">atomtype</field>
   <set>
    <rc><c>Ag</c><c>   1</c></rc>
    <rc><c>Ag</c><c>   1</c></rc>
    <rc><c>Ag</c><c>   1</c></rc>
    <rc><c>Ag</c><c>   1</c></rc>
   </set>
  </array>
  <array name="atomtypes" >
   <dimension dim="1">type</dimension>
   <field type="int">atomspertype</field>
   <field type="string">element</field>
   <field>mass</field>
   <field>valence</field>
   <field type="string">pseudopotential</field>
   <set>
    <rc><c>   4</c><c>Ag</c><c>    107.86800000</c><c>     11.00000000</c><c> PAW_PBE Ag 06Sep2000                   </c></rc>
   </set>
  </array>
 </atominfo>
 <structure name="initialpos" >
  <crystal>
   <varray name="basis" >
    <v>       4.12159253      0.00000000      0.00000000</v>
    <v>       0.00000000      4.12159253      0.00000000</v>
    <v>       0.00000000      0.00000000      4.12159253</v>
   </varray>
   <i name="volume">     70.01565627</i>
   <varray name="rec_basis" >
    <v>       0.24262466      0.00000000      0.00000000</v>
    <v>       0.00000000      0.24262466      0.00000000</v>
    <v>       0.00000000      0.00000000      0.24262466</v>
   </varray>
  </crystal>
  <varray name="positions" >
   <v>       0.00000000      0.00000000      0.00000000</v>
   <v>       0.50000000      0.50000000      0.00000000</v>
   <v>       0.50000000      0.00000000      0.50000000</v>
   <v>       0.00000000      0.50000000      0.50000000</v>
  </varray>
 </structure>
 <calculation>
  <scstep>
   <time name="dav">   12.10   12.14</time>
   <time name="total">   12.65   12.70</time>
   <energy>
    <i name="alphaZ">    405.80114212</i>
    <i name="ewald">  -3876.43641340</i>
    <i name="hartreedc">   -826.39309363</i>
    <i name="XCdc">    -43.07533337</i>
    <i name="pawpsdc">   3482.67677651</i>
    <i name="pawaedc">  -3297.07979946</i>
    <i name="eentropy">     -0.00007524</i>
    <i name="bandstr">    490.40336292</i>
    <i name="atom">   4149.64961272</i>
    <i name="e_fr_energy">    485.54617916</i>
    <i name="e_wo_entrp">    485.54625440</i>
    <i name="e_0_energy">    485.54621678</i>
   </energy>
  </scstep>
  <scstep>
   <time name="dav">   11.92   11.92</time>
   <time name="total">   11.92   11.94</time>
   <energy>
    <i name="e_fr_energy">      4.05505021</i>
    <i name="e_wo_entrp">      4.05526624</i>
    <i name="e_0_energy">      4.05515823</i>
   </energy>
  </scstep>
  <scstep>
   <time name="dav">   11.03   11.04</time>
   <time name="total">   11.04   11.05</time>
   <energy>
    <i name="e_fr_energy">    -12.10549423</i>
    <i name="e_wo_entrp">    -12.10536065</i>
    <i name="e_0_energy">    -12.10542744</i>
   </energy>
  </scstep>
  <scstep>
   <time name="dav">    8.49    8.50</time>
   <time name="total">    8.50    8.51</time>
   <energy>
    <i name="e_fr_energy">    -12.22328172</i>
    <i name="e_wo_entrp">    -12.22314257</i>
    <i name="e_0_energy">    -12.22321215</i>
   </energy>
  </scstep>
  <scstep>
   <time name="dav">    9.89    9.89</time>
   <time name="total">   11.20   11.21</time>
   <energy>
    <i name="e_fr_energy">    -12.22371612</i>
    <i name="e_wo_entrp">    -12.22357696</i>
    <i name="e_0_energy">    -12.22364654</i>
   </energy>
  </scstep>
  <scstep>
   <time name="dav">   12.60   12.61</time>
   <time name="total">   14.44   14.45</time>
   <energy>
    <i name="e_fr_energy">    -11.33529736</i>
    <i name="e_wo_entrp">    -11.33524580</i>
    <i name="e_0_energy">    -11.33527158</i>
   </energy>
  </scstep>
  <scstep>
   <time name="dav">   12.41   12.41</time>
   <time name="total">   14.27   14.28</time>
   <energy>
    <i name="e_fr_energy">    -11.30933231</i>
    <i name="e_wo_entrp">    -11.30929165</i>
    <i name="e_0_energy">    -11.30931198</i>
   </energy>
  </scstep>
  <scstep>
   <time name="dav">   11.93   11.94</time>
   <time name="total">   13.62   13.63</time>
   <energy>
    <i name="e_fr_energy">    -11.29796014</i>
    <i name="e_wo_entrp">    -11.29791967</i>
    <i name="e_0_energy">    -11.29793991</i>
   </energy>
  </scstep>
  <scstep>
   <time name="dav">   10.21   10.22</time>
   <time name="total">   11.50   11.51</time>
   <energy>
    <i name="e_fr_energy">    -11.29808655</i>
    <i name="e_wo_entrp">    -11.29804610</i>
    <i name="e_0_energy">    -11.29806633</i>
   </energy>
  </scstep>
  <scstep>
   <time name="dav">    8.37    8.38</time>
   <time name="total">    9.72    9.73</time>
   <energy>
    <i name="e_fr_energy">    -11.29806348</i>
    <i name="e_wo_entrp">    -11.29802303</i>
    <i name="e_0_energy">    -11.29804325</i>
   </energy>
  </scstep>
  <scstep>
   <time name="dav">   12.48   12.53</time>
   <time name="total">   14.32   14.38</time>
   <energy>
    <i name="e_fr_energy">    -11.29806151</i>
    <i name="e_wo_entrp">    -11.29802105</i>
    <i name="e_0_energy">    -11.29804128</i>
   </energy>
  </scstep>
  <scstep>
   <time name="dav">   11.01   11.02</time>
   <time name="total">   12.81   12.83</time>
   <energy>
    <i name="e_fr_energy">    -11.29806103</i>
    <i name="e_wo_entrp">    -11.29802057</i>
    <i name="e_0_energy">    -11.29804080</i>
   </energy>
  </scstep>
  <scstep>
   <time name="dav">    8.27    8.28</time>
   <time name="total">   10.08   10.09</time>
   <energy>
    <i name="e_fr_energy">    -11.29806093</i>
    <i name="e_wo_entrp">    -11.29802047</i>
    <i name="e_0_energy">    -11.29804070</i>
   </energy>
  </scstep>
  <scstep>
   <time name="dav">    8.18    8.19</time>
   <time name="total">    9.99   10.00</time>
   <energy>
    <i name="e_fr_energy">    -11.29806091</i>
    <i name="e_wo_entrp">    -11.29802046</i>
    <i name="e_0_energy">    -11.29804068</i>
   </energy>
  </scstep>
  <scstep>
   <time name="dav">    8.15    8.17</time>
   <time name="total">    8.74    8.77</time>
   <energy>
    <i name="alphaZ">    405.80114212</i>
    <i name="ewald">  -3876.43641340</i>
    <i name="hartreedc">   -778.58452392</i>
    <i name="XCdc">    -44.82505082</i>
    <i name="pawpsdc">   3476.20886917</i>
    <i name="pawaedc">  -3299.63827275</i>
    <i name="eentropy">     -0.00004046</i>
    <i name="bandstr">    -43.47338357</i>
    <i name="atom">   4149.64961272</i>
    <i name="e_fr_energy">    -11.29806091</i>
    <i name="e_wo_entrp">    -11.29802045</i>
    <i name="e_0_energy">    -11.29804068</i>
   </energy>
  </scstep>
  <structure>
   <crystal>
    <varray name="basis" >
     <v>       4.12159253      0.00000000      0.00000000</v>
     <v>       0.00000000      4.12159253      0.00000000</v>
     <v>       0.00000000      0.00000000      4.12159253</v>
    </varray>
    <i name="volume">     70.01565627</i>
    <varray name="rec_basis" >
     <v>       0.24262466      0.00000000      0.00000000</v>
     <v>       0.00000000      0.24262466      0.00000000</v>
     <v>       0.00000000      0.00000000      0.24262466</v>
    </varray>
   </crystal>
   <varray name="positions" >
    <v>       0.00000000      0.00000000      0.00000000</v>
    <v>       0.50000000      0.50000000      0.00000000</v>
    <v>       0.50000000      0.00000000      0.50000000</v>
    <v>       0.00000000      0.50000000      0.50000000</v>
   </varray>
  </structure>
  <varray name="forces" >
   <v>       0.00000000     -0.00000000      0.00000000</v>
   <v>       0.00000000     -0.00000000      0.00000000</v>
   <v>       0.00000000     -0.00000000      0.00000000</v>
   <v>       0.00000000     -0.00000000      0.00000000</v>
  </varray>
  <varray name="stress" >
   <v>      29.73726904     -0.00000000     -0.00000000</v>
   <v>      -0.00000000     29.73726904     -0.00000000</v>
   <v>      -0.00000000     -0.00000000     29.73726904</v>
  </varray>
  <energy>
   <i name="e_fr_energy">    -11.29806091</i>
   <i name="e_wo_entrp">    -11.29804068</i>
   <i name="e_0_energy">     -0.00004046</i>
  </energy>
  <eigenvalues>
   <array>
    <dimension dim="1">band</dimension>
    <dimension dim="2">kpoint</dimension>
    <dimension dim="3">spin</dimension>
    <field>eigene</field>
    <field>occ</field>
    <set>
     <set comment="spin 1">
      <set comment="kpoint 1">
       <r>  -4.2879  1.0000</r>
       <r>  -3.0091  1.0000</r>
       <r>  -3.0091  1.0000</r>
       <r>  -3.0091  1.0000</r>
       <r>  -2.8806  1.0000</r>
       <r>  -2.8806  1.0000</r>
       <r>  -2.8806  1.0000</r>
       <r>  -1.4487  1.0000</r>
       <r>  -1.4487  1.0000</r>
       <r>  -1.4487  1.0000</r>
       <r>  -0.4599  1.0000</r>
       <r>  -0.4599  1.0000</r>
       <r>   0.2690  1.0000</r>
       <r>   0.2690  1.0000</r>
       <r>   0.2690  1.0000</r>
       <r>   0.4974  1.0000</r>
       <r>   0.4974  1.0000</r>
       <r>   0.4974  1.0000</r>
       <r>   0.4974  1.0000</r>
       <r>   0.4974  1.0000</r>
       <r>   0.4974  1.0000</r>
       <r>   4.9305  0.0000</r>
       <r>   4.9305  0.0000</r>
       <r>   4.9305  0.0000</r>
       <r>   9.8386  0.0000</r>
       <r>   9.8386  0.0000</r>
       <r>   9.8386  0.0000</r>
       <r>  14.0028  0.0000</r>
      </set>
      <set comment="kpoint 2">
       <r>  -4.2166  1.0000</r>
       <r>  -2.9801  1.0000</r>
       <r>  -2.9716  1.0000</r>
       <r>  -2.9716  1.0000</r>
       <r>  -2.8586  1.0000</r>
       <r>  -2.8470  1.0000</r>
       <r>  -2.8470  1.0000</r>
       <r>  -1.4760  1.0000</r>
       <r>  -1.4232  1.0000</r>
       <r>  -1.4232  1.0000</r>
       <r>  -0.4873  1.0000</r>
       <r>  -0.4481  1.0000</r>
       <r>   0.2326  1.0000</r>
       <r>   0.2326  1.0000</r>
       <r>   0.2559  1.0000</r>
       <r>   0.3684  1.0000</r>
       <r>   0.3684  1.0000</r>
       <r>   0.4529  1.0000</r>
       <r>   0.4529  1.0000</r>
       <r>   0.4975  1.0000</r>
       <r>   0.4975  1.0000</r>
       <r>   4.4522  0.0000</r>
       <r>   5.1187  0.0000</r>
       <r>   5.1187  0.0000</r>
       <r>   9.8498  0.0000</r>
       <r>   9.8498  0.0000</r>
       <r>  10.4289  0.0000</r>
       <r>  13.7491  0.0000</r>
      </set>
      <set comment="kpoint 3">
       <r>  -4.0063  1.0000</r>
       <r>  -2.8970  1.0000</r>
       <r>  -2.8638  1.0000</r>
       <r>  -2.8638  1.0000</r>
       <r>  -2.7938  1.0000</r>
       <r>  -2.7466  1.0000</r>
       <r>  -2.7466  1.0000</r>
       <r>  -1.5553  1.0000</r>
       <r>  -1.3473  1.0000</r>
       <r>  -1.3473  1.0000</r>
       <r>  -0.5638  1.0000</r>
       <r>  -0.4133  1.0000</r>
       <r>   0.0369  1.0000</r>
       <r>   0.0369  1.0000</r>
       <r>   0.1275  1.0000</r>
       <r>   0.1275  1.0000</r>
       <r>   0.2178  1.0000</r>
       <r>   0.3257  1.0000</r>
       <r>   0.3257  1.0000</r>
       <r>   0.4977  1.0000</r>
       <r>   0.4977  1.0000</r>
       <r>   3.4166  0.0000</r>
       <r>   5.6266  0.0000</r>
       <r>   5.6266  0.0000</r>
       <r>   9.8853  0.0000</r>
       <r>   9.8853  0.0000</r>
       <r>  11.7998  0.0000</r>
       <r>  13.0877  0.0000</r>
      </set>
      <set comment="kpoint 4">
       <r>  -3.6710  1.0000</r>
       <r>  -2.7721  1.0000</r>
       <r>  -2.7011  1.0000</r>
       <r>  -2.7011  1.0000</r>
       <r>  -2.6894  1.0000</r>
       <r>  -2.5799  1.0000</r>
       <r>  -2.5799  1.0000</r>
       <r>  -1.6794  1.0000</r>
       <r>  -1.2231  1.0000</r>
       <r>  -1.2231  1.0000</r>
       <r>  -0.6707  1.0000</r>
       <r>  -0.3956  1.0000</r>
       <r>  -0.3956  1.0000</r>
       <r>  -0.3575  1.0000</r>
       <r>  -0.0323  1.0000</r>
       <r>  -0.0323  1.0000</r>
       <r>   0.1330  1.0000</r>
       <r>   0.1330  1.0000</r>
       <r>   0.1576  1.0000</r>
       <r>   0.4979  1.0000</r>
       <r>   0.4979  1.0000</r>
       <r>   2.2606  1.0000</r>
       <r>   6.3500  0.0000</r>
       <r>   6.3500  0.0000</r>
       <r>   9.9492  0.0000</r>
       <r>   9.9492  0.0000</r>
       <r>  12.2032  0.0000</r>
       <r>  12.2032  0.0000</r>
      </set>
      <set comment="kpoint 5">
       <r>  -3.2457  1.0000</r>
       <r>  -2.6307  1.0000</r>
       <r>  -2.5509  1.0000</r>
       <r>  -2.5137  1.0000</r>
       <r>  -2.5137  1.0000</r>
       <r>  -2.3483  1.0000</r>
       <r>  -2.3483  1.0000</r>
       <r>  -1.8375  1.0000</r>
       <r>  -1.0545  1.0000</r>
       <r>  -1.0545  1.0000</r>
       <r>  -0.8544  1.0000</r>
       <r>  -0.8544  1.0000</r>
       <r>  -0.7648  1.0000</r>
       <r>  -0.2843  1.0000</r>
       <r>  -0.2179  1.0000</r>
       <r>  -0.2179  1.0000</r>
       <r>  -0.1022  1.0000</r>
       <r>  -0.1022  1.0000</r>
       <r>   0.0799  1.0000</r>
       <r>   0.4981  1.0000</r>
       <r>   0.4981  1.0000</r>
       <r>   1.1633  1.0000</r>
       <r>   7.2096  0.0000</r>
       <r>   7.2096  0.0000</r>
       <r>  10.0431  0.0000</r>
       <r>  10.0431  0.0000</r>
       <r>  11.2140  0.0000</r>
       <r>  11.2140  0.0000</r>
      </set>
      <set comment="kpoint 6">
       <r>  -2.8185  1.0000</r>
       <r>  -2.5238  1.0000</r>
       <r>  -2.3858  1.0000</r>
       <r>  -2.3526  1.0000</r>
       <r>  -2.3526  1.0000</r>
       <r>  -2.0541  1.0000</r>
       <r>  -2.0541  1.0000</r>
       <r>  -2.0169  1.0000</r>
       <r>  -1.2973  1.0000</r>
       <r>  -1.2973  1.0000</r>
       <r>  -0.8475  1.0000</r>
       <r>  -0.8475  1.0000</r>
       <r>  -0.7483  1.0000</r>
       <r>  -0.3783  1.0000</r>
       <r>  -0.3783  1.0000</r>
       <r>  -0.3570  1.0000</r>
       <r>  -0.3570  1.0000</r>
       <r>  -0.1981  1.0000</r>
       <r>  -0.0096  1.0000</r>
       <r>   0.2231  1.0000</r>
       <r>   0.4983  1.0000</r>
       <r>   0.4983  1.0000</r>
       <r>   8.1562  0.0000</r>
       <r>   8.1562  0.0000</r>
       <r>  10.1508  0.0000</r>
       <r>  10.1508  0.0000</r>
       <r>  10.1857  0.0000</r>
       <r>  10.1857  0.0000</r>
      </set>
      <set comment="kpoint 7">
       <r>  -2.5520  1.0000</r>
       <r>  -2.5520  1.0000</r>
       <r>  -2.2863  1.0000</r>
       <r>  -2.2863  1.0000</r>
       <r>  -2.2040  1.0000</r>
       <r>  -2.2040  1.0000</r>
       <r>  -1.7013  1.0000</r>
       <r>  -1.7013  1.0000</r>
       <r>  -1.7013  1.0000</r>
       <r>  -1.7013  1.0000</r>
       <r>  -0.6109  1.0000</r>
       <r>  -0.6109  1.0000</r>
       <r>  -0.6109  1.0000</r>
       <r>  -0.6109  1.0000</r>
       <r>  -0.4477  1.0000</r>
       <r>  -0.4477  1.0000</r>
       <r>  -0.4446  1.0000</r>
       <r>  -0.4446  1.0000</r>
       <r>  -0.1045  1.0000</r>
       <r>  -0.1045  1.0000</r>
       <r>   0.4984  1.0000</r>
       <r>   0.4984  1.0000</r>
       <r>   9.1570  0.0000</r>
       <r>   9.1570  0.0000</r>
       <r>   9.1570  0.0000</r>
       <r>   9.1570  0.0000</r>
       <r>  10.2075  0.0000</r>
       <r>  10.2075  0.0000</r>
      </set>
      <set comment="kpoint 8">
       <r>  -4.1462  1.0000</r>
       <r>  -2.9424  1.0000</r>
       <r>  -2.9424  1.0000</r>
       <r>  -2.9408  1.0000</r>
       <r>  -2.8255  1.0000</r>
       <r>  -2.8255  1.0000</r>
       <r>  -2.8082  1.0000</r>
       <r>  -1.4862  1.0000</r>
       <r>  -1.4140  1.0000</r>
       <r>  -1.3994  1.0000</r>
       <r>  -0.4945  1.0000</r>
       <r>  -0.4539  1.0000</r>
       <r>   0.1977  1.0000</r>
       <r>   0.2000  1.0000</r>
       <r>   0.2000  1.0000</r>
       <r>   0.2787  1.0000</r>
       <r>   0.3427  1.0000</r>
       <r>   0.3427  1.0000</r>
       <r>   0.4528  1.0000</r>
       <r>   0.4528  1.0000</r>
       <r>   0.4668  1.0000</r>
       <r>   4.6324  0.0000</r>
       <r>   4.6324  0.0000</r>
       <r>   5.2984  0.0000</r>
       <r>   9.8609  0.0000</r>
       <r>  10.4486  0.0000</r>
       <r>  10.4486  0.0000</r>
       <r>  12.9169  0.0000</r>
      </set>
      <set comment="kpoint 9">
       <r>  -3.9390  1.0000</r>
       <r>  -2.8585  1.0000</r>
       <r>  -2.8499  1.0000</r>
       <r>  -2.8338  1.0000</r>
       <r>  -2.7620  1.0000</r>
       <r>  -2.7265  1.0000</r>
       <r>  -2.6950  1.0000</r>
       <r>  -1.5553  1.0000</r>
       <r>  -1.3462  1.0000</r>
       <r>  -1.3295  1.0000</r>
       <r>  -0.5605  1.0000</r>
       <r>  -0.4215  1.0000</r>
       <r>  -0.0564  1.0000</r>
       <r>  -0.0184  1.0000</r>
       <r>   0.0935  1.0000</r>
       <r>   0.0968  1.0000</r>
       <r>   0.1639  1.0000</r>
       <r>   0.2809  1.0000</r>
       <r>   0.3252  1.0000</r>
       <r>   0.4513  1.0000</r>
       <r>   0.4525  1.0000</r>
       <r>   3.5924  0.0000</r>
       <r>   5.1116  0.0000</r>
       <r>   5.7882  0.0000</r>
       <r>   9.8939  0.0000</r>
       <r>  10.5091  0.0000</r>
       <r>  11.8258  0.0000</r>
       <r>  11.9706  0.0000</r>
      </set>
      <set comment="kpoint 10">
       <r>  -3.6089  1.0000</r>
       <r>  -2.7321  1.0000</r>
       <r>  -2.7045  1.0000</r>
       <r>  -2.6699  1.0000</r>
       <r>  -2.6598  1.0000</r>
       <r>  -2.5621  1.0000</r>
       <r>  -2.5180  1.0000</r>
       <r>  -1.6744  1.0000</r>
       <r>  -1.2239  1.0000</r>
       <r>  -1.2203  1.0000</r>
       <r>  -0.6561  1.0000</r>
       <r>  -0.4701  1.0000</r>
       <r>  -0.4288  1.0000</r>
       <r>  -0.3587  1.0000</r>
       <r>  -0.0883  1.0000</r>
       <r>  -0.0571  1.0000</r>
       <r>  -0.0084  1.0000</r>
       <r>   0.1321  1.0000</r>
       <r>   0.2010  1.0000</r>
       <r>   0.4483  1.0000</r>
       <r>   0.4521  1.0000</r>
       <r>   2.4453  1.0000</r>
       <r>   5.7795  0.0000</r>
       <r>   6.4938  0.0000</r>
       <r>   9.9365  0.0000</r>
       <r>  10.6109  0.0000</r>
       <r>  11.0463  0.0000</r>
       <r>  12.3109  0.0000</r>
      </set>
      <set comment="kpoint 11">
       <r>  -3.1908  1.0000</r>
       <r>  -2.5884  1.0000</r>
       <r>  -2.5242  1.0000</r>
       <r>  -2.5200  1.0000</r>
       <r>  -2.4809  1.0000</r>
       <r>  -2.3339  1.0000</r>
       <r>  -2.2932  1.0000</r>
       <r>  -1.8279  1.0000</r>
       <r>  -1.1003  1.0000</r>
       <r>  -1.0560  1.0000</r>
       <r>  -0.9134  1.0000</r>
       <r>  -0.8716  1.0000</r>
       <r>  -0.7090  1.0000</r>
       <r>  -0.3269  1.0000</r>
       <r>  -0.2738  1.0000</r>
       <r>  -0.2359  1.0000</r>
       <r>  -0.1999  1.0000</r>
       <r>  -0.1036  1.0000</r>
       <r>   0.1047  1.0000</r>
       <r>   0.4481  1.0000</r>
       <r>   0.4515  1.0000</r>
       <r>   1.3732  1.0000</r>
       <r>   6.5525  0.0000</r>
       <r>   7.3391  0.0000</r>
       <r>   9.7933  0.0000</r>
       <r>  10.3896  0.0000</r>
       <r>  10.7329  0.0000</r>
       <r>  11.3200  0.0000</r>
      </set>
      <set comment="kpoint 12">
       <r>  -2.7699  1.0000</r>
       <r>  -2.4786  1.0000</r>
       <r>  -2.3628  1.0000</r>
       <r>  -2.3420  1.0000</r>
       <r>  -2.3191  1.0000</r>
       <r>  -2.0445  1.0000</r>
       <r>  -2.0295  1.0000</r>
       <r>  -2.0026  1.0000</r>
       <r>  -1.3366  1.0000</r>
       <r>  -1.3028  1.0000</r>
       <r>  -1.0184  1.0000</r>
       <r>  -0.8493  1.0000</r>
       <r>  -0.6022  1.0000</r>
       <r>  -0.5840  1.0000</r>
       <r>  -0.3886  1.0000</r>
       <r>  -0.3682  1.0000</r>
       <r>  -0.3587  1.0000</r>
       <r>  -0.1688  1.0000</r>
       <r>  -0.0150  1.0000</r>
       <r>   0.4488  1.0000</r>
       <r>   0.4507  1.0000</r>
       <r>   0.4875  1.0000</r>
       <r>   7.3786  0.0000</r>
       <r>   8.2752  0.0000</r>
       <r>   9.0685  0.0000</r>
       <r>  10.2932  0.0000</r>
       <r>  10.4043  0.0000</r>
       <r>  10.7646  0.0000</r>
      </set>
      <set comment="kpoint 13">
       <r>  -2.5051  1.0000</r>
       <r>  -2.5051  1.0000</r>
       <r>  -2.2580  1.0000</r>
       <r>  -2.2580  1.0000</r>
       <r>  -2.1851  1.0000</r>
       <r>  -2.1851  1.0000</r>
       <r>  -1.7132  1.0000</r>
       <r>  -1.7132  1.0000</r>
       <r>  -1.6982  1.0000</r>
       <r>  -1.6982  1.0000</r>
       <r>  -0.8677  1.0000</r>
       <r>  -0.8677  1.0000</r>
       <r>  -0.6127  1.0000</r>
       <r>  -0.6127  1.0000</r>
       <r>  -0.4451  1.0000</r>
       <r>  -0.4451  1.0000</r>
       <r>  -0.2599  1.0000</r>
       <r>  -0.2599  1.0000</r>
       <r>  -0.0167  1.0000</r>
       <r>  -0.0167  1.0000</r>
       <r>   0.4497  1.0000</r>
       <r>   0.4497  1.0000</r>
       <r>   8.2252  0.0000</r>
       <r>   8.2252  0.0000</r>
       <r>   9.2689  0.0000</r>
       <r>   9.2689  0.0000</r>
       <r>  10.6017  0.0000</r>
       <r>  10.6017  0.0000</r>
      </set>
      <set comment="kpoint 14">
       <r>  -3.7412  1.0000</r>
       <r>  -2.7912  1.0000</r>
       <r>  -2.7476  1.0000</r>
       <r>  -2.7476  1.0000</r>
       <r>  -2.6670  1.0000</r>
       <r>  -2.6670  1.0000</r>
       <r>  -2.5620  1.0000</r>
       <r>  -1.5845  1.0000</r>
       <r>  -1.3124  1.0000</r>
       <r>  -1.2783  1.0000</r>
       <r>  -0.5859  1.0000</r>
       <r>  -0.4046  1.0000</r>
       <r>  -0.2323  1.0000</r>
       <r>  -0.2323  1.0000</r>
       <r>  -0.2138  1.0000</r>
       <r>   0.0075  1.0000</r>
       <r>   0.1742  1.0000</r>
       <r>   0.1742  1.0000</r>
       <r>   0.3239  1.0000</r>
       <r>   0.3239  1.0000</r>
       <r>   0.3762  1.0000</r>
       <r>   4.0472  0.0000</r>
       <r>   4.0472  0.0000</r>
       <r>   6.2374  0.0000</r>
       <r>   9.8966  0.0000</r>
       <r>  10.8772  0.0000</r>
       <r>  11.8954  0.0000</r>
       <r>  11.8954  0.0000</r>
      </set>
      <set comment="kpoint 15">
       <r>  -3.4276  1.0000</r>
       <r>  -2.6762  1.0000</r>
       <r>  -2.6168  1.0000</r>
       <r>  -2.5797  1.0000</r>
       <r>  -2.5715  1.0000</r>
       <r>  -2.5097  1.0000</r>
       <r>  -2.3747  1.0000</r>
       <r>  -1.6729  1.0000</r>
       <r>  -1.2116  1.0000</r>
       <r>  -1.2067  1.0000</r>
       <r>  -0.6526  1.0000</r>
       <r>  -0.6426  1.0000</r>
       <r>  -0.5411  1.0000</r>
       <r>  -0.4538  1.0000</r>
       <r>  -0.3224  1.0000</r>
       <r>  -0.1300  1.0000</r>
       <r>   0.0153  1.0000</r>
       <r>   0.1296  1.0000</r>
       <r>   0.1338  1.0000</r>
       <r>   0.3219  1.0000</r>
       <r>   0.3356  1.0000</r>
       <r>   2.9009  1.0000</r>
       <r>   4.6633  0.0000</r>
       <r>   6.9003  0.0000</r>
       <r>   9.5422  0.0000</r>
       <r>  10.2558  0.0000</r>
       <r>  11.9433  0.0000</r>
       <r>  12.6249  0.0000</r>
      </set>
      <set comment="kpoint 16">
       <r>  -3.0325  1.0000</r>
       <r>  -2.5093  1.0000</r>
       <r>  -2.4661  1.0000</r>
       <r>  -2.4450  1.0000</r>
       <r>  -2.3853  1.0000</r>
       <r>  -2.2919  1.0000</r>
       <r>  -2.1605  1.0000</r>
       <r>  -1.8056  1.0000</r>
       <r>  -1.1636  1.0000</r>
       <r>  -1.0594  1.0000</r>
       <r>  -1.0530  1.0000</r>
       <r>  -0.9288  1.0000</r>
       <r>  -0.7056  1.0000</r>
       <r>  -0.6644  1.0000</r>
       <r>  -0.2905  1.0000</r>
       <r>  -0.1877  1.0000</r>
       <r>  -0.1756  1.0000</r>
       <r>  -0.1072  1.0000</r>
       <r>   0.0446  1.0000</r>
       <r>   0.3193  1.0000</r>
       <r>   0.3198  1.0000</r>
       <r>   1.8449  1.0000</r>
       <r>   5.3661  0.0000</r>
       <r>   7.7101  0.0000</r>
       <r>   8.6499  0.0000</r>
       <r>  10.3156  0.0000</r>
       <r>  11.6290  0.0000</r>
       <r>  11.7178  0.0000</r>
      </set>
      <set comment="kpoint 17">
       <r>  -2.6325  1.0000</r>
       <r>  -2.3478  1.0000</r>
       <r>  -2.3149  1.0000</r>
       <r>  -2.2950  1.0000</r>
       <r>  -2.2210  1.0000</r>
       <r>  -2.0169  1.0000</r>
       <r>  -1.9632  1.0000</r>
       <r>  -1.9513  1.0000</r>
       <r>  -1.4373  1.0000</r>
       <r>  -1.3220  1.0000</r>
       <r>  -1.1849  1.0000</r>
       <r>  -0.9617  1.0000</r>
       <r>  -0.8506  1.0000</r>
       <r>  -0.5240  1.0000</r>
       <r>  -0.4232  1.0000</r>
       <r>  -0.3626  1.0000</r>
       <r>  -0.3554  1.0000</r>
       <r>  -0.0946  1.0000</r>
       <r>   0.0131  1.0000</r>
       <r>   0.3149  1.0000</r>
       <r>   0.3167  1.0000</r>
       <r>   0.9719  1.0000</r>
       <r>   6.1207  0.0000</r>
       <r>   7.7571  0.0000</r>
       <r>   8.6190  0.0000</r>
       <r>  10.5311  0.0000</r>
       <r>  10.6061  0.0000</r>
       <r>  11.2656  0.0000</r>
      </set>
      <set comment="kpoint 18">
       <r>  -2.3716  1.0000</r>
       <r>  -2.3716  1.0000</r>
       <r>  -2.1807  1.0000</r>
       <r>  -2.1807  1.0000</r>
       <r>  -2.1307  1.0000</r>
       <r>  -2.1307  1.0000</r>
       <r>  -1.7363  1.0000</r>
       <r>  -1.7363  1.0000</r>
       <r>  -1.6904  1.0000</r>
       <r>  -1.6904  1.0000</r>
       <r>  -1.1484  1.0000</r>
       <r>  -1.1484  1.0000</r>
       <r>  -0.6160  1.0000</r>
       <r>  -0.6160  1.0000</r>
       <r>  -0.4554  1.0000</r>
       <r>  -0.4554  1.0000</r>
       <r>  -0.2938  1.0000</r>
       <r>  -0.2938  1.0000</r>
       <r>   0.3148  1.0000</r>
       <r>   0.3148  1.0000</r>
       <r>   0.3604  1.0000</r>
       <r>   0.3604  1.0000</r>
       <r>   6.9163  0.0000</r>
       <r>   6.9163  0.0000</r>
       <r>   9.5935  0.0000</r>
       <r>   9.5935  0.0000</r>
       <r>  10.8499  0.0000</r>
       <r>  10.8499  0.0000</r>
      </set>
      <set comment="kpoint 19">
       <r>  -3.1437  1.0000</r>
       <r>  -2.5948  1.0000</r>
       <r>  -2.4414  1.0000</r>
       <r>  -2.4414  1.0000</r>
       <r>  -2.4257  1.0000</r>
       <r>  -2.4257  1.0000</r>
       <r>  -2.1862  1.0000</r>
       <r>  -1.7067  1.0000</r>
       <r>  -1.1825  1.0000</r>
       <r>  -1.1513  1.0000</r>
       <r>  -0.8588  1.0000</r>
       <r>  -0.8588  1.0000</r>
       <r>  -0.7505  1.0000</r>
       <r>  -0.7020  1.0000</r>
       <r>  -0.2448  1.0000</r>
       <r>  -0.1907  1.0000</r>
       <r>  -0.0062  1.0000</r>
       <r>  -0.0062  1.0000</r>
       <r>   0.1258  1.0000</r>
       <r>   0.1258  1.0000</r>
       <r>   0.2301  1.0000</r>
       <r>   3.4953  0.0000</r>
       <r>   3.4953  0.0000</r>
       <r>   7.5146  0.0000</r>
       <r>   8.4909  0.0000</r>
       <r>  10.2771  0.0000</r>
       <r>  12.9865  0.0000</r>
       <r>  12.9866  0.0000</r>
      </set>
      <set comment="kpoint 20">
       <r>  -2.7916  1.0000</r>
       <r>  -2.4588  1.0000</r>
       <r>  -2.3153  1.0000</r>
       <r>  -2.2782  1.0000</r>
       <r>  -2.2361  1.0000</r>
       <r>  -2.2252  1.0000</r>
       <r>  -1.9840  1.0000</r>
       <r>  -1.7901  1.0000</r>
       <r>  -1.2446  1.0000</r>
       <r>  -1.1915  1.0000</r>
       <r>  -1.0888  1.0000</r>
       <r>  -1.0394  1.0000</r>
       <r>  -1.0241  1.0000</r>
       <r>  -0.7226  1.0000</r>
       <r>  -0.3812  1.0000</r>
       <r>  -0.1886  1.0000</r>
       <r>  -0.1115  1.0000</r>
       <r>  -0.0870  1.0000</r>
       <r>   0.0317  1.0000</r>
       <r>   0.1220  1.0000</r>
       <r>   0.1657  1.0000</r>
       <r>   2.4258  1.0000</r>
       <r>   4.1654  0.0000</r>
       <r>   7.4623  0.0000</r>
       <r>   8.2807  0.0000</r>
       <r>  10.4544  0.0000</r>
       <r>  12.1167  0.0000</r>
       <r>  12.2649  0.0000</r>
      </set>
      <set comment="kpoint 21">
       <r>  -2.4340  1.0000</r>
       <r>  -2.2753  1.0000</r>
       <r>  -2.1858  1.0000</r>
       <r>  -2.1467  1.0000</r>
       <r>  -2.0664  1.0000</r>
       <r>  -1.9749  1.0000</r>
       <r>  -1.9096  1.0000</r>
       <r>  -1.8188  1.0000</r>
       <r>  -1.5661  1.0000</r>
       <r>  -1.3630  1.0000</r>
       <r>  -1.2917  1.0000</r>
       <r>  -1.2839  1.0000</r>
       <r>  -0.8396  1.0000</r>
       <r>  -0.6143  1.0000</r>
       <r>  -0.4900  1.0000</r>
       <r>  -0.3735  1.0000</r>
       <r>  -0.3656  1.0000</r>
       <r>  -0.2290  1.0000</r>
       <r>   0.1199  1.0000</r>
       <r>   0.1345  1.0000</r>
       <r>   0.3554  1.0000</r>
       <r>   1.5241  1.0000</r>
       <r>   4.8909  0.0000</r>
       <r>   6.5251  0.0000</r>
       <r>   9.1545  0.0000</r>
       <r>  10.7317  0.0000</r>
       <r>  11.0992  0.0000</r>
       <r>  11.6301  0.0000</r>
      </set>
      <set comment="kpoint 22">
       <r>  -2.1777  1.0000</r>
       <r>  -2.1777  1.0000</r>
       <r>  -2.0852  1.0000</r>
       <r>  -2.0852  1.0000</r>
       <r>  -2.0466  1.0000</r>
       <r>  -2.0466  1.0000</r>
       <r>  -1.7307  1.0000</r>
       <r>  -1.7307  1.0000</r>
       <r>  -1.6828  1.0000</r>
       <r>  -1.6828  1.0000</r>
       <r>  -1.3667  1.0000</r>
       <r>  -1.3667  1.0000</r>
       <r>  -0.6145  1.0000</r>
       <r>  -0.6145  1.0000</r>
       <r>  -0.4952  1.0000</r>
       <r>  -0.4952  1.0000</r>
       <r>  -0.4206  1.0000</r>
       <r>  -0.4206  1.0000</r>
       <r>   0.1223  1.0000</r>
       <r>   0.1223  1.0000</r>
       <r>   0.8343  1.0000</r>
       <r>   0.8343  1.0000</r>
       <r>   5.6732  0.0000</r>
       <r>   5.6732  0.0000</r>
       <r>  10.1030  0.0000</r>
       <r>  10.1030  0.0000</r>
       <r>  11.1195  0.0000</r>
       <r>  11.1195  0.0000</r>
      </set>
      <set comment="kpoint 23">
       <r>  -2.5060  1.0000</r>
       <r>  -2.3620  1.0000</r>
       <r>  -2.1395  1.0000</r>
       <r>  -2.1395  1.0000</r>
       <r>  -2.0530  1.0000</r>
       <r>  -2.0530  1.0000</r>
       <r>  -1.8051  1.0000</r>
       <r>  -1.7950  1.0000</r>
       <r>  -1.4353  1.0000</r>
       <r>  -1.4353  1.0000</r>
       <r>  -1.2127  1.0000</r>
       <r>  -1.2033  1.0000</r>
       <r>  -0.9424  1.0000</r>
       <r>  -0.8023  1.0000</r>
       <r>  -0.4962  1.0000</r>
       <r>  -0.2624  1.0000</r>
       <r>  -0.2624  1.0000</r>
       <r>  -0.1139  1.0000</r>
       <r>  -0.1139  1.0000</r>
       <r>   0.0362  1.0000</r>
       <r>   0.3581  1.0000</r>
       <r>   3.0710  1.0000</r>
       <r>   3.0710  1.0000</r>
       <r>   6.3799  0.0000</r>
       <r>   9.0047  0.0000</r>
       <r>  10.6889  0.0000</r>
       <r>  12.7515  0.0000</r>
       <r>  12.7528  0.0000</r>
      </set>
      <set comment="kpoint 24">
       <r>  -2.2250  1.0000</r>
       <r>  -2.2166  1.0000</r>
       <r>  -2.0423  1.0000</r>
       <r>  -1.9249  1.0000</r>
       <r>  -1.9059  1.0000</r>
       <r>  -1.8717  1.0000</r>
       <r>  -1.8600  1.0000</r>
       <r>  -1.6933  1.0000</r>
       <r>  -1.6516  1.0000</r>
       <r>  -1.5695  1.0000</r>
       <r>  -1.4372  1.0000</r>
       <r>  -1.3003  1.0000</r>
       <r>  -0.7967  1.0000</r>
       <r>  -0.7575  1.0000</r>
       <r>  -0.5910  1.0000</r>
       <r>  -0.4479  1.0000</r>
       <r>  -0.4020  1.0000</r>
       <r>  -0.3616  1.0000</r>
       <r>  -0.1096  1.0000</r>
       <r>  -0.0474  1.0000</r>
       <r>   0.7933  1.0000</r>
       <r>   2.1318  1.0000</r>
       <r>   3.7754  0.0000</r>
       <r>   5.4122  0.0000</r>
       <r>   9.8426  0.0000</r>
       <r>  11.0262  0.0000</r>
       <r>  11.7405  0.0000</r>
       <r>  12.0676  0.0000</r>
      </set>
      <set comment="kpoint 25">
       <r>  -2.0244  1.0000</r>
       <r>  -2.0244  1.0000</r>
       <r>  -1.9931  1.0000</r>
       <r>  -1.9931  1.0000</r>
       <r>  -1.9445  1.0000</r>
       <r>  -1.9445  1.0000</r>
       <r>  -1.6841  1.0000</r>
       <r>  -1.6841  1.0000</r>
       <r>  -1.6401  1.0000</r>
       <r>  -1.6401  1.0000</r>
       <r>  -1.4775  1.0000</r>
       <r>  -1.4775  1.0000</r>
       <r>  -0.5966  1.0000</r>
       <r>  -0.5966  1.0000</r>
       <r>  -0.5880  1.0000</r>
       <r>  -0.5880  1.0000</r>
       <r>  -0.5819  1.0000</r>
       <r>  -0.5819  1.0000</r>
       <r>  -0.0913  1.0000</r>
       <r>  -0.0913  1.0000</r>
       <r>   1.3735  1.0000</r>
       <r>   1.3735  1.0000</r>
       <r>   4.5498  0.0000</r>
       <r>   4.5498  0.0000</r>
       <r>  10.7630  0.0000</r>
       <r>  10.7630  0.0000</r>
       <r>  11.4813  0.0000</r>
       <r>  11.4813  0.0000</r>
      </set>
      <set comment="kpoint 26">
       <r>  -2.1271  1.0000</r>
       <r>  -2.0583  1.0000</r>
       <r>  -1.8762  1.0000</r>
       <r>  -1.8762  1.0000</r>
       <r>  -1.8342  1.0000</r>
       <r>  -1.8298  1.0000</r>
       <r>  -1.8298  1.0000</r>
       <r>  -1.6316  1.0000</r>
       <r>  -1.6316  1.0000</r>
       <r>  -1.5530  1.0000</r>
       <r>  -1.5025  1.0000</r>
       <r>  -1.2917  1.0000</r>
       <r>  -0.8495  1.0000</r>
       <r>  -0.7014  1.0000</r>
       <r>  -0.6970  1.0000</r>
       <r>  -0.5849  1.0000</r>
       <r>  -0.5849  1.0000</r>
       <r>  -0.3410  1.0000</r>
       <r>  -0.3410  1.0000</r>
       <r>  -0.1941  1.0000</r>
       <r>   1.3299  1.0000</r>
       <r>   2.8051  1.0000</r>
       <r>   2.8051  1.0000</r>
       <r>   4.4267  0.0000</r>
       <r>  10.6476  0.0000</r>
       <r>  11.4291  0.0000</r>
       <r>  12.4977  0.0000</r>
       <r>  12.4988  0.0000</r>
      </set>
      <set comment="kpoint 27">
       <r>  -1.9976  1.0000</r>
       <r>  -1.9976  1.0000</r>
       <r>  -1.9367  1.0000</r>
       <r>  -1.9367  1.0000</r>
       <r>  -1.8416  1.0000</r>
       <r>  -1.8416  1.0000</r>
       <r>  -1.7056  1.0000</r>
       <r>  -1.7056  1.0000</r>
       <r>  -1.4813  1.0000</r>
       <r>  -1.4813  1.0000</r>
       <r>  -1.4193  1.0000</r>
       <r>  -1.4193  1.0000</r>
       <r>  -0.7558  1.0000</r>
       <r>  -0.7558  1.0000</r>
       <r>  -0.7123  1.0000</r>
       <r>  -0.7123  1.0000</r>
       <r>  -0.5458  1.0000</r>
       <r>  -0.5458  1.0000</r>
       <r>  -0.2900  1.0000</r>
       <r>  -0.2900  1.0000</r>
       <r>   1.9923  1.0000</r>
       <r>   1.9923  1.0000</r>
       <r>   3.5630  0.0000</r>
       <r>   3.5630  0.0000</r>
       <r>  11.5405  0.0000</r>
       <r>  11.5405  0.0000</r>
       <r>  11.9537  0.0000</r>
       <r>  11.9537  0.0000</r>
      </set>
      <set comment="kpoint 28">
       <r>  -1.9671  1.0000</r>
       <r>  -1.9671  1.0000</r>
       <r>  -1.9671  1.0000</r>
       <r>  -1.9671  1.0000</r>
       <r>  -1.7578  1.0000</r>
       <r>  -1.7578  1.0000</r>
       <r>  -1.7578  1.0000</r>
       <r>  -1.7578  1.0000</r>
       <r>  -1.3644  1.0000</r>
       <r>  -1.3644  1.0000</r>
       <r>  -1.3644  1.0000</r>
       <r>  -1.3644  1.0000</r>
       <r>  -0.8177  1.0000</r>
       <r>  -0.8177  1.0000</r>
       <r>  -0.8177  1.0000</r>
       <r>  -0.8177  1.0000</r>
       <r>  -0.4457  1.0000</r>
       <r>  -0.4457  1.0000</r>
       <r>  -0.4457  1.0000</r>
       <r>  -0.4457  1.0000</r>
       <r>   2.7147  1.0000</r>
       <r>   2.7147  1.0000</r>
       <r>   2.7147  1.0000</r>
       <r>   2.7147  1.0000</r>
       <r>  12.4079  0.0000</r>
       <r>  12.4079  0.0000</r>
       <r>  12.4079  0.0000</r>
       <r>  12.4079  0.0000</r>
      </set>
      <set comment="kpoint 29">
       <r>  -4.0771  1.0000</r>
       <r>  -2.9122  1.0000</r>
       <r>  -2.9122  1.0000</r>
       <r>  -2.9122  1.0000</r>
       <r>  -2.7863  1.0000</r>
       <r>  -2.7863  1.0000</r>
       <r>  -2.7863  1.0000</r>
       <r>  -1.4928  1.0000</r>
       <r>  -1.3924  1.0000</r>
       <r>  -1.3924  1.0000</r>
       <r>  -0.4795  1.0000</r>
       <r>  -0.4795  1.0000</r>
       <r>   0.1663  1.0000</r>
       <r>   0.1663  1.0000</r>
       <r>   0.1663  1.0000</r>
       <r>   0.2302  1.0000</r>
       <r>   0.2302  1.0000</r>
       <r>   0.2302  1.0000</r>
       <r>   0.4440  1.0000</r>
       <r>   0.4440  1.0000</r>
       <r>   0.4440  1.0000</r>
       <r>   4.8028  0.0000</r>
       <r>   4.8028  0.0000</r>
       <r>   4.8028  0.0000</r>
       <r>  10.4670  0.0000</r>
       <r>  10.4670  0.0000</r>
       <r>  10.4670  0.0000</r>
       <r>  13.0304  0.0000</r>
      </set>
      <set comment="kpoint 30">
       <r>  -3.8736  1.0000</r>
       <r>  -2.8309  1.0000</r>
       <r>  -2.8228  1.0000</r>
       <r>  -2.8228  1.0000</r>
       <r>  -2.7210  1.0000</r>
       <r>  -2.6726  1.0000</r>
       <r>  -2.6726  1.0000</r>
       <r>  -1.5513  1.0000</r>
       <r>  -1.3328  1.0000</r>
       <r>  -1.3282  1.0000</r>
       <r>  -0.5493  1.0000</r>
       <r>  -0.4354  1.0000</r>
       <r>  -0.0916  1.0000</r>
       <r>  -0.0916  1.0000</r>
       <r>   0.0723  1.0000</r>
       <r>   0.0905  1.0000</r>
       <r>   0.0915  1.0000</r>
       <r>   0.0915  1.0000</r>
       <r>   0.3823  1.0000</r>
       <r>   0.4300  1.0000</r>
       <r>   0.4300  1.0000</r>
       <r>   3.7548  0.0000</r>
       <r>   5.2615  0.0000</r>
       <r>   5.2615  0.0000</r>
       <r>  10.5171  0.0000</r>
       <r>  10.5171  0.0000</r>
       <r>  11.8430  0.0000</r>
       <r>  12.0896  0.0000</r>
      </set>
      <set comment="kpoint 31">
       <r>  -3.5503  1.0000</r>
       <r>  -2.7110  1.0000</r>
       <r>  -2.6786  1.0000</r>
       <r>  -2.6786  1.0000</r>
       <r>  -2.6135  1.0000</r>
       <r>  -2.4960  1.0000</r>
       <r>  -2.4960  1.0000</r>
       <r>  -1.6629  1.0000</r>
       <r>  -1.2238  1.0000</r>
       <r>  -1.2229  1.0000</r>
       <r>  -0.6346  1.0000</r>
       <r>  -0.4958  1.0000</r>
       <r>  -0.4958  1.0000</r>
       <r>  -0.3650  1.0000</r>
       <r>  -0.1251  1.0000</r>
       <r>  -0.0789  1.0000</r>
       <r>  -0.0540  1.0000</r>
       <r>  -0.0540  1.0000</r>
       <r>   0.2942  1.0000</r>
       <r>   0.4196  1.0000</r>
       <r>   0.4196  1.0000</r>
       <r>   2.6079  1.0000</r>
       <r>   5.9089  0.0000</r>
       <r>   5.9089  0.0000</r>
       <r>  10.5241  0.0000</r>
       <r>  10.5241  0.0000</r>
       <r>  11.2491  0.0000</r>
       <r>  11.2491  0.0000</r>
      </set>
      <set comment="kpoint 32">
       <r>  -3.1425  1.0000</r>
       <r>  -2.5763  1.0000</r>
       <r>  -2.4934  1.0000</r>
       <r>  -2.4934  1.0000</r>
       <r>  -2.4701  1.0000</r>
       <r>  -2.2752  1.0000</r>
       <r>  -2.2752  1.0000</r>
       <r>  -1.8091  1.0000</r>
       <r>  -1.1217  1.0000</r>
       <r>  -1.0795  1.0000</r>
       <r>  -0.9249  1.0000</r>
       <r>  -0.9249  1.0000</r>
       <r>  -0.6485  1.0000</r>
       <r>  -0.3971  1.0000</r>
       <r>  -0.2728  1.0000</r>
       <r>  -0.2718  1.0000</r>
       <r>  -0.2300  1.0000</r>
       <r>  -0.2300  1.0000</r>
       <r>   0.1892  1.0000</r>
       <r>   0.4137  1.0000</r>
       <r>   0.4137  1.0000</r>
       <r>   1.5383  1.0000</r>
       <r>   6.6651  0.0000</r>
       <r>   6.6651  0.0000</r>
       <r>  10.0010  0.0000</r>
       <r>  10.0010  0.0000</r>
       <r>  11.0473  0.0000</r>
       <r>  11.0473  0.0000</r>
      </set>
      <set comment="kpoint 33">
       <r>  -2.7340  1.0000</r>
       <r>  -2.4661  1.0000</r>
       <r>  -2.3116  1.0000</r>
       <r>  -2.3116  1.0000</r>
       <r>  -2.3102  1.0000</r>
       <r>  -2.0242  1.0000</r>
       <r>  -2.0242  1.0000</r>
       <r>  -1.9750  1.0000</r>
       <r>  -1.3323  1.0000</r>
       <r>  -1.3323  1.0000</r>
       <r>  -1.0791  1.0000</r>
       <r>  -0.9030  1.0000</r>
       <r>  -0.6988  1.0000</r>
       <r>  -0.4857  1.0000</r>
       <r>  -0.4537  1.0000</r>
       <r>  -0.3871  1.0000</r>
       <r>  -0.3871  1.0000</r>
       <r>  -0.1645  1.0000</r>
       <r>   0.0734  1.0000</r>
       <r>   0.4110  1.0000</r>
       <r>   0.4110  1.0000</r>
       <r>   0.6380  1.0000</r>
       <r>   7.4781  0.0000</r>
       <r>   7.4781  0.0000</r>
       <r>   9.1685  0.0000</r>
       <r>   9.1685  0.0000</r>
       <r>  11.2561  0.0000</r>
       <r>  11.2561  0.0000</r>
      </set>
      <set comment="kpoint 34">
       <r>  -2.4809  1.0000</r>
       <r>  -2.4809  1.0000</r>
       <r>  -2.2299  1.0000</r>
       <r>  -2.2299  1.0000</r>
       <r>  -2.1455  1.0000</r>
       <r>  -2.1455  1.0000</r>
       <r>  -1.7913  1.0000</r>
       <r>  -1.7913  1.0000</r>
       <r>  -1.6263  1.0000</r>
       <r>  -1.6263  1.0000</r>
       <r>  -0.9611  1.0000</r>
       <r>  -0.9611  1.0000</r>
       <r>  -0.7013  1.0000</r>
       <r>  -0.7013  1.0000</r>
       <r>  -0.4534  1.0000</r>
       <r>  -0.4534  1.0000</r>
       <r>  -0.0467  1.0000</r>
       <r>  -0.0467  1.0000</r>
       <r>  -0.0289  1.0000</r>
       <r>  -0.0289  1.0000</r>
       <r>   0.4102  1.0000</r>
       <r>   0.4102  1.0000</r>
       <r>   8.2784  0.0000</r>
       <r>   8.2784  0.0000</r>
       <r>   8.3585  0.0000</r>
       <r>   8.3585  0.0000</r>
       <r>  11.4236  0.0000</r>
       <r>  11.4236  0.0000</r>
      </set>
      <set comment="kpoint 35">
       <r>  -3.6820  1.0000</r>
       <r>  -2.7681  1.0000</r>
       <r>  -2.7470  1.0000</r>
       <r>  -2.7470  1.0000</r>
       <r>  -2.6043  1.0000</r>
       <r>  -2.6043  1.0000</r>
       <r>  -2.5374  1.0000</r>
       <r>  -1.5678  1.0000</r>
       <r>  -1.3049  1.0000</r>
       <r>  -1.2837  1.0000</r>
       <r>  -0.5592  1.0000</r>
       <r>  -0.4270  1.0000</r>
       <r>  -0.2618  1.0000</r>
       <r>  -0.2565  1.0000</r>
       <r>  -0.2565  1.0000</r>
       <r>  -0.0468  1.0000</r>
       <r>   0.0225  1.0000</r>
       <r>   0.0225  1.0000</r>
       <r>   0.3763  1.0000</r>
       <r>   0.3763  1.0000</r>
       <r>   0.3857  1.0000</r>
       <r>   4.1833  0.0000</r>
       <r>   4.1833  0.0000</r>
       <r>   5.6737  0.0000</r>
       <r>  10.4328  0.0000</r>
       <r>  11.1136  0.0000</r>
       <r>  11.8132  0.0000</r>
       <r>  11.8132  0.0000</r>
      </set>
      <set comment="kpoint 36">
       <r>  -3.3803  1.0000</r>
       <r>  -2.6566  1.0000</r>
       <r>  -2.6387  1.0000</r>
       <r>  -2.6079  1.0000</r>
       <r>  -2.4890  1.0000</r>
       <r>  -2.4277  1.0000</r>
       <r>  -2.3504  1.0000</r>
       <r>  -1.6416  1.0000</r>
       <r>  -1.2198  1.0000</r>
       <r>  -1.2141  1.0000</r>
       <r>  -0.6576  1.0000</r>
       <r>  -0.6132  1.0000</r>
       <r>  -0.5892  1.0000</r>
       <r>  -0.4755  1.0000</r>
       <r>  -0.3412  1.0000</r>
       <r>  -0.1728  1.0000</r>
       <r>  -0.1262  1.0000</r>
       <r>  -0.0858  1.0000</r>
       <r>   0.3004  1.0000</r>
       <r>   0.3451  1.0000</r>
       <r>   0.3463  1.0000</r>
       <r>   3.0258  1.0000</r>
       <r>   4.7753  0.0000</r>
       <r>   6.2709  0.0000</r>
       <r>   9.6889  0.0000</r>
       <r>  10.9389  0.0000</r>
       <r>  11.2059  0.0000</r>
       <r>  12.3073  0.0000</r>
      </set>
      <set comment="kpoint 37">
       <r>  -3.0056  1.0000</r>
       <r>  -2.5192  1.0000</r>
       <r>  -2.4920  1.0000</r>
       <r>  -2.4224  1.0000</r>
       <r>  -2.3344  1.0000</r>
       <r>  -2.2169  1.0000</r>
       <r>  -2.1418  1.0000</r>
       <r>  -1.7580  1.0000</r>
       <r>  -1.1739  1.0000</r>
       <r>  -1.0934  1.0000</r>
       <r>  -1.0578  1.0000</r>
       <r>  -0.9651  1.0000</r>
       <r>  -0.7298  1.0000</r>
       <r>  -0.5844  1.0000</r>
       <r>  -0.3256  1.0000</r>
       <r>  -0.3169  1.0000</r>
       <r>  -0.2406  1.0000</r>
       <r>  -0.2075  1.0000</r>
       <r>   0.1989  1.0000</r>
       <r>   0.3183  1.0000</r>
       <r>   0.3217  1.0000</r>
       <r>   1.9526  1.0000</r>
       <r>   5.4596  0.0000</r>
       <r>   6.9797  0.0000</r>
       <r>   8.7449  0.0000</r>
       <r>  10.3178  0.0000</r>
       <r>  11.1423  0.0000</r>
       <r>  12.4769  0.0000</r>
      </set>
      <set comment="kpoint 38">
       <r>  -2.6375  1.0000</r>
       <r>  -2.4182  1.0000</r>
       <r>  -2.2951  1.0000</r>
       <r>  -2.2268  1.0000</r>
       <r>  -2.1690  1.0000</r>
       <r>  -2.0087  1.0000</r>
       <r>  -1.9585  1.0000</r>
       <r>  -1.8918  1.0000</r>
       <r>  -1.4032  1.0000</r>
       <r>  -1.3224  1.0000</r>
       <r>  -1.2038  1.0000</r>
       <r>  -0.9895  1.0000</r>
       <r>  -0.9368  1.0000</r>
       <r>  -0.5420  1.0000</r>
       <r>  -0.4458  1.0000</r>
       <r>  -0.3987  1.0000</r>
       <r>  -0.3761  1.0000</r>
       <r>  -0.0124  1.0000</r>
       <r>   0.0658  1.0000</r>
       <r>   0.3051  1.0000</r>
       <r>   0.3075  1.0000</r>
       <r>   1.0429  1.0000</r>
       <r>   6.2000  0.0000</r>
       <r>   7.6549  0.0000</r>
       <r>   7.9519  0.0000</r>
       <r>   9.4441  0.0000</r>
       <r>  11.4827  0.0000</r>
       <r>  12.4200  0.0000</r>
      </set>
      <set comment="kpoint 39">
       <r>  -2.4188  1.0000</r>
       <r>  -2.4188  1.0000</r>
       <r>  -2.1537  1.0000</r>
       <r>  -2.1537  1.0000</r>
       <r>  -2.0250  1.0000</r>
       <r>  -2.0250  1.0000</r>
       <r>  -1.8734  1.0000</r>
       <r>  -1.8734  1.0000</r>
       <r>  -1.5532  1.0000</r>
       <r>  -1.5532  1.0000</r>
       <r>  -1.1748  1.0000</r>
       <r>  -1.1748  1.0000</r>
       <r>  -0.7507  1.0000</r>
       <r>  -0.7507  1.0000</r>
       <r>  -0.4854  1.0000</r>
       <r>  -0.4854  1.0000</r>
       <r>  -0.1155  1.0000</r>
       <r>  -0.1155  1.0000</r>
       <r>   0.3021  1.0000</r>
       <r>   0.3021  1.0000</r>
       <r>   0.3671  1.0000</r>
       <r>   0.3671  1.0000</r>
       <r>   6.9818  0.0000</r>
       <r>   6.9818  0.0000</r>
       <r>   8.6048  0.0000</r>
       <r>   8.6048  0.0000</r>
       <r>  11.9389  0.0000</r>
       <r>  11.9389  0.0000</r>
      </set>
      <set comment="kpoint 40">
       <r>  -3.1187  1.0000</r>
       <r>  -2.5812  1.0000</r>
       <r>  -2.5114  1.0000</r>
       <r>  -2.5114  1.0000</r>
       <r>  -2.3079  1.0000</r>
       <r>  -2.3079  1.0000</r>
       <r>  -2.1638  1.0000</r>
       <r>  -1.6458  1.0000</r>
       <r>  -1.1904  1.0000</r>
       <r>  -1.1784  1.0000</r>
       <r>  -0.8652  1.0000</r>
       <r>  -0.8652  1.0000</r>
       <r>  -0.7808  1.0000</r>
       <r>  -0.6447  1.0000</r>
       <r>  -0.3122  1.0000</r>
       <r>  -0.2144  1.0000</r>
       <r>  -0.1954  1.0000</r>
       <r>  -0.1954  1.0000</r>
       <r>   0.2510  1.0000</r>
       <r>   0.2510  1.0000</r>
       <r>   0.2653  1.0000</r>
       <r>   3.5908  0.0000</r>
       <r>   3.5908  0.0000</r>
       <r>   6.8026  0.0000</r>
       <r>   8.5883  0.0000</r>
       <r>  11.0825  0.0000</r>
       <r>  11.7215  0.0000</r>
       <r>  11.7215  0.0000</r>
      </set>
      <set comment="kpoint 41">
       <r>  -2.8053  1.0000</r>
       <r>  -2.4515  1.0000</r>
       <r>  -2.4113  1.0000</r>
       <r>  -2.3344  1.0000</r>
       <r>  -2.1423  1.0000</r>
       <r>  -2.1046  1.0000</r>
       <r>  -1.9727  1.0000</r>
       <r>  -1.6941  1.0000</r>
       <r>  -1.2251  1.0000</r>
       <r>  -1.1964  1.0000</r>
       <r>  -1.0881  1.0000</r>
       <r>  -1.0874  1.0000</r>
       <r>  -1.0481  1.0000</r>
       <r>  -0.6255  1.0000</r>
       <r>  -0.4421  1.0000</r>
       <r>  -0.3725  1.0000</r>
       <r>  -0.3110  1.0000</r>
       <r>   0.0057  1.0000</r>
       <r>   0.1342  1.0000</r>
       <r>   0.1962  1.0000</r>
       <r>   0.2015  1.0000</r>
       <r>   2.4992  1.0000</r>
       <r>   4.2407  0.0000</r>
       <r>   7.2948  0.0000</r>
       <r>   7.7240  0.0000</r>
       <r>  10.7677  0.0000</r>
       <r>  11.3589  0.0000</r>
       <r>  12.3347  0.0000</r>
      </set>
      <set comment="kpoint 42">
       <r>  -2.5110  1.0000</r>
       <r>  -2.3335  1.0000</r>
       <r>  -2.2735  1.0000</r>
       <r>  -2.1231  1.0000</r>
       <r>  -1.9689  1.0000</r>
       <r>  -1.9624  1.0000</r>
       <r>  -1.8514  1.0000</r>
       <r>  -1.7622  1.0000</r>
       <r>  -1.4760  1.0000</r>
       <r>  -1.3126  1.0000</r>
       <r>  -1.2902  1.0000</r>
       <r>  -1.2857  1.0000</r>
       <r>  -0.9550  1.0000</r>
       <r>  -0.5793  1.0000</r>
       <r>  -0.5438  1.0000</r>
       <r>  -0.4573  1.0000</r>
       <r>  -0.4536  1.0000</r>
       <r>  -0.0205  1.0000</r>
       <r>   0.1615  1.0000</r>
       <r>   0.1632  1.0000</r>
       <r>   0.3332  1.0000</r>
       <r>   1.5650  1.0000</r>
       <r>   4.9521  0.0000</r>
       <r>   6.5595  0.0000</r>
       <r>   8.2619  0.0000</r>
       <r>   9.8764  0.0000</r>
       <r>  11.7618  0.0000</r>
       <r>  12.9532  0.0000</r>
      </set>
      <set comment="kpoint 43">
       <r>  -2.3396  1.0000</r>
       <r>  -2.3396  1.0000</r>
       <r>  -2.0742  1.0000</r>
       <r>  -2.0742  1.0000</r>
       <r>  -1.9128  1.0000</r>
       <r>  -1.9128  1.0000</r>
       <r>  -1.8316  1.0000</r>
       <r>  -1.8316  1.0000</r>
       <r>  -1.4795  1.0000</r>
       <r>  -1.4795  1.0000</r>
       <r>  -1.3700  1.0000</r>
       <r>  -1.3700  1.0000</r>
       <r>  -0.7813  1.0000</r>
       <r>  -0.7813  1.0000</r>
       <r>  -0.5550  1.0000</r>
       <r>  -0.5550  1.0000</r>
       <r>  -0.2244  1.0000</r>
       <r>  -0.2244  1.0000</r>
       <r>   0.1506  1.0000</r>
       <r>   0.1506  1.0000</r>
       <r>   0.8366  1.0000</r>
       <r>   0.8366  1.0000</r>
       <r>   5.7234  0.0000</r>
       <r>   5.7234  0.0000</r>
       <r>   9.0416  0.0000</r>
       <r>   9.0416  0.0000</r>
       <r>  12.2972  0.0000</r>
       <r>  12.2972  0.0000</r>
      </set>
      <set comment="kpoint 44">
       <r>  -2.5835  1.0000</r>
       <r>  -2.3670  1.0000</r>
       <r>  -2.2612  1.0000</r>
       <r>  -2.2612  1.0000</r>
       <r>  -1.9323  1.0000</r>
       <r>  -1.9323  1.0000</r>
       <r>  -1.8094  1.0000</r>
       <r>  -1.6521  1.0000</r>
       <r>  -1.3915  1.0000</r>
       <r>  -1.3915  1.0000</r>
       <r>  -1.1930  1.0000</r>
       <r>  -1.1757  1.0000</r>
       <r>  -1.0586  1.0000</r>
       <r>  -0.6620  1.0000</r>
       <r>  -0.5717  1.0000</r>
       <r>  -0.4517  1.0000</r>
       <r>  -0.4517  1.0000</r>
       <r>   0.0505  1.0000</r>
       <r>   0.0505  1.0000</r>
       <r>   0.0931  1.0000</r>
       <r>   0.3319  1.0000</r>
       <r>   3.1247  1.0000</r>
       <r>   3.1247  1.0000</r>
       <r>   6.4011  0.0000</r>
       <r>   8.1474  0.0000</r>
       <r>  11.3475  0.0000</r>
       <r>  11.3475  0.0000</r>
       <r>  11.6917  0.0000</r>
      </set>
      <set comment="kpoint 45">
       <r>  -2.3889  1.0000</r>
       <r>  -2.2393  1.0000</r>
       <r>  -2.2265  1.0000</r>
       <r>  -2.0951  1.0000</r>
       <r>  -1.8471  1.0000</r>
       <r>  -1.7423  1.0000</r>
       <r>  -1.7241  1.0000</r>
       <r>  -1.6418  1.0000</r>
       <r>  -1.5222  1.0000</r>
       <r>  -1.5075  1.0000</r>
       <r>  -1.2974  1.0000</r>
       <r>  -1.2829  1.0000</r>
       <r>  -0.9727  1.0000</r>
       <r>  -0.6673  1.0000</r>
       <r>  -0.6344  1.0000</r>
       <r>  -0.5664  1.0000</r>
       <r>  -0.5518  1.0000</r>
       <r>  -0.1259  1.0000</r>
       <r>  -0.0080  1.0000</r>
       <r>   0.0144  1.0000</r>
       <r>   0.7741  1.0000</r>
       <r>   2.1591  1.0000</r>
       <r>   3.8175  0.0000</r>
       <r>   5.4432  0.0000</r>
       <r>   8.8390  0.0000</r>
       <r>  10.4402  0.0000</r>
       <r>  12.0370  0.0000</r>
       <r>  12.1531  0.0000</r>
      </set>
      <set comment="kpoint 46">
       <r>  -2.2628  1.0000</r>
       <r>  -2.2628  1.0000</r>
       <r>  -2.0874  1.0000</r>
       <r>  -2.0874  1.0000</r>
       <r>  -1.8323  1.0000</r>
       <r>  -1.8323  1.0000</r>
       <r>  -1.6284  1.0000</r>
       <r>  -1.6284  1.0000</r>
       <r>  -1.4705  1.0000</r>
       <r>  -1.4705  1.0000</r>
       <r>  -1.3936  1.0000</r>
       <r>  -1.3936  1.0000</r>
       <r>  -0.8197  1.0000</r>
       <r>  -0.8197  1.0000</r>
       <r>  -0.6671  1.0000</r>
       <r>  -0.6671  1.0000</r>
       <r>  -0.3389  1.0000</r>
       <r>  -0.3389  1.0000</r>
       <r>  -0.0208  1.0000</r>
       <r>  -0.0208  1.0000</r>
       <r>   1.3734  1.0000</r>
       <r>   1.3734  1.0000</r>
       <r>   4.5853  0.0000</r>
       <r>   4.5853  0.0000</r>
       <r>   9.6063  0.0000</r>
       <r>   9.6063  0.0000</r>
       <r>  12.7486  0.0000</r>
       <r>  12.7486  0.0000</r>
      </set>
      <set comment="kpoint 47">
       <r>  -2.2874  1.0000</r>
       <r>  -2.1861  1.0000</r>
       <r>  -2.1358  1.0000</r>
       <r>  -2.1358  1.0000</r>
       <r>  -1.7062  1.0000</r>
       <r>  -1.7062  1.0000</r>
       <r>  -1.7028  1.0000</r>
       <r>  -1.6065  1.0000</r>
       <r>  -1.4541  1.0000</r>
       <r>  -1.4541  1.0000</r>
       <r>  -1.2598  1.0000</r>
       <r>  -1.2151  1.0000</r>
       <r>  -0.9916  1.0000</r>
       <r>  -0.7813  1.0000</r>
       <r>  -0.7212  1.0000</r>
       <r>  -0.7212  1.0000</r>
       <r>  -0.5431  1.0000</r>
       <r>  -0.1973  1.0000</r>
       <r>  -0.1973  1.0000</r>
       <r>  -0.1152  1.0000</r>
       <r>   1.3179  1.0000</r>
       <r>   2.8268  1.0000</r>
       <r>   2.8268  1.0000</r>
       <r>   4.4520  0.0000</r>
       <r>   9.5161  0.0000</r>
       <r>  11.1134  0.0000</r>
       <r>  11.1134  0.0000</r>
       <r>  12.6719  0.0000</r>
      </set>
      <set comment="kpoint 48">
       <r>  -2.2040  1.0000</r>
       <r>  -2.2040  1.0000</r>
       <r>  -2.1293  1.0000</r>
       <r>  -2.1293  1.0000</r>
       <r>  -1.7320  1.0000</r>
       <r>  -1.7320  1.0000</r>
       <r>  -1.6313  1.0000</r>
       <r>  -1.6313  1.0000</r>
       <r>  -1.3106  1.0000</r>
       <r>  -1.3106  1.0000</r>
       <r>  -1.2836  1.0000</r>
       <r>  -1.2836  1.0000</r>
       <r>  -0.8848  1.0000</r>
       <r>  -0.8848  1.0000</r>
       <r>  -0.8059  1.0000</r>
       <r>  -0.8059  1.0000</r>
       <r>  -0.3955  1.0000</r>
       <r>  -0.3955  1.0000</r>
       <r>  -0.1944  1.0000</r>
       <r>  -0.1944  1.0000</r>
       <r>   1.9945  1.0000</r>
       <r>   1.9945  1.0000</r>
       <r>   3.5846  0.0000</r>
       <r>   3.5846  0.0000</r>
       <r>  10.2750  0.0000</r>
       <r>  10.2750  0.0000</r>
       <r>  11.8818  0.0000</r>
       <r>  11.8818  0.0000</r>
      </set>
      <set comment="kpoint 49">
       <r>  -2.1647  1.0000</r>
       <r>  -2.1647  1.0000</r>
       <r>  -2.1647  1.0000</r>
       <r>  -2.1647  1.0000</r>
       <r>  -1.6721  1.0000</r>
       <r>  -1.6721  1.0000</r>
       <r>  -1.6721  1.0000</r>
       <r>  -1.6721  1.0000</r>
       <r>  -1.1986  1.0000</r>
       <r>  -1.1986  1.0000</r>
       <r>  -1.1986  1.0000</r>
       <r>  -1.1986  1.0000</r>
       <r>  -0.9187  1.0000</r>
       <r>  -0.9187  1.0000</r>
       <r>  -0.9187  1.0000</r>
       <r>  -0.9187  1.0000</r>
       <r>  -0.3385  1.0000</r>
       <r>  -0.3385  1.0000</r>
       <r>  -0.3385  1.0000</r>
       <r>  -0.3385  1.0000</r>
       <r>   2.7244  1.0000</r>
       <r>   2.7244  1.0000</r>
       <r>   2.7244  1.0000</r>
       <r>   2.7244  1.0000</r>
       <r>  11.0345  0.0000</r>
       <r>  11.0345  0.0000</r>
       <r>  11.0345  0.0000</r>
       <r>  11.0345  0.0000</r>
      </set>
      <set comment="kpoint 50">
       <r>  -3.5104  1.0000</r>
       <r>  -2.7047  1.0000</r>
       <r>  -2.7047  1.0000</r>
       <r>  -2.7047  1.0000</r>
       <r>  -2.4622  1.0000</r>
       <r>  -2.4622  1.0000</r>
       <r>  -2.4622  1.0000</r>
       <r>  -1.5396  1.0000</r>
       <r>  -1.2796  1.0000</r>
       <r>  -1.2796  1.0000</r>
       <r>  -0.4835  1.0000</r>
       <r>  -0.4835  1.0000</r>
       <r>  -0.3988  1.0000</r>
       <r>  -0.3988  1.0000</r>
       <r>  -0.3988  1.0000</r>
       <r>  -0.1808  1.0000</r>
       <r>  -0.1808  1.0000</r>
       <r>  -0.1808  1.0000</r>
       <r>   0.3897  1.0000</r>
       <r>   0.3897  1.0000</r>
       <r>   0.3897  1.0000</r>
       <r>   4.5549  0.0000</r>
       <r>   4.5549  0.0000</r>
       <r>   4.5549  0.0000</r>
       <r>  11.0397  0.0000</r>
       <r>  11.0397  0.0000</r>
       <r>  11.0397  0.0000</r>
       <r>  12.2432  0.0000</r>
      </set>
      <set comment="kpoint 51">
       <r>  -3.2464  1.0000</r>
       <r>  -2.6168  1.0000</r>
       <r>  -2.6046  1.0000</r>
       <r>  -2.6046  1.0000</r>
       <r>  -2.3352  1.0000</r>
       <r>  -2.2752  1.0000</r>
       <r>  -2.2752  1.0000</r>
       <r>  -1.5563  1.0000</r>
       <r>  -1.2299  1.0000</r>
       <r>  -1.2288  1.0000</r>
       <r>  -0.7177  1.0000</r>
       <r>  -0.7177  1.0000</r>
       <r>  -0.6049  1.0000</r>
       <r>  -0.5279  1.0000</r>
       <r>  -0.3701  1.0000</r>
       <r>  -0.3547  1.0000</r>
       <r>  -0.2879  1.0000</r>
       <r>  -0.2879  1.0000</r>
       <r>   0.3563  1.0000</r>
       <r>   0.3563  1.0000</r>
       <r>   0.3613  1.0000</r>
       <r>   3.3678  0.0000</r>
       <r>   5.0880  0.0000</r>
       <r>   5.0880  0.0000</r>
       <r>   9.9990  0.0000</r>
       <r>   9.9990  0.0000</r>
       <r>  11.5588  0.0000</r>
       <r>  12.4034  0.0000</r>
      </set>
      <set comment="kpoint 52">
       <r>  -2.9316  1.0000</r>
       <r>  -2.5249  1.0000</r>
       <r>  -2.4500  1.0000</r>
       <r>  -2.4500  1.0000</r>
       <r>  -2.1639  1.0000</r>
       <r>  -2.0812  1.0000</r>
       <r>  -2.0812  1.0000</r>
       <r>  -1.6204  1.0000</r>
       <r>  -1.2014  1.0000</r>
       <r>  -1.1503  1.0000</r>
       <r>  -1.0568  1.0000</r>
       <r>  -1.0568  1.0000</r>
       <r>  -0.8514  1.0000</r>
       <r>  -0.5428  1.0000</r>
       <r>  -0.4344  1.0000</r>
       <r>  -0.3990  1.0000</r>
       <r>  -0.3990  1.0000</r>
       <r>  -0.2326  1.0000</r>
       <r>   0.2935  1.0000</r>
       <r>   0.3104  1.0000</r>
       <r>   0.3104  1.0000</r>
       <r>   2.2596  1.0000</r>
       <r>   5.7191  0.0000</r>
       <r>   5.7191  0.0000</r>
       <r>   9.0221  0.0000</r>
       <r>   9.0221  0.0000</r>
       <r>  12.1848  0.0000</r>
       <r>  12.6905  0.0000</r>
      </set>
      <set comment="kpoint 53">
       <r>  -2.6413  1.0000</r>
       <r>  -2.4583  1.0000</r>
       <r>  -2.2535  1.0000</r>
       <r>  -2.2535  1.0000</r>
       <r>  -1.9717  1.0000</r>
       <r>  -1.9653  1.0000</r>
       <r>  -1.9653  1.0000</r>
       <r>  -1.6982  1.0000</r>
       <r>  -1.3155  1.0000</r>
       <r>  -1.3155  1.0000</r>
       <r>  -1.2575  1.0000</r>
       <r>  -1.0954  1.0000</r>
       <r>  -1.0385  1.0000</r>
       <r>  -0.7275  1.0000</r>
       <r>  -0.5154  1.0000</r>
       <r>  -0.5154  1.0000</r>
       <r>  -0.0877  1.0000</r>
       <r>  -0.0847  1.0000</r>
       <r>   0.1902  1.0000</r>
       <r>   0.2767  1.0000</r>
       <r>   0.2767  1.0000</r>
       <r>   1.2898  1.0000</r>
       <r>   6.3974  0.0000</r>
       <r>   6.3974  0.0000</r>
       <r>   8.1492  0.0000</r>
       <r>   8.1492  0.0000</r>
       <r>  12.9135  0.0000</r>
       <r>  13.0725  0.0000</r>
      </set>
      <set comment="kpoint 54">
       <r>  -2.4743  1.0000</r>
       <r>  -2.4743  1.0000</r>
       <r>  -2.0773  1.0000</r>
       <r>  -2.0773  1.0000</r>
       <r>  -2.0235  1.0000</r>
       <r>  -2.0235  1.0000</r>
       <r>  -1.8032  1.0000</r>
       <r>  -1.8032  1.0000</r>
       <r>  -1.3993  1.0000</r>
       <r>  -1.3993  1.0000</r>
       <r>  -1.2568  1.0000</r>
       <r>  -1.2568  1.0000</r>
       <r>  -0.8958  1.0000</r>
       <r>  -0.8958  1.0000</r>
       <r>  -0.5713  1.0000</r>
       <r>  -0.5713  1.0000</r>
       <r>   0.0604  1.0000</r>
       <r>   0.0604  1.0000</r>
       <r>   0.2650  1.0000</r>
       <r>   0.2650  1.0000</r>
       <r>   0.4973  1.0000</r>
       <r>   0.4973  1.0000</r>
       <r>   6.8925  0.0000</r>
       <r>   6.8925  0.0000</r>
       <r>   7.5916  0.0000</r>
       <r>   7.5916  0.0000</r>
       <r>  13.3720  0.0000</r>
       <r>  13.3720  0.0000</r>
      </set>
      <set comment="kpoint 55">
       <r>  -3.0491  1.0000</r>
       <r>  -2.5485  1.0000</r>
       <r>  -2.5383  1.0000</r>
       <r>  -2.5383  1.0000</r>
       <r>  -2.1456  1.0000</r>
       <r>  -2.1456  1.0000</r>
       <r>  -2.0940  1.0000</r>
       <r>  -1.4657  1.0000</r>
       <r>  -1.2264  1.0000</r>
       <r>  -1.2133  1.0000</r>
       <r>  -0.8938  1.0000</r>
       <r>  -0.8938  1.0000</r>
       <r>  -0.8631  1.0000</r>
       <r>  -0.5083  1.0000</r>
       <r>  -0.4650  1.0000</r>
       <r>  -0.4500  1.0000</r>
       <r>  -0.4500  1.0000</r>
       <r>  -0.2776  1.0000</r>
       <r>   0.3237  1.0000</r>
       <r>   0.3415  1.0000</r>
       <r>   0.3415  1.0000</r>
       <r>   3.8615  0.0000</r>
       <r>   3.8615  0.0000</r>
       <r>   5.5456  0.0000</r>
       <r>   8.8699  0.0000</r>
       <r>  10.4617  0.0000</r>
       <r>  10.4617  0.0000</r>
       <r>  12.6204  0.0000</r>
      </set>
      <set comment="kpoint 56">
       <r>  -2.8274  1.0000</r>
       <r>  -2.4801  1.0000</r>
       <r>  -2.4416  1.0000</r>
       <r>  -2.4097  1.0000</r>
       <r>  -1.9695  1.0000</r>
       <r>  -1.9659  1.0000</r>
       <r>  -1.9322  1.0000</r>
       <r>  -1.4421  1.0000</r>
       <r>  -1.2037  1.0000</r>
       <r>  -1.1782  1.0000</r>
       <r>  -1.1671  1.0000</r>
       <r>  -1.0840  1.0000</r>
       <r>  -1.0657  1.0000</r>
       <r>  -0.6328  1.0000</r>
       <r>  -0.5826  1.0000</r>
       <r>  -0.5311  1.0000</r>
       <r>  -0.4316  1.0000</r>
       <r>  -0.0691  1.0000</r>
       <r>   0.2676  1.0000</r>
       <r>   0.2828  1.0000</r>
       <r>   0.2849  1.0000</r>
       <r>   2.7187  1.0000</r>
       <r>   4.4536  0.0000</r>
       <r>   6.0669  0.0000</r>
       <r>   7.8950  0.0000</r>
       <r>   9.4617  0.0000</r>
       <r>  11.0606  0.0000</r>
       <r>  12.9479  0.0000</r>
      </set>
      <set comment="kpoint 57">
       <r>  -2.6292  1.0000</r>
       <r>  -2.4563  1.0000</r>
       <r>  -2.2943  1.0000</r>
       <r>  -2.2495  1.0000</r>
       <r>  -1.9192  1.0000</r>
       <r>  -1.8845  1.0000</r>
       <r>  -1.7527  1.0000</r>
       <r>  -1.4474  1.0000</r>
       <r>  -1.3022  1.0000</r>
       <r>  -1.2867  1.0000</r>
       <r>  -1.2538  1.0000</r>
       <r>  -1.1992  1.0000</r>
       <r>  -1.0953  1.0000</r>
       <r>  -0.8127  1.0000</r>
       <r>  -0.6722  1.0000</r>
       <r>  -0.6278  1.0000</r>
       <r>  -0.1956  1.0000</r>
       <r>   0.1809  1.0000</r>
       <r>   0.2184  1.0000</r>
       <r>   0.2264  1.0000</r>
       <r>   0.2758  1.0000</r>
       <r>   1.7100  1.0000</r>
       <r>   5.1129  0.0000</r>
       <r>   6.3350  0.0000</r>
       <r>   7.3650  0.0000</r>
       <r>   8.5684  0.0000</r>
       <r>  11.7714  0.0000</r>
       <r>  13.3917  0.0000</r>
      </set>
      <set comment="kpoint 58">
       <r>  -2.4995  1.0000</r>
       <r>  -2.4995  1.0000</r>
       <r>  -2.1617  1.0000</r>
       <r>  -2.1617  1.0000</r>
       <r>  -1.9609  1.0000</r>
       <r>  -1.9609  1.0000</r>
       <r>  -1.5379  1.0000</r>
       <r>  -1.5379  1.0000</r>
       <r>  -1.3619  1.0000</r>
       <r>  -1.3619  1.0000</r>
       <r>  -1.2495  1.0000</r>
       <r>  -1.2495  1.0000</r>
       <r>  -0.9709  1.0000</r>
       <r>  -0.9709  1.0000</r>
       <r>  -0.6977  1.0000</r>
       <r>  -0.6977  1.0000</r>
       <r>   0.0254  1.0000</r>
       <r>   0.0254  1.0000</r>
       <r>   0.2017  1.0000</r>
       <r>   0.2017  1.0000</r>
       <r>   0.8761  1.0000</r>
       <r>   0.8761  1.0000</r>
       <r>   5.8086  0.0000</r>
       <r>   5.8086  0.0000</r>
       <r>   7.8013  0.0000</r>
       <r>   7.8013  0.0000</r>
       <r>  12.5737  0.0000</r>
       <r>  12.5737  0.0000</r>
      </set>
      <set comment="kpoint 59">
       <r>  -2.7109  1.0000</r>
       <r>  -2.3977  1.0000</r>
       <r>  -2.3977  1.0000</r>
       <r>  -2.3977  1.0000</r>
       <r>  -1.8187  1.0000</r>
       <r>  -1.8086  1.0000</r>
       <r>  -1.8086  1.0000</r>
       <r>  -1.3801  1.0000</r>
       <r>  -1.2580  1.0000</r>
       <r>  -1.2580  1.0000</r>
       <r>  -1.1924  1.0000</r>
       <r>  -1.0815  1.0000</r>
       <r>  -1.0815  1.0000</r>
       <r>  -0.7328  1.0000</r>
       <r>  -0.6916  1.0000</r>
       <r>  -0.6916  1.0000</r>
       <r>  -0.4578  1.0000</r>
       <r>   0.1989  1.0000</r>
       <r>   0.2171  1.0000</r>
       <r>   0.2171  1.0000</r>
       <r>   0.2549  1.0000</r>
       <r>   3.2844  1.0000</r>
       <r>   3.2844  1.0000</r>
       <r>   6.1323  0.0000</r>
       <r>   7.2895  0.0000</r>
       <r>  10.0390  0.0000</r>
       <r>  10.0390  0.0000</r>
       <r>  13.3100  0.0000</r>
      </set>
      <set comment="kpoint 60">
       <r>  -2.5967  1.0000</r>
       <r>  -2.4273  1.0000</r>
       <r>  -2.3293  1.0000</r>
       <r>  -2.3083  1.0000</r>
       <r>  -1.8020  1.0000</r>
       <r>  -1.7979  1.0000</r>
       <r>  -1.6256  1.0000</r>
       <r>  -1.4094  1.0000</r>
       <r>  -1.2967  1.0000</r>
       <r>  -1.2289  1.0000</r>
       <r>  -1.1815  1.0000</r>
       <r>  -1.0737  1.0000</r>
       <r>  -1.0461  1.0000</r>
       <r>  -0.8530  1.0000</r>
       <r>  -0.8279  1.0000</r>
       <r>  -0.7614  1.0000</r>
       <r>  -0.3093  1.0000</r>
       <r>   0.0978  1.0000</r>
       <r>   0.1315  1.0000</r>
       <r>   0.1411  1.0000</r>
       <r>   0.7224  1.0000</r>
       <r>   2.2513  1.0000</r>
       <r>   3.9347  0.0000</r>
       <r>   5.4577  0.0000</r>
       <r>   7.6433  0.0000</r>
       <r>   9.1247  0.0000</r>
       <r>  10.7310  0.0000</r>
       <r>  12.3989  0.0000</r>
      </set>
      <set comment="kpoint 61">
       <r>  -2.4974  1.0000</r>
       <r>  -2.4974  1.0000</r>
       <r>  -2.2771  1.0000</r>
       <r>  -2.2771  1.0000</r>
       <r>  -1.8288  1.0000</r>
       <r>  -1.8288  1.0000</r>
       <r>  -1.4804  1.0000</r>
       <r>  -1.4804  1.0000</r>
       <r>  -1.2523  1.0000</r>
       <r>  -1.2523  1.0000</r>
       <r>  -1.1084  1.0000</r>
       <r>  -1.1084  1.0000</r>
       <r>  -0.9869  1.0000</r>
[...]
       <r>   2.7535  1.0000</r>
       <r>   2.7535  1.0000</r>
       <r>   2.7535  1.0000</r>
       <r>   9.7174  0.0000</r>
       <r>   9.7174  0.0000</r>
       <r>   9.7174  0.0000</r>
       <r>   9.7174  0.0000</r>
      </set>
      <set comment="kpoint 65">
       <r>  -2.9481  1.0000</r>
       <r>  -2.5171  1.0000</r>
       <r>  -2.5171  1.0000</r>
       <r>  -2.5171  1.0000</r>
       <r>  -1.9728  1.0000</r>
       <r>  -1.9728  1.0000</r>
       <r>  -1.9728  1.0000</r>
       <r>  -1.2554  1.0000</r>
       <r>  -1.2554  1.0000</r>
       <r>  -1.1867  1.0000</r>
       <r>  -0.9734  1.0000</r>
       <r>  -0.9734  1.0000</r>
       <r>  -0.9734  1.0000</r>
       <r>  -0.6453  1.0000</r>
       <r>  -0.6453  1.0000</r>
       <r>  -0.6453  1.0000</r>
       <r>  -0.3377  1.0000</r>
       <r>  -0.3377  1.0000</r>
       <r>   0.3541  1.0000</r>
       <r>   0.3541  1.0000</r>
       <r>   0.3541  1.0000</r>
       <r>   4.2681  0.0000</r>
       <r>   4.2681  0.0000</r>
       <r>   4.2681  0.0000</r>
       <r>   9.3159  0.0000</r>
       <r>   9.3159  0.0000</r>
       <r>   9.3159  0.0000</r>
       <r>  14.3025  0.0000</r>
      </set>
      <set comment="kpoint 66">
       <r>  -2.8310  1.0000</r>
       <r>  -2.5088  1.0000</r>
       <r>  -2.4554  1.0000</r>
       <r>  -2.4554  1.0000</r>
       <r>  -1.8497  1.0000</r>
       <r>  -1.8497  1.0000</r>
       <r>  -1.8058  1.0000</r>
       <r>  -1.2970  1.0000</r>
       <r>  -1.2487  1.0000</r>
       <r>  -1.0783  1.0000</r>
       <r>  -1.0727  1.0000</r>
       <r>  -1.0727  1.0000</r>
       <r>  -0.9863  1.0000</r>
       <r>  -0.8235  1.0000</r>
       <r>  -0.7469  1.0000</r>
       <r>  -0.7469  1.0000</r>
       <r>  -0.2141  1.0000</r>
       <r>  -0.1583  1.0000</r>
       <r>   0.3122  1.0000</r>
       <r>   0.3122  1.0000</r>
       <r>   0.3377  1.0000</r>
       <r>   3.0739  1.0000</r>
       <r>   4.7618  0.0000</r>
       <r>   4.7618  0.0000</r>
       <r>   8.3128  0.0000</r>
       <r>   8.3128  0.0000</r>
       <r>   9.9012  0.0000</r>
       <r>  13.2523  0.0000</r>
      </set>
      <set comment="kpoint 67">
       <r>  -2.7128  1.0000</r>
       <r>  -2.5386  1.0000</r>
       <r>  -2.3748  1.0000</r>
       <r>  -2.3748  1.0000</r>
       <r>  -1.8418  1.0000</r>
       <r>  -1.8418  1.0000</r>
       <r>  -1.6160  1.0000</r>
       <r>  -1.3539  1.0000</r>
       <r>  -1.2005  1.0000</r>
       <r>  -1.1416  1.0000</r>
       <r>  -1.0699  1.0000</r>
       <r>  -1.0699  1.0000</r>
       <r>  -1.0275  1.0000</r>
       <r>  -0.9824  1.0000</r>
       <r>  -0.8187  1.0000</r>
       <r>  -0.8187  1.0000</r>
       <r>   0.0124  1.0000</r>
       <r>   0.2555  1.0000</r>
       <r>   0.2555  1.0000</r>
       <r>   0.2713  1.0000</r>
       <r>   0.2968  1.0000</r>
       <r>   1.9979  1.0000</r>
       <r>   5.2675  0.0000</r>
       <r>   5.2675  0.0000</r>
       <r>   7.5089  0.0000</r>
       <r>   7.5089  0.0000</r>
       <r>  10.6019  0.0000</r>
       <r>  12.2848  0.0000</r>
      </set>
      <set comment="kpoint 68">
       <r>  -2.6098  1.0000</r>
       <r>  -2.6098  1.0000</r>
       <r>  -2.3307  1.0000</r>
       <r>  -2.3307  1.0000</r>
       <r>  -1.8721  1.0000</r>
       <r>  -1.8721  1.0000</r>
       <r>  -1.4505  1.0000</r>
       <r>  -1.4505  1.0000</r>
       <r>  -1.1257  1.0000</r>
       <r>  -1.1257  1.0000</r>
       <r>  -1.1105  1.0000</r>
       <r>  -1.1105  1.0000</r>
       <r>  -1.0203  1.0000</r>
       <r>  -1.0203  1.0000</r>
       <r>  -0.8684  1.0000</r>
       <r>  -0.8684  1.0000</r>
       <r>   0.1598  1.0000</r>
       <r>   0.1598  1.0000</r>
       <r>   0.2293  1.0000</r>
       <r>   0.2293  1.0000</r>
       <r>   1.0624  1.0000</r>
       <r>   1.0624  1.0000</r>
       <r>   5.5436  0.0000</r>
       <r>   5.5436  0.0000</r>
       <r>   7.1347  0.0000</r>
       <r>   7.1347  0.0000</r>
       <r>  11.4000  0.0000</r>
       <r>  11.4000  0.0000</r>
      </set>
      <set comment="kpoint 69">
       <r>  -2.8048  1.0000</r>
       <r>  -2.5065  1.0000</r>
       <r>  -2.5065  1.0000</r>
       <r>  -2.4744  1.0000</r>
       <r>  -1.7766  1.0000</r>
       <r>  -1.7287  1.0000</r>
       <r>  -1.7287  1.0000</r>
       <r>  -1.3166  1.0000</r>
       <r>  -1.2890  1.0000</r>
       <r>  -1.0608  1.0000</r>
       <r>  -1.0608  1.0000</r>
       <r>  -0.9527  1.0000</r>
       <r>  -0.9102  1.0000</r>
       <r>  -0.8910  1.0000</r>
       <r>  -0.8910  1.0000</r>
       <r>  -0.6292  1.0000</r>
       <r>  -0.2500  1.0000</r>
       <r>   0.1316  1.0000</r>
       <r>   0.2855  1.0000</r>
       <r>   0.3104  1.0000</r>
       <r>   0.3104  1.0000</r>
       <r>   3.5408  0.0000</r>
       <r>   3.5408  0.0000</r>
       <r>   5.0641  0.0000</r>
       <r>   7.4142  0.0000</r>
       <r>   8.8739  0.0000</r>
       <r>   8.8739  0.0000</r>
       <r>  12.1879  0.0000</r>
      </set>
      <set comment="kpoint 70">
       <r>  -2.7493  1.0000</r>
       <r>  -2.5849  1.0000</r>
       <r>  -2.4894  1.0000</r>
       <r>  -2.4761  1.0000</r>
       <r>  -1.7589  1.0000</r>
       <r>  -1.7391  1.0000</r>
       <r>  -1.5947  1.0000</r>
       <r>  -1.3814  1.0000</r>
       <r>  -1.2697  1.0000</r>
       <r>  -1.1078  1.0000</r>
       <r>  -1.0452  1.0000</r>
       <r>  -1.0025  1.0000</r>
       <r>  -0.9040  1.0000</r>
       <r>  -0.8410  1.0000</r>
       <r>  -0.8371  1.0000</r>
       <r>  -0.6383  1.0000</r>
       <r>  -0.0585  1.0000</r>
       <r>   0.2326  1.0000</r>
       <r>   0.2468  1.0000</r>
       <r>   0.2519  1.0000</r>
       <r>   0.6736  1.0000</r>
       <r>   2.4355  1.0000</r>
       <r>   4.0897  0.0000</r>
       <r>   5.0908  0.0000</r>
       <r>   7.0274  0.0000</r>
       <r>   7.9980  0.0000</r>
       <r>   9.5539  0.0000</r>
       <r>  11.2163  0.0000</r>
      </set>
      <set comment="kpoint 71">
       <r>  -2.6717  1.0000</r>
       <r>  -2.6717  1.0000</r>
       <r>  -2.4770  1.0000</r>
       <r>  -2.4770  1.0000</r>
       <r>  -1.7589  1.0000</r>
       <r>  -1.7589  1.0000</r>
       <r>  -1.4750  1.0000</r>
       <r>  -1.4750  1.0000</r>
       <r>  -1.2035  1.0000</r>
       <r>  -1.2035  1.0000</r>
       <r>  -1.0354  1.0000</r>
       <r>  -1.0354  1.0000</r>
       <r>  -0.7923  1.0000</r>
       <r>  -0.7923  1.0000</r>
       <r>  -0.7857  1.0000</r>
       <r>  -0.7857  1.0000</r>
       <r>   0.1316  1.0000</r>
       <r>   0.1316  1.0000</r>
       <r>   0.2083  1.0000</r>
       <r>   0.2083  1.0000</r>
       <r>   1.4675  1.0000</r>
       <r>   1.4675  1.0000</r>
       <r>   4.6666  0.0000</r>
       <r>   4.6666  0.0000</r>
       <r>   7.3223  0.0000</r>
       <r>   7.3223  0.0000</r>
       <r>  10.3374  0.0000</r>
       <r>  10.3374  0.0000</r>
      </set>
      <set comment="kpoint 72">
       <r>  -2.7395  1.0000</r>
       <r>  -2.6006  1.0000</r>
       <r>  -2.6006  1.0000</r>
       <r>  -2.5472  1.0000</r>
       <r>  -1.6909  1.0000</r>
       <r>  -1.6182  1.0000</r>
       <r>  -1.6182  1.0000</r>
       <r>  -1.4223  1.0000</r>
       <r>  -1.2970  1.0000</r>
       <r>  -1.1593  1.0000</r>
       <r>  -1.1593  1.0000</r>
       <r>  -1.1164  1.0000</r>
       <r>  -0.6869  1.0000</r>
       <r>  -0.6869  1.0000</r>
       <r>  -0.6576  1.0000</r>
       <r>  -0.4070  1.0000</r>
       <r>  -0.1195  1.0000</r>
       <r>   0.1711  1.0000</r>
       <r>   0.1762  1.0000</r>
       <r>   0.1762  1.0000</r>
       <r>   1.2700  1.0000</r>
       <r>   3.0050  1.0000</r>
       <r>   3.0050  1.0000</r>
       <r>   4.4408  0.0000</r>
       <r>   7.2668  0.0000</r>
       <r>   8.6359  0.0000</r>
       <r>   8.6359  0.0000</r>
       <r>  10.2514  0.0000</r>
      </set>
      <set comment="kpoint 73">
       <r>  -2.6876  1.0000</r>
       <r>  -2.6876  1.0000</r>
       <r>  -2.5881  1.0000</r>
       <r>  -2.5881  1.0000</r>
       <r>  -1.6476  1.0000</r>
       <r>  -1.6476  1.0000</r>
       <r>  -1.5062  1.0000</r>
       <r>  -1.5062  1.0000</r>
       <r>  -1.2539  1.0000</r>
       <r>  -1.2539  1.0000</r>
       <r>  -1.1673  1.0000</r>
       <r>  -1.1673  1.0000</r>
       <r>  -0.5831  1.0000</r>
       <r>  -0.5831  1.0000</r>
       <r>  -0.5109  1.0000</r>
       <r>  -0.5109  1.0000</r>
       <r>   0.0368  1.0000</r>
       <r>   0.0368  1.0000</r>
       <r>   0.1308  1.0000</r>
       <r>   0.1308  1.0000</r>
       <r>   2.0553  1.0000</r>
       <r>   2.0553  1.0000</r>
       <r>   3.6877  0.0000</r>
       <r>   3.6877  0.0000</r>
       <r>   7.8601  0.0000</r>
       <r>   7.8601  0.0000</r>
       <r>   9.3904  0.0000</r>
       <r>   9.3904  0.0000</r>
      </set>
      <set comment="kpoint 74">
       <r>  -2.6592  1.0000</r>
       <r>  -2.6592  1.0000</r>
       <r>  -2.6592  1.0000</r>
       <r>  -2.6592  1.0000</r>
       <r>  -1.5589  1.0000</r>
       <r>  -1.5589  1.0000</r>
       <r>  -1.5589  1.0000</r>
       <r>  -1.5589  1.0000</r>
       <r>  -1.2455  1.0000</r>
       <r>  -1.2455  1.0000</r>
       <r>  -1.2455  1.0000</r>
       <r>  -1.2455  1.0000</r>
       <r>  -0.4395  1.0000</r>
       <r>  -0.4395  1.0000</r>
       <r>  -0.4395  1.0000</r>
       <r>  -0.4395  1.0000</r>
       <r>   0.0291  1.0000</r>
       <r>   0.0291  1.0000</r>
       <r>   0.0291  1.0000</r>
       <r>   0.0291  1.0000</r>
       <r>   2.8014  1.0000</r>
       <r>   2.8014  1.0000</r>
       <r>   2.8014  1.0000</r>
       <r>   2.8014  1.0000</r>
       <r>   8.5617  0.0000</r>
       <r>   8.5617  0.0000</r>
       <r>   8.5617  0.0000</r>
       <r>   8.5617  0.0000</r>
      </set>
      <set comment="kpoint 75">
       <r>  -2.8475  1.0000</r>
       <r>  -2.5833  1.0000</r>
       <r>  -2.5833  1.0000</r>
       <r>  -2.5833  1.0000</r>
       <r>  -1.6865  1.0000</r>
       <r>  -1.6865  1.0000</r>
       <r>  -1.6865  1.0000</r>
       <r>  -1.3405  1.0000</r>
       <r>  -1.3405  1.0000</r>
       <r>  -1.0732  1.0000</r>
       <r>  -1.0732  1.0000</r>
       <r>  -1.0732  1.0000</r>
       <r>  -0.7982  1.0000</r>
       <r>  -0.7982  1.0000</r>
       <r>  -0.7982  1.0000</r>
       <r>  -0.0556  1.0000</r>
       <r>  -0.0556  1.0000</r>
       <r>   0.0453  1.0000</r>
       <r>   0.3257  1.0000</r>
       <r>   0.3257  1.0000</r>
       <r>   0.3257  1.0000</r>
       <r>   3.8653  0.0000</r>
       <r>   3.8653  0.0000</r>
       <r>   3.8653  0.0000</r>
       <r>   7.8934  0.0000</r>
       <r>   7.8934  0.0000</r>
       <r>   7.8934  0.0000</r>
       <r>  11.1157  0.0000</r>
      </set>
      <set comment="kpoint 76">
       <r>  -2.8389  1.0000</r>
       <r>  -2.6944  1.0000</r>
       <r>  -2.6283  1.0000</r>
       <r>  -2.6283  1.0000</r>
       <r>  -1.6718  1.0000</r>
       <r>  -1.6718  1.0000</r>
       <r>  -1.5782  1.0000</r>
       <r>  -1.3958  1.0000</r>
       <r>  -1.3435  1.0000</r>
       <r>  -1.2056  1.0000</r>
       <r>  -1.1582  1.0000</r>
       <r>  -1.1582  1.0000</r>
       <r>  -0.6206  1.0000</r>
       <r>  -0.5998  1.0000</r>
       <r>  -0.5998  1.0000</r>
       <r>  -0.2256  1.0000</r>
       <r>   0.1107  1.0000</r>
       <r>   0.2874  1.0000</r>
       <r>   0.2874  1.0000</r>
       <r>   0.3094  1.0000</r>
       <r>   0.8087  1.0000</r>
       <r>   2.7372  1.0000</r>
       <r>   4.1836  0.0000</r>
       <r>   4.1836  0.0000</r>
       <r>   7.1785  0.0000</r>
       <r>   7.1785  0.0000</r>
       <r>   8.5285  0.0000</r>
       <r>  10.1474  0.0000</r>
      </set>
      <set comment="kpoint 77">
       <r>  -2.7847  1.0000</r>
       <r>  -2.7847  1.0000</r>
       <r>  -2.6431  1.0000</r>
       <r>  -2.6431  1.0000</r>
       <r>  -1.6699  1.0000</r>
       <r>  -1.6699  1.0000</r>
       <r>  -1.4768  1.0000</r>
       <r>  -1.4768  1.0000</r>
       <r>  -1.2977  1.0000</r>
       <r>  -1.2977  1.0000</r>
       <r>  -1.1854  1.0000</r>
       <r>  -1.1854  1.0000</r>
       <r>  -0.5140  1.0000</r>
       <r>  -0.5140  1.0000</r>
       <r>  -0.4256  1.0000</r>
       <r>  -0.4256  1.0000</r>
       <r>   0.2358  1.0000</r>
       <r>   0.2358  1.0000</r>
       <r>   0.2581  1.0000</r>
       <r>   0.2581  1.0000</r>
       <r>   1.7143  1.0000</r>
       <r>   1.7143  1.0000</r>
       <r>   4.3330  0.0000</r>
       <r>   4.3330  0.0000</r>
       <r>   6.8962  0.0000</r>
       <r>   6.8962  0.0000</r>
       <r>   9.2837  0.0000</r>
       <r>   9.2837  0.0000</r>
      </set>
      <set comment="kpoint 78">
       <r>  -2.8668  1.0000</r>
       <r>  -2.7539  1.0000</r>
       <r>  -2.7539  1.0000</r>
       <r>  -2.7202  1.0000</r>
       <r>  -1.6151  1.0000</r>
       <r>  -1.5729  1.0000</r>
       <r>  -1.5729  1.0000</r>
       <r>  -1.4153  1.0000</r>
       <r>  -1.3891  1.0000</r>
       <r>  -1.2806  1.0000</r>
       <r>  -1.2806  1.0000</r>
       <r>  -1.2604  1.0000</r>
       <r>  -0.3654  1.0000</r>
       <r>  -0.3654  1.0000</r>
       <r>  -0.3647  1.0000</r>
       <r>   0.0270  1.0000</r>
       <r>   0.0609  1.0000</r>
       <r>   0.2670  1.0000</r>
       <r>   0.2810  1.0000</r>
       <r>   0.2810  1.0000</r>
       <r>   1.3685  1.0000</r>
       <r>   3.1552  1.0000</r>
       <r>   3.1552  1.0000</r>
       <r>   4.0434  0.0000</r>
       <r>   6.8571  0.0000</r>
       <r>   7.6854  0.0000</r>
       <r>   7.6854  0.0000</r>
       <r>   9.1978  0.0000</r>
      </set>
      <set comment="kpoint 79">
       <r>  -2.8365  1.0000</r>
       <r>  -2.8365  1.0000</r>
       <r>  -2.7624  1.0000</r>
       <r>  -2.7624  1.0000</r>
       <r>  -1.5820  1.0000</r>
       <r>  -1.5820  1.0000</r>
       <r>  -1.4829  1.0000</r>
       <r>  -1.4829  1.0000</r>
       <r>  -1.3602  1.0000</r>
       <r>  -1.3602  1.0000</r>
       <r>  -1.3021  1.0000</r>
       <r>  -1.3021  1.0000</r>
       <r>  -0.2555  1.0000</r>
       <r>  -0.2555  1.0000</r>
       <r>  -0.1441  1.0000</r>
       <r>  -0.1441  1.0000</r>
       <r>   0.2051  1.0000</r>
       <r>   0.2051  1.0000</r>
       <r>   0.2412  1.0000</r>
       <r>   0.2412  1.0000</r>
       <r>   2.1920  1.0000</r>
       <r>   2.1920  1.0000</r>
       <r>   3.6378  0.0000</r>
       <r>   3.6378  0.0000</r>
       <r>   7.0836  0.0000</r>
       <r>   7.0836  0.0000</r>
       <r>   8.3729  0.0000</r>
       <r>   8.3729  0.0000</r>
      </set>
      <set comment="kpoint 80">
       <r>  -2.8283  1.0000</r>
       <r>  -2.8283  1.0000</r>
       <r>  -2.8283  1.0000</r>
       <r>  -2.8283  1.0000</r>
       <r>  -1.5129  1.0000</r>
       <r>  -1.5129  1.0000</r>
       <r>  -1.5129  1.0000</r>
       <r>  -1.5129  1.0000</r>
       <r>  -1.3667  1.0000</r>
       <r>  -1.3667  1.0000</r>
       <r>  -1.3667  1.0000</r>
       <r>  -1.3667  1.0000</r>
       <r>  -0.0695  1.0000</r>
       <r>  -0.0695  1.0000</r>
       <r>  -0.0695  1.0000</r>
       <r>  -0.0695  1.0000</r>
       <r>   0.1739  1.0000</r>
       <r>   0.1739  1.0000</r>
       <r>   0.1739  1.0000</r>
       <r>   0.1739  1.0000</r>
       <r>   2.8643  1.0000</r>
       <r>   2.8643  1.0000</r>
       <r>   2.8643  1.0000</r>
       <r>   2.8643  1.0000</r>
       <r>   7.6237  0.0000</r>
       <r>   7.6237  0.0000</r>
       <r>   7.6237  0.0000</r>
       <r>   7.6237  0.0000</r>
      </set>
      <set comment="kpoint 81">
       <r>  -2.9258  1.0000</r>
       <r>  -2.8475  1.0000</r>
       <r>  -2.8475  1.0000</r>
       <r>  -2.8475  1.0000</r>
       <r>  -1.5374  1.0000</r>
       <r>  -1.5374  1.0000</r>
       <r>  -1.5374  1.0000</r>
       <r>  -1.4321  1.0000</r>
       <r>  -1.4321  1.0000</r>
       <r>  -1.3655  1.0000</r>
       <r>  -1.3655  1.0000</r>
       <r>  -1.3655  1.0000</r>
       <r>  -0.0990  1.0000</r>
       <r>  -0.0990  1.0000</r>
       <r>  -0.0990  1.0000</r>
       <r>   0.1991  1.0000</r>
       <r>   0.1991  1.0000</r>
       <r>   0.3064  1.0000</r>
       <r>   0.3064  1.0000</r>
       <r>   0.3064  1.0000</r>
       <r>   1.7797  1.0000</r>
       <r>   3.3053  0.8750</r>
       <r>   3.3053  0.8750</r>
       <r>   3.3053  0.8750</r>
       <r>   7.0299  0.0000</r>
       <r>   7.0299  0.0000</r>
       <r>   7.0299  0.0000</r>
       <r>   8.2911  0.0000</r>
      </set>
      <set comment="kpoint 82">
       <r>  -2.9182  1.0000</r>
       <r>  -2.9182  1.0000</r>
       <r>  -2.8790  1.0000</r>
       <r>  -2.8790  1.0000</r>
       <r>  -1.5225  1.0000</r>
       <r>  -1.5225  1.0000</r>
       <r>  -1.4735  1.0000</r>
       <r>  -1.4735  1.0000</r>
       <r>  -1.4240  1.0000</r>
       <r>  -1.4240  1.0000</r>
       <r>  -1.3967  1.0000</r>
       <r>  -1.3967  1.0000</r>
       <r>   0.0225  1.0000</r>
       <r>   0.0225  1.0000</r>
       <r>   0.1110  1.0000</r>
       <r>   0.1110  1.0000</r>
       <r>   0.2834  1.0000</r>
       <r>   0.2834  1.0000</r>
       <r>   0.2882  1.0000</r>
       <r>   0.2882  1.0000</r>
       <r>   2.4855  1.0000</r>
       <r>   2.4855  1.0000</r>
       <r>   3.3735  0.0000</r>
       <r>   3.3735  0.0000</r>
       <r>   6.7883  0.0000</r>
       <r>   6.7883  0.0000</r>
       <r>   7.5524  0.0000</r>
       <r>   7.5524  0.0000</r>
      </set>
      <set comment="kpoint 83">
       <r>  -2.9320  1.0000</r>
       <r>  -2.9320  1.0000</r>
       <r>  -2.9320  1.0000</r>
       <r>  -2.9320  1.0000</r>
       <r>  -1.4803  1.0000</r>
       <r>  -1.4803  1.0000</r>
       <r>  -1.4803  1.0000</r>
       <r>  -1.4803  1.0000</r>
       <r>  -1.4427  1.0000</r>
       <r>  -1.4427  1.0000</r>
       <r>  -1.4427  1.0000</r>
       <r>  -1.4427  1.0000</r>
       <r>   0.1996  1.0000</r>
       <r>   0.1996  1.0000</r>
       <r>   0.1996  1.0000</r>
       <r>   0.1996  1.0000</r>
       <r>   0.2673  1.0000</r>
       <r>   0.2673  1.0000</r>
       <r>   0.2673  1.0000</r>
       <r>   0.2673  1.0000</r>
       <r>   2.9270  1.0000</r>
       <r>   2.9270  1.0000</r>
       <r>   2.9270  1.0000</r>
       <r>   2.9270  1.0000</r>
       <r>   6.9880  0.0000</r>
       <r>   6.9880  0.0000</r>
       <r>   6.9880  0.0000</r>
       <r>   6.9880  0.0000</r>
      </set>
      <set comment="kpoint 84">
       <r>  -2.9669  1.0000</r>
       <r>  -2.9669  1.0000</r>
       <r>  -2.9669  1.0000</r>
       <r>  -2.9669  1.0000</r>
       <r>  -1.4685  1.0000</r>
       <r>  -1.4685  1.0000</r>
       <r>  -1.4685  1.0000</r>
       <r>  -1.4685  1.0000</r>
       <r>  -1.4685  1.0000</r>
       <r>  -1.4685  1.0000</r>
       <r>  -1.4685  1.0000</r>
       <r>  -1.4685  1.0000</r>
       <r>   0.2996  1.0000</r>
       <r>   0.2996  1.0000</r>
       <r>   0.2996  1.0000</r>
       <r>   0.2996  1.0000</r>
       <r>   0.2996  1.0000</r>
       <r>   0.2996  1.0000</r>
       <r>   0.2996  1.0000</r>
       <r>   0.2996  1.0000</r>
       <r>   2.9555  1.0000</r>
       <r>   2.9555  1.0000</r>
       <r>   2.9555  1.0000</r>
       <r>   2.9555  1.0000</r>
       <r>   6.7580  0.0000</r>
       <r>   6.7580  0.0000</r>
       <r>   6.7580  0.0000</r>
       <r>   6.7580  0.0000</r>
      </set>
     </set>
    </set>
   </array>
  </eigenvalues>
 </calculation>
 <structure name="finalpos" >
  <crystal>
   <varray name="basis" >
    <v>       4.12159253      0.00000000      0.00000000</v>
    <v>       0.00000000      4.12159253      0.00000000</v>
    <v>       0.00000000      0.00000000      4.12159253</v>
   </varray>
   <i name="volume">     70.01565627</i>
   <varray name="rec_basis" >
    <v>       0.24262466      0.00000000      0.00000000</v>
    <v>       0.00000000      0.24262466      0.00000000</v>
    <v>       0.00000000      0.00000000      0.24262466</v>
   </varray>
  </crystal>
  <varray name="positions" >
   <v>       0.00000000      0.00000000      0.00000000</v>
   <v>       0.50000000      0.50000000      0.00000000</v>
   <v>       0.50000000      0.00000000      0.50000000</v>
   <v>       0.00000000      0.50000000      0.50000000</v>
  </varray>
 </structure>
</modeling>
