       N       E                     dE             d eps       ncg     rms          rms(c)
DAV:   1    -0.102419708799E+03   -0.10242E+03   -0.35324E+00   432   0.417E+00    0.101E+00
DAV:   2    -0.102343216441E+03    0.76492E-01   -0.32304E-01   512   0.324E+00    0.526E-01
DAV:   3    -0.102336984747E+03    0.62317E-02   -0.38818E-02   508   0.121E+00    0.257E-01
DAV:   4    -0.102336923872E+03    0.60875E-04   -0.86351E-03   444   0.268E-01    0.129E-01
DAV:   5    -0.102336903957E+03    0.19916E-04   -0.50991E-04   464   0.102E-01    0.610E-02
DAV:   6    -0.102336922203E+03   -0.18247E-04   -0.15472E-04   436   0.400E-02    0.104E-02
DAV:   7    -0.102336917460E+03    0.47438E-05   -0.31775E-05   336   0.181E-02
   1 F= -.10233692E+03 E0= -.10228698E+03  d E =-.149809E+00
