 vasp.4.6.28 25Jul05 complex 
 executed on             LinuxIFC date 2016.08.29  18:58:41
 running on    4 nodes
 distr:  one band on    1 nodes,    4 groups


--------------------------------------------------------------------------------------------------------


 INCAR:
 POTCAR:   PAW_PBE Au 06Sep2000                   
 POTCAR:   PAW_PBE Au 06Sep2000                   
   VRHFIN =Au: s1d10                                                            
   LEXCH  = PE                                                                  
   EATOM  =   926.0567 eV,   68.0632 Ry                                         
                                                                                
   TITEL  = PAW_PBE Au 06Sep2000                                                
   LULTRA =        F    use ultrasoft PP ?                                      
   IUNSCR =        1    unscreen: 0-lin 1-nonlin 2-no                           
   RPACOR =    2.330    partial core radius                                     
   POMASS =  196.966; ZVAL   =   11.000    mass and valenz                      
   RCORE  =    2.500    outmost cutoff radius                                   
   RWIGS  =    2.840; RWIGS  =    1.503    wigner-seitz radius (au A)           
   ENMAX  =  229.948; ENMIN  =  172.461 eV                                      
   RCLOC  =    1.964    cutoff for local pot                                    
   LCOR   =        T    correct aug charges                                     
   LPAW   =        T    paw PP                                                  
   EAUG   =  356.670                                                            
   DEXC   =    -.025                                                            
   RMAX   =    3.041    core radius for proj-oper                               
   RAUG   =    1.300    factor for augmentation sphere                          
   RDEP   =    2.598    radius for radial grids                                 
   QCUT   =   -4.111; QGAM   =    8.222    optimization parameters              
                                                                                
   Description                                                                  
     l     E      TYP  RCUT    TYP  RCUT                                        
     2   .000     23  2.500                                                     
     2   .000     23  2.500                                                     
     0   .000     23  2.500                                                     
     0   .000     23  2.500                                                     
     1  -.200     23  2.500                                                     
     1   .000     23  2.500                                                     
     3   .000      7   .000                                                     
  local pseudopotential read in
  partial core-charges read in
  atomic valenz-charges read in
  non local Contribution for L=           2  read in
    real space projection operators read in
  non local Contribution for L=           2  read in
    real space projection operators read in
  non local Contribution for L=           0  read in
    real space projection operators read in
  non local Contribution for L=           0  read in
    real space projection operators read in
  non local Contribution for L=           1  read in
    real space projection operators read in
  non local Contribution for L=           1  read in
    real space projection operators read in
    PAW grid and wavefunctions read in
 
   number of l-projection  operators is LMAX  =           6
   number of lm-projection operators is LMMAX =          18
 

 ----------------------------------------------------------------------------- 
|                                                                             |
|  ADVICE TO THIS USER RUNNING 'VASP/VAMP'   (HEAR YOUR MASTER'S VOICE ...):  |
|                                                                             |
|      You have a (more or less) 'large supercell' and for larger cells       |
|      it might be more efficient to use real space projection operators      |
|      So try LREAL= Auto  in the INCAR   file.                               |
|      Mind: If you want to do an extremely accurate calculations keep the    |
|      reciprocal projection scheme          (i.e. LREAL=.FALSE.)             |
|                                                                             |
 ----------------------------------------------------------------------------- 

 PAW_PBE Au 06Sep2000                   :
 energy of atom  1       EATOM= -926.0567
 kinetic energy error for atom=    0.0708 (will be added to EATOM!!)
 
 EXHCAR: internal setup
 exchange correlation table for  LEXCH =        8
   RHO(1)=    0.500       N(1)  =     2000
   RHO(2)=  100.500       N(2)  =     4000
 
 POSCAR: No title                                
  positions in direct lattice
  No initial velocities read in
 


--------------------------------------------------------------------------------------------------------


 ion  position               nearest neighbor table
   1  0.750  0.750  0.500-   3 2.92  14 2.92  19 2.92  20 2.92   5 2.92  26 2.92   6 2.92  29 2.92
                            11 2.92  18 2.92  10 2.92   8 2.92
   2  0.750  0.750  0.000-   8 2.92  10 2.92  22 2.92  27 2.92  11 2.92  18 2.92  12 2.92  32 2.92
                             5 2.92  26 2.92   3 2.92  20 2.92
   3  0.750  0.000  0.250-   1 2.92   5 2.92   9 2.92  28 2.92  19 2.92  12 2.92  13 2.92  18 2.92
                            27 2.92   6 2.92   4 2.92   2 2.92
   4  0.750  0.250  0.500-   6 2.92   8 2.92  10 2.92  29 2.92  13 2.92  31 2.92  14 2.92  19 2.92
                            21 2.92  28 2.92   3 2.92  20 2.92
   5  0.000  0.750  0.250-   3 2.92  12 2.92  14 2.92  25 2.92  15 2.92   1 2.92  16 2.92  10 2.92
                             2 2.92   7 2.92  22 2.92   6 2.92
   6  0.000  0.000  0.500-   4 2.92   7 2.92  11 2.92  13 2.92   8 2.92  16 2.92   1 2.92  17 2.92
                             3 2.92  23 2.92  21 2.92   5 2.92
   7  0.250  0.750  0.500-   6 2.92  16 2.92  29 2.92  30 2.92  11 2.92  18 2.92  14 2.92  19 2.92
                             5 2.92  26 2.92  25 2.92  23 2.92
   8  0.750  0.000  0.750-   2 2.92   4 2.92  11 2.92  31 2.92  27 2.92   6 2.92  21 2.92  26 2.92
                            12 2.92  19 2.92   9 2.92   1 2.92
   9  0.750  0.250  0.000-   3 2.92  12 2.92  20 2.92  32 2.92  28 2.92  21 2.92  22 2.92  27 2.92
                            31 2.92  13 2.92  10 2.92   8 2.92
  10  0.750  0.500  0.250-   2 2.92   4 2.92  13 2.92  18 2.92  22 2.92  29 2.92  28 2.92   5 2.92
                            14 2.92  32 2.92   9 2.92   1 2.92
  11  0.000  0.750  0.750-   6 2.92   8 2.92  22 2.92  30 2.92   7 2.92   2 2.92  23 2.92  20 2.92
                             1 2.92  15 2.92  14 2.92  12 2.92
  12  0.000  0.000  0.000-   5 2.92   9 2.92  15 2.92  21 2.92   3 2.92  23 2.92   2 2.92  24 2.92
                            16 2.92   8 2.92  13 2.92  11 2.92
  13  0.000  0.250  0.250-   6 2.92  10 2.92  16 2.92  22 2.92   4 2.92  24 2.92   3 2.92  25 2.92
                            17 2.92   9 2.92  14 2.92  12 2.92
  14  0.000  0.500  0.500-   1 2.92   5 2.92  17 2.92  21 2.92  20 2.92  25 2.92   4 2.92   7 2.92
                            10 2.92  30 2.92  13 2.92  11 2.92
  15  0.250  0.750  0.000-  12 2.92  23 2.92  25 2.92  32 2.92  26 2.92   5 2.92  27 2.92  22 2.92
                            11 2.92  18 2.92  30 2.92  16 2.92
  16  0.250  0.000  0.250-   7 2.92  13 2.92  18 2.92  24 2.92   6 2.92  27 2.92   5 2.92  28 2.92
                            19 2.92  12 2.92  17 2.92  15 2.92
  17  0.250  0.250  0.500-  14 2.92  19 2.92  23 2.92  25 2.92  21 2.92  28 2.92   6 2.92  29 2.92
                            13 2.92  31 2.92  30 2.92  16 2.92
  18  0.500  0.750  0.250-  10 2.92  16 2.92  27 2.92  29 2.92   2 2.92   7 2.92   3 2.92  25 2.92
                             1 2.92  15 2.92  19 2.92  32 2.92
  19  0.500  0.000  0.500-   1 2.92  17 2.92  26 2.92  28 2.92   3 2.92  23 2.92   4 2.92   7 2.92
                             8 2.92  16 2.92  18 2.92  31 2.92
  20  0.750  0.500  0.750-   1 2.92   9 2.92  21 2.92  26 2.92  14 2.92  32 2.92  31 2.92  11 2.92
                            22 2.92  29 2.92   4 2.92   2 2.92
  21  0.000  0.250  0.750-  12 2.92  14 2.92  20 2.92  23 2.92   9 2.92  17 2.92   8 2.92  30 2.92
                            24 2.92   4 2.92  22 2.92   6 2.92
  22  0.000  0.500  0.000-   2 2.92  11 2.92  13 2.92  24 2.92  10 2.92  30 2.92   9 2.92  15 2.92
                            25 2.92  20 2.92  21 2.92   5 2.92
  23  0.250  0.000  0.750-  15 2.92  17 2.92  21 2.92  26 2.92  12 2.92  19 2.92  11 2.92  31 2.92
                            27 2.92   6 2.92  24 2.92   7 2.92
  24  0.250  0.250  0.000-  16 2.92  22 2.92  27 2.92  30 2.92  13 2.92  31 2.92  12 2.92  32 2.92
                            28 2.92  21 2.92  25 2.92  23 2.92
  25  0.250  0.500  0.250-   5 2.92  15 2.92  17 2.92  28 2.92  14 2.92  32 2.92  13 2.92  18 2.92
                            29 2.92  22 2.92  24 2.92   7 2.92
  26  0.500  0.750  0.750-  19 2.92  20 2.92  23 2.92  32 2.92   1 2.92  15 2.92  30 2.92   8 2.92
                             7 2.92   2 2.92  27 2.92  29 2.92
  27  0.500  0.000  0.000-   2 2.92  18 2.92  24 2.92  31 2.92  16 2.92   8 2.92   9 2.92  15 2.92
                             3 2.92  23 2.92  28 2.92  26 2.92
  28  0.500  0.250  0.250-   3 2.92  19 2.92  25 2.92  32 2.92  17 2.92   9 2.92  10 2.92  16 2.92
                             4 2.92  24 2.92  29 2.92  27 2.92
  29  0.500  0.500  0.500-   4 2.92   7 2.92  18 2.92  31 2.92  30 2.92  10 2.92  17 2.92   1 2.92
                            20 2.92  25 2.92  26 2.92  28 2.92
  30  0.250  0.500  0.750-   7 2.92  11 2.92  24 2.92  31 2.92  29 2.92  22 2.92  21 2.92  26 2.92
                            14 2.92  32 2.92  17 2.92  15 2.92
  31  0.500  0.250  0.750-   8 2.92  27 2.92  29 2.92  30 2.92  24 2.92   4 2.92  20 2.92  23 2.92
                             9 2.92  17 2.92  19 2.92  32 2.92
  32  0.500  0.500  0.000-   9 2.92  15 2.92  26 2.92  28 2.92  20 2.92  25 2.92  24 2.92   2 2.92
                            10 2.92  30 2.92  18 2.92  31 2.92
 
  LATTYP: Found a simple cubic cell.
 ALAT       =     8.2552007800
  
  Lattice vectors:
  
 A1 = (   8.2552007800,   0.0000000000,   0.0000000000)
 A2 = (   0.0000001500,   8.2552007800,   0.0000000000)
 A3 = (   0.0000001500,   0.0000001500,   8.2552007800)
 Subroutine PRICEL returns following result:
 
  LATTYP: Found a face centered cubic cell.
 ALAT       =     4.1276004275
  
  Lattice vectors:
  
 A1 = (   2.0638002325,   2.0638001950,   0.0000000000)
 A2 = (   2.0638001575,  -0.0000000375,  -2.0638001950)
 A3 = (   0.0000000000,   2.0638001575,  -2.0638001950)
 
  32 primitive cells build up your supercell.
 

Analysis of symmetry for initial positions (statically):

 Routine SETGRP: Setting up the symmetry group for a 
 simple cubic supercell.


 Subroutine GETGRP returns: Found 48 space group operations
 (whereof 48 operations were pure point group operations)
 out of a pool of 48 trial point group operations.


The static configuration has the point symmetry O_h .

Analysis of symmetry for dynamics (positions and initial velocities):

 Subroutine DYNSYM returns: Found 48 space group operations
 (whereof 48 operations were pure point group operations)
 out of a pool of 48 trial space group operations
 (whereof 48 operations were pure point group operations)
 and found also    32 'primitive' translations


The dynamic configuration has the point symmetry O_h .
 
 
 KPOINTS: Automatic mesh                          

Automatic generation of k-mesh.
 
 Subroutine IBZKPT returns following result:
 ===========================================
 
 Found      1 irreducible k-points:
 
 Following reciprocal coordinates:
            Coordinates               Weight
  0.250000  0.250000  0.250000      8.000000
 
 Following cartesian coordinates:
            Coordinates               Weight
  0.030284  0.030284  0.030284      8.000000
 


--------------------------------------------------------------------------------------------------------




 Dimension of arrays:
   k-Points           NKPTS =      1   number of bands    NBANDS=    212
   number of dos      NEDOS =    301   number of ions     NIONS =     32
   non local maximal  LDIM  =      6   non local SUM 2l+1 LMDIM =     18
   total plane-waves  NPLWV =  32768
   max r-space proj   IRMAX =      1   max aug-charges    IRDMAX=   3761
   dimension x,y,z NGX =    32 NGY =   32 NGZ =   32
   dimension x,y,z NGXF=    64 NGYF=   64 NGZF=   64
   support grid    NGXF=    64 NGYF=   64 NGZF=   64
   ions per type =              32
 NGX,Y,Z   is equivalent  to a cutoff of   6.44,  6.44,  6.44 a.u.
 NGXF,Y,Z  is equivalent  to a cutoff of  12.89, 12.89, 12.89 a.u.


 I would recommend the setting:
   dimension x,y,z NGX =    31 NGY =   31 NGZ =   31
 SYSTEM =  No title                                
 POSCAR =  No title                                

 Startparameter for this run:
   NWRITE =      2    write-flag & timer
   PREC   = normal    medium, high low
   ISTART =      0    job   : 0-new  1-cont  2-samecut
   ICHARG =      2    charge: 1-file 2-atom 10-const
   ISPIN  =      1    spin polarized calculation?
   LNONCOLLINEAR =      F non collinear calculations
   LSORBIT =      F    spin-orbit coupling
   INIWAV =      1    electr: 0-lowe 1-rand  2-diag
   LASPH  =      F    aspherical Exc in radial PAW
   METAGGA=      F    non-selfconsistent MetaGGA calc.

 Electronic Relaxation 1
   ENCUT  =  229.9 eV  16.90 Ry    4.11 a.u.  10.21 10.21 10.21*2*pi/ulx,y,z
   ENINI  =  229.9     initial cutoff
   ENAUG  =  356.7 eV  augmentation charge cutoff
   NELM   =     60;   NELMIN=  2; NELMDL= -5     # of ELM steps 
   EDIFF  = 0.1E-04   stopping-criterion for ELM
   LREAL  =      F    real-space projection
   LCOMPAT=      F    compatible to vasp.4.4
   LREAL_COMPAT= F    compatible to vasp.4.5.1-3
   GGA_COMPAT  = T    GGA compatible to vasp.4.4-vasp.4.6
   LMAXPAW     = -100 max onsite density
   LMAXMIX     =    2 max onsite mixed and CHGCAR
   VOSKOWN=      1    Vosko Wilk Nusair interpolation
   ROPT   =    0.00000
 Ionic relaxation
   EDIFFG = -.2E-01   stopping-criterion for IOM
   NSW    =    100    number of steps for IOM
   NBLOCK =      1;   KBLOCK =    100    inner block; outer block 
   IBRION =      2    ionic relax: 0-MD 1-quasi-New 2-CG
   NFREE  =      1    steps in history (QN), initial steepest desc. (CG)
   ISIF   =      2    stress and relaxation
   IWAVPR =     11    prediction:  0-non 1-charg 2-wave 3-comb
   ISYM   =      2    0-nonsym 1-usesym 2-fastsym
   LCORR  =      T    Harris-Foulkes like correction to forces

   POTIM  =   0.50    time-step for ionic-motion
   TEIN   =    0.0    initial temperature
   TEBEG  =    0.0;   TEEND  =   0.0 temperature during run
   SMASS  =  -3.00    Nose mass-parameter (am)
   estimated Nose-frequenzy (Omega)   =  0.10E-29 period in steps =****** mass=  -0.156E-26a.u.
   NPACO  =    256;   APACO  = 16.0  distance and # of slots for P.C.
   PSTRESS=    0.0 pullay stress

  Mass of Ions in am
   POMASS = 196.97
  Ionic Valenz
   ZVAL   =  11.00
  Atomic Wigner-Seitz radii
   RWIGS  =   1.34
   NELECT =     352.0000    total number of electrons
   NUPDOWN=      -1.0000    fix difference up-down

 DOS related values:
   EMIN   =  10.00;   EMAX   =-10.00  energy-range for DOS
   ISMEAR =     1;   SIGMA  =   0.20  broadening in eV -4-tet -1-fermi 0-gaus

 Electronic relaxation 2 (details)
   IALGO  =     38    algorithm
   LDIAG  =      T    sub-space diagonalisation
   IMIX   =      4    mixing-type and parameters
     AMIX     =   0.40;   BMIX     =  1.00
     AMIX_MAG =   1.60;   BMIX_MAG =  1.00
     AMIN     =   0.10
     WC   =   100.;   INIMIX=   1;  MIXPRE=   1

 Intra band minimization:
   WEIMIN = 0.0010     energy-eigenvalue tresh-hold
   EBREAK =  0.12E-07  absolut break condition
   DEPER  =   0.30     relativ break condition  

   TIME   =   0.10     timestep for ELM

  volume/ion in A,a.u.               =      17.58       118.64
  Fermi-wavevector in a.u.,eV,Ry     =   1.400215 26.675613  1.960602

 Second variation
   LSECVAR=     F    do a second variation
 
 Write flags
   LWAVE  =      T    write WAVECAR
   LCHARG =      F    write CHGCAR
   LVTOT  =      F    write LOCPOT, local potential
   LELF   =      F    write electronic localiz. function (ELF)
   LORBIT =      0    0 simple, 1 ext, 2 COOP (PROOUT)


 Dipole corrections
   IDIPOL =      0    1-x, 2-y, 3-z
   LDIPOL =      F    correct potential



--------------------------------------------------------------------------------------------------------


 conjugate gradient relaxation of ions
 charge density will be updated during run
 non-spin polarized calculation
 Variant of blocked Davidson
 Davidson routine will perform the subspace rotation
 performe sub-space diagonalisation
    after iterative eigenvector-optimisation
 modified Broyden-mixing scheme, WC =      100.0
 initial mixing is a Kerker type mixing with AMIX =  0.4000 and BMIX =      1.0000
 Hartree-type preconditioning will be used
 using additional bands           36
 reciprocal scheme for non local part
 use partial core corrections
 calculate Harris-corrections to forces 
   (improved forces if not selfconsistent)
 use gradient corrections 
 use of overlap-Matrix (Vanderbilt PP)
 Methfessel and Paxton  Order N= 1 SIGMA  =   0.20


--------------------------------------------------------------------------------------------------------


  energy-cutoff  :      229.95
  volume of cell :      562.58
      direct lattice vectors                 reciprocal lattice vectors
     8.255200780  0.000000000  0.000000000     0.121135758 -0.000000002 -0.000000002
     0.000000150  8.255200780  0.000000000     0.000000000  0.121135758 -0.000000002
     0.000000150  0.000000150  8.255200780     0.000000000  0.000000000  0.121135758

  length of vectors
     8.255200780  8.255200780  8.255200780     0.121135758  0.121135758  0.121135758


 
 k-points in units of 2pi/SCALE and weight: Automatic mesh                          
   0.03028394  0.03028394  0.03028394       1.000
 
 k-points in reciprocal lattice and weights: Automatic mesh                          
   0.25000000  0.25000000  0.25000000       1.000
 
 position of ions in fractional coordinates (direct lattice) 
   0.75000000  0.75000000  0.50000000
   0.75000000  0.75000000  0.00000000
   0.75000000  0.00000000  0.25000000
   0.75000000  0.25000000  0.50000000
   0.00000000  0.75000000  0.25000000
   0.00000000  0.00000000  0.50000000
   0.25000000  0.75000000  0.50000000
   0.75000000  0.00000000  0.75000000
   0.75000000  0.25000000  0.00000000
   0.75000000  0.50000000  0.25000000
   0.00000000  0.75000000  0.75000000
   0.00000000  0.00000000  0.00000000
   0.00000000  0.25000000  0.25000000
   0.00000000  0.50000000  0.50000000
   0.25000000  0.75000000  0.00000000
   0.25000000  0.00000000  0.25000000
   0.25000000  0.25000000  0.50000000
   0.50000000  0.75000000  0.25000000
   0.50000000  0.00000000  0.50000000
   0.75000000  0.50000000  0.75000000
   0.00000000  0.25000000  0.75000000
   0.00000000  0.50000000  0.00000000
   0.25000000  0.00000000  0.75000000
   0.25000000  0.25000000  0.00000000
   0.25000000  0.50000000  0.25000000
   0.50000000  0.75000000  0.75000000
   0.50000000  0.00000000  0.00000000
   0.50000000  0.25000000  0.25000000
   0.50000000  0.50000000  0.50000000
   0.25000000  0.50000000  0.75000000
   0.50000000  0.25000000  0.75000000
   0.50000000  0.50000000  0.00000000
 
 position of ions in cartesian coordinates  (Angst):
   6.19140077  6.19140066  4.12760039
   6.19140070  6.19140058  0.00000000
   6.19140062  0.00000004  2.06380019
   6.19140070  2.06380027  4.12760039
   0.00000015  6.19140062  2.06380019
   0.00000007  0.00000007  4.12760039
   2.06380038  6.19140066  4.12760039
   6.19140070  0.00000011  6.19140058
   6.19140062  2.06380019  0.00000000
   6.19140070  4.12760043  2.06380019
   0.00000022  6.19140070  6.19140058
   0.00000000  0.00000000  0.00000000
   0.00000007  2.06380023  2.06380019
   0.00000015  4.12760046  4.12760039
   2.06380031  6.19140058  0.00000000
   2.06380023  0.00000004  2.06380019
   2.06380031  2.06380027  4.12760039
   4.12760054  6.19140062  2.06380019
   4.12760046  0.00000007  4.12760039
   6.19140077  4.12760050  6.19140058
   0.00000015  2.06380031  6.19140058
   0.00000007  4.12760039  0.00000000
   2.06380031  0.00000011  6.19140058
   2.06380023  2.06380019  0.00000000
   2.06380031  4.12760043  2.06380019
   4.12760062  6.19140070  6.19140058
   4.12760039  0.00000000  0.00000000
   4.12760047  2.06380023  2.06380019
   4.12760054  4.12760046  4.12760039
   2.06380038  4.12760050  6.19140058
   4.12760054  2.06380031  6.19140058
   4.12760046  4.12760039  0.00000000
 


--------------------------------------------------------------------------------------------------------


 k-point  1 :  0.25000.25000.2500  plane waves:   4425

 maximum and minimum number of plane-waves per node :   4425  4425

 maximum number of plane-waves:   4425
 maximal index in each direction: 
   IXMAX=  9   IYMAX=  9   IZMAX=  9
   IXMIN=-10   IYMIN=-10   IZMIN=-10

 WARNING: wrap around error must be expected set NGX to  40
 WARNING: wrap around error must be expected set NGY to  40
 WARNING: wrap around error must be expected set NGZ to  40

 parallel 3dFFT wavefunction:
    minimum data exchange during FFTs selected (reduces bandwidth)
 parallel 3dFFT charge:
    minimum data exchange during FFTs selected (reduces bandwidth)

 For storing wavefunctions   15.01 MBYTES are necessary
 For predicting wavefunctions   34.80 MBYTES are necessary
Broyden mixing: mesh for mixing (old mesh)
   NGX = 21   NGY = 21   NGZ = 21
  (NGX  = 64   NGY  = 64   NGZ  = 64)
 gives a total of   9261 points
 initial charge density was supplied:
 charge density of overlapping atoms calculated
 number of electron  352.0000000 magnetization 
 keeping initial charge density in first step


--------------------------------------------------------------------------------------------------------


 Maximum index for augmentation-charges          857 (set IRDMAX)


--------------------------------------------------------------------------------------------------------


 First call to EWALD:  gamma=   0.215
 Maximum number of real-space cells 3x 3x 3
 Maximum number of reciprocal cells 3x 3x 3

    FEWALD:  VPU time    0.01: CPU time    0.01


----------------------------------------- Iteration    1(   1)  ---------------------------------------


    POTLOK:  VPU time    0.15: CPU time    0.15
    SETDIJ:  VPU time    0.03: CPU time    0.03
    EDDAV :  VPU time    6.16: CPU time    6.18
    DOS   :  VPU time    0.00: CPU time   -0.00
    ------------------------------------------
      LOOP:  VPU time    6.35: CPU time    6.37

 eigenvalue-minimisations  :   424
 total energy-change (2. order) : 0.2019453E+04  (-0.1068313E+05)
 number of electron  352.0000000 magnetization 
 augmentation part   352.0000000 magnetization 

 Free energy of the ion-electron system (eV)
  ---------------------------------------------------
  alpha Z        PSCENC =      3408.89140614
  Ewald energy   TEWEN  =    -30966.35640272
  -1/2 Hartree   DENC   =     -4093.49233055
  -V(xc)+E(xc)   XCENC  =       488.22842377
  PAW double counting   =     23920.39735419   -23172.13309131
  entropy T*S    EENTRO =         0.05248905
  eigenvalues    EBANDS =      2802.31463958
  atomic energy  EATOM  =     29631.55017626
  ---------------------------------------------------
  free energy    TOTEN  =      2019.45266441 eV

  energy without entropy =     2019.40017536  energy(sigma->0) =     2019.43516806


--------------------------------------------------------------------------------------------------------




----------------------------------------- Iteration    1(   2)  ---------------------------------------


    EDDAV :  VPU time    5.95: CPU time    5.98
    DOS   :  VPU time   -0.00: CPU time   -0.00
    ------------------------------------------
      LOOP:  VPU time    5.96: CPU time    6.00

 eigenvalue-minimisations  :   444
 total energy-change (2. order) :-0.2032066E+04  (-0.1924050E+04)
 number of electron  352.0000000 magnetization 
 augmentation part   352.0000000 magnetization 

 Free energy of the ion-electron system (eV)
  ---------------------------------------------------
  alpha Z        PSCENC =      3408.89140614
  Ewald energy   TEWEN  =    -30966.35640272
  -1/2 Hartree   DENC   =     -4093.49233055
  -V(xc)+E(xc)   XCENC  =       488.22842377
  PAW double counting   =     23920.39735419   -23172.13309131
  entropy T*S    EENTRO =        -0.03721878
  eigenvalues    EBANDS =       770.33840266
  atomic energy  EATOM  =     29631.55017626
  ---------------------------------------------------
  free energy    TOTEN  =       -12.61328035 eV

  energy without entropy =      -12.57606157  energy(sigma->0) =      -12.60087409


--------------------------------------------------------------------------------------------------------




----------------------------------------- Iteration    1(   3)  ---------------------------------------


    EDDAV :  VPU time    6.15: CPU time    6.17
    DOS   :  VPU time    0.00: CPU time   -0.00
    ------------------------------------------
      LOOP:  VPU time    6.15: CPU time    6.17

 eigenvalue-minimisations  :   464
 total energy-change (2. order) :-0.9560251E+02  (-0.9178840E+02)
 number of electron  352.0000000 magnetization 
 augmentation part   352.0000000 magnetization 

 Free energy of the ion-electron system (eV)
  ---------------------------------------------------
  alpha Z        PSCENC =      3408.89140614
  Ewald energy   TEWEN  =    -30966.35640272
  -1/2 Hartree   DENC   =     -4093.49233055
  -V(xc)+E(xc)   XCENC  =       488.22842377
  PAW double counting   =     23920.39735419   -23172.13309131
  entropy T*S    EENTRO =        -0.10034160
  eigenvalues    EBANDS =       674.79901818
  atomic energy  EATOM  =     29631.55017626
  ---------------------------------------------------
  free energy    TOTEN  =      -108.21578765 eV

  energy without entropy =     -108.11544605  energy(sigma->0) =     -108.18234045


--------------------------------------------------------------------------------------------------------




----------------------------------------- Iteration    1(   4)  ---------------------------------------


    EDDAV :  VPU time    6.07: CPU time    6.08
    DOS   :  VPU time    0.00: CPU time   -0.00
    ------------------------------------------
      LOOP:  VPU time    6.08: CPU time    6.09

 eigenvalue-minimisations  :   456
 total energy-change (2. order) :-0.1735717E+01  (-0.1727410E+01)
 number of electron  352.0000000 magnetization 
 augmentation part   352.0000000 magnetization 

 Free energy of the ion-electron system (eV)
  ---------------------------------------------------
  alpha Z        PSCENC =      3408.89140614
  Ewald energy   TEWEN  =    -30966.35640272
  -1/2 Hartree   DENC   =     -4093.49233055
  -V(xc)+E(xc)   XCENC  =       488.22842377
  PAW double counting   =     23920.39735419   -23172.13309131
  entropy T*S    EENTRO =        -0.09898102
  eigenvalues    EBANDS =       673.06194070
  atomic energy  EATOM  =     29631.55017626
  ---------------------------------------------------
  free energy    TOTEN  =      -109.95150455 eV

  energy without entropy =     -109.85252352  energy(sigma->0) =     -109.91851087


--------------------------------------------------------------------------------------------------------




----------------------------------------- Iteration    1(   5)  ---------------------------------------


    EDDAV :  VPU time    6.20: CPU time    6.22
    DOS   :  VPU time    0.00: CPU time   -0.00
    CHARGE:  VPU time    0.14: CPU time    0.14
    MIXING:  VPU time    0.01: CPU time    0.01
    ------------------------------------------
      LOOP:  VPU time    6.36: CPU time    6.37

 eigenvalue-minimisations  :   468
 total energy-change (2. order) :-0.3640568E-01  (-0.3632995E-01)
 number of electron  352.0004485 magnetization 
 augmentation part   124.1746536 magnetization 

 Broyden mixing:
  rms(total) = 0.15916E+01    rms(broyden)= 0.15911E+01
  rms(prec ) = 0.24400E+01
  weight for this iteration     100.00

 Free energy of the ion-electron system (eV)
  ---------------------------------------------------
  alpha Z        PSCENC =      3408.89140614
  Ewald energy   TEWEN  =    -30966.35640272
  -1/2 Hartree   DENC   =     -4093.49233055
  -V(xc)+E(xc)   XCENC  =       488.22842377
  PAW double counting   =     23920.39735419   -23172.13309131
  entropy T*S    EENTRO =        -0.09880550
  eigenvalues    EBANDS =       673.02535951
  atomic energy  EATOM  =     29631.55017626
  ---------------------------------------------------
  free energy    TOTEN  =      -109.98791022 eV

  energy without entropy =     -109.88910472  energy(sigma->0) =     -109.95497506


--------------------------------------------------------------------------------------------------------




----------------------------------------- Iteration    1(   6)  ---------------------------------------


    POTLOK:  VPU time    0.19: CPU time    0.20
    SETDIJ:  VPU time    0.03: CPU time    0.03
    EDDAV :  VPU time    5.85: CPU time    5.87
    DOS   :  VPU time    0.00: CPU time   -0.00
    CHARGE:  VPU time    0.14: CPU time    0.14
    MIXING:  VPU time    0.01: CPU time    0.01
    ------------------------------------------
      LOOP:  VPU time    6.23: CPU time    6.27

 eigenvalue-minimisations  :   436
 total energy-change (2. order) : 0.6995125E+01  (-0.1776181E+01)
 number of electron  352.0004615 magnetization 
 augmentation part   128.0707445 magnetization 

 Broyden mixing:
  rms(total) = 0.43881E+00    rms(broyden)= 0.43872E+00
  rms(prec ) = 0.65655E+00
  weight for this iteration     100.00

 eigenvalues of (default mixing * dielectric matrix)
  average eigenvalue GAMMA=   1.2671
  1.2671

 Free energy of the ion-electron system (eV)
  ---------------------------------------------------
  alpha Z        PSCENC =      3408.89140614
  Ewald energy   TEWEN  =    -30966.35640272
  -1/2 Hartree   DENC   =     -3857.96993784
  -V(xc)+E(xc)   XCENC  =       477.86029653
  PAW double counting   =     23733.26346126   -23023.82196851
  entropy T*S    EENTRO =        -0.12829933
  eigenvalues    EBANDS =       493.71848339
  atomic energy  EATOM  =     29631.55017626
  ---------------------------------------------------
  free energy    TOTEN  =      -102.99278482 eV

  energy without entropy =     -102.86448549  energy(sigma->0) =     -102.95001838


--------------------------------------------------------------------------------------------------------




----------------------------------------- Iteration    1(   7)  ---------------------------------------


    POTLOK:  VPU time    0.16: CPU time    0.16
    SETDIJ:  VPU time    0.03: CPU time    0.03
    EDDAV :  VPU time    6.11: CPU time    6.12
    DOS   :  VPU time    0.00: CPU time   -0.00
    CHARGE:  VPU time    0.14: CPU time    0.14
    MIXING:  VPU time    0.01: CPU time    0.01
    ------------------------------------------
      LOOP:  VPU time    6.46: CPU time    6.48

 eigenvalue-minimisations  :   460
 total energy-change (2. order) : 0.5502487E+00  (-0.1350834E+00)
 number of electron  352.0004651 magnetization 
 augmentation part   129.1300171 magnetization 

 Broyden mixing:
  rms(total) = 0.16141E+00    rms(broyden)= 0.16135E+00
  rms(prec ) = 0.19013E+00
  weight for this iteration     100.00

 eigenvalues of (default mixing * dielectric matrix)
  average eigenvalue GAMMA=   1.8598
  1.2349  2.4848

 Free energy of the ion-electron system (eV)
  ---------------------------------------------------
  alpha Z        PSCENC =      3408.89140614
  Ewald energy   TEWEN  =    -30966.35640272
  -1/2 Hartree   DENC   =     -3780.10865451
  -V(xc)+E(xc)   XCENC  =       474.37148915
  PAW double counting   =     23825.61000531   -23141.12135235
  entropy T*S    EENTRO =        -0.14864320
  eigenvalues    EBANDS =       444.86943980
  atomic energy  EATOM  =     29631.55017626
  ---------------------------------------------------
  free energy    TOTEN  =      -102.44253611 eV

  energy without entropy =     -102.29389292  energy(sigma->0) =     -102.39298838


--------------------------------------------------------------------------------------------------------




----------------------------------------- Iteration    1(   8)  ---------------------------------------


    POTLOK:  VPU time    0.16: CPU time    0.16
    SETDIJ:  VPU time    0.03: CPU time    0.03
    EDDAV :  VPU time    5.78: CPU time    5.80
    DOS   :  VPU time    0.00: CPU time   -0.00
    CHARGE:  VPU time    0.14: CPU time    0.14
    MIXING:  VPU time    0.01: CPU time    0.01
    ------------------------------------------
      LOOP:  VPU time    6.13: CPU time    6.15

 eigenvalue-minimisations  :   432
 total energy-change (2. order) : 0.1045170E+00  (-0.4905032E-02)
 number of electron  352.0004650 magnetization 
 augmentation part   129.1101721 magnetization 

 Broyden mixing:
  rms(total) = 0.11451E-01    rms(broyden)= 0.11434E-01
  rms(prec ) = 0.16074E-01
  weight for this iteration     100.00

 eigenvalues of (default mixing * dielectric matrix)
  average eigenvalue GAMMA=   1.8390
  2.6298  1.2704  1.6167

 Free energy of the ion-electron system (eV)
  ---------------------------------------------------
  alpha Z        PSCENC =      3408.89140614
  Ewald energy   TEWEN  =    -30966.35640272
  -1/2 Hartree   DENC   =     -3756.23379427
  -V(xc)+E(xc)   XCENC  =       473.19660409
  PAW double counting   =     24037.45901709   -23372.98003805
  entropy T*S    EENTRO =        -0.14930660
  eigenvalues    EBANDS =       442.28431897
  atomic energy  EATOM  =     29631.55017626
  ---------------------------------------------------
  free energy    TOTEN  =      -102.33801909 eV

  energy without entropy =     -102.18871249  energy(sigma->0) =     -102.28825022


--------------------------------------------------------------------------------------------------------




----------------------------------------- Iteration    1(   9)  ---------------------------------------


    POTLOK:  VPU time    0.16: CPU time    0.16
    SETDIJ:  VPU time    0.03: CPU time    0.03
    EDDAV :  VPU time    6.06: CPU time    6.07
    DOS   :  VPU time   -0.00: CPU time   -0.00
    CHARGE:  VPU time    0.14: CPU time    0.14
    MIXING:  VPU time    0.01: CPU time    0.01
    ------------------------------------------
      LOOP:  VPU time    6.41: CPU time    6.43

 eigenvalue-minimisations  :   456
 total energy-change (2. order) :-0.2236266E-06  (-0.3270629E-03)
 number of electron  352.0004652 magnetization 
 augmentation part   129.1607928 magnetization 

 Broyden mixing:
  rms(total) = 0.62443E-02    rms(broyden)= 0.62389E-02
  rms(prec ) = 0.87269E-02
  weight for this iteration     100.00

 eigenvalues of (default mixing * dielectric matrix)
  average eigenvalue GAMMA=   1.7965
  2.5077  2.5077  0.9772  1.1936

 Free energy of the ion-electron system (eV)
  ---------------------------------------------------
  alpha Z        PSCENC =      3408.89140614
  Ewald energy   TEWEN  =    -30966.35640272
  -1/2 Hartree   DENC   =     -3753.73756786
  -V(xc)+E(xc)   XCENC  =       473.08186928
  PAW double counting   =     24045.67885304   -23381.10563612
  entropy T*S    EENTRO =        -0.15006457
  eigenvalues    EBANDS =       439.80934723
  atomic energy  EATOM  =     29631.55017626
  ---------------------------------------------------
  free energy    TOTEN  =      -102.33801931 eV

  energy without entropy =     -102.18795474  energy(sigma->0) =     -102.28799779


--------------------------------------------------------------------------------------------------------




----------------------------------------- Iteration    1(  10)  ---------------------------------------


    POTLOK:  VPU time    0.16: CPU time    0.17
    SETDIJ:  VPU time    0.03: CPU time    0.03
    EDDAV :  VPU time    5.77: CPU time    5.78
    DOS   :  VPU time    0.00: CPU time   -0.00
    CHARGE:  VPU time    0.14: CPU time    0.14
    MIXING:  VPU time    0.01: CPU time    0.01
    ------------------------------------------
      LOOP:  VPU time    6.12: CPU time    6.14

 eigenvalue-minimisations  :   432
 total energy-change (2. order) :-0.5651968E-04  (-0.2312680E-04)
 number of electron  352.0004652 magnetization 
 augmentation part   129.1540386 magnetization 

 Broyden mixing:
  rms(total) = 0.65296E-03    rms(broyden)= 0.65222E-03
  rms(prec ) = 0.81016E-03
  weight for this iteration     100.00

 eigenvalues of (default mixing * dielectric matrix)
  average eigenvalue GAMMA=   1.7430
  2.8187  2.4547  1.0601  1.1419  1.2395

 Free energy of the ion-electron system (eV)
  ---------------------------------------------------
  alpha Z        PSCENC =      3408.89140614
  Ewald energy   TEWEN  =    -30966.35640272
  -1/2 Hartree   DENC   =     -3755.01975468
  -V(xc)+E(xc)   XCENC  =       473.13243263
  PAW double counting   =     24053.36542517   -23387.95219009
  entropy T*S    EENTRO =        -0.14987029
  eigenvalues    EBANDS =       440.20070174
  atomic energy  EATOM  =     29631.55017626
  ---------------------------------------------------
  free energy    TOTEN  =      -102.33807583 eV

  energy without entropy =     -102.18820554  energy(sigma->0) =     -102.28811907


--------------------------------------------------------------------------------------------------------




----------------------------------------- Iteration    1(  11)  ---------------------------------------


    POTLOK:  VPU time    0.17: CPU time    0.17
    SETDIJ:  VPU time    0.03: CPU time    0.03
    EDDAV :  VPU time    3.87: CPU time    3.87
    DOS   :  VPU time    0.00: CPU time   -0.00
    CHARGE:  VPU time    0.21: CPU time    0.21
    MIXING:  VPU time    0.01: CPU time    0.01
    ------------------------------------------
      LOOP:  VPU time    4.30: CPU time    4.32

 eigenvalue-minimisations  :   236
 total energy-change (2. order) :-0.1054459E-04  (-0.4725271E-06)
 number of electron  352.0004652 magnetization 
 augmentation part   129.1527275 magnetization 

 Broyden mixing:
  rms(total) = 0.18715E-03    rms(broyden)= 0.18708E-03
  rms(prec ) = 0.22311E-03
  weight for this iteration     100.00

 eigenvalues of (default mixing * dielectric matrix)
  average eigenvalue GAMMA=   1.7947
  2.8840  2.4785  2.2977  1.1817  0.9963  0.9302

 Free energy of the ion-electron system (eV)
  ---------------------------------------------------
  alpha Z        PSCENC =      3408.89140614
  Ewald energy   TEWEN  =    -30966.35640272
  -1/2 Hartree   DENC   =     -3755.05084433
  -V(xc)+E(xc)   XCENC  =       473.13266184
  PAW double counting   =     24054.62072366   -23389.20280679
  entropy T*S    EENTRO =        -0.14985211
  eigenvalues    EBANDS =       440.22685167
  atomic energy  EATOM  =     29631.55017626
  ---------------------------------------------------
  free energy    TOTEN  =      -102.33808638 eV

  energy without entropy =     -102.18823427  energy(sigma->0) =     -102.28813568


--------------------------------------------------------------------------------------------------------




----------------------------------------- Iteration    1(  12)  ---------------------------------------


    POTLOK:  VPU time    0.21: CPU time    0.21
    SETDIJ:  VPU time    0.04: CPU time    0.04
    EDDAV :  VPU time    5.82: CPU time    5.83
    DOS   :  VPU time    0.00: CPU time   -0.00
    ------------------------------------------
      LOOP:  VPU time    6.08: CPU time    6.09

 eigenvalue-minimisations  :   228
 total energy-change (2. order) : 0.2822151E-05  (-0.6782641E-07)
 number of electron  352.0004652 magnetization 
 augmentation part   129.1527275 magnetization 

 Free energy of the ion-electron system (eV)
  ---------------------------------------------------
  alpha Z        PSCENC =      3408.89140614
  Ewald energy   TEWEN  =    -30966.35640272
  -1/2 Hartree   DENC   =     -3755.04493858
  -V(xc)+E(xc)   XCENC  =       473.13256106
  PAW double counting   =     24053.93450726   -23388.52180207
  entropy T*S    EENTRO =        -0.14985197
  eigenvalues    EBANDS =       440.22626107
  atomic energy  EATOM  =     29631.55017626
  ---------------------------------------------------
  free energy    TOTEN  =      -102.33808356 eV

  energy without entropy =     -102.18823158  energy(sigma->0) =     -102.28813290


--------------------------------------------------------------------------------------------------------




 average (electrostatic) potential at core
  the test charge radii are     1.2098
  (the norm of the test charge is              1.0000)
       1 -45.8095       2 -45.8095       3 -45.8095       4 -45.8095       5 -45.8095
       6 -45.8095       7 -45.8095       8 -45.8095       9 -45.8095      10 -45.8095
      11 -45.8095      12 -45.8095      13 -45.8095      14 -45.8095      15 -45.8095
      16 -45.8095      17 -45.8095      18 -45.8095      19 -45.8095      20 -45.8095
      21 -45.8095      22 -45.8095      23 -45.8095      24 -45.8095      25 -45.8095
      26 -45.8095      27 -45.8095      28 -45.8095      29 -45.8095      30 -45.8095
      31 -45.8095      32 -45.8095
 
 
 
 E-fermi :   5.2971     XC(G=0): -12.5260     alpha+bet : -9.8712
   add alpha+bet to get absolut eigen values

 k-point   1 :       0.2500    0.2500    0.2500
  band No.  band energies     occupation 
      1      -3.6487      2.00000
      2      -2.4198      2.00000
      3      -2.4198      2.00000
      4      -2.4198      2.00000
      5      -1.7324      2.00000
      6      -1.6189      2.00000
      7      -1.6189      2.00000
      8      -1.6189      2.00000
      9      -1.3282      2.00000
     10      -1.3282      2.00000
     11      -1.3282      2.00000
     12      -1.1902      2.00000
     13      -1.1902      2.00000
     14      -1.1902      2.00000
     15      -1.0871      2.00000
     16      -1.0871      2.00000
     17      -1.0871      2.00000
     18      -0.8730      2.00000
     19      -0.8730      2.00000
     20      -0.8730      2.00000
     21      -0.7094      2.00000
     22      -0.7094      2.00000
     23      -0.7094      2.00000
     24      -0.7094      2.00000
     25      -0.7094      2.00000
     26      -0.7094      2.00000
     27      -0.6016      2.00000
     28      -0.6016      2.00000
     29      -0.6016      2.00000
     30      -0.5614      2.00000
     31      -0.5614      2.00000
     32      -0.5614      2.00000
     33      -0.5614      2.00000
     34      -0.5614      2.00000
     35      -0.5614      2.00000
     36      -0.4194      2.00000
     37      -0.4194      2.00000
     38      -0.4194      2.00000
     39      -0.1387      2.00000
     40      -0.1387      2.00000
     41      -0.1387      2.00000
     42      -0.1387      2.00000
     43      -0.1387      2.00000
     44      -0.1387      2.00000
     45       0.2221      2.00000
     46       0.2221      2.00000
     47       0.2221      2.00000
     48       0.2724      2.00000
     49       0.2724      2.00000
     50       0.2724      2.00000
     51       0.3573      2.00000
     52       0.3573      2.00000
     53       0.3573      2.00000
     54       0.3573      2.00000
     55       0.3573      2.00000
     56       0.3573      2.00000
     57       0.5134      2.00000
     58       0.5134      2.00000
     59       0.5134      2.00000
     60       0.5519      2.00000
     61       0.5519      2.00000
     62       0.5519      2.00000
     63       0.5519      2.00000
     64       0.5519      2.00000
     65       0.5519      2.00000
     66       0.5599      2.00000
     67       0.5599      2.00000
     68       0.5599      2.00000
     69       0.6705      2.00000
     70       0.8835      2.00000
     71       0.8835      2.00000
     72       0.9681      2.00000
     73       0.9681      2.00000
     74       0.9976      2.00000
     75       0.9976      2.00000
     76       0.9976      2.00000
     77       1.0106      2.00000
     78       1.0106      2.00000
     79       1.0106      2.00000
     80       1.0106      2.00000
     81       1.0106      2.00000
     82       1.0106      2.00000
     83       1.0660      2.00000
     84       1.0660      2.00000
     85       1.0660      2.00000
     86       1.0894      2.00000
     87       1.0894      2.00000
     88       1.0894      2.00000
     89       1.1856      2.00000
     90       1.1856      2.00000
     91       1.1856      2.00000
     92       1.2882      2.00000
     93       1.2882      2.00000
     94       1.2882      2.00000
     95       1.2922      2.00000
     96       1.2922      2.00000
     97       1.2922      2.00000
     98       1.3762      2.00000
     99       1.3762      2.00000
    100       1.3762      2.00000
    101       1.7662      2.00000
    102       1.7662      2.00000
    103       1.7662      2.00000
    104       1.8049      2.00000
    105       1.8049      2.00000
    106       1.8049      2.00000
    107       1.8049      2.00000
    108       1.8049      2.00000
    109       1.8049      2.00000
    110       1.9718      2.00000
    111       1.9718      2.00000
    112       1.9718      2.00000
    113       2.0408      2.00000
    114       2.0408      2.00000
    115       2.0408      2.00000
    116       2.1490      2.00000
    117       2.1490      2.00000
    118       2.1490      2.00000
    119       2.1496      2.00000
    120       2.1496      2.00000
    121       2.1496      2.00000
    122       2.1951      2.00000
    123       2.1951      2.00000
    124       2.3288      2.00000
    125       2.3288      2.00000
    126       2.3288      2.00000
    127       2.3288      2.00000
    128       2.3288      2.00000
    129       2.3288      2.00000
    130       2.3341      2.00000
    131       2.6026      2.00000
    132       2.6026      2.00000
    133       2.6026      2.00000
    134       2.6364      2.00000
    135       2.6364      2.00000
    136       2.6364      2.00000
    137       2.9309      2.00000
    138       2.9309      2.00000
    139       2.9309      2.00000
    140       2.9309      2.00000
    141       2.9309      2.00000
    142       2.9309      2.00000
    143       2.9412      2.00000
    144       2.9412      2.00000
    145       2.9412      2.00000
    146       3.0035      2.00000
    147       3.0035      2.00000
    148       3.0035      2.00000
    149       3.0496      2.00000
    150       3.0496      2.00000
    151       3.2236      2.00000
    152       3.2236      2.00000
    153       3.2236      2.00000
    154       3.4133      2.00000
    155       3.4133      2.00000
    156       3.4133      2.00000
    157       3.4334      2.00000
    158       3.4334      2.00000
    159       3.4334      2.00000
    160       3.4334      2.00000
    161       3.4334      2.00000
    162       3.4334      2.00000
    163       3.4504      2.00000
    164       3.4504      2.00000
    165       3.4504      2.00000
    166       3.5023      2.00000
    167       3.5023      2.00000
    168       3.5023      2.00000
    169       3.5631      2.00000
    170       3.5631      2.00000
    171       3.5631      2.00000
    172       5.2086      1.67375
    173       5.2086      1.67375
    174       5.2086      1.67375
    175       5.2086      1.67375
    176       5.2086      1.67375
    177       5.2086      1.67375
    178       5.7045     -0.01417
    179       5.7045     -0.01417
    180       5.7045     -0.01417
    181       6.5098     -0.00000
    182       6.5098     -0.00000
    183       6.5098     -0.00000
    184       7.2339     -0.00000
    185       7.2339     -0.00000
    186       7.2339     -0.00000
    187       8.4400     -0.00000
    188       8.4400     -0.00000
    189       8.4400     -0.00000
    190       8.4400     -0.00000
    191       8.4400     -0.00000
    192       8.4400     -0.00000
    193       8.9146     -0.00000
    194       8.9146     -0.00000
    195       8.9146     -0.00000
    196      10.1219     -0.00000
    197      10.1219     -0.00000
    198      10.1219     -0.00000
    199      10.4872     -0.00000
    200      10.4872     -0.00000
    201      10.4872     -0.00000
    202      10.4872     -0.00000
    203      10.4872     -0.00000
    204      10.4872     -0.00000
    205      11.5040      0.00000
    206      11.8954      0.00000
    207      11.8954      0.00000
    208      11.8955      0.00000
    209      12.2799      0.00000
    210      12.2799      0.00000
    211      12.2799      0.00000
    212      12.2799      0.00000


--------------------------------------------------------------------------------------------------------


 soft charge-density along one line, spin component           1
         0         1         2         3         4         5         6         7         8         9
 total charge-density along one line
 
 pseudopotential strength for first ion, spin component:           1
 -9.905   0.000  -0.000   0.000  -0.000  -0.089  -0.000   0.000
  0.000  -9.905   0.000   0.000  -0.000  -0.000  -0.089  -0.000
 -0.000   0.000  -9.892   0.000  -0.000   0.000  -0.000  -0.090
  0.000   0.000   0.000  -9.905   0.000  -0.000  -0.000  -0.000
 -0.000  -0.000  -0.000   0.000  -9.892   0.000   0.000   0.000
 -0.089  -0.000   0.000  -0.000   0.000   0.282   0.000  -0.000
 -0.000  -0.089  -0.000  -0.000   0.000   0.000   0.282   0.000
  0.000  -0.000  -0.090  -0.000   0.000  -0.000   0.000   0.283
 -0.000  -0.000  -0.000  -0.089  -0.000   0.000   0.000   0.000
  0.000   0.000   0.000  -0.000  -0.090  -0.000  -0.000  -0.000
 -0.000  -0.000  -0.000  -0.000  -0.000   0.000   0.000  -0.000
  0.000   0.000   0.000   0.000   0.000  -0.000  -0.000  -0.000
  0.000  -0.000  -0.000  -0.000  -0.000  -0.000   0.000   0.000
 -0.000   0.000  -0.000   0.000   0.000   0.000  -0.000   0.000
  0.000  -0.000  -0.000  -0.000   0.000  -0.000   0.000   0.000
 -0.000   0.000   0.000   0.000   0.000   0.000  -0.000  -0.000
  0.000  -0.000   0.000  -0.000  -0.000  -0.000   0.000  -0.000
 -0.000   0.000   0.000   0.000  -0.000   0.000  -0.000  -0.000
 total augmentation occupancy for first ion, spin component:           1
  1.908  -0.013  -0.001  -0.013   0.000  -0.053   0.013  -0.005   0.013  -0.000   0.013   0.000  -0.000   0.000   0.000   0.000
 -0.013   1.908   0.001  -0.013  -0.001   0.013  -0.053   0.002   0.013  -0.004   0.013   0.000  -0.000  -0.000   0.000  -0.000
 -0.001   0.001   1.951   0.001  -0.000  -0.006   0.003  -0.093   0.003   0.000  -0.000  -0.000  -0.000   0.000  -0.000  -0.000
 -0.013  -0.013   0.001   1.908   0.001   0.013   0.013   0.002  -0.053   0.004   0.013   0.000  -0.000   0.000   0.000  -0.000
  0.000  -0.001  -0.000   0.001   1.951  -0.000  -0.005   0.000   0.005  -0.093   0.000   0.000   0.000  -0.000  -0.000   0.000
 -0.053   0.013  -0.006   0.013  -0.000   0.190  -0.010   0.011  -0.010   0.000  -0.002   0.005   0.000  -0.000  -0.000  -0.000
  0.013  -0.053   0.003   0.013  -0.005  -0.010   0.190  -0.006  -0.010   0.010  -0.002   0.005  -0.000   0.000  -0.000  -0.000
 -0.005   0.002  -0.093   0.002   0.000   0.011  -0.006   0.150  -0.006   0.000  -0.000   0.000   0.000  -0.000   0.000   0.000
  0.013   0.013   0.003  -0.053   0.005  -0.010  -0.010  -0.006   0.190  -0.010  -0.002   0.005   0.000  -0.000   0.000   0.000
 -0.000  -0.004   0.000   0.004  -0.093   0.000   0.010   0.000  -0.010   0.150  -0.000  -0.000  -0.000   0.000   0.000  -0.000
  0.013   0.013  -0.000   0.013   0.000  -0.002  -0.002  -0.000  -0.002  -0.000   1.092  -0.364   0.000  -0.000  -0.000   0.000
  0.000   0.000  -0.000   0.000   0.000   0.005   0.005   0.000   0.005  -0.000  -0.364   0.248   0.000  -0.000   0.000   0.000
 -0.000  -0.000  -0.000  -0.000   0.000   0.000  -0.000   0.000   0.000  -0.000   0.000   0.000   0.148   0.003   0.003  -0.011
  0.000  -0.000   0.000   0.000  -0.000  -0.000   0.000  -0.000  -0.000   0.000  -0.000  -0.000   0.003   0.148   0.003  -0.000
  0.000   0.000  -0.000   0.000  -0.000  -0.000  -0.000   0.000   0.000   0.000  -0.000   0.000   0.003   0.003   0.148  -0.000
  0.000  -0.000  -0.000  -0.000   0.000  -0.000  -0.000   0.000   0.000  -0.000   0.000   0.000  -0.011  -0.000  -0.000   0.001
  0.000  -0.000   0.000   0.000   0.000  -0.000   0.000  -0.000  -0.000   0.000   0.000   0.000  -0.000  -0.011  -0.000   0.000
 -0.000   0.000   0.000  -0.000  -0.000   0.000  -0.000   0.000  -0.000   0.000  -0.000  -0.000  -0.000  -0.000  -0.011   0.000


------------------------ aborting loop because EDIFF is reached ----------------------------------------




--------------------------------------------------------------------------------------------------------


    CHARGE:  VPU time    0.22: CPU time    0.22
    FORLOC:  VPU time    0.02: CPU time    0.02
    FORNL :  VPU time    1.74: CPU time    1.74
    STRESS:  VPU time    6.83: CPU time    6.83
    FORCOR:  VPU time    0.21: CPU time    0.21
    FORHAR:  VPU time    0.07: CPU time    0.07
    MIXING:  VPU time    0.01: CPU time    0.01


--------------------------------------------------------------------------------------------------------



  FREE ENERGIE OF THE ION-ELECTRON SYSTEM (eV)
  ---------------------------------------------------
  free  energy   TOTEN  =      -102.338084 eV

  energy  without entropy=     -102.188232  energy(sigma->0) =     -102.288133
 

  FORCE on cell =-STRESS in cart. coord.  units (eV/reduce length):
  Direction    X        Y        Z        XY       YZ       ZX
  --------------------------------------------------------------------------------------
  Alpha Z   3408.89   3408.89   3408.89
  Ewald   -10322.16 -10322.16 -10322.16     -0.00     -0.00     -0.00
  Hartree   1251.68   1251.68   1251.68     -0.00     -0.00     -0.00
  E(xc)    -1590.00  -1590.00  -1590.00     -0.00     -0.00     -0.00
  Local     2583.01   2583.01   2583.01      0.00      0.00      0.00
  n-local  -1594.03  -1594.03  -1594.03     11.14     11.14     11.14
  augment   1371.95   1371.95   1371.95     -0.00     -0.00     -0.00
  Kinetic   4901.91   4901.91   4901.91     -9.65     -9.65     -9.65
  -------------------------------------------------------------------------------------
  Total       11.25     11.25     11.25      0.00      0.00      0.00
  in kB       32.04     32.04     32.04      0.00      0.00      0.00
  external pressure =       32.04 kB  Pullay stress =        0.00 kB


 VOLUME and BASIS-vectors are now :
 -----------------------------------------------------------------------------
  energy-cutoff  :      229.95
  volume of cell :      562.58
      direct lattice vectors                 reciprocal lattice vectors
     8.255200780  0.000000000  0.000000000     0.121135758 -0.000000002 -0.000000002
     0.000000150  8.255200780  0.000000000     0.000000000  0.121135758 -0.000000002
     0.000000150  0.000000150  8.255200780     0.000000000  0.000000000  0.121135758

  length of vectors
     8.255200780  8.255200780  8.255200780     0.121135758  0.121135758  0.121135758


 FORCES acting on ions
    electron-ion (+dipol)            ewald-force                    non-local-force                 convergence-correction
 -----------------------------------------------------------------------------------------------
   0.228E-12 0.103E-11 0.405E-11   -.764E-13 -.986E-13 -.625E-13   -.371E-22 0.316E-22 0.356E-22   -.376E-13 -.191E-12 -.314E-12
   0.234E-12 -.508E-11 -.541E-12   -.995E-13 0.213E-13 -.635E-13   0.219E-22 0.595E-23 -.248E-22   -.991E-13 -.558E-12 0.274E-12
   0.233E-12 0.108E-13 0.340E-12   -.462E-13 0.103E-12 -.888E-15   0.244E-22 -.499E-22 -.203E-22   0.669E-14 -.218E-12 0.439E-12
   0.236E-12 -.765E-12 -.185E-11   -.204E-13 -.933E-13 -.192E-13   -.596E-22 -.223E-22 0.695E-22   -.263E-13 0.178E-12 -.292E-12
   0.998E-14 0.244E-12 0.585E-13   -.832E-14 0.293E-13 -.114E-12   -.598E-22 0.257E-22 0.000E+00   0.839E-14 -.337E-12 0.216E-12
   0.143E-13 0.174E-13 0.187E-12   0.587E-13 -.716E-13 -.278E-13   -.530E-22 -.406E-22 -.244E-22   0.934E-14 -.139E-12 -.271E-12
   0.795E-13 0.234E-12 0.731E-12   0.453E-13 -.240E-13 0.197E-13   -.107E-23 -.346E-22 0.583E-22   0.679E-13 -.222E-12 -.256E-12
   0.253E-12 -.259E-13 -.412E-11   -.161E-12 0.785E-13 -.453E-13   -.241E-22 -.357E-22 0.182E-22   -.773E-13 -.192E-12 -.471E-12
   0.242E-12 -.554E-12 -.534E-12   -.799E-14 0.122E-12 0.346E-13   -.312E-23 -.359E-22 0.298E-22   -.341E-13 0.570E-12 0.245E-12
   0.215E-12 -.283E-11 0.167E-12   0.409E-13 0.532E-13 -.391E-13   -.112E-22 -.619E-22 -.827E-24   -.522E-13 0.173E-12 0.643E-13
   -.277E-14 0.244E-12 0.247E-12   0.205E-13 -.986E-13 0.622E-14   -.326E-22 -.134E-22 0.248E-22   0.642E-13 -.302E-12 -.249E-12
   0.282E-14 0.475E-14 -.414E-13   -.865E-13 0.104E-12 -.809E-13   0.594E-22 -.333E-22 -.215E-22   0.168E-12 -.183E-12 0.243E-12
   0.217E-13 0.777E-13 0.711E-13   0.574E-13 0.204E-13 0.577E-13   -.605E-22 -.216E-22 -.418E-22   0.424E-13 0.339E-12 0.261E-12
   0.147E-13 0.145E-12 0.187E-12   -.168E-13 -.205E-13 0.288E-13   -.812E-22 0.684E-22 0.298E-22   0.446E-13 0.122E-12 -.304E-12
   0.737E-13 0.240E-12 0.517E-12   -.346E-13 0.631E-13 -.992E-13   -.476E-22 0.397E-22 0.248E-22   0.133E-12 -.395E-12 0.213E-12
   0.726E-13 0.197E-13 0.619E-12   0.719E-13 0.695E-13 -.104E-12   0.136E-22 -.659E-22 -.412E-22   0.141E-13 -.164E-12 0.273E-12
   0.707E-13 0.802E-13 0.720E-12   -.266E-13 -.719E-13 0.563E-13   0.133E-22 -.587E-22 -.383E-22   0.520E-13 0.212E-12 -.218E-12
   0.144E-12 -.127E-11 0.389E-12   -.152E-12 0.302E-13 0.444E-13   0.572E-23 -.367E-22 -.827E-23   0.228E-13 -.399E-12 0.154E-12
   0.137E-12 0.898E-14 0.127E-11   0.745E-13 -.305E-13 0.137E-13   -.128E-22 0.310E-22 -.827E-24   0.234E-13 -.137E-12 -.192E-12
   0.235E-12 0.307E-11 0.199E-11   0.755E-13 -.134E-13 0.284E-13   -.201E-22 -.764E-23 0.306E-22   -.838E-13 0.146E-12 -.980E-13
   0.887E-14 0.765E-13 0.234E-12   -.157E-12 0.417E-13 -.284E-13   0.176E-22 0.131E-22 -.496E-23   0.119E-12 0.302E-12 -.284E-12
   0.216E-14 0.157E-12 -.405E-13   -.109E-13 0.365E-13 0.319E-13   -.107E-22 -.121E-22 -.827E-24   0.595E-14 0.153E-12 0.273E-12
   0.527E-13 0.455E-14 0.776E-12   0.167E-12 -.193E-13 0.933E-13   -.259E-23 -.516E-22 0.314E-22   0.109E-12 -.122E-12 -.319E-12
   0.652E-13 0.868E-13 0.538E-12   -.426E-13 0.639E-13 0.571E-14   0.884E-22 -.376E-22 -.339E-22   0.635E-13 0.387E-12 0.173E-12
   0.900E-13 0.147E-12 0.619E-12   -.444E-14 0.114E-12 0.284E-13   0.302E-22 -.235E-22 0.248E-23   0.858E-13 0.158E-12 0.958E-13
   0.157E-12 0.172E-11 0.580E-12   -.998E-13 0.373E-13 0.551E-13   0.652E-22 -.246E-22 0.314E-22   -.368E-13 -.304E-12 -.181E-12
   0.150E-12 -.238E-13 -.193E-11   0.125E-15 -.666E-13 -.267E-13   -.145E-21 0.158E-23 -.290E-22   -.146E-12 -.234E-12 0.146E-12
   0.131E-12 0.159E-11 0.422E-12   0.140E-12 -.231E-13 -.835E-13   0.127E-22 -.215E-22 -.579E-23   -.708E-14 0.396E-12 0.248E-12
   0.138E-12 0.133E-12 -.175E-11   0.146E-12 -.764E-13 0.690E-13   0.305E-22 -.431E-22 -.480E-22   -.989E-14 0.137E-12 -.275E-12
   0.698E-13 0.155E-12 0.784E-12   -.693E-13 -.174E-13 -.178E-13   -.501E-22 -.259E-22 0.614E-22   0.116E-12 0.119E-12 -.137E-12
   0.144E-12 -.140E-11 0.555E-12   0.107E-12 0.693E-13 0.551E-13   -.345E-22 -.657E-22 0.331E-23   -.851E-13 0.302E-12 -.274E-12
   0.151E-12 0.173E-12 0.109E-11   0.225E-12 -.691E-13 -.407E-13   -.485E-22 -.114E-22 -.455E-23   0.216E-13 0.216E-12 0.245E-12
 -----------------------------------------------------------------------------------------------
   0.368E-11 -.227E-11 0.632E-11   0.109E-12 0.263E-12 -.225E-12   -.412E-21 -.618E-21 0.102E-21   0.482E-12 -.188E-12 -.567E-12
 
 
 POSITION                                       TOTAL-FORCE (eV/Angst)
 -----------------------------------------------------------------------------------
      6.19140      6.19140      4.12760         0.000000     -0.000000     -0.000000
      6.19140      6.19140      0.00000        -0.000000      0.000000     -0.000000
      6.19140      0.00000      2.06380         0.000000      0.000000     -0.000000
      6.19140      2.06380      4.12760         0.000000      0.000000     -0.000000
      0.00000      6.19140      2.06380        -0.000000     -0.000000      0.000000
      0.00000      0.00000      4.12760        -0.000000     -0.000000     -0.000000
      2.06380      6.19140      4.12760        -0.000000      0.000000     -0.000000
      6.19140      0.00000      6.19140        -0.000000     -0.000000     -0.000000
      6.19140      2.06380      0.00000        -0.000000     -0.000000      0.000000
      6.19140      4.12760      2.06380        -0.000000     -0.000000      0.000000
      0.00000      6.19140      6.19140         0.000000      0.000000      0.000000
      0.00000      0.00000      0.00000         0.000000     -0.000000     -0.000000
      0.00000      2.06380      2.06380         0.000000      0.000000     -0.000000
      0.00000      4.12760      4.12760        -0.000000      0.000000     -0.000000
      2.06380      6.19140      0.00000        -0.000000     -0.000000      0.000000
      2.06380      0.00000      2.06380        -0.000000     -0.000000      0.000000
      2.06380      2.06380      4.12760         0.000000     -0.000000     -0.000000
      4.12760      6.19140      2.06380         0.000000     -0.000000     -0.000000
      4.12760      0.00000      4.12760         0.000000      0.000000     -0.000000
      6.19140      4.12760      6.19140         0.000000     -0.000000     -0.000000
      0.00000      2.06380      6.19140        -0.000000      0.000000      0.000000
      0.00000      4.12760      0.00000        -0.000000     -0.000000      0.000000
      2.06380      0.00000      6.19140         0.000000      0.000000     -0.000000
      2.06380      2.06380      0.00000        -0.000000     -0.000000     -0.000000
      2.06380      4.12760      2.06380        -0.000000     -0.000000     -0.000000
      4.12760      6.19140      6.19140        -0.000000     -0.000000     -0.000000
      4.12760      0.00000      0.00000        -0.000000     -0.000000      0.000000
      4.12760      2.06380      2.06380        -0.000000     -0.000000      0.000000
      4.12760      4.12760      4.12760         0.000000     -0.000000      0.000000
      2.06380      4.12760      6.19140         0.000000     -0.000000      0.000000
      4.12760      2.06380      6.19140         0.000000     -0.000000     -0.000000
      4.12760      4.12760      0.00000        -0.000000      0.000000     -0.000000
 -----------------------------------------------------------------------------------
    total drift:                                0.000000     -0.000000      0.000000


--------------------------------------------------------------------------------------------------------




--------------------------------------------------------------------------------------------------------


  
 reached required accuracy - stopping structural energy minimisation
 writing wavefunctions
     LOOP+:  VPU time   82.07: CPU time   82.42

 ----------------------------------------------------------------------------- 
|                                                                             |
|           W    W    AA    RRRRR   N    N  II  N    N   GGGG   !!!           |
|           W    W   A  A   R    R  NN   N  II  NN   N  G    G  !!!           |
|           W    W  A    A  R    R  N N  N  II  N N  N  G       !!!           |
|           W WW W  AAAAAA  RRRRR   N  N N  II  N  N N  G  GGG   !            |
|           WW  WW  A    A  R   R   N   NN  II  N   NN  G    G                |
|           W    W  A    A  R    R  N    N  II  N    N   GGGG   !!!           |
|                                                                             |
|      The partial DOS and the PROCAR file are not evaluated for NPAR/=1      |
|      please rerun with NPAR=1                                               |
|                                                                             |
 ----------------------------------------------------------------------------- 

  
  
 General timing and accounting informations for this job:
 ========================================================
  
                  Total CPU time used (sec):       83.205
                            User time (sec):       76.610
                          System time (sec):        6.595
                         Elapsed time (sec):       83.589
  
                   Maximum memory used (kb):       70216.
                   Average memory used (kb):           0.
  
                          Minor page faults:        16846
                          Major page faults:            0
                 Voluntary context switches:          886
