   4   4   0   0
  0.1501517E+02  0.3916187E-09  0.3916187E-09  0.3916187E-09  0.5000000E-15
  1.000000000000000E-004
  CAR 
 unknown system                          
     22.11125651     -3.96842357  301      9.00926171      1.00000000
     -3.968  0.0000E+00  0.0000E+00
     -3.881  0.0000E+00  0.0000E+00
     -3.795  0.0000E+00  0.0000E+00
     -3.708  0.0000E+00  0.0000E+00
     -3.621  0.0000E+00  0.0000E+00
     -3.534  0.0000E+00  0.0000E+00
     -3.447  0.0000E+00  0.0000E+00
     -3.360  0.0000E+00  0.0000E+00
     -3.273  0.0000E+00  0.0000E+00
     -3.186  0.0000E+00  0.0000E+00
     -3.099  0.0000E+00  0.0000E+00
     -3.012  0.0000E+00  0.0000E+00
     -2.925  0.0000E+00  0.0000E+00
     -2.838  0.3400E-16  0.2955E-17
     -2.751  0.1331E-01  0.1157E-02
     -2.664  0.8223E-01  0.8306E-02
     -2.578  0.2366E+00  0.2887E-01
     -2.491  0.7986E-01  0.3819E-01
     -2.404  0.3198E+00  0.6600E-01
     -2.317  0.3192E+00  0.9375E-01
     -2.230  0.1590E+00  0.1076E+00
     -2.143  0.3994E+00  0.1424E+00
     -2.056  0.3618E+00  0.1738E+00
     -1.969  0.3796E+00  0.2068E+00
     -1.882  0.3195E+00  0.2350E+00
     -1.795  0.6391E+00  0.2905E+00
     -1.708  0.6744E-01  0.2964E+00
     -1.621  0.6390E+00  0.3530E+00
     -1.534  0.4809E+00  0.3948E+00
     -1.447  0.5208E+00  0.4401E+00
     -1.360  0.6387E+00  0.5058E+00
     -1.274  0.3195E+00  0.5336E+00
     -1.187  0.1292E+00  0.5448E+00
     -1.100  0.3980E+00  0.5959E+00
     -1.013  0.9586E+00  0.6794E+00
     -0.926  0.4260E+00  0.7164E+00
     -0.839  0.9454E+00  0.7986E+00
     -0.752  0.6391E+00  0.8553E+00
     -0.665  0.1876E-01  0.8570E+00
     -0.578  0.7566E+00  0.9227E+00
     -0.491  0.6391E+00  0.9803E+00
     -0.404  0.6636E+00  0.1038E+01
     -0.317  0.6720E+00  0.1096E+01
     -0.230  0.9586E+00  0.1182E+01
     -0.143  0.1147E-01  0.1183E+01
     -0.056  0.1440E+01  0.1308E+01
      0.030  0.6391E+00  0.1376E+01
      0.117  0.3268E+00  0.1405E+01
      0.204  0.1122E+01  0.1502E+01
      0.291  0.6391E+00  0.1571E+01
      0.378  0.1606E-02  0.1571E+01
      0.465  0.6975E+00  0.1631E+01
      0.552  0.1118E+01  0.1740E+01
      0.639  0.6438E+00  0.1796E+01
      0.726  0.1102E+01  0.1891E+01
      0.813  0.1278E+01  0.2017E+01
      0.900  0.9964E-02  0.2018E+01
      0.987  0.1161E+01  0.2119E+01
      1.074  0.3195E+00  0.2156E+01
      1.161  0.9586E+00  0.2240E+01
      1.248  0.8212E+00  0.2311E+01
      1.334  0.1278E+01  0.2434E+01
      1.421  0.4830E-02  0.2434E+01
      1.508  0.1243E+01  0.2542E+01
      1.595  0.1278E+01  0.2663E+01
      1.682  0.3697E+00  0.2695E+01
      1.769  0.1816E+01  0.2853E+01
      1.856  0.6391E+00  0.2913E+01
      1.943  0.7401E-01  0.2920E+01
      2.030  0.7691E+00  0.3009E+01
      2.117  0.1598E+01  0.3149E+01
      2.204  0.8150E+00  0.3220E+01
      2.291  0.1272E+01  0.3352E+01
      2.378  0.6391E+00  0.3409E+01
      2.465  0.1601E+00  0.3422E+01
      2.551  0.1357E+01  0.3554E+01
      2.638  0.6487E+00  0.3611E+01
      2.725  0.1421E+01  0.3734E+01
      2.812  0.6390E+00  0.3804E+01
      2.899  0.1598E+01  0.3943E+01
      2.986  0.2954E+00  0.3969E+01
      3.073  0.1917E+01  0.4138E+01
      3.160  0.1786E+01  0.4293E+01
      3.247  0.2612E-11  0.4332E+01
      3.334  0.6403E+00  0.4388E+01
      3.421  0.1277E+01  0.4499E+01
      3.508  0.3194E+00  0.4527E+01
      3.595  0.6596E+00  0.4584E+01
      3.682  0.2244E+01  0.4779E+01
      3.769  0.4028E+00  0.4826E+01
      3.855  0.2522E+01  0.5045E+01
      3.942  0.2956E+00  0.5075E+01
      4.029  0.1057E+01  0.5167E+01
      4.116  0.1854E+01  0.5328E+01
      4.203  0.1278E+01  0.5469E+01
      4.290  0.6894E+00  0.5529E+01
      4.377  0.1251E+01  0.5689E+01
      4.464  0.3195E+00  0.5719E+01
      4.551  0.1276E+01  0.5830E+01
      4.638  0.1105E+01  0.5932E+01
      4.725  0.7009E+00  0.6007E+01
      4.812  0.1488E+01  0.6158E+01
      4.899  0.1312E+01  0.6282E+01
      4.986  0.6081E+00  0.6387E+01
      5.073  0.1278E+01  0.6508E+01
      5.159  0.9262E+00  0.6589E+01
      5.246  0.3148E+00  0.6619E+01
      5.333  0.1916E+01  0.6786E+01
      5.420  0.1912E+01  0.6952E+01
      5.507  0.4978E+00  0.6996E+01
      5.594  0.1629E+01  0.7138E+01
      5.681  0.3129E+01  0.7410E+01
      5.768  0.2812E+00  0.7435E+01
      5.855  0.6380E+00  0.7494E+01
      5.942  0.9951E+00  0.7581E+01
      6.029  0.2058E+01  0.7774E+01
      6.116  0.7681E+00  0.7898E+01
      6.203  0.2035E+01  0.8077E+01
      6.290  0.6391E+00  0.8178E+01
      6.377  0.1378E+01  0.8298E+01
      6.463  0.8239E+00  0.8375E+01
      6.550  0.1264E+01  0.8485E+01
      6.637  0.2227E+01  0.8678E+01
      6.724  0.9570E+00  0.8762E+01
      6.811  0.7179E+00  0.8824E+01
      6.898  0.1609E+01  0.8994E+01
      6.985  0.4623E+00  0.9049E+01
      7.072  0.1635E+01  0.9191E+01
      7.159  0.2517E+01  0.9410E+01
      7.246  0.1383E+01  0.9530E+01
      7.333  0.5745E-13  0.9549E+01
      7.420  0.1155E+01  0.9649E+01
      7.507  0.1338E+01  0.9766E+01
      7.594  0.1252E+01  0.9911E+01
      7.681  0.1423E+01  0.1007E+02
      7.767  0.5871E+00  0.1012E+02
      7.854  0.2483E+01  0.1034E+02
      7.941  0.1661E+01  0.1049E+02
      8.028  0.1252E+01  0.1061E+02
      8.115  0.1124E+01  0.1071E+02
      8.202  0.6508E+00  0.1079E+02
      8.289  0.2017E+01  0.1096E+02
      8.376  0.1413E+01  0.1111E+02
      8.463  0.9564E+00  0.1120E+02
      8.550  0.3195E+00  0.1123E+02
      8.637  0.1699E+01  0.1137E+02
      8.724  0.9671E+00  0.1150E+02
      8.811  0.2159E+01  0.1169E+02
      8.898  0.1618E+01  0.1184E+02
      8.984  0.1384E+01  0.1198E+02
      9.071  0.1875E+01  0.1214E+02
      9.158  0.1495E+01  0.1229E+02
      9.245  0.1278E+01  0.1240E+02
      9.332  0.9260E+00  0.1248E+02
      9.419  0.1276E+01  0.1259E+02
      9.506  0.1015E+01  0.1268E+02
      9.593  0.1780E+01  0.1284E+02
      9.680  0.2017E+01  0.1304E+02
      9.767  0.7630E+00  0.1313E+02
      9.854  0.1278E+01  0.1324E+02
      9.941  0.6624E+00  0.1330E+02
     10.028  0.2939E+01  0.1355E+02
     10.115  0.2391E+01  0.1376E+02
     10.202  0.1328E+01  0.1388E+02
     10.288  0.2391E+01  0.1411E+02
     10.375  0.1464E+01  0.1424E+02
     10.462  0.1739E+00  0.1426E+02
     10.549  0.1997E+01  0.1445E+02
     10.636  0.9586E+00  0.1455E+02
     10.723  0.8752E+00  0.1463E+02
     10.810  0.2122E+01  0.1482E+02
     10.897  0.1412E+01  0.1496E+02
     10.984  0.6004E+00  0.1503E+02
     11.071  0.2882E+01  0.1531E+02
     11.158  0.3143E+00  0.1535E+02
     11.245  0.2945E+01  0.1561E+02
     11.332  0.1599E+01  0.1577E+02
     11.419  0.6373E+00  0.1583E+02
     11.506  0.1245E+01  0.1593E+02
     11.592  0.1546E+01  0.1607E+02
     11.679  0.1250E+01  0.1619E+02
     11.766  0.1702E+01  0.1633E+02
     11.853  0.2503E+01  0.1655E+02
     11.940  0.1230E+01  0.1666E+02
     12.027  0.1995E+01  0.1684E+02
     12.114  0.1756E+01  0.1700E+02
     12.201  0.1461E+01  0.1715E+02
     12.288  0.2160E+01  0.1736E+02
     12.375  0.1819E+01  0.1752E+02
     12.462  0.1341E+01  0.1764E+02
     12.549  0.1265E+01  0.1776E+02
     12.636  0.2239E+01  0.1796E+02
     12.723  0.1710E+01  0.1811E+02
     12.810  0.1939E+01  0.1828E+02
     12.896  0.3605E+00  0.1832E+02
     12.983  0.2993E+01  0.1858E+02
     13.070  0.2208E+01  0.1878E+02
     13.157  0.6170E+00  0.1884E+02
     13.244  0.1876E+01  0.1900E+02
     13.331  0.2442E+01  0.1923E+02
     13.418  0.6391E+00  0.1933E+02
     13.505  0.9503E+00  0.1941E+02
     13.592  0.1908E+01  0.1958E+02
     13.679  0.1910E+01  0.1974E+02
     13.766  0.1446E+01  0.1988E+02
     13.853  0.3517E+01  0.2019E+02
     13.940  0.2653E+01  0.2042E+02
     14.027  0.1277E+01  0.2060E+02
     14.113  0.3195E+00  0.2063E+02
     14.200  0.3841E+01  0.2096E+02
     14.287  0.9564E+00  0.2104E+02
     14.374  0.1389E+01  0.2116E+02
     14.461  0.7297E+00  0.2123E+02
     14.548  0.2185E+01  0.2142E+02
     14.635  0.2639E+01  0.2167E+02
     14.722  0.1107E+01  0.2177E+02
     14.809  0.1266E+01  0.2188E+02
     14.896  0.1198E+01  0.2198E+02
     14.983  0.1577E+01  0.2212E+02
     15.070  0.9137E+00  0.2220E+02
     15.157  0.6888E+00  0.2227E+02
     15.244  0.6263E+00  0.2237E+02
     15.331  0.6369E-04  0.2242E+02
     15.417  0.2632E+01  0.2265E+02
     15.504  0.1115E+01  0.2275E+02
     15.591  0.6390E+00  0.2284E+02
     15.678  0.1038E+01  0.2294E+02
     15.765  0.2110E+00  0.2295E+02
     15.852  0.0000E+00  0.2295E+02
     15.939  0.1841E-01  0.2296E+02
     16.026  0.2947E+00  0.2299E+02
     16.113  0.7404E+00  0.2305E+02
     16.200  0.9540E+00  0.2318E+02
     16.287  0.9577E+00  0.2327E+02
     16.374  0.0000E+00  0.2327E+02
     16.461  0.2237E-03  0.2327E+02
     16.548  0.9214E+00  0.2335E+02
     16.635  0.1072E+00  0.2336E+02
     16.721  0.7182E+00  0.2342E+02
     16.808  0.2217E-06  0.2342E+02
     16.895  0.6763E+00  0.2348E+02
     16.982  0.6018E+00  0.2353E+02
     17.069  0.0000E+00  0.2353E+02
     17.156  0.1640E-03  0.2353E+02
     17.243  0.3194E+00  0.2356E+02
     17.330  0.6391E+00  0.2362E+02
     17.417  0.0000E+00  0.2362E+02
     17.504  0.4795E-07  0.2362E+02
     17.591  0.6383E+00  0.2367E+02
     17.678  0.3195E+00  0.2370E+02
     17.765  0.3612E-02  0.2370E+02
     17.852  0.7420E+00  0.2376E+02
     17.939  0.2356E+00  0.2378E+02
     18.025  0.0000E+00  0.2379E+02
     18.112  0.0000E+00  0.2379E+02
     18.199  0.0000E+00  0.2379E+02
     18.286  0.8330E-04  0.2379E+02
     18.373  0.3195E+00  0.2382E+02
     18.460  0.0000E+00  0.2382E+02
     18.547  0.4226E-01  0.2382E+02
     18.634  0.9149E+00  0.2390E+02
     18.721  0.0000E+00  0.2390E+02
     18.808  0.0000E+00  0.2390E+02
     18.895  0.4789E-14  0.2390E+02
     18.982  0.3195E+00  0.2393E+02
     19.069  0.0000E+00  0.2393E+02
     19.156  0.0000E+00  0.2393E+02
     19.242  0.0000E+00  0.2393E+02
     19.329  0.2941E+00  0.2396E+02
     19.416  0.0000E+00  0.2397E+02
     19.503  0.0000E+00  0.2397E+02
     19.590  0.0000E+00  0.2397E+02
     19.677  0.1010E+00  0.2398E+02
     19.764  0.0000E+00  0.2400E+02
     19.851  0.0000E+00  0.2400E+02
     19.938  0.0000E+00  0.2400E+02
     20.025  0.0000E+00  0.2400E+02
     20.112  0.0000E+00  0.2400E+02
     20.199  0.0000E+00  0.2400E+02
     20.286  0.0000E+00  0.2400E+02
     20.373  0.0000E+00  0.2400E+02
     20.460  0.0000E+00  0.2400E+02
     20.546  0.0000E+00  0.2400E+02
     20.633  0.0000E+00  0.2400E+02
     20.720  0.0000E+00  0.2400E+02
     20.807  0.0000E+00  0.2400E+02
     20.894  0.2078E-06  0.2400E+02
     20.981  0.5326E-01  0.2400E+02
     21.068  0.0000E+00  0.2400E+02
     21.155  0.0000E+00  0.2400E+02
     21.242  0.0000E+00  0.2400E+02
     21.329  0.0000E+00  0.2400E+02
     21.416  0.0000E+00  0.2400E+02
     21.503  0.0000E+00  0.2400E+02
     21.590  0.0000E+00  0.2400E+02
     21.677  0.0000E+00  0.2400E+02
     21.764  0.0000E+00  0.2400E+02
     21.850  0.0000E+00  0.2400E+02
     21.937  0.0000E+00  0.2400E+02
     22.024  0.0000E+00  0.2400E+02
     22.111  0.0000E+00  0.2400E+02
