    4    4    1    1
  0.1501517E+02  0.3916187E-09  0.3916187E-09  0.3916187E-09  0.5000000E-15
  1.000000000000000E-004
  CAR 
 unknown system                          
   12   84   12
 
  0.0000000E+00  0.0000000E+00  0.0000000E+00  0.5787037E-03
   1       -2.7830
   2        5.8672
   3        5.8672
   4        5.8672
   5        7.3860
   6        7.3860
   7        7.3860
   8       14.2961
   9       14.2961
  10       14.2961
  11       15.0754
  12       15.0754
 
  0.8333333E-01  0.0000000E+00  0.0000000E+00  0.3472222E-02
   1       -2.7160
   2        4.9839
   3        5.9278
   4        5.9278
   5        7.4485
   6        7.4485
   7        8.3828
   8       13.2201
   9       13.2201
  10       14.3624
  11       14.6458
  12       14.6458
 
  0.1666667E+00  0.0000000E+00  0.0000000E+00  0.3472222E-02
   1       -2.5152
   2        3.7222
   3        6.1096
   4        6.1096
   5        7.6344
   6        7.6344
   7        9.9850
   8       11.9545
   9       11.9545
  10       13.7362
  11       13.7362
  12       14.5609
 
  0.2500000E+00  0.0000000E+00  0.0000000E+00  0.3472222E-02
   1       -2.1813
   2        2.5242
   3        6.4128
   4        6.4128
   5        7.9366
   6        7.9366
   7       10.7972
   8       10.7972
   9       11.7499
  10       12.7367
  11       12.7367
  12       14.8913
 
  0.3333333E+00  0.0000000E+00  0.0000000E+00  0.3472222E-02
   1       -1.7153
   2        1.4323
   3        6.8376
   4        6.8376
   5        8.3366
   6        8.3366
   7        9.7601
   8        9.7601
   9       11.7988
  10       11.7988
  11       13.6336
  12       15.3529
 
  0.4166667E+00  0.0000000E+00  0.0000000E+00  0.3472222E-02
   1       -1.1187
   2        0.4581
   3        7.3844
   4        7.3844
   5        8.7736
   6        8.7736
   7        8.8454
   8        8.8454
   9       11.0283
  10       11.0283
  11       15.6223
  12       15.9443
 
  0.5000000E+00  0.0000000E+00  0.0000000E+00  0.1736111E-02
   1       -0.3934
   2       -0.3934
   3        8.0536
   4        8.0536
   5        8.0536
   6        8.0536
   7        9.0164
   8        9.0164
   9       10.6729
  10       10.6729
  11       16.6633
  12       16.6633
 
  0.8333333E-01  0.8333333E-01  0.0000000E+00  0.6944444E-02
   1       -2.6490
   2        5.0461
   3        5.0461
   4        5.9884
   5        7.5101
   6        8.4432
   7        8.4432
   8       12.3948
   9       13.2825
  10       13.2825
  11       14.7037
  12       14.7037
 
  0.1666667E+00  0.8333333E-01  0.0000000E+00  0.1388889E-01
   1       -2.4484
   2        3.7855
   3        5.2325
   4        6.1702
   5        7.6918
   6        8.6221
   7       10.0419
   8       11.2032
   9       12.0162
  10       13.4692
  11       13.7988
  12       14.5550
 
  0.2500000E+00  0.8333333E-01  0.0000000E+00  0.1388889E-01
   1       -2.1147
   2        2.5883
   3        5.5423
   4        6.4735
   5        7.9785
   6        8.9112
   7       10.0883
   8       10.8586
   9       11.8002
  10       12.8074
  11       13.5660
  12       13.7801
 
  0.3333333E+00  0.8333333E-01  0.0000000E+00  0.1388889E-01
   1       -1.6489
   2        1.4971
   3        5.9744
   4        6.8984
   5        8.2735
   6        9.1820
   7        9.2830
   8        9.8213
   9       11.8915
  10       12.6119
  11       13.6661
  12       14.2145
 
  0.4166667E+00  0.8333333E-01  0.0000000E+00  0.1388889E-01
   1       -1.0526
   2        0.5233
   3        6.5259
   4        7.4453
   5        7.9204
   6        8.9065
   7        9.1246
   8        9.6208
   9       11.2161
  10       11.7776
  11       14.7711
  12       15.5389
 
  0.5000000E+00  0.8333333E-01  0.0000000E+00  0.6944444E-02
   1       -0.3277
   2       -0.3277
   3        7.1886
   4        7.1886
   5        8.1145
   6        8.1145
   7        9.5439
   8        9.5439
   9       11.1867
  10       11.1867
  11       15.4487
  12       15.4487
 
  0.1666667E+00  0.1666667E+00  0.0000000E+00  0.6944444E-02
   1       -2.2480
   2        3.9753
   3        3.9753
   4        6.3522
   5        7.8528
   6       10.0591
   7       10.2083
   8       10.2083
   9       12.2011
  10       12.2011
  11       13.9886
  12       13.9886
 
  0.2500000E+00  0.1666667E+00  0.0000000E+00  0.1388889E-01
   1       -1.9149
   2        2.7805
   3        4.2909
   4        6.6555
   5        8.0184
   6        9.0743
   7       10.4633
   8       11.0427
   9       11.9376
  10       12.5092
  11       13.0305
  12       14.3176
 
  0.3333333E+00  0.1666667E+00  0.0000000E+00  0.1388889E-01
   1       -1.4498
   2        1.6912
   3        4.7309
   4        7.0807
   5        7.5920
   6        8.8994
   7       10.0050
   8       10.7086
   9       12.2363
  10       12.9401
  11       13.6869
  12       14.0822
 
  0.4166667E+00  0.1666667E+00  0.0000000E+00  0.1388889E-01
   1       -0.8545
   2        0.7190
   3        5.2932
   4        6.7587
   5        7.6278
   6        9.0897
   7        9.3537
   8       10.5516
   9       12.0461
  10       13.2320
  11       13.4934
  12       14.9295
 
  0.5000000E+00  0.1666667E+00  0.0000000E+00  0.6944444E-02
   1       -0.1307
   2       -0.1307
   3        5.9731
   4        5.9731
   5        8.2974
   6        8.2974
   7        9.9609
   8        9.9609
   9       12.5123
  10       12.5123
  11       14.1686
  12       14.1686
 
  0.2500000E+00  0.2500000E+00  0.0000000E+00  0.6944444E-02
   1       -1.5825
   2        3.1001
   3        3.1001
   4        6.9592
   5        7.4755
   6        8.7983
   7       11.3496
   8       11.3496
   9       12.0711
  10       12.0711
  11       13.4844
  12       13.4844
 
  0.3333333E+00  0.2500000E+00  0.0000000E+00  0.1388889E-01
   1       -1.1187
   2        2.0140
   3        3.5460
   4        6.5260
   5        7.3847
   6        9.1462
   7       10.3111
   8       11.7792
   9       11.7999
  10       13.2049
  11       13.2738
  12       14.5819
 
  0.4166667E+00  0.2500000E+00  0.0000000E+00  0.1388889E-01
   1       -0.5249
   2        1.0445
   3        4.1164
   4        5.6162
   5        7.9323
   6        9.3953
   7        9.6830
   8       11.0859
   9       12.3314
  10       13.5641
  11       13.8023
  12       13.9979
 
  0.5000000E+00  0.2500000E+00  0.0000000E+00  0.6944444E-02
   1        0.1970
   2        0.1970
   3        4.8083
   4        4.8083
   5        8.6024
   6        8.6024
   7       10.3423
   8       10.3423
   9       13.0059
  10       13.0059
  11       14.1660
  12       14.1660
 
  0.3333333E+00  0.3333333E+00  0.0000000E+00  0.6944444E-02
   1       -0.6566
   2        2.4645
   3        2.4645
   4        5.4951
   5        7.8106
   6        9.5725
   7       10.7398
   8       10.7398
   9       12.4421
  10       12.4421
  11       13.6798
  12       14.8616
 
  0.4166667E+00  0.3333333E+00  0.0000000E+00  0.1388889E-01
   1       -0.0649
   2        1.4987
   3        3.0411
   4        4.5616
   5        8.3588
   6        9.8232
   7       10.1314
   8       11.2911
   9       11.5877
  10       12.7613
  11       13.0522
  12       14.5229
 
  0.5000000E+00  0.3333333E+00  0.0000000E+00  0.6944444E-02
   1        0.6544
   2        0.6544
   3        3.7413
   4        3.7413
   5        9.0296
   6        9.0296
   7       10.8080
   8       10.8080
   9       11.9650
  10       11.9650
  11       13.7401
  12       13.7401
 
  0.4166667E+00  0.4166667E+00  0.0000000E+00  0.6944444E-02
   1        0.5240
   2        2.0802
   3        2.0802
   4        3.6156
   5        8.9077
   6       10.3737
   7       10.3737
   8       10.6990
   9       11.8427
  10       12.1705
  11       12.1705
  12       13.6416
 
  0.5000000E+00  0.4166667E+00  0.0000000E+00  0.6944444E-02
   1        1.2399
   2        1.2399
   3        2.7868
   4        2.7868
   5        9.5792
   6        9.5792
   7       11.0468
   8       11.0468
   9       11.3813
  10       11.3813
  11       12.8548
  12       12.8548
 
  0.5000000E+00  0.5000000E+00  0.0000000E+00  0.1736111E-02
   1        1.9517
   2        1.9517
   3        1.9517
   4        1.9517
   5       10.2516
   6       10.2516
   7       10.2516
   8       10.2516
   9       12.0651
  10       12.0651
  11       12.0651
  12       12.0651
 
  0.8333333E-01  0.8333333E-01  0.8333333E-01  0.4629630E-02
   1       -2.5821
   2        5.1082
   3        5.1082
   4        5.1082
   5        8.5021
   6        8.5021
   7        8.5021
   8       12.4579
   9       12.4579
  10       12.4579
  11       15.2436
  12       15.2436
 
  0.1666667E+00  0.8333333E-01  0.8333333E-01  0.1388889E-01
   1       -2.3816
   2        3.8488
   3        5.2944
   4        5.2944
   5        8.6745
   6        8.6745
   7       10.0950
   8       11.2705
   9       11.2705
  10       12.6490
  11       14.6147
  12       14.6147
 
  0.2500000E+00  0.8333333E-01  0.8333333E-01  0.1388889E-01
   1       -2.0480
   2        2.6524
   3        5.6037
   4        5.6037
   5        8.9288
   6        8.9288
   7       10.1791
   8       10.1791
   9       11.8307
  10       12.9823
  11       13.6305
  12       13.6305
 
  0.3333333E+00  0.8333333E-01  0.8333333E-01  0.1388889E-01
   1       -1.5825
   2        1.5618
   3        6.0342
   4        6.0342
   5        8.8633
   6        8.8633
   7        9.6191
   8        9.6191
   9       12.6861
  10       12.6861
  11       13.2605
  12       13.8598
 
  0.4166667E+00  0.8333333E-01  0.8333333E-01  0.1388889E-01
   1       -0.9865
   2        0.5886
   3        6.5786
   4        6.5786
   5        8.0807
   6        8.0807
   7        9.9592
   8        9.9592
   9       11.8866
  10       11.8866
  11       13.8879
  12       15.3646
 
  0.5000000E+00  0.8333333E-01  0.8333333E-01  0.6944444E-02
   1       -0.2620
   2       -0.2620
   3        7.0896
   4        7.0896
   5        7.4629
   6        7.4629
   7       10.2307
   8       10.2307
   9       11.4877
  10       11.4877
  11       14.5709
  12       14.5709
 
  0.1666667E+00  0.1666667E+00  0.8333333E-01  0.1388889E-01
   1       -2.1813
   2        4.0384
   3        4.0384
   4        5.4797
   5        8.8040
   6       10.1553
   7       10.2340
   8       10.2340
   9       11.4882
  10       11.4882
  11       14.7944
  12       14.7944
 
  0.2500000E+00  0.1666667E+00  0.8333333E-01  0.2777778E-01
   1       -1.8483
   2        2.8445
   3        4.3536
   4        5.7866
   5        8.6435
   6        9.4927
   7       10.0922
   8       10.7755
   9       11.5670
  10       12.2133
  11       13.8276
  12       15.0472
 
  0.3333333E+00  0.1666667E+00  0.8333333E-01  0.2777778E-01
   1       -1.3835
   2        1.7558
   3        4.7929
   4        6.2079
   5        7.7848
   6        9.1837
   7        9.7513
   8       11.0065
   9       12.1140
  10       12.9294
  11       13.9431
  12       14.1463
 
  0.4166667E+00  0.1666667E+00  0.8333333E-01  0.2777778E-01
   1       -0.7885
   2        0.7842
   3        5.3530
   4        6.6090
   5        7.0428
   6        8.2867
   7       10.2523
   8       11.2087
   9       12.3676
  10       12.6841
  11       13.3049
  12       14.1584
 
  0.5000000E+00  0.1666667E+00  0.8333333E-01  0.1388889E-01
   1       -0.0651
   2       -0.0651
   3        6.0232
   4        6.0232
   5        7.5064
   6        7.5064
   7       10.8309
   8       10.8309
   9       12.6199
  10       12.6199
  11       13.3635
  12       13.3635
 
  0.2500000E+00  0.2500000E+00  0.8333333E-01  0.1388889E-01
   1       -1.5162
   2        3.1639
   3        3.1639
   4        6.0841
   5        7.6748
   6        9.6496
   7       10.5330
   8       10.5330
   9       12.3484
  10       12.3484
  11       14.1792
  12       14.1792
 
  0.3333333E+00  0.2500000E+00  0.8333333E-01  0.2777778E-01
   1       -1.0526
   2        2.0785
   3        3.6093
   4        6.3649
   5        6.8119
   6        9.5145
   7       10.0550
   8       10.9850
   9       12.4479
  10       13.5206
  11       13.9342
  12       13.9353
 
  0.4166667E+00  0.2500000E+00  0.8333333E-01  0.2777778E-01
   1       -0.4591
   2        1.1095
   3        4.1789
   4        5.6659
   5        7.1431
   6        8.6012
   7       10.5950
   8       11.5459
   9       11.9493
  10       13.0210
  11       13.6667
  12       14.8564
 
  0.5000000E+00  0.2500000E+00  0.8333333E-01  0.1388889E-01
   1        0.2625
   2        0.2625
   3        4.8685
   4        4.8685
   5        7.8065
   6        7.8065
   7       11.2428
   8       11.2428
   9       12.2243
  10       12.2243
  11       14.2369
  12       14.2369
 
  0.3333333E+00  0.3333333E+00  0.8333333E-01  0.1388889E-01
   1       -0.5907
   2        2.5287
   3        2.5287
   4        5.5449
   5        7.0208
   6        9.9539
   7        9.9539
   8       10.4883
   9       12.9045
  10       13.2995
  11       13.2995
  12       14.9543
 
  0.4166667E+00  0.3333333E+00  0.8333333E-01  0.2777778E-01
   1        0.0007
   2        1.5635
   3        3.1048
   4        4.6220
   5        7.5624
   6        9.0361
   7       10.5121
   8       11.0425
   9       11.9885
  10       12.4761
  11       13.9301
  12       15.3960
 
  0.5000000E+00  0.3333333E+00  0.8333333E-01  0.1388889E-01
   1        0.7196
   2        0.7196
   3        3.8041
   4        3.8041
   5        8.2376
   6        8.2376
   7       11.1905
   8       11.1905
   9       11.7098
  10       11.7098
  11       14.6167
  12       14.6167
 
  0.4166667E+00  0.4166667E+00  0.8333333E-01  0.1388889E-01
   1        0.5893
   2        2.1446
   3        2.1446
   4        3.6784
   5        8.1154
   6        9.5930
   7        9.5930
   8       11.0708
   9       11.6039
  10       13.0581
  11       13.0581
  12       14.5187
 
  0.5000000E+00  0.4166667E+00  0.8333333E-01  0.1388889E-01
   1        1.3048
   2        1.3048
   3        2.8507
   4        2.8507
   5        8.7933
   6        8.7933
   7       10.2716
   8       10.2716
   9       12.2779
  10       12.2779
  11       13.7373
  12       13.7373
 
  0.5000000E+00  0.5000000E+00  0.8333333E-01  0.3472222E-02
   1        2.0162
   2        2.0162
   3        2.0162
   4        2.0162
   5        9.4718
   6        9.4718
   7        9.4718
   8        9.4718
   9       12.9546
  10       12.9546
  11       12.9546
  12       12.9546
 
  0.1666667E+00  0.1666667E+00  0.1666667E+00  0.4629630E-02
   1       -1.9814
   2        4.2275
   3        4.2275
   4        4.2275
   5        9.9919
   6        9.9919
   7        9.9919
   8       10.7441
   9       10.7441
  10       10.7441
  11       15.7486
  12       15.7486
 
  0.2500000E+00  0.1666667E+00  0.1666667E+00  0.1388889E-01
   1       -1.6489
   2        3.0361
   3        4.5414
   4        4.5414
   5        9.0107
   6        9.0107
   7       10.4714
   8       10.8931
   9       10.8931
  10       12.3277
  11       14.9069
  12       15.2267
 
  0.3333333E+00  0.1666667E+00  0.1666667E+00  0.1388889E-01
   1       -1.1849
   2        1.9495
   3        4.9774
   4        4.9774
   5        8.0020
   6        8.0020
   7       10.9315
   8       11.2765
   9       11.2765
  10       13.8847
  11       14.1686
  12       14.3418
 
  0.4166667E+00  0.1666667E+00  0.1666667E+00  0.1388889E-01
   1       -0.5907
   2        0.9795
   3        5.5249
   4        5.5249
   5        7.1004
   6        7.1004
   7       11.4957
   8       11.7480
   9       11.7480
  10       12.9727
  11       13.5447
  12       13.5447
 
  0.5000000E+00  0.1666667E+00  0.1666667E+00  0.6944444E-02
   1        0.1316
   2        0.1316
   3        6.0074
   4        6.0074
   5        6.4989
   6        6.4989
   7       12.0621
   8       12.0621
   9       12.1757
  10       12.1757
  11       13.1198
  12       13.1198
 
  0.2500000E+00  0.2500000E+00  0.1666667E+00  0.1388889E-01
   1       -1.3173
   2        3.3548
   3        3.3548
   4        4.8518
   5        7.8943
   6        9.3525
   7        9.3525
   8       11.1879
   9       12.6031
  10       12.6031
  11       13.7813
  12       15.5289
 
  0.3333333E+00  0.2500000E+00  0.1666667E+00  0.2777778E-01
   1       -0.8544
   2        2.2716
   3        3.7988
   4        5.2749
   5        6.8731
   6        8.3213
   7        9.7969
   8       11.6074
   9       12.7546
  10       12.9621
  11       14.4298
  12       14.6909
 
  0.4166667E+00  0.2500000E+00  0.1666667E+00  0.2777778E-01
   1       -0.2618
   2        1.3043
   3        4.3648
   4        5.6404
   5        6.1408
   6        7.4020
   7       10.3585
   8       11.8389
   9       12.1361
  10       13.1748
  11       14.1532
  12       15.1525
 
  0.5000000E+00  0.2500000E+00  0.1666667E+00  0.1388889E-01
   1        0.4586
   2        0.4586
   3        5.0412
   4        5.0412
   5        6.6122
   6        6.6122
   7       11.0394
   8       11.0394
   9       12.7372
  10       12.7372
  11       14.4689
  12       14.4689
 
  0.3333333E+00  0.3333333E+00  0.1666667E+00  0.1388889E-01
   1       -0.3932
   2        2.7209
   3        2.7209
   4        5.5178
   5        6.0186
   6        8.7602
   7        8.7602
   8       11.7237
   9       12.0438
  10       14.5346
  11       14.5346
  12       15.3947
 
  0.4166667E+00  0.3333333E+00  0.1666667E+00  0.2777778E-01
   1        0.1972
   2        1.7575
   3        3.2953
   4        4.7955
   5        6.3644
   6        7.8363
   7        9.3208
   8       10.8047
   9       12.5906
  10       13.9612
  11       15.3992
  12       15.6367
 
  0.5000000E+00  0.3333333E+00  0.1666667E+00  0.1388889E-01
   1        0.9150
   2        0.9150
   3        3.9910
   4        3.9910
   5        7.0333
   6        7.0333
   7       10.0028
   8       10.0028
   9       13.2403
  10       13.2403
  11       16.1001
  12       16.1001
 
  0.4166667E+00  0.4166667E+00  0.1666667E+00  0.1388889E-01
   1        0.7849
   2        2.3375
   3        2.3375
   4        3.8657
   5        6.9095
   6        8.3962
   7        8.3962
   8        9.8830
   9       13.1474
  10       14.5707
  11       14.5707
  12       16.0159
 
  0.5000000E+00  0.4166667E+00  0.1666667E+00  0.1388889E-01
   1        1.4993
   2        1.4993
   3        3.0418
   4        3.0418
   5        7.5907
   6        7.5907
   7        9.0792
   8        9.0792
   9       13.8102
  10       13.8102
  11       15.2470
  12       15.2470
 
  0.5000000E+00  0.5000000E+00  0.1666667E+00  0.3472222E-02
   1        2.2093
   2        2.2093
   3        2.2093
   4        2.2093
   5        8.2739
   6        8.2739
   7        8.2739
   8        8.2739
   9       14.4789
  10       14.4789
  11       14.4789
  12       14.4789
 
  0.2500000E+00  0.2500000E+00  0.2500000E+00  0.4629630E-02
   1       -0.9865
   2        3.6718
   3        3.6718
   4        3.6718
   5        8.2148
   6        8.2148
   7        8.2148
   8       12.6523
   9       12.9205
  10       12.9205
  11       12.9205
  12       16.5926
 
  0.3333333E+00  0.2500000E+00  0.2500000E+00  0.1388889E-01
   1       -0.5248
   2        2.5926
   3        4.1120
   4        4.1120
   5        7.1755
   6        7.1755
   7        8.6546
   8       11.6215
   9       13.3343
  10       13.3343
  11       14.7740
  12       16.2205
 
  0.4166667E+00  0.2500000E+00  0.2500000E+00  0.1388889E-01
   1        0.0662
   2        1.6282
   3        4.6647
   4        4.6647
   5        6.2600
   6        6.2600
   7        9.2162
   8       10.7019
   9       13.8219
  10       13.8219
  11       15.4938
  12       15.4938
 
  0.5000000E+00  0.2500000E+00  0.2500000E+00  0.6944444E-02
   1        0.7848
   2        0.7848
   3        5.1504
   4        5.1504
   5        5.6529
   6        5.6529
   7        9.8992
   8        9.8992
   9       14.1595
  10       14.1595
  11       15.0626
  12       15.0626
 
  0.3333333E+00  0.3333333E+00  0.2500000E+00  0.1388889E-01
   1       -0.0648
   2        3.0400
   3        3.0400
   4        4.5390
   5        6.1397
   6        7.6111
   7        7.6111
   8       10.5865
   9       13.7742
  10       15.1593
  11       15.1593
  12       16.6547
 
  0.4166667E+00  0.3333333E+00  0.2500000E+00  0.2777778E-01
   1        0.5241
   2        2.0800
   3        3.6105
   4        4.9048
   5        5.4026
   6        6.6829
   7        8.1727
   8        9.6632
   9       14.3082
  10       15.3889
  11       16.1830
  12       16.8435
 
  0.5000000E+00  0.3333333E+00  0.2500000E+00  0.1388889E-01
   1        1.2400
   2        1.2400
   3        4.2929
   4        4.2929
   5        5.8856
   6        5.8856
   7        8.8575
   8        8.8575
   9       14.9157
  10       14.9157
  11       16.5365
  12       16.5365
 
  0.4166667E+00  0.4166667E+00  0.2500000E+00  0.1388889E-01
   1        1.1103
   2        2.6579
   3        2.6579
   4        4.1682
   5        5.7600
   6        7.2427
   7        7.2427
   8        8.7367
   9       14.8627
  10       16.2231
  11       16.2231
  12       17.6518
 
  0.5000000E+00  0.4166667E+00  0.2500000E+00  0.1388889E-01
   1        1.8226
   2        1.8226
   3        3.3579
   4        3.3579
   5        6.4341
   6        6.4341
   7        7.9286
   8        7.9286
   9       15.5079
  10       15.5079
  11       16.9064
  12       16.9064
 
  0.5000000E+00  0.5000000E+00  0.2500000E+00  0.3472222E-02
   1        2.5301
   2        2.5301
   3        2.5301
   4        2.5301
   5        7.1191
   6        7.1191
   7        7.1191
   8        7.1191
   9       16.1670
  10       16.1670
  11       16.1670
  12       16.1670
 
  0.3333333E+00  0.3333333E+00  0.3333333E+00  0.4629630E-02
   1        0.3935
   2        3.4833
   3        3.4833
   4        3.4833
   5        6.5632
   6        6.5632
   7        6.5632
   8        9.5470
   9       15.6170
  10       15.6170
  11       15.6170
  12       17.7776
 
  0.4166667E+00  0.3333333E+00  0.3333333E+00  0.1388889E-01
   1        0.9803
   2        2.5296
   3        4.0408
   4        4.0408
   5        5.6401
   6        5.6401
   7        7.1238
   8        8.6196
   9       16.1191
  10       16.1191
  11       17.5401
  12       17.5708
 
  0.5000000E+00  0.3333333E+00  0.3333333E+00  0.6944444E-02
   1        1.6934
   2        1.6934
   3        4.5360
   4        4.5360
   5        5.0226
   6        5.0226
   7        7.8106
   8        7.8106
   9       16.4832
  10       16.4832
  11       17.1793
  12       17.1793
 
  0.4166667E+00  0.4166667E+00  0.3333333E+00  0.1388889E-01
   1        1.5642
   2        3.1032
   3        3.1032
   4        4.4130
   5        4.8946
   6        6.1906
   7        6.1906
   8        7.6887
   9       16.6810
  10       17.7942
  11       17.7942
  12       18.3108
 
  0.5000000E+00  0.4166667E+00  0.3333333E+00  0.1388889E-01
   1        2.2733
   2        2.2733
   3        3.7901
   4        3.7901
   5        5.3880
   6        5.3880
   7        6.8773
   8        6.8773
   9       17.2868
  10       17.2868
  11       18.5967
  12       18.6155
 
  0.5000000E+00  0.5000000E+00  0.3333333E+00  0.3472222E-02
   1        2.9760
   2        2.9760
   3        2.9760
   4        2.9760
   5        6.0657
   6        6.0657
   7        6.0657
   8        6.0657
   9       17.9340
  10       17.9340
  11       17.9340
  12       17.9340
 
  0.4166667E+00  0.4166667E+00  0.4166667E+00  0.4629630E-02
   1        2.1447
   2        3.6637
   3        3.6637
   4        3.6637
   5        5.2630
   6        5.2630
   7        5.2630
   8        6.7544
   9       18.5549
  10       18.5549
  11       18.5549
  12       19.3021
 
  0.5000000E+00  0.4166667E+00  0.4166667E+00  0.6944444E-02
   1        2.8484
   2        2.8484
   3        4.1670
   4        4.1670
   5        4.6370
   6        4.6370
   7        5.9417
   8        5.9417
   9       18.9485
  10       18.9485
  11       19.3279
  12       19.3279
 
  0.5000000E+00  0.5000000E+00  0.4166667E+00  0.3472222E-02
   1        3.5377
   2        3.5377
   3        3.5377
   4        3.5377
   5        5.1365
   6        5.1365
   7        5.1365
   8        5.1365
   9       19.6805
  10       19.6805
  11       19.6805
  12       19.6805
 
  0.5000000E+00  0.5000000E+00  0.5000000E+00  0.5787037E-03
   1        4.0440
   2        4.0440
   3        4.0440
   4        4.0440
   5        4.5074
   6        4.5074
   7        4.5074
   8        4.5074
   9       20.9258
  10       20.9258
  11       20.9258
  12       20.9258
