 vasp.4.6.28 25Jul05 complex 
 executed on             LinuxIFC date 2017.01.08  09:56:42
 running on    4 nodes
 distr:  one band on    1 nodes,    4 groups


--------------------------------------------------------------------------------------------------------


 INCAR:
 POTCAR:   PAW_PBE Al 04Jan2001                   
 POTCAR:   PAW_PBE Al 04Jan2001                   
   VRHFIN =Al: s2p1                                                             
   LEXCH  = PE                                                                  
   EATOM  =    53.5387 eV,    3.9350 Ry                                         
                                                                                
   TITEL  = PAW_PBE Al 04Jan2001                                                
   LULTRA =        F    use ultrasoft PP ?                                      
   IUNSCR =        1    unscreen: 0-lin 1-nonlin 2-no                           
   RPACOR =    1.500    partial core radius                                     
   POMASS =   26.982; ZVAL   =    3.000    mass and valenz                      
   RCORE  =    1.900    outmost cutoff radius                                   
   RWIGS  =    2.650; RWIGS  =    1.402    wigner-seitz radius (au A)           
   ENMAX  =  240.300; ENMIN  =  180.225 eV                                      
   ICORE  =        2    local potential                                         
   LCOR   =        T    correct aug charges                                     
   LPAW   =        T    paw PP                                                  
   EAUG   =  291.052                                                            
   DEXC   =    -.041                                                            
   RMAX   =    2.974    core radius for proj-oper                               
   RAUG   =    1.300    factor for augmentation sphere                          
   RDEP   =    1.966    radius for radial grids                                 
   QCUT   =   -4.203; QGAM   =    8.405    optimization parameters              
                                                                                
   Description                                                                  
     l     E      TYP  RCUT    TYP  RCUT                                        
     0   .000     23  1.900                                                     
     0   .000     23  1.900                                                     
     1   .000     23  1.900                                                     
     1  1.000     23  1.900                                                     
     2   .000      7  1.900                                                     
  local pseudopotential read in
  partial core-charges read in
  atomic valenz-charges read in
  non local Contribution for L=           0  read in
    real space projection operators read in
  non local Contribution for L=           0  read in
    real space projection operators read in
  non local Contribution for L=           1  read in
    real space projection operators read in
  non local Contribution for L=           1  read in
    real space projection operators read in
    PAW grid and wavefunctions read in
 
   number of l-projection  operators is LMAX  =           4
   number of lm-projection operators is LMMAX =           8
 
 PAW_PBE Al 04Jan2001                   :
 energy of atom  1       EATOM=  -53.5387
 kinetic energy error for atom=    0.0001 (will be added to EATOM!!)
 
 EXHCAR: internal setup
 exchange correlation table for  LEXCH =        8
   RHO(1)=    0.500       N(1)  =     2000
   RHO(2)=  100.500       N(2)  =     4000
 
 POSCAR: Al                                      
  positions in direct lattice
  No initial velocities read in
 


--------------------------------------------------------------------------------------------------------


 ion  position               nearest neighbor table
   1  0.500  0.500  0.000-   2 2.77   3 2.77   4 2.77   2 2.77   3 2.77   2 2.77   4 2.77   2 2.77
                             3 2.77   4 2.77   3 2.77   4 2.77
   2  0.500  0.000  0.500-   1 2.77   3 2.77   4 2.77   1 2.77   4 2.77   1 2.77   3 2.77   1 2.77
                             3 2.77   4 2.77   4 2.77   3 2.77
   3  0.000  0.500  0.500-   1 2.77   2 2.77   4 2.77   1 2.77   4 2.77   2 2.77   4 2.77   4 2.77
                             1 2.77   2 2.77   1 2.77   2 2.77
   4  0.000  0.000  0.000-   1 2.77   2 2.77   3 2.77   2 2.77   3 2.77   1 2.77   3 2.77   3 2.77
                             1 2.77   2 2.77   2 2.77   1 2.77
 
  LATTYP: Found a simple cubic cell.
 ALAT       =     3.9161871786
  
  Lattice vectors:
  
 A1 = (   3.9161871786,   0.0000000000,   0.0000000000)
 A2 = (   0.0000000000,   3.9161871786,   0.0000000000)
 A3 = (   0.0000000000,   0.0000000000,   3.9161871786)
 Subroutine PRICEL returns following result:
 
  LATTYP: Found a face centered cubic cell.
 ALAT       =     3.9161871786
  
  Lattice vectors:
  
 A1 = (   1.9580935893,   1.9580935893,   0.0000000000)
 A2 = (   1.9580935893,   0.0000000000,  -1.9580935893)
 A3 = (   0.0000000000,   1.9580935893,  -1.9580935893)
 
   4 primitive cells build up your supercell.
 

Analysis of symmetry for initial positions (statically):

 Routine SETGRP: Setting up the symmetry group for a 
 simple cubic supercell.


 Subroutine GETGRP returns: Found 48 space group operations
 (whereof 48 operations were pure point group operations)
 out of a pool of 48 trial point group operations.


The static configuration has the point symmetry O_h .

Analysis of symmetry for dynamics (positions and initial velocities):

 Subroutine DYNSYM returns: Found 48 space group operations
 (whereof 48 operations were pure point group operations)
 out of a pool of 48 trial space group operations
 (whereof 48 operations were pure point group operations)
 and found also     4 'primitive' translations


The dynamic configuration has the point symmetry O_h .
 
 
 KPOINTS: Automatic mesh                          

Automatic generation of k-mesh.
 
 Subroutine IBZKPT returns following result:
 ===========================================
 
 Found     84 irreducible k-points:
 
 Following reciprocal coordinates:
            Coordinates               Weight
  0.000000  0.000000  0.000000      1.000000
  0.083333  0.000000  0.000000      6.000000
  0.166667  0.000000  0.000000      6.000000
  0.250000  0.000000  0.000000      6.000000
  0.333333  0.000000  0.000000      6.000000
  0.416667  0.000000  0.000000      6.000000
  0.500000  0.000000  0.000000      3.000000
  0.083333  0.083333  0.000000     12.000000
  0.166667  0.083333  0.000000     24.000000
  0.250000  0.083333  0.000000     24.000000
  0.333333  0.083333  0.000000     24.000000
  0.416667  0.083333  0.000000     24.000000
  0.500000  0.083333  0.000000     12.000000
  0.166667  0.166667  0.000000     12.000000
  0.250000  0.166667  0.000000     24.000000
  0.333333  0.166667  0.000000     24.000000
  0.416667  0.166667  0.000000     24.000000
  0.500000  0.166667  0.000000     12.000000
  0.250000  0.250000  0.000000     12.000000
  0.333333  0.250000  0.000000     24.000000
  0.416667  0.250000  0.000000     24.000000
  0.500000  0.250000  0.000000     12.000000
  0.333333  0.333333  0.000000     12.000000
  0.416667  0.333333  0.000000     24.000000
  0.500000  0.333333  0.000000     12.000000
  0.416667  0.416667  0.000000     12.000000
  0.500000  0.416667  0.000000     12.000000
  0.500000  0.500000  0.000000      3.000000
  0.083333  0.083333  0.083333      8.000000
  0.166667  0.083333  0.083333     24.000000
  0.250000  0.083333  0.083333     24.000000
  0.333333  0.083333  0.083333     24.000000
  0.416667  0.083333  0.083333     24.000000
  0.500000  0.083333  0.083333     12.000000
  0.166667  0.166667  0.083333     24.000000
  0.250000  0.166667  0.083333     48.000000
  0.333333  0.166667  0.083333     48.000000
  0.416667  0.166667  0.083333     48.000000
  0.500000  0.166667  0.083333     24.000000
  0.250000  0.250000  0.083333     24.000000
  0.333333  0.250000  0.083333     48.000000
  0.416667  0.250000  0.083333     48.000000
  0.500000  0.250000  0.083333     24.000000
  0.333333  0.333333  0.083333     24.000000
  0.416667  0.333333  0.083333     48.000000
  0.500000  0.333333  0.083333     24.000000
  0.416667  0.416667  0.083333     24.000000
  0.500000  0.416667  0.083333     24.000000
  0.500000  0.500000  0.083333      6.000000
  0.166667  0.166667  0.166667      8.000000
  0.250000  0.166667  0.166667     24.000000
  0.333333  0.166667  0.166667     24.000000
  0.416667  0.166667  0.166667     24.000000
  0.500000  0.166667  0.166667     12.000000
  0.250000  0.250000  0.166667     24.000000
  0.333333  0.250000  0.166667     48.000000
  0.416667  0.250000  0.166667     48.000000
  0.500000  0.250000  0.166667     24.000000
  0.333333  0.333333  0.166667     24.000000
  0.416667  0.333333  0.166667     48.000000
  0.500000  0.333333  0.166667     24.000000
  0.416667  0.416667  0.166667     24.000000
  0.500000  0.416667  0.166667     24.000000
  0.500000  0.500000  0.166667      6.000000
  0.250000  0.250000  0.250000      8.000000
  0.333333  0.250000  0.250000     24.000000
  0.416667  0.250000  0.250000     24.000000
  0.500000  0.250000  0.250000     12.000000
  0.333333  0.333333  0.250000     24.000000
  0.416667  0.333333  0.250000     48.000000
  0.500000  0.333333  0.250000     24.000000
  0.416667  0.416667  0.250000     24.000000
  0.500000  0.416667  0.250000     24.000000
  0.500000  0.500000  0.250000      6.000000
  0.333333  0.333333  0.333333      8.000000
  0.416667  0.333333  0.333333     24.000000
  0.500000  0.333333  0.333333     12.000000
  0.416667  0.416667  0.333333     24.000000
  0.500000  0.416667  0.333333     24.000000
  0.500000  0.500000  0.333333      6.000000
  0.416667  0.416667  0.416667      8.000000
  0.500000  0.416667  0.416667     12.000000
  0.500000  0.500000  0.416667      6.000000
  0.500000  0.500000  0.500000      1.000000
 
 Following cartesian coordinates:
            Coordinates               Weight
  0.000000  0.000000  0.000000      1.000000
  0.020641  0.000000  0.000000      6.000000
  0.041282  0.000000  0.000000      6.000000
  0.061922  0.000000  0.000000      6.000000
  0.082563  0.000000  0.000000      6.000000
  0.103204  0.000000  0.000000      6.000000
  0.123845  0.000000  0.000000      3.000000
  0.020641  0.020641  0.000000     12.000000
  0.041282  0.020641  0.000000     24.000000
  0.061922  0.020641  0.000000     24.000000
  0.082563  0.020641  0.000000     24.000000
  0.103204  0.020641  0.000000     24.000000
  0.123845  0.020641  0.000000     12.000000
  0.041282  0.041282  0.000000     12.000000
  0.061922  0.041282  0.000000     24.000000
  0.082563  0.041282  0.000000     24.000000
  0.103204  0.041282  0.000000     24.000000
  0.123845  0.041282  0.000000     12.000000
  0.061922  0.061922  0.000000     12.000000
  0.082563  0.061922  0.000000     24.000000
  0.103204  0.061922  0.000000     24.000000
  0.123845  0.061922  0.000000     12.000000
  0.082563  0.082563  0.000000     12.000000
  0.103204  0.082563  0.000000     24.000000
  0.123845  0.082563  0.000000     12.000000
  0.103204  0.103204  0.000000     12.000000
  0.123845  0.103204  0.000000     12.000000
  0.123845  0.123845  0.000000      3.000000
  0.020641  0.020641  0.020641      8.000000
  0.041282  0.020641  0.020641     24.000000
  0.061922  0.020641  0.020641     24.000000
  0.082563  0.020641  0.020641     24.000000
  0.103204  0.020641  0.020641     24.000000
  0.123845  0.020641  0.020641     12.000000
  0.041282  0.041282  0.020641     24.000000
  0.061922  0.041282  0.020641     48.000000
  0.082563  0.041282  0.020641     48.000000
  0.103204  0.041282  0.020641     48.000000
  0.123845  0.041282  0.020641     24.000000
  0.061922  0.061922  0.020641     24.000000
  0.082563  0.061922  0.020641     48.000000
  0.103204  0.061922  0.020641     48.000000
  0.123845  0.061922  0.020641     24.000000
  0.082563  0.082563  0.020641     24.000000
  0.103204  0.082563  0.020641     48.000000
  0.123845  0.082563  0.020641     24.000000
  0.103204  0.103204  0.020641     24.000000
  0.123845  0.103204  0.020641     24.000000
  0.123845  0.123845  0.020641      6.000000
  0.041282  0.041282  0.041282      8.000000
  0.061922  0.041282  0.041282     24.000000
  0.082563  0.041282  0.041282     24.000000
  0.103204  0.041282  0.041282     24.000000
  0.123845  0.041282  0.041282     12.000000
  0.061922  0.061922  0.041282     24.000000
  0.082563  0.061922  0.041282     48.000000
  0.103204  0.061922  0.041282     48.000000
  0.123845  0.061922  0.041282     24.000000
  0.082563  0.082563  0.041282     24.000000
  0.103204  0.082563  0.041282     48.000000
  0.123845  0.082563  0.041282     24.000000
  0.103204  0.103204  0.041282     24.000000
  0.123845  0.103204  0.041282     24.000000
  0.123845  0.123845  0.041282      6.000000
  0.061922  0.061922  0.061922      8.000000
  0.082563  0.061922  0.061922     24.000000
  0.103204  0.061922  0.061922     24.000000
  0.123845  0.061922  0.061922     12.000000
  0.082563  0.082563  0.061922     24.000000
  0.103204  0.082563  0.061922     48.000000
  0.123845  0.082563  0.061922     24.000000
  0.103204  0.103204  0.061922     24.000000
  0.123845  0.103204  0.061922     24.000000
  0.123845  0.123845  0.061922      6.000000
  0.082563  0.082563  0.082563      8.000000
  0.103204  0.082563  0.082563     24.000000
  0.123845  0.082563  0.082563     12.000000
  0.103204  0.103204  0.082563     24.000000
  0.123845  0.103204  0.082563     24.000000
  0.123845  0.123845  0.082563      6.000000
  0.103204  0.103204  0.103204      8.000000
  0.123845  0.103204  0.103204     12.000000
  0.123845  0.123845  0.103204      6.000000
  0.123845  0.123845  0.123845      1.000000
 


--------------------------------------------------------------------------------------------------------




 Dimension of arrays:
   k-Points           NKPTS =     84   number of bands    NBANDS=     12
   number of dos      NEDOS =    301   number of ions     NIONS =      4
   non local maximal  LDIM  =      4   non local SUM 2l+1 LMDIM =      8
   total plane-waves  NPLWV =  46656
   max r-space proj   IRMAX =      1   max aug-charges    IRDMAX= 242038
   dimension x,y,z NGX =    36 NGY =   36 NGZ =   36
   dimension x,y,z NGXF=    72 NGYF=   72 NGZF=   72
   support grid    NGXF=   144 NGYF=  144 NGZF=  144
   ions per type =               4
 NGX,Y,Z   is equivalent  to a cutoff of  15.28, 15.28, 15.28 a.u.
 NGXF,Y,Z  is equivalent  to a cutoff of  30.56, 30.56, 30.56 a.u.


 I would recommend the setting:
   dimension x,y,z NGX =    35 NGY =   35 NGZ =   35
 SYSTEM =  unknown system                          
 POSCAR =  Al                                      

 Startparameter for this run:
   NWRITE =      2    write-flag & timer
   PREC   = accura    medium, high low
   ISTART =      0    job   : 0-new  1-cont  2-samecut
   ICHARG =      2    charge: 1-file 2-atom 10-const
   ISPIN  =      1    spin polarized calculation?
   LNONCOLLINEAR =      F non collinear calculations
   LSORBIT =      F    spin-orbit coupling
   INIWAV =      1    electr: 0-lowe 1-rand  2-diag
   LASPH  =      F    aspherical Exc in radial PAW
   METAGGA=      F    non-selfconsistent MetaGGA calc.

 Electronic Relaxation 1
   ENCUT  =  750.0 eV  55.12 Ry    7.42 a.u.   8.74  8.74  8.74*2*pi/ulx,y,z
   ENINI  =  750.0     initial cutoff
   ENAUG  =  291.1 eV  augmentation charge cutoff
   NELM   =     60;   NELMIN=  2; NELMDL=  0     # of ELM steps 
   EDIFF  = 0.1E-07   stopping-criterion for ELM
   LREAL  =      F    real-space projection
   LCOMPAT=      F    compatible to vasp.4.4
   LREAL_COMPAT= F    compatible to vasp.4.5.1-3
   GGA_COMPAT  = T    GGA compatible to vasp.4.4-vasp.4.6
   LMAXPAW     = -100 max onsite density
   LMAXMIX     =    2 max onsite mixed and CHGCAR
   VOSKOWN=      0    Vosko Wilk Nusair interpolation
   ROPT   =    0.00000
 Ionic relaxation
   EDIFFG = 0.1E-06   stopping-criterion for IOM
   NSW    =      0    number of steps for IOM
   NBLOCK =      1;   KBLOCK =      1    inner block; outer block 
   IBRION =     -1    ionic relax: 0-MD 1-quasi-New 2-CG
   NFREE  =      0    steps in history (QN), initial steepest desc. (CG)
   ISIF   =      2    stress and relaxation
   IWAVPR =     10    prediction:  0-non 1-charg 2-wave 3-comb
   ISYM   =      2    0-nonsym 1-usesym 2-fastsym
   LCORR  =      T    Harris-Foulkes like correction to forces

   POTIM  =   0.50    time-step for ionic-motion
   TEIN   =    0.0    initial temperature
   TEBEG  =    0.0;   TEEND  =   0.0 temperature during run
   SMASS  =  -3.00    Nose mass-parameter (am)
   estimated Nose-frequenzy (Omega)   =  0.10E-29 period in steps =****** mass=  -0.350E-27a.u.
   NPACO  =    256;   APACO  = 16.0  distance and # of slots for P.C.
   PSTRESS=    0.0 pullay stress

  Mass of Ions in am
   POMASS =  26.98
  Ionic Valenz
   ZVAL   =   3.00
  Atomic Wigner-Seitz radii
   RWIGS  =  -1.00
   NELECT =      12.0000    total number of electrons
   NUPDOWN=      -1.0000    fix difference up-down

 DOS related values:
   EMIN   =  10.00;   EMAX   =-10.00  energy-range for DOS
   ISMEAR =     0;   SIGMA  =   0.01  broadening in eV -4-tet -1-fermi 0-gaus

 Electronic relaxation 2 (details)
   IALGO  =     38    algorithm
   LDIAG  =      T    sub-space diagonalisation
   IMIX   =      4    mixing-type and parameters
     AMIX     =   0.40;   BMIX     =  1.00
     AMIX_MAG =   1.60;   BMIX_MAG =  1.00
     AMIN     =   0.10
     WC   =   100.;   INIMIX=   1;  MIXPRE=   1

 Intra band minimization:
   WEIMIN = 0.0000     energy-eigenvalue tresh-hold
   EBREAK =  0.25E-09  absolut break condition
   DEPER  =   0.30     relativ break condition  

   TIME   =   0.10     timestep for ELM

  volume/ion in A,a.u.               =      15.02       101.33
  Fermi-wavevector in a.u.,eV,Ry     =   0.957058 12.462405  0.915961

 Second variation
   LSECVAR=     F    do a second variation
 
 Write flags
   LWAVE  =      F    write WAVECAR
   LCHARG =      F    write CHGCAR
   LVTOT  =      F    write LOCPOT, local potential
   LELF   =      F    write electronic localiz. function (ELF)
   LORBIT =      0    0 simple, 1 ext, 2 COOP (PROOUT)


 Dipole corrections
   IDIPOL =      0    1-x, 2-y, 3-z
   LDIPOL =      F    correct potential



--------------------------------------------------------------------------------------------------------


 Static calculation
 charge density will be updated during run
 non-spin polarized calculation
 Variant of blocked Davidson
 Davidson routine will perform the subspace rotation
 performe sub-space diagonalisation
    after iterative eigenvector-optimisation
 modified Broyden-mixing scheme, WC =      100.0
 initial mixing is a Kerker type mixing with AMIX =  0.4000 and BMIX =      1.0000
 Hartree-type preconditioning will be used
 using additional bands            6
 reciprocal scheme for non local part
 use partial core corrections
 calculate Harris-corrections to forces 
   (improved forces if not selfconsistent)
 use gradient corrections 
 use of overlap-Matrix (Vanderbilt PP)
 Gauss-broadening in eV      SIGMA  =   0.01


--------------------------------------------------------------------------------------------------------


  energy-cutoff  :      750.00
  volume of cell :       60.06
      direct lattice vectors                 reciprocal lattice vectors
     3.916187179  0.000000000  0.000000000     0.255350410  0.000000000  0.000000000
     0.000000000  3.916187179  0.000000000     0.000000000  0.255350410  0.000000000
     0.000000000  0.000000000  3.916187179     0.000000000  0.000000000  0.255350410

  length of vectors
     3.916187179  3.916187179  3.916187179     0.255350410  0.255350410  0.255350410


 
 k-points in units of 2pi/SCALE and weight: Automatic mesh                          
   0.00000000  0.00000000  0.00000000       0.001
   0.02064082  0.00000000  0.00000000       0.003
   0.04128165  0.00000000  0.00000000       0.003
   0.06192247  0.00000000  0.00000000       0.003
   0.08256330  0.00000000  0.00000000       0.003
   0.10320412  0.00000000  0.00000000       0.003
   0.12384495  0.00000000  0.00000000       0.002
   0.02064082  0.02064082  0.00000000       0.007
   0.04128165  0.02064082  0.00000000       0.014
   0.06192247  0.02064082  0.00000000       0.014
   0.08256330  0.02064082  0.00000000       0.014
   0.10320412  0.02064082  0.00000000       0.014
   0.12384495  0.02064082  0.00000000       0.007
   0.04128165  0.04128165  0.00000000       0.007
   0.06192247  0.04128165  0.00000000       0.014
   0.08256330  0.04128165  0.00000000       0.014
   0.10320412  0.04128165  0.00000000       0.014
   0.12384495  0.04128165  0.00000000       0.007
   0.06192247  0.06192247  0.00000000       0.007
   0.08256330  0.06192247  0.00000000       0.014
   0.10320412  0.06192247  0.00000000       0.014
   0.12384495  0.06192247  0.00000000       0.007
   0.08256330  0.08256330  0.00000000       0.007
   0.10320412  0.08256330  0.00000000       0.014
   0.12384495  0.08256330  0.00000000       0.007
   0.10320412  0.10320412  0.00000000       0.007
   0.12384495  0.10320412  0.00000000       0.007
   0.12384495  0.12384495  0.00000000       0.002
   0.02064082  0.02064082  0.02064082       0.005
   0.04128165  0.02064082  0.02064082       0.014
   0.06192247  0.02064082  0.02064082       0.014
   0.08256330  0.02064082  0.02064082       0.014
   0.10320412  0.02064082  0.02064082       0.014
   0.12384495  0.02064082  0.02064082       0.007
   0.04128165  0.04128165  0.02064082       0.014
   0.06192247  0.04128165  0.02064082       0.028
   0.08256330  0.04128165  0.02064082       0.028
   0.10320412  0.04128165  0.02064082       0.028
   0.12384495  0.04128165  0.02064082       0.014
   0.06192247  0.06192247  0.02064082       0.014
   0.08256330  0.06192247  0.02064082       0.028
   0.10320412  0.06192247  0.02064082       0.028
   0.12384495  0.06192247  0.02064082       0.014
   0.08256330  0.08256330  0.02064082       0.014
   0.10320412  0.08256330  0.02064082       0.028
   0.12384495  0.08256330  0.02064082       0.014
   0.10320412  0.10320412  0.02064082       0.014
   0.12384495  0.10320412  0.02064082       0.014
   0.12384495  0.12384495  0.02064082       0.003
   0.04128165  0.04128165  0.04128165       0.005
   0.06192247  0.04128165  0.04128165       0.014
   0.08256330  0.04128165  0.04128165       0.014
   0.10320412  0.04128165  0.04128165       0.014
   0.12384495  0.04128165  0.04128165       0.007
   0.06192247  0.06192247  0.04128165       0.014
   0.08256330  0.06192247  0.04128165       0.028
   0.10320412  0.06192247  0.04128165       0.028
   0.12384495  0.06192247  0.04128165       0.014
   0.08256330  0.08256330  0.04128165       0.014
   0.10320412  0.08256330  0.04128165       0.028
   0.12384495  0.08256330  0.04128165       0.014
   0.10320412  0.10320412  0.04128165       0.014
   0.12384495  0.10320412  0.04128165       0.014
   0.12384495  0.12384495  0.04128165       0.003
   0.06192247  0.06192247  0.06192247       0.005
   0.08256330  0.06192247  0.06192247       0.014
   0.10320412  0.06192247  0.06192247       0.014
   0.12384495  0.06192247  0.06192247       0.007
   0.08256330  0.08256330  0.06192247       0.014
   0.10320412  0.08256330  0.06192247       0.028
   0.12384495  0.08256330  0.06192247       0.014
   0.10320412  0.10320412  0.06192247       0.014
   0.12384495  0.10320412  0.06192247       0.014
   0.12384495  0.12384495  0.06192247       0.003
   0.08256330  0.08256330  0.08256330       0.005
   0.10320412  0.08256330  0.08256330       0.014
   0.12384495  0.08256330  0.08256330       0.007
   0.10320412  0.10320412  0.08256330       0.014
   0.12384495  0.10320412  0.08256330       0.014
   0.12384495  0.12384495  0.08256330       0.003
   0.10320412  0.10320412  0.10320412       0.005
   0.12384495  0.10320412  0.10320412       0.007
   0.12384495  0.12384495  0.10320412       0.003
   0.12384495  0.12384495  0.12384495       0.001
 
 k-points in reciprocal lattice and weights: Automatic mesh                          
   0.00000000  0.00000000  0.00000000       0.001
   0.08333333  0.00000000  0.00000000       0.003
   0.16666667  0.00000000  0.00000000       0.003
   0.25000000  0.00000000  0.00000000       0.003
   0.33333333  0.00000000  0.00000000       0.003
   0.41666667  0.00000000  0.00000000       0.003
   0.50000000  0.00000000  0.00000000       0.002
   0.08333333  0.08333333  0.00000000       0.007
   0.16666667  0.08333333  0.00000000       0.014
   0.25000000  0.08333333  0.00000000       0.014
   0.33333333  0.08333333  0.00000000       0.014
   0.41666667  0.08333333  0.00000000       0.014
   0.50000000  0.08333333  0.00000000       0.007
   0.16666667  0.16666667  0.00000000       0.007
   0.25000000  0.16666667  0.00000000       0.014
   0.33333333  0.16666667  0.00000000       0.014
   0.41666667  0.16666667  0.00000000       0.014
   0.50000000  0.16666667  0.00000000       0.007
   0.25000000  0.25000000  0.00000000       0.007
   0.33333333  0.25000000  0.00000000       0.014
   0.41666667  0.25000000  0.00000000       0.014
   0.50000000  0.25000000  0.00000000       0.007
   0.33333333  0.33333333  0.00000000       0.007
   0.41666667  0.33333333  0.00000000       0.014
   0.50000000  0.33333333  0.00000000       0.007
   0.41666667  0.41666667  0.00000000       0.007
   0.50000000  0.41666667  0.00000000       0.007
   0.50000000  0.50000000  0.00000000       0.002
   0.08333333  0.08333333  0.08333333       0.005
   0.16666667  0.08333333  0.08333333       0.014
   0.25000000  0.08333333  0.08333333       0.014
   0.33333333  0.08333333  0.08333333       0.014
   0.41666667  0.08333333  0.08333333       0.014
   0.50000000  0.08333333  0.08333333       0.007
   0.16666667  0.16666667  0.08333333       0.014
   0.25000000  0.16666667  0.08333333       0.028
   0.33333333  0.16666667  0.08333333       0.028
   0.41666667  0.16666667  0.08333333       0.028
   0.50000000  0.16666667  0.08333333       0.014
   0.25000000  0.25000000  0.08333333       0.014
   0.33333333  0.25000000  0.08333333       0.028
   0.41666667  0.25000000  0.08333333       0.028
   0.50000000  0.25000000  0.08333333       0.014
   0.33333333  0.33333333  0.08333333       0.014
   0.41666667  0.33333333  0.08333333       0.028
   0.50000000  0.33333333  0.08333333       0.014
   0.41666667  0.41666667  0.08333333       0.014
   0.50000000  0.41666667  0.08333333       0.014
   0.50000000  0.50000000  0.08333333       0.003
   0.16666667  0.16666667  0.16666667       0.005
   0.25000000  0.16666667  0.16666667       0.014
   0.33333333  0.16666667  0.16666667       0.014
   0.41666667  0.16666667  0.16666667       0.014
   0.50000000  0.16666667  0.16666667       0.007
   0.25000000  0.25000000  0.16666667       0.014
   0.33333333  0.25000000  0.16666667       0.028
   0.41666667  0.25000000  0.16666667       0.028
   0.50000000  0.25000000  0.16666667       0.014
   0.33333333  0.33333333  0.16666667       0.014
   0.41666667  0.33333333  0.16666667       0.028
   0.50000000  0.33333333  0.16666667       0.014
   0.41666667  0.41666667  0.16666667       0.014
   0.50000000  0.41666667  0.16666667       0.014
   0.50000000  0.50000000  0.16666667       0.003
   0.25000000  0.25000000  0.25000000       0.005
   0.33333333  0.25000000  0.25000000       0.014
   0.41666667  0.25000000  0.25000000       0.014
   0.50000000  0.25000000  0.25000000       0.007
   0.33333333  0.33333333  0.25000000       0.014
   0.41666667  0.33333333  0.25000000       0.028
   0.50000000  0.33333333  0.25000000       0.014
   0.41666667  0.41666667  0.25000000       0.014
   0.50000000  0.41666667  0.25000000       0.014
   0.50000000  0.50000000  0.25000000       0.003
   0.33333333  0.33333333  0.33333333       0.005
   0.41666667  0.33333333  0.33333333       0.014
   0.50000000  0.33333333  0.33333333       0.007
   0.41666667  0.41666667  0.33333333       0.014
   0.50000000  0.41666667  0.33333333       0.014
   0.50000000  0.50000000  0.33333333       0.003
   0.41666667  0.41666667  0.41666667       0.005
   0.50000000  0.41666667  0.41666667       0.007
   0.50000000  0.50000000  0.41666667       0.003
   0.50000000  0.50000000  0.50000000       0.001
 
 position of ions in fractional coordinates (direct lattice) 
   0.50000000  0.50000000  0.00000000
   0.50000000  0.00000000  0.50000000
   0.00000000  0.50000000  0.50000000
   0.00000000  0.00000000  0.00000000
 
 position of ions in cartesian coordinates  (Angst):
   1.95809359  1.95809359  0.00000000
   1.95809359  0.00000000  1.95809359
   0.00000000  1.95809359  1.95809359
   0.00000000  0.00000000  0.00000000
 


--------------------------------------------------------------------------------------------------------


 k-point  1 :  0.00000.00000.0000  plane waves:   2801
 k-point  2 :  0.08330.00000.0000  plane waves:   2825
 k-point  3 :  0.16670.00000.0000  plane waves:   2825
 k-point  4 :  0.25000.00000.0000  plane waves:   2809
 k-point  5 :  0.33330.00000.0000  plane waves:   2806
 k-point  6 :  0.41670.00000.0000  plane waves:   2802
 k-point  7 :  0.50000.00000.0000  plane waves:   2826
 k-point  8 :  0.08330.08330.0000  plane waves:   2821
 k-point  9 :  0.16670.08330.0000  plane waves:   2811
 k-point 10 :  0.25000.08330.0000  plane waves:   2799
 k-point 11 :  0.33330.08330.0000  plane waves:   2809
 k-point 12 :  0.41670.08330.0000  plane waves:   2805
 k-point 13 :  0.50000.08330.0000  plane waves:   2802
 k-point 14 :  0.16670.16670.0000  plane waves:   2805
 k-point 15 :  0.25000.16670.0000  plane waves:   2796
 k-point 16 :  0.33330.16670.0000  plane waves:   2797
 k-point 17 :  0.41670.16670.0000  plane waves:   2802
 k-point 18 :  0.50000.16670.0000  plane waves:   2804
 k-point 19 :  0.25000.25000.0000  plane waves:   2782
 k-point 20 :  0.33330.25000.0000  plane waves:   2793
 k-point 21 :  0.41670.25000.0000  plane waves:   2799
 k-point 22 :  0.50000.25000.0000  plane waves:   2802
 k-point 23 :  0.33330.33330.0000  plane waves:   2790
 k-point 24 :  0.41670.33330.0000  plane waves:   2805
 k-point 25 :  0.50000.33330.0000  plane waves:   2804
 k-point 26 :  0.41670.41670.0000  plane waves:   2778
 k-point 27 :  0.50000.41670.0000  plane waves:   2796
 k-point 28 :  0.50000.50000.0000  plane waves:   2752
 k-point 29 :  0.08330.08330.0833  plane waves:   2830
 k-point 30 :  0.16670.08330.0833  plane waves:   2804
 k-point 31 :  0.25000.08330.0833  plane waves:   2790
 k-point 32 :  0.33330.08330.0833  plane waves:   2802
 k-point 33 :  0.41670.08330.0833  plane waves:   2810
 k-point 34 :  0.50000.08330.0833  plane waves:   2800
 k-point 35 :  0.16670.16670.0833  plane waves:   2803
 k-point 36 :  0.25000.16670.0833  plane waves:   2796
 k-point 37 :  0.33330.16670.0833  plane waves:   2797
 k-point 38 :  0.41670.16670.0833  plane waves:   2801
 k-point 39 :  0.50000.16670.0833  plane waves:   2804
 k-point 40 :  0.25000.25000.0833  plane waves:   2799
 k-point 41 :  0.33330.25000.0833  plane waves:   2795
 k-point 42 :  0.41670.25000.0833  plane waves:   2801
 k-point 43 :  0.50000.25000.0833  plane waves:   2794
 k-point 44 :  0.33330.33330.0833  plane waves:   2793
 k-point 45 :  0.41670.33330.0833  plane waves:   2806
 k-point 46 :  0.50000.33330.0833  plane waves:   2804
 k-point 47 :  0.41670.41670.0833  plane waves:   2794
 k-point 48 :  0.50000.41670.0833  plane waves:   2790
 k-point 49 :  0.50000.50000.0833  plane waves:   2780
 k-point 50 :  0.16670.16670.1667  plane waves:   2803
 k-point 51 :  0.25000.16670.1667  plane waves:   2800
 k-point 52 :  0.33330.16670.1667  plane waves:   2789
 k-point 53 :  0.41670.16670.1667  plane waves:   2805
 k-point 54 :  0.50000.16670.1667  plane waves:   2804
 k-point 55 :  0.25000.25000.1667  plane waves:   2792
 k-point 56 :  0.33330.25000.1667  plane waves:   2797
 k-point 57 :  0.41670.25000.1667  plane waves:   2806
 k-point 58 :  0.50000.25000.1667  plane waves:   2800
 k-point 59 :  0.33330.33330.1667  plane waves:   2793
 k-point 60 :  0.41670.33330.1667  plane waves:   2799
 k-point 61 :  0.50000.33330.1667  plane waves:   2818
 k-point 62 :  0.41670.41670.1667  plane waves:   2801
 k-point 63 :  0.50000.41670.1667  plane waves:   2808
 k-point 64 :  0.50000.50000.1667  plane waves:   2780
 k-point 65 :  0.25000.25000.2500  plane waves:   2800
 k-point 66 :  0.33330.25000.2500  plane waves:   2796
 k-point 67 :  0.41670.25000.2500  plane waves:   2808
 k-point 68 :  0.50000.25000.2500  plane waves:   2810
 k-point 69 :  0.33330.33330.2500  plane waves:   2798
 k-point 70 :  0.41670.33330.2500  plane waves:   2800
 k-point 71 :  0.50000.33330.2500  plane waves:   2804
 k-point 72 :  0.41670.41670.2500  plane waves:   2801
 k-point 73 :  0.50000.41670.2500  plane waves:   2796
 k-point 74 :  0.50000.50000.2500  plane waves:   2792
 k-point 75 :  0.33330.33330.3333  plane waves:   2791
 k-point 76 :  0.41670.33330.3333  plane waves:   2798
 k-point 77 :  0.50000.33330.3333  plane waves:   2800
 k-point 78 :  0.41670.41670.3333  plane waves:   2816
 k-point 79 :  0.50000.41670.3333  plane waves:   2808
 k-point 80 :  0.50000.50000.3333  plane waves:   2804
 k-point 81 :  0.41670.41670.4167  plane waves:   2812
 k-point 82 :  0.50000.41670.4167  plane waves:   2822
 k-point 83 :  0.50000.50000.4167  plane waves:   2820
 k-point 84 :  0.50000.50000.5000  plane waves:   2800

 maximum and minimum number of plane-waves per node :   2830  2752

 maximum number of plane-waves:   2830
 maximal index in each direction: 
   IXMAX=  8   IYMAX=  8   IZMAX=  8
   IXMIN= -9   IYMIN= -9   IZMIN= -9

 NGX is ok and might be reduce to  36
 NGY is ok and might be reduce to  36
 NGZ is ok and might be reduce to  36

 parallel 3dFFT wavefunction:
    minimum data exchange during FFTs selected (reduces bandwidth)
 parallel 3dFFT charge:
    minimum data exchange during FFTs selected (reduces bandwidth)

 For storing wavefunctions   45.18 MBYTES are necessary
 For predicting wavefunctions    2.05 MBYTES are necessary
Broyden mixing: mesh for mixing (old mesh)
   NGX = 17   NGY = 17   NGZ = 17
  (NGX  = 72   NGY  = 72   NGZ  = 72)
 gives a total of   4913 points
 initial charge density was supplied:
 charge density of overlapping atoms calculated
 number of electron   12.0000000 magnetization 
 keeping initial charge density in first step


--------------------------------------------------------------------------------------------------------


 Maximum index for augmentation-charges        58679 (set IRDMAX)


--------------------------------------------------------------------------------------------------------


 First call to EWALD:  gamma=   0.453
 Maximum number of real-space cells 3x 3x 3
 Maximum number of reciprocal cells 3x 3x 3

    FEWALD:  VPU time    0.00: CPU time    0.00


----------------------------------------- Iteration    1(   1)  ---------------------------------------


    POTLOK:  VPU time    0.09: CPU time    0.09
    SETDIJ:  VPU time    0.10: CPU time    0.10
    EDDAV :  VPU time    1.58: CPU time    1.58
    DOS   :  VPU time    0.00: CPU time   -0.00
    ------------------------------------------
      LOOP:  VPU time    1.77: CPU time    1.78

 eigenvalue-minimisations  :  2016
 total energy-change (2. order) : 0.1455473E+02  (-0.5408764E+03)
 number of electron   12.0000000 magnetization 
 augmentation part    12.0000000 magnetization 

 Free energy of the ion-electron system (eV)
  ---------------------------------------------------
  alpha Z        PSCENC =        -0.89477812
  Ewald energy   TEWEN  =      -303.45298716
  -1/2 Hartree   DENC   =        -0.29941578
  -V(xc)+E(xc)   XCENC  =      -104.26831623
  PAW double counting   =       142.21701965      -14.39593217
  entropy T*S    EENTRO =        -0.00001471
  eigenvalues    EBANDS =        81.49477165
  atomic energy  EATOM  =       214.15438658
  ---------------------------------------------------
  free energy    TOTEN  =        14.55473371 eV

  energy without entropy =       14.55474843  energy(sigma->0) =       14.55474107


--------------------------------------------------------------------------------------------------------




----------------------------------------- Iteration    1(   2)  ---------------------------------------


    EDDAV :  VPU time    1.79: CPU time    1.79
    DOS   :  VPU time    0.00: CPU time   -0.00
    ------------------------------------------
      LOOP:  VPU time    1.79: CPU time    1.80

 eigenvalue-minimisations  :  2504
 total energy-change (2. order) :-0.2843124E+02  (-0.2667901E+02)
 number of electron   12.0000000 magnetization 
 augmentation part    12.0000000 magnetization 

 Free energy of the ion-electron system (eV)
  ---------------------------------------------------
  alpha Z        PSCENC =        -0.89477812
  Ewald energy   TEWEN  =      -303.45298716
  -1/2 Hartree   DENC   =        -0.29941578
  -V(xc)+E(xc)   XCENC  =      -104.26831623
  PAW double counting   =       142.21701965      -14.39593217
  entropy T*S    EENTRO =        -0.00012086
  eigenvalues    EBANDS =        53.06363506
  atomic energy  EATOM  =       214.15438658
  ---------------------------------------------------
  free energy    TOTEN  =       -13.87650903 eV

  energy without entropy =      -13.87638817  energy(sigma->0) =      -13.87644860


--------------------------------------------------------------------------------------------------------




----------------------------------------- Iteration    1(   3)  ---------------------------------------


    EDDAV :  VPU time    1.84: CPU time    1.84
    DOS   :  VPU time    0.00: CPU time   -0.00
    ------------------------------------------
      LOOP:  VPU time    1.84: CPU time    1.84

 eigenvalue-minimisations  :  2612
 total energy-change (2. order) :-0.1037254E+01  (-0.9874083E+00)
 number of electron   12.0000000 magnetization 
 augmentation part    12.0000000 magnetization 

 Free energy of the ion-electron system (eV)
  ---------------------------------------------------
  alpha Z        PSCENC =        -0.89477812
  Ewald energy   TEWEN  =      -303.45298716
  -1/2 Hartree   DENC   =        -0.29941578
  -V(xc)+E(xc)   XCENC  =      -104.26831623
  PAW double counting   =       142.21701965      -14.39593217
  entropy T*S    EENTRO =        -0.00013892
  eigenvalues    EBANDS =        52.02639954
  atomic energy  EATOM  =       214.15438658
  ---------------------------------------------------
  free energy    TOTEN  =       -14.91376261 eV

  energy without entropy =      -14.91362369  energy(sigma->0) =      -14.91369315


--------------------------------------------------------------------------------------------------------




----------------------------------------- Iteration    1(   4)  ---------------------------------------


    EDDAV :  VPU time    1.69: CPU time    1.69
    DOS   :  VPU time    0.00: CPU time   -0.00
    ------------------------------------------
      LOOP:  VPU time    1.70: CPU time    1.70

 eigenvalue-minimisations  :  2308
 total energy-change (2. order) :-0.9270368E-02  (-0.9268267E-02)
 number of electron   12.0000000 magnetization 
 augmentation part    12.0000000 magnetization 

 Free energy of the ion-electron system (eV)
  ---------------------------------------------------
  alpha Z        PSCENC =        -0.89477812
  Ewald energy   TEWEN  =      -303.45298716
  -1/2 Hartree   DENC   =        -0.29941578
  -V(xc)+E(xc)   XCENC  =      -104.26831623
  PAW double counting   =       142.21701965      -14.39593217
  entropy T*S    EENTRO =        -0.00013923
  eigenvalues    EBANDS =        52.01712948
  atomic energy  EATOM  =       214.15438658
  ---------------------------------------------------
  free energy    TOTEN  =       -14.92303298 eV

  energy without entropy =      -14.92289375  energy(sigma->0) =      -14.92296336


--------------------------------------------------------------------------------------------------------




----------------------------------------- Iteration    1(   5)  ---------------------------------------


    EDDAV :  VPU time    1.73: CPU time    1.74
    DOS   :  VPU time    0.00: CPU time   -0.00
    CHARGE:  VPU time    0.17: CPU time    0.17
    MIXING:  VPU time    0.00: CPU time    0.00
    ------------------------------------------
      LOOP:  VPU time    1.91: CPU time    1.91

 eigenvalue-minimisations  :  2444
 total energy-change (2. order) :-0.7805586E-04  (-0.7805433E-04)
 number of electron   12.0000000 magnetization 
 augmentation part    -0.1415688 magnetization 

 Broyden mixing:
  rms(total) = 0.19475E+00    rms(broyden)= 0.19475E+00
  rms(prec ) = 0.44748E+00
  weight for this iteration     100.00

 Free energy of the ion-electron system (eV)
  ---------------------------------------------------
  alpha Z        PSCENC =        -0.89477812
  Ewald energy   TEWEN  =      -303.45298716
  -1/2 Hartree   DENC   =        -0.29941578
  -V(xc)+E(xc)   XCENC  =      -104.26831623
  PAW double counting   =       142.21701965      -14.39593217
  entropy T*S    EENTRO =        -0.00013923
  eigenvalues    EBANDS =        52.01705143
  atomic energy  EATOM  =       214.15438658
  ---------------------------------------------------
  free energy    TOTEN  =       -14.92311103 eV

  energy without entropy =      -14.92297180  energy(sigma->0) =      -14.92304142


--------------------------------------------------------------------------------------------------------




----------------------------------------- Iteration    1(   6)  ---------------------------------------


    POTLOK:  VPU time    0.07: CPU time    0.07
    SETDIJ:  VPU time    0.06: CPU time    0.06
    EDDAV :  VPU time    1.63: CPU time    1.63
    DOS   :  VPU time    0.00: CPU time   -0.00
    CHARGE:  VPU time    0.17: CPU time    0.17
    MIXING:  VPU time    0.00: CPU time    0.00
    ------------------------------------------
      LOOP:  VPU time    1.94: CPU time    1.94

 eigenvalue-minimisations  :  2248
 total energy-change (2. order) : 0.5778225E-01  (-0.4733958E-03)
 number of electron   12.0000000 magnetization 
 augmentation part    -0.1434157 magnetization 

 Broyden mixing:
  rms(total) = 0.12108E+00    rms(broyden)= 0.12108E+00
  rms(prec ) = 0.28003E+00
  weight for this iteration     100.00

 eigenvalues of (default mixing * dielectric matrix)
  average eigenvalue GAMMA=   2.6351
  2.6351

 Free energy of the ion-electron system (eV)
  ---------------------------------------------------
  alpha Z        PSCENC =        -0.89477812
  Ewald energy   TEWEN  =      -303.45298716
  -1/2 Hartree   DENC   =        -0.30105894
  -V(xc)+E(xc)   XCENC  =      -104.09640419
  PAW double counting   =       142.90995995      -15.12895420
  entropy T*S    EENTRO =        -0.00014747
  eigenvalues    EBANDS =        51.94465476
  atomic energy  EATOM  =       214.15438658
  ---------------------------------------------------
  free energy    TOTEN  =       -14.86532878 eV

  energy without entropy =      -14.86518131  energy(sigma->0) =      -14.86525505


--------------------------------------------------------------------------------------------------------




----------------------------------------- Iteration    1(   7)  ---------------------------------------


    POTLOK:  VPU time    0.07: CPU time    0.07
    SETDIJ:  VPU time    0.06: CPU time    0.06
    EDDAV :  VPU time    1.60: CPU time    1.60
    DOS   :  VPU time    0.00: CPU time   -0.00
    CHARGE:  VPU time    0.17: CPU time    0.17
    MIXING:  VPU time    0.00: CPU time    0.00
    ------------------------------------------
      LOOP:  VPU time    1.90: CPU time    1.91

 eigenvalue-minimisations  :  2168
 total energy-change (2. order) : 0.4178948E-01  (-0.1513448E-02)
 number of electron   12.0000000 magnetization 
 augmentation part    -0.1472485 magnetization 

 Broyden mixing:
  rms(total) = 0.51174E-02    rms(broyden)= 0.51174E-02
  rms(prec ) = 0.83466E-02
  weight for this iteration     100.00

 eigenvalues of (default mixing * dielectric matrix)
  average eigenvalue GAMMA=   2.5821
  2.5821  2.5821

 Free energy of the ion-electron system (eV)
  ---------------------------------------------------
  alpha Z        PSCENC =        -0.89477812
  Ewald energy   TEWEN  =      -303.45298716
  -1/2 Hartree   DENC   =        -0.48335436
  -V(xc)+E(xc)   XCENC  =      -103.75547167
  PAW double counting   =       143.94607918      -16.23951219
  entropy T*S    EENTRO =        -0.00016595
  eigenvalues    EBANDS =        51.90226439
  atomic energy  EATOM  =       214.15438658
  ---------------------------------------------------
  free energy    TOTEN  =       -14.82353930 eV

  energy without entropy =      -14.82337335  energy(sigma->0) =      -14.82345633


--------------------------------------------------------------------------------------------------------




----------------------------------------- Iteration    1(   8)  ---------------------------------------


    POTLOK:  VPU time    0.07: CPU time    0.07
    SETDIJ:  VPU time    0.06: CPU time    0.06
    EDDAV :  VPU time    1.77: CPU time    1.78
    DOS   :  VPU time    0.00: CPU time   -0.00
    CHARGE:  VPU time    0.17: CPU time    0.17
    MIXING:  VPU time    0.00: CPU time    0.00
    ------------------------------------------
      LOOP:  VPU time    2.08: CPU time    2.08

 eigenvalue-minimisations  :  2520
 total energy-change (2. order) :-0.3462181E-04  (-0.1242409E-04)
 number of electron   12.0000000 magnetization 
 augmentation part    -0.1474743 magnetization 

 Broyden mixing:
  rms(total) = 0.11755E-02    rms(broyden)= 0.11755E-02
  rms(prec ) = 0.24806E-02
  weight for this iteration     100.00

 eigenvalues of (default mixing * dielectric matrix)
  average eigenvalue GAMMA=   2.1334
  1.1555  2.7514  2.4933

 Free energy of the ion-electron system (eV)
  ---------------------------------------------------
  alpha Z        PSCENC =        -0.89477812
  Ewald energy   TEWEN  =      -303.45298716
  -1/2 Hartree   DENC   =        -0.48796167
  -V(xc)+E(xc)   XCENC  =      -103.75078504
  PAW double counting   =       143.98283089      -16.27972138
  entropy T*S    EENTRO =        -0.00016650
  eigenvalues    EBANDS =        51.90560848
  atomic energy  EATOM  =       214.15438658
  ---------------------------------------------------
  free energy    TOTEN  =       -14.82357392 eV

  energy without entropy =      -14.82340742  energy(sigma->0) =      -14.82349067


--------------------------------------------------------------------------------------------------------




----------------------------------------- Iteration    1(   9)  ---------------------------------------


    POTLOK:  VPU time    0.07: CPU time    0.07
    SETDIJ:  VPU time    0.06: CPU time    0.06
    EDDAV :  VPU time    1.68: CPU time    1.68
    DOS   :  VPU time    0.00: CPU time   -0.00
    CHARGE:  VPU time    0.17: CPU time    0.17
    MIXING:  VPU time    0.00: CPU time    0.00
    ------------------------------------------
      LOOP:  VPU time    1.99: CPU time    1.99

 eigenvalue-minimisations  :  2344
 total energy-change (2. order) :-0.2237448E-05  (-0.3628453E-06)
 number of electron   12.0000000 magnetization 
 augmentation part    -0.1475642 magnetization 

 Broyden mixing:
  rms(total) = 0.13198E-03    rms(broyden)= 0.13198E-03
  rms(prec ) = 0.20155E-03
  weight for this iteration     100.00

 eigenvalues of (default mixing * dielectric matrix)
  average eigenvalue GAMMA=   2.0543
  0.9711  2.6725  2.5448  2.0286

 Free energy of the ion-electron system (eV)
  ---------------------------------------------------
  alpha Z        PSCENC =        -0.89477812
  Ewald energy   TEWEN  =      -303.45298716
  -1/2 Hartree   DENC   =        -0.49187192
  -V(xc)+E(xc)   XCENC  =      -103.74618757
  PAW double counting   =       143.99325523      -16.29165318
  entropy T*S    EENTRO =        -0.00016650
  eigenvalues    EBANDS =        51.90642647
  atomic energy  EATOM  =       214.15438658
  ---------------------------------------------------
  free energy    TOTEN  =       -14.82357616 eV

  energy without entropy =      -14.82340966  energy(sigma->0) =      -14.82349291


--------------------------------------------------------------------------------------------------------




----------------------------------------- Iteration    1(  10)  ---------------------------------------


    POTLOK:  VPU time    0.07: CPU time    0.07
    SETDIJ:  VPU time    0.06: CPU time    0.06
    EDDAV :  VPU time    1.76: CPU time    1.76
    DOS   :  VPU time    0.00: CPU time   -0.00
    CHARGE:  VPU time    0.17: CPU time    0.17
    MIXING:  VPU time    0.00: CPU time    0.00
    ------------------------------------------
      LOOP:  VPU time    2.06: CPU time    2.07

 eigenvalue-minimisations  :  2476
 total energy-change (2. order) : 0.8183388E-06  (-0.4459556E-08)
 number of electron   12.0000000 magnetization 
 augmentation part    -0.1475639 magnetization 

 Broyden mixing:
  rms(total) = 0.35411E-04    rms(broyden)= 0.35411E-04
  rms(prec ) = 0.66659E-04
  weight for this iteration     100.00

 eigenvalues of (default mixing * dielectric matrix)
  average eigenvalue GAMMA=   1.9867
  2.7178  2.7178  2.5023  0.9531  1.0428

 Free energy of the ion-electron system (eV)
  ---------------------------------------------------
  alpha Z        PSCENC =        -0.89477812
  Ewald energy   TEWEN  =      -303.45298716
  -1/2 Hartree   DENC   =        -0.49174067
  -V(xc)+E(xc)   XCENC  =      -103.74635975
  PAW double counting   =       143.98391535      -16.28205609
  entropy T*S    EENTRO =        -0.00016651
  eigenvalues    EBANDS =        51.90621102
  atomic energy  EATOM  =       214.15438658
  ---------------------------------------------------
  free energy    TOTEN  =       -14.82357534 eV

  energy without entropy =      -14.82340883  energy(sigma->0) =      -14.82349209


--------------------------------------------------------------------------------------------------------




----------------------------------------- Iteration    1(  11)  ---------------------------------------


    POTLOK:  VPU time    0.07: CPU time    0.07
    SETDIJ:  VPU time    0.06: CPU time    0.06
    EDDAV :  VPU time    1.25: CPU time    1.25
    DOS   :  VPU time    0.00: CPU time   -0.00
    CHARGE:  VPU time    0.17: CPU time    0.17
    MIXING:  VPU time    0.00: CPU time    0.00
    ------------------------------------------
      LOOP:  VPU time    1.56: CPU time    1.56

 eigenvalue-minimisations  :  1504
 total energy-change (2. order) : 0.1197814E-06  (-0.1136831E-09)
 number of electron   12.0000000 magnetization 
 augmentation part    -0.1475648 magnetization 

 Broyden mixing:
  rms(total) = 0.25089E-05    rms(broyden)= 0.25088E-05
  rms(prec ) = 0.32679E-05
  weight for this iteration     100.00

 eigenvalues of (default mixing * dielectric matrix)
  average eigenvalue GAMMA=   1.9926
  0.9928  0.9928  2.7052  2.7052  2.5060  2.0536

 Free energy of the ion-electron system (eV)
  ---------------------------------------------------
  alpha Z        PSCENC =        -0.89477812
  Ewald energy   TEWEN  =      -303.45298716
  -1/2 Hartree   DENC   =        -0.49182250
  -V(xc)+E(xc)   XCENC  =      -103.74626534
  PAW double counting   =       143.98204865      -16.28016598
  entropy T*S    EENTRO =        -0.00016651
  eigenvalues    EBANDS =        51.90617515
  atomic energy  EATOM  =       214.15438658
  ---------------------------------------------------
  free energy    TOTEN  =       -14.82357522 eV

  energy without entropy =      -14.82340872  energy(sigma->0) =      -14.82349197


--------------------------------------------------------------------------------------------------------




----------------------------------------- Iteration    1(  12)  ---------------------------------------


    POTLOK:  VPU time    0.07: CPU time    0.07
    SETDIJ:  VPU time    0.06: CPU time    0.06
    EDDAV :  VPU time    1.20: CPU time    1.20
    DOS   :  VPU time    0.00: CPU time   -0.00
    CHARGE:  VPU time    0.17: CPU time    0.17
    MIXING:  VPU time    0.00: CPU time    0.00
    ------------------------------------------
      LOOP:  VPU time    1.50: CPU time    1.51

 eigenvalue-minimisations  :  1380
 total energy-change (2. order) :-0.1492768E-07  (-0.1099687E-10)
 number of electron   12.0000000 magnetization 
 augmentation part    -0.1475649 magnetization 

 Broyden mixing:
  rms(total) = 0.63684E-06    rms(broyden)= 0.63682E-06
  rms(prec ) = 0.11267E-05
  weight for this iteration     100.00

 eigenvalues of (default mixing * dielectric matrix)
  average eigenvalue GAMMA=   1.9004
  2.7107  2.6373  2.6373  2.4702  0.9956  0.9956  0.8563

 Free energy of the ion-electron system (eV)
  ---------------------------------------------------
  alpha Z        PSCENC =        -0.89477812
  Ewald energy   TEWEN  =      -303.45298716
  -1/2 Hartree   DENC   =        -0.49182325
  -V(xc)+E(xc)   XCENC  =      -103.74626690
  PAW double counting   =       143.98230929      -16.28043244
  entropy T*S    EENTRO =        -0.00016651
  eigenvalues    EBANDS =        51.90618327
  atomic energy  EATOM  =       214.15438658
  ---------------------------------------------------
  free energy    TOTEN  =       -14.82357524 eV

  energy without entropy =      -14.82340873  energy(sigma->0) =      -14.82349198


--------------------------------------------------------------------------------------------------------




----------------------------------------- Iteration    1(  13)  ---------------------------------------


    POTLOK:  VPU time    0.07: CPU time    0.07
    SETDIJ:  VPU time    0.06: CPU time    0.06
    EDDAV :  VPU time    1.14: CPU time    1.14
    DOS   :  VPU time    0.00: CPU time   -0.00
    ------------------------------------------
      LOOP:  VPU time    1.27: CPU time    1.27

 eigenvalue-minimisations  :  1264
 total energy-change (2. order) :-0.1393801E-09  (-0.2611189E-11)
 number of electron   12.0000000 magnetization 
 augmentation part    -0.1475649 magnetization 

 Free energy of the ion-electron system (eV)
  ---------------------------------------------------
  alpha Z        PSCENC =        -0.89477812
  Ewald energy   TEWEN  =      -303.45298716
  -1/2 Hartree   DENC   =        -0.49182398
  -V(xc)+E(xc)   XCENC  =      -103.74626666
  PAW double counting   =       143.98235191      -16.28047592
  entropy T*S    EENTRO =        -0.00016651
  eigenvalues    EBANDS =        51.90618463
  atomic energy  EATOM  =       214.15438658
  ---------------------------------------------------
  free energy    TOTEN  =       -14.82357524 eV

  energy without entropy =      -14.82340873  energy(sigma->0) =      -14.82349198


--------------------------------------------------------------------------------------------------------




 average (electrostatic) potential at core
  the test charge radii are     1.0406
  (the norm of the test charge is              1.0000)
       1 -71.4756       2 -71.4756       3 -71.4756       4 -71.4756
 
 
 
 E-fermi :   9.0093     XC(G=0): -10.5432     alpha+bet :-16.3475
   add alpha+bet to get absolut eigen values

 k-point   1 :       0.0000    0.0000    0.0000
  band No.  band energies     occupation 
      1      -2.7830      2.00000
      2       5.8672      2.00000
      3       5.8672      2.00000
      4       5.8672      2.00000
      5       7.3860      2.00000
      6       7.3860      2.00000
      7       7.3860      2.00000
      8      14.2961      0.00000
      9      14.2961      0.00000
     10      14.2961      0.00000
     11      15.0754      0.00000
     12      15.0754      0.00000

 k-point   2 :       0.0833    0.0000    0.0000
  band No.  band energies     occupation 
      1      -2.7160      2.00000
      2       4.9839      2.00000
      3       5.9278      2.00000
      4       5.9278      2.00000
      5       7.4485      2.00000
      6       7.4485      2.00000
      7       8.3828      2.00000
      8      13.2201      0.00000
      9      13.2201      0.00000
     10      14.3624      0.00000
     11      14.6458      0.00000
     12      14.6458      0.00000

 k-point   3 :       0.1667    0.0000    0.0000
  band No.  band energies     occupation 
      1      -2.5152      2.00000
      2       3.7222      2.00000
      3       6.1096      2.00000
      4       6.1096      2.00000
      5       7.6344      2.00000
      6       7.6344      2.00000
      7       9.9850      0.00000
      8      11.9545      0.00000
      9      11.9545      0.00000
     10      13.7362      0.00000
     11      13.7362      0.00000
     12      14.5609      0.00000

 k-point   4 :       0.2500    0.0000    0.0000
  band No.  band energies     occupation 
      1      -2.1813      2.00000
      2       2.5242      2.00000
      3       6.4128      2.00000
      4       6.4128      2.00000
      5       7.9366      2.00000
      6       7.9366      2.00000
      7      10.7972      0.00000
      8      10.7972      0.00000
      9      11.7499      0.00000
     10      12.7367      0.00000
     11      12.7367      0.00000
     12      14.8913      0.00000

 k-point   5 :       0.3333    0.0000    0.0000
  band No.  band energies     occupation 
      1      -1.7153      2.00000
      2       1.4323      2.00000
      3       6.8376      2.00000
      4       6.8376      2.00000
      5       8.3366      2.00000
      6       8.3366      2.00000
      7       9.7601      0.00000
      8       9.7601      0.00000
      9      11.7988      0.00000
     10      11.7988      0.00000
     11      13.6336      0.00000
     12      15.3529      0.00000

 k-point   6 :       0.4167    0.0000    0.0000
  band No.  band energies     occupation 
      1      -1.1187      2.00000
      2       0.4581      2.00000
      3       7.3844      2.00000
      4       7.3844      2.00000
      5       8.7736      2.00000
      6       8.7736      2.00000
      7       8.8454      2.00000
      8       8.8454      2.00000
      9      11.0283      0.00000
     10      11.0283      0.00000
     11      15.6223      0.00000
     12      15.9443      0.00000

 k-point   7 :       0.5000    0.0000    0.0000
  band No.  band energies     occupation 
      1      -0.3934      2.00000
      2      -0.3934      2.00000
      3       8.0536      2.00000
      4       8.0536      2.00000
      5       8.0536      2.00000
      6       8.0536      2.00000
      7       9.0164      0.31515
      8       9.0164      0.31515
      9      10.6729      0.00000
     10      10.6729      0.00000
     11      16.6633      0.00000
     12      16.6633      0.00000

 k-point   8 :       0.0833    0.0833    0.0000
  band No.  band energies     occupation 
      1      -2.6490      2.00000
      2       5.0461      2.00000
      3       5.0461      2.00000
      4       5.9884      2.00000
      5       7.5101      2.00000
      6       8.4432      2.00000
      7       8.4432      2.00000
      8      12.3948      0.00000
      9      13.2825      0.00000
     10      13.2825      0.00000
     11      14.7037      0.00000
     12      14.7037      0.00000

 k-point   9 :       0.1667    0.0833    0.0000
  band No.  band energies     occupation 
      1      -2.4484      2.00000
      2       3.7855      2.00000
      3       5.2325      2.00000
      4       6.1702      2.00000
      5       7.6918      2.00000
      6       8.6221      2.00000
      7      10.0419      0.00000
      8      11.2032      0.00000
      9      12.0162      0.00000
     10      13.4692      0.00000
     11      13.7988      0.00000
     12      14.5550      0.00000

 k-point  10 :       0.2500    0.0833    0.0000
  band No.  band energies     occupation 
      1      -2.1147      2.00000
      2       2.5883      2.00000
      3       5.5423      2.00000
      4       6.4735      2.00000
      5       7.9785      2.00000
      6       8.9112      2.00000
      7      10.0883      0.00000
      8      10.8586      0.00000
      9      11.8002      0.00000
     10      12.8074      0.00000
     11      13.5660      0.00000
     12      13.7801      0.00000

 k-point  11 :       0.3333    0.0833    0.0000
  band No.  band energies     occupation 
      1      -1.6489      2.00000
      2       1.4971      2.00000
      3       5.9744      2.00000
      4       6.8984      2.00000
      5       8.2735      2.00000
      6       9.1820      0.00000
      7       9.2830      0.00000
      8       9.8213      0.00000
      9      11.8915      0.00000
     10      12.6119      0.00000
     11      13.6661      0.00000
     12      14.2145      0.00000

 k-point  12 :       0.4167    0.0833    0.0000
  band No.  band energies     occupation 
      1      -1.0526      2.00000
      2       0.5233      2.00000
      3       6.5259      2.00000
      4       7.4453      2.00000
      5       7.9204      2.00000
      6       8.9065      2.00000
      7       9.1246      0.00000
      8       9.6208      0.00000
      9      11.2161      0.00000
     10      11.7776      0.00000
     11      14.7711      0.00000
     12      15.5389      0.00000

 k-point  13 :       0.5000    0.0833    0.0000
  band No.  band energies     occupation 
      1      -0.3277      2.00000
      2      -0.3277      2.00000
      3       7.1886      2.00000
      4       7.1886      2.00000
      5       8.1145      2.00000
      6       8.1145      2.00000
      7       9.5439      0.00000
      8       9.5439      0.00000
      9      11.1867      0.00000
     10      11.1867      0.00000
     11      15.4487      0.00000
     12      15.4487      0.00000

 k-point  14 :       0.1667    0.1667    0.0000
  band No.  band energies     occupation 
      1      -2.2480      2.00000
      2       3.9753      2.00000
      3       3.9753      2.00000
      4       6.3522      2.00000
      5       7.8528      2.00000
      6      10.0591      0.00000
      7      10.2083      0.00000
      8      10.2083      0.00000
      9      12.2011      0.00000
     10      12.2011      0.00000
     11      13.9886      0.00000
     12      13.9886      0.00000

 k-point  15 :       0.2500    0.1667    0.0000
  band No.  band energies     occupation 
      1      -1.9149      2.00000
      2       2.7805      2.00000
      3       4.2909      2.00000
      4       6.6555      2.00000
      5       8.0184      2.00000
      6       9.0743      0.00000
      7      10.4633      0.00000
      8      11.0427      0.00000
      9      11.9376      0.00000
     10      12.5092      0.00000
     11      13.0305      0.00000
     12      14.3176      0.00000

 k-point  16 :       0.3333    0.1667    0.0000
  band No.  band energies     occupation 
      1      -1.4498      2.00000
      2       1.6912      2.00000
      3       4.7309      2.00000
      4       7.0807      2.00000
      5       7.5920      2.00000
      6       8.8994      2.00000
      7      10.0050      0.00000
      8      10.7086      0.00000
      9      12.2363      0.00000
     10      12.9401      0.00000
     11      13.6869      0.00000
     12      14.0822      0.00000

 k-point  17 :       0.4167    0.1667    0.0000
  band No.  band energies     occupation 
      1      -0.8545      2.00000
      2       0.7190      2.00000
      3       5.2932      2.00000
      4       6.7587      2.00000
      5       7.6278      2.00000
      6       9.0897      0.00000
      7       9.3537      0.00000
      8      10.5516      0.00000
      9      12.0461      0.00000
     10      13.2320      0.00000
     11      13.4934      0.00000
     12      14.9295      0.00000

 k-point  18 :       0.5000    0.1667    0.0000
  band No.  band energies     occupation 
      1      -0.1307      2.00000
      2      -0.1307      2.00000
      3       5.9731      2.00000
      4       5.9731      2.00000
      5       8.2974      2.00000
      6       8.2974      2.00000
      7       9.9609      0.00000
      8       9.9609      0.00000
      9      12.5123      0.00000
     10      12.5123      0.00000
     11      14.1686      0.00000
     12      14.1686      0.00000

 k-point  19 :       0.2500    0.2500    0.0000
  band No.  band energies     occupation 
      1      -1.5825      2.00000
      2       3.1001      2.00000
      3       3.1001      2.00000
      4       6.9592      2.00000
      5       7.4755      2.00000
      6       8.7983      2.00000
      7      11.3496      0.00000
      8      11.3496      0.00000
      9      12.0711      0.00000
     10      12.0711      0.00000
     11      13.4844      0.00000
     12      13.4844      0.00000

 k-point  20 :       0.3333    0.2500    0.0000
  band No.  band energies     occupation 
      1      -1.1187      2.00000
      2       2.0140      2.00000
      3       3.5460      2.00000
      4       6.5260      2.00000
      5       7.3847      2.00000
      6       9.1462      0.00000
      7      10.3111      0.00000
      8      11.7792      0.00000
      9      11.7999      0.00000
     10      13.2049      0.00000
     11      13.2738      0.00000
     12      14.5819      0.00000

 k-point  21 :       0.4167    0.2500    0.0000
  band No.  band energies     occupation 
      1      -0.5249      2.00000
      2       1.0445      2.00000
      3       4.1164      2.00000
      4       5.6162      2.00000
      5       7.9323      2.00000
      6       9.3953      0.00000
      7       9.6830      0.00000
      8      11.0859      0.00000
      9      12.3314      0.00000
     10      13.5641      0.00000
     11      13.8023      0.00000
     12      13.9979      0.00000

 k-point  22 :       0.5000    0.2500    0.0000
  band No.  band energies     occupation 
      1       0.1970      2.00000
      2       0.1970      2.00000
      3       4.8083      2.00000
      4       4.8083      2.00000
      5       8.6024      2.00000
      6       8.6024      2.00000
      7      10.3423      0.00000
      8      10.3423      0.00000
      9      13.0059      0.00000
     10      13.0059      0.00000
     11      14.1660      0.00000
     12      14.1660      0.00000

 k-point  23 :       0.3333    0.3333    0.0000
  band No.  band energies     occupation 
      1      -0.6566      2.00000
      2       2.4645      2.00000
      3       2.4645      2.00000
      4       5.4951      2.00000
      5       7.8106      2.00000
      6       9.5725      0.00000
      7      10.7398      0.00000
      8      10.7398      0.00000
      9      12.4421      0.00000
     10      12.4421      0.00000
     11      13.6798      0.00000
     12      14.8616      0.00000

 k-point  24 :       0.4167    0.3333    0.0000
  band No.  band energies     occupation 
      1      -0.0649      2.00000
      2       1.4987      2.00000
      3       3.0411      2.00000
      4       4.5616      2.00000
      5       8.3588      2.00000
      6       9.8232      0.00000
      7      10.1314      0.00000
      8      11.2911      0.00000
      9      11.5877      0.00000
     10      12.7613      0.00000
     11      13.0522      0.00000
     12      14.5229      0.00000

 k-point  25 :       0.5000    0.3333    0.0000
  band No.  band energies     occupation 
      1       0.6544      2.00000
      2       0.6544      2.00000
      3       3.7413      2.00000
      4       3.7413      2.00000
      5       9.0296      0.00410
      6       9.0296      0.00410
      7      10.8080      0.00000
      8      10.8080      0.00000
      9      11.9650      0.00000
     10      11.9650      0.00000
     11      13.7401      0.00000
     12      13.7401      0.00000

 k-point  26 :       0.4167    0.4167    0.0000
  band No.  band energies     occupation 
      1       0.5240      2.00000
      2       2.0802      2.00000
      3       2.0802      2.00000
      4       3.6156      2.00000
      5       8.9077      2.00000
      6      10.3737      0.00000
      7      10.3737      0.00000
      8      10.6990      0.00000
      9      11.8427      0.00000
     10      12.1705      0.00000
     11      12.1705      0.00000
     12      13.6416      0.00000

 k-point  27 :       0.5000    0.4167    0.0000
  band No.  band energies     occupation 
      1       1.2399      2.00000
      2       1.2399      2.00000
      3       2.7868      2.00000
      4       2.7868      2.00000
      5       9.5792      0.00000
      6       9.5792      0.00000
      7      11.0468      0.00000
      8      11.0468      0.00000
      9      11.3813      0.00000
     10      11.3813      0.00000
     11      12.8548      0.00000
     12      12.8548      0.00000

 k-point  28 :       0.5000    0.5000    0.0000
  band No.  band energies     occupation 
      1       1.9517      2.00000
      2       1.9517      2.00000
      3       1.9517      2.00000
      4       1.9517      2.00000
      5      10.2516      0.00000
      6      10.2516      0.00000
      7      10.2516      0.00000
      8      10.2516      0.00000
      9      12.0651      0.00000
     10      12.0651      0.00000
     11      12.0651      0.00000
     12      12.0651      0.00000

 k-point  29 :       0.0833    0.0833    0.0833
  band No.  band energies     occupation 
      1      -2.5821      2.00000
      2       5.1082      2.00000
      3       5.1082      2.00000
      4       5.1082      2.00000
      5       8.5021      2.00000
      6       8.5021      2.00000
      7       8.5021      2.00000
      8      12.4579      0.00000
      9      12.4579      0.00000
     10      12.4579      0.00000
     11      15.2436      0.00000
     12      15.2436      0.00000

 k-point  30 :       0.1667    0.0833    0.0833
  band No.  band energies     occupation 
      1      -2.3816      2.00000
      2       3.8488      2.00000
      3       5.2944      2.00000
      4       5.2944      2.00000
      5       8.6745      2.00000
      6       8.6745      2.00000
      7      10.0950      0.00000
      8      11.2705      0.00000
      9      11.2705      0.00000
     10      12.6490      0.00000
     11      14.6147      0.00000
     12      14.6147      0.00000

 k-point  31 :       0.2500    0.0833    0.0833
  band No.  band energies     occupation 
      1      -2.0480      2.00000
      2       2.6524      2.00000
      3       5.6037      2.00000
      4       5.6037      2.00000
      5       8.9288      2.00000
      6       8.9288      2.00000
      7      10.1791      0.00000
      8      10.1791      0.00000
      9      11.8307      0.00000
     10      12.9823      0.00000
     11      13.6305      0.00000
     12      13.6305      0.00000

 k-point  32 :       0.3333    0.0833    0.0833
  band No.  band energies     occupation 
      1      -1.5825      2.00000
      2       1.5618      2.00000
      3       6.0342      2.00000
      4       6.0342      2.00000
      5       8.8633      2.00000
      6       8.8633      2.00000
      7       9.6191      0.00000
      8       9.6191      0.00000
      9      12.6861      0.00000
     10      12.6861      0.00000
     11      13.2605      0.00000
     12      13.8598      0.00000

 k-point  33 :       0.4167    0.0833    0.0833
  band No.  band energies     occupation 
      1      -0.9865      2.00000
      2       0.5886      2.00000
      3       6.5786      2.00000
      4       6.5786      2.00000
      5       8.0807      2.00000
      6       8.0807      2.00000
      7       9.9592      0.00000
      8       9.9592      0.00000
      9      11.8866      0.00000
     10      11.8866      0.00000
     11      13.8879      0.00000
     12      15.3646      0.00000

 k-point  34 :       0.5000    0.0833    0.0833
  band No.  band energies     occupation 
      1      -0.2620      2.00000
      2      -0.2620      2.00000
      3       7.0896      2.00000
      4       7.0896      2.00000
      5       7.4629      2.00000
      6       7.4629      2.00000
      7      10.2307      0.00000
      8      10.2307      0.00000
      9      11.4877      0.00000
     10      11.4877      0.00000
     11      14.5709      0.00000
     12      14.5709      0.00000

 k-point  35 :       0.1667    0.1667    0.0833
  band No.  band energies     occupation 
      1      -2.1813      2.00000
      2       4.0384      2.00000
      3       4.0384      2.00000
      4       5.4797      2.00000
      5       8.8040      2.00000
      6      10.1553      0.00000
      7      10.2340      0.00000
      8      10.2340      0.00000
      9      11.4882      0.00000
     10      11.4882      0.00000
     11      14.7944      0.00000
     12      14.7944      0.00000

 k-point  36 :       0.2500    0.1667    0.0833
  band No.  band energies     occupation 
      1      -1.8483      2.00000
      2       2.8445      2.00000
      3       4.3536      2.00000
      4       5.7866      2.00000
      5       8.6435      2.00000
      6       9.4927      0.00000
      7      10.0922      0.00000
      8      10.7755      0.00000
      9      11.5670      0.00000
     10      12.2133      0.00000
     11      13.8276      0.00000
     12      15.0472      0.00000

 k-point  37 :       0.3333    0.1667    0.0833
  band No.  band energies     occupation 
      1      -1.3835      2.00000
      2       1.7558      2.00000
      3       4.7929      2.00000
      4       6.2079      2.00000
      5       7.7848      2.00000
      6       9.1837      0.00000
      7       9.7513      0.00000
      8      11.0065      0.00000
      9      12.1140      0.00000
     10      12.9294      0.00000
     11      13.9431      0.00000
     12      14.1463      0.00000

 k-point  38 :       0.4167    0.1667    0.0833
  band No.  band energies     occupation 
      1      -0.7885      2.00000
      2       0.7842      2.00000
      3       5.3530      2.00000
      4       6.6090      2.00000
      5       7.0428      2.00000
      6       8.2867      2.00000
      7      10.2523      0.00000
      8      11.2087      0.00000
      9      12.3676      0.00000
     10      12.6841      0.00000
     11      13.3049      0.00000
     12      14.1584      0.00000

 k-point  39 :       0.5000    0.1667    0.0833
  band No.  band energies     occupation 
      1      -0.0651      2.00000
      2      -0.0651      2.00000
      3       6.0232      2.00000
      4       6.0232      2.00000
      5       7.5064      2.00000
      6       7.5064      2.00000
      7      10.8309      0.00000
      8      10.8309      0.00000
      9      12.6199      0.00000
     10      12.6199      0.00000
     11      13.3635      0.00000
     12      13.3635      0.00000

 k-point  40 :       0.2500    0.2500    0.0833
  band No.  band energies     occupation 
      1      -1.5162      2.00000
      2       3.1639      2.00000
      3       3.1639      2.00000
      4       6.0841      2.00000
      5       7.6748      2.00000
      6       9.6496      0.00000
      7      10.5330      0.00000
      8      10.5330      0.00000
      9      12.3484      0.00000
     10      12.3484      0.00000
     11      14.1792      0.00000
     12      14.1792      0.00000

 k-point  41 :       0.3333    0.2500    0.0833
  band No.  band energies     occupation 
      1      -1.0526      2.00000
      2       2.0785      2.00000
      3       3.6093      2.00000
      4       6.3649      2.00000
      5       6.8119      2.00000
      6       9.5145      0.00000
      7      10.0550      0.00000
      8      10.9850      0.00000
      9      12.4479      0.00000
     10      13.5206      0.00000
     11      13.9342      0.00000
     12      13.9353      0.00000

 k-point  42 :       0.4167    0.2500    0.0833
  band No.  band energies     occupation 
      1      -0.4591      2.00000
      2       1.1095      2.00000
      3       4.1789      2.00000
      4       5.6659      2.00000
      5       7.1431      2.00000
      6       8.6012      2.00000
      7      10.5950      0.00000
      8      11.5459      0.00000
      9      11.9493      0.00000
     10      13.0210      0.00000
     11      13.6667      0.00000
     12      14.8564      0.00000

 k-point  43 :       0.5000    0.2500    0.0833
  band No.  band energies     occupation 
      1       0.2625      2.00000
      2       0.2625      2.00000
      3       4.8685      2.00000
      4       4.8685      2.00000
      5       7.8065      2.00000
      6       7.8065      2.00000
      7      11.2428      0.00000
      8      11.2428      0.00000
      9      12.2243      0.00000
     10      12.2243      0.00000
     11      14.2369      0.00000
     12      14.2369      0.00000

 k-point  44 :       0.3333    0.3333    0.0833
  band No.  band energies     occupation 
      1      -0.5907      2.00000
      2       2.5287      2.00000
      3       2.5287      2.00000
      4       5.5449      2.00000
      5       7.0208      2.00000
      6       9.9539      0.00000
      7       9.9539      0.00000
      8      10.4883      0.00000
      9      12.9045      0.00000
     10      13.2995      0.00000
     11      13.2995      0.00000
     12      14.9543      0.00000

 k-point  45 :       0.4167    0.3333    0.0833
  band No.  band energies     occupation 
      1       0.0007      2.00000
      2       1.5635      2.00000
      3       3.1048      2.00000
      4       4.6220      2.00000
      5       7.5624      2.00000
      6       9.0361      0.00014
      7      10.5121      0.00000
      8      11.0425      0.00000
      9      11.9885      0.00000
     10      12.4761      0.00000
     11      13.9301      0.00000
     12      15.3960      0.00000

 k-point  46 :       0.5000    0.3333    0.0833
  band No.  band energies     occupation 
      1       0.7196      2.00000
      2       0.7196      2.00000
      3       3.8041      2.00000
      4       3.8041      2.00000
      5       8.2376      2.00000
      6       8.2376      2.00000
      7      11.1905      0.00000
      8      11.1905      0.00000
      9      11.7098      0.00000
     10      11.7098      0.00000
     11      14.6167      0.00000
     12      14.6167      0.00000

 k-point  47 :       0.4167    0.4167    0.0833
  band No.  band energies     occupation 
      1       0.5893      2.00000
      2       2.1446      2.00000
      3       2.1446      2.00000
      4       3.6784      2.00000
      5       8.1154      2.00000
      6       9.5930      0.00000
      7       9.5930      0.00000
      8      11.0708      0.00000
      9      11.6039      0.00000
     10      13.0581      0.00000
     11      13.0581      0.00000
     12      14.5187      0.00000

 k-point  48 :       0.5000    0.4167    0.0833
  band No.  band energies     occupation 
      1       1.3048      2.00000
      2       1.3048      2.00000
      3       2.8507      2.00000
      4       2.8507      2.00000
      5       8.7933      2.00000
      6       8.7933      2.00000
      7      10.2716      0.00000
      8      10.2716      0.00000
      9      12.2779      0.00000
     10      12.2779      0.00000
     11      13.7373      0.00000
     12      13.7373      0.00000

 k-point  49 :       0.5000    0.5000    0.0833
  band No.  band energies     occupation 
      1       2.0162      2.00000
      2       2.0162      2.00000
      3       2.0162      2.00000
      4       2.0162      2.00000
      5       9.4718      0.00000
      6       9.4718      0.00000
      7       9.4718      0.00000
      8       9.4718      0.00000
      9      12.9546      0.00000
     10      12.9546      0.00000
     11      12.9546      0.00000
[...]
      2       0.4586      2.00000
      3       5.0412      2.00000
      4       5.0412      2.00000
      5       6.6122      2.00000
      6       6.6122      2.00000
      7      11.0394      0.00000
      8      11.0394      0.00000
      9      12.7372      0.00000
     10      12.7372      0.00000
     11      14.4689      0.00000
     12      14.4689      0.00000

 k-point  59 :       0.3333    0.3333    0.1667
  band No.  band energies     occupation 
      1      -0.3932      2.00000
      2       2.7209      2.00000
      3       2.7209      2.00000
      4       5.5178      2.00000
      5       6.0186      2.00000
      6       8.7602      2.00000
      7       8.7602      2.00000
      8      11.7237      0.00000
      9      12.0438      0.00000
     10      14.5346      0.00000
     11      14.5346      0.00000
     12      15.3947      0.00000

 k-point  60 :       0.4167    0.3333    0.1667
  band No.  band energies     occupation 
      1       0.1972      2.00000
      2       1.7575      2.00000
      3       3.2953      2.00000
      4       4.7955      2.00000
      5       6.3644      2.00000
      6       7.8363      2.00000
      7       9.3208      0.00000
      8      10.8047      0.00000
      9      12.5906      0.00000
     10      13.9612      0.00000
     11      15.3992      0.00000
     12      15.6367      0.00000

 k-point  61 :       0.5000    0.3333    0.1667
  band No.  band energies     occupation 
      1       0.9150      2.00000
      2       0.9150      2.00000
      3       3.9910      2.00000
      4       3.9910      2.00000
      5       7.0333      2.00000
      6       7.0333      2.00000
      7      10.0028      0.00000
      8      10.0028      0.00000
      9      13.2403      0.00000
     10      13.2403      0.00000
     11      16.1001      0.00000
     12      16.1001      0.00000

 k-point  62 :       0.4167    0.4167    0.1667
  band No.  band energies     occupation 
      1       0.7849      2.00000
      2       2.3375      2.00000
      3       2.3375      2.00000
      4       3.8657      2.00000
      5       6.9095      2.00000
      6       8.3962      2.00000
      7       8.3962      2.00000
      8       9.8830      0.00000
      9      13.1474      0.00000
     10      14.5707      0.00000
     11      14.5707      0.00000
     12      16.0159      0.00000

 k-point  63 :       0.5000    0.4167    0.1667
  band No.  band energies     occupation 
      1       1.4993      2.00000
      2       1.4993      2.00000
      3       3.0418      2.00000
      4       3.0418      2.00000
      5       7.5907      2.00000
      6       7.5907      2.00000
      7       9.0792      0.00000
      8       9.0792      0.00000
      9      13.8102      0.00000
     10      13.8102      0.00000
     11      15.2470      0.00000
     12      15.2470      0.00000

 k-point  64 :       0.5000    0.5000    0.1667
  band No.  band energies     occupation 
      1       2.2093      2.00000
      2       2.2093      2.00000
      3       2.2093      2.00000
      4       2.2093      2.00000
      5       8.2739      2.00000
      6       8.2739      2.00000
      7       8.2739      2.00000
      8       8.2739      2.00000
      9      14.4789      0.00000
     10      14.4789      0.00000
     11      14.4789      0.00000
     12      14.4789      0.00000

 k-point  65 :       0.2500    0.2500    0.2500
  band No.  band energies     occupation 
      1      -0.9865      2.00000
      2       3.6718      2.00000
      3       3.6718      2.00000
      4       3.6718      2.00000
      5       8.2148      2.00000
      6       8.2148      2.00000
      7       8.2148      2.00000
      8      12.6523      0.00000
      9      12.9205      0.00000
     10      12.9205      0.00000
     11      12.9205      0.00000
     12      16.5926      0.00000

 k-point  66 :       0.3333    0.2500    0.2500
  band No.  band energies     occupation 
      1      -0.5248      2.00000
      2       2.5926      2.00000
      3       4.1120      2.00000
      4       4.1120      2.00000
      5       7.1755      2.00000
      6       7.1755      2.00000
      7       8.6546      2.00000
      8      11.6215      0.00000
      9      13.3343      0.00000
     10      13.3343      0.00000
     11      14.7740      0.00000
     12      16.2205      0.00000

 k-point  67 :       0.4167    0.2500    0.2500
  band No.  band energies     occupation 
      1       0.0662      2.00000
      2       1.6282      2.00000
      3       4.6647      2.00000
      4       4.6647      2.00000
      5       6.2600      2.00000
      6       6.2600      2.00000
      7       9.2162      0.00000
      8      10.7019      0.00000
      9      13.8219      0.00000
     10      13.8219      0.00000
     11      15.4938      0.00000
     12      15.4938      0.00000

 k-point  68 :       0.5000    0.2500    0.2500
  band No.  band energies     occupation 
      1       0.7848      2.00000
      2       0.7848      2.00000
      3       5.1504      2.00000
      4       5.1504      2.00000
      5       5.6529      2.00000
      6       5.6529      2.00000
      7       9.8992      0.00000
      8       9.8992      0.00000
      9      14.1595      0.00000
     10      14.1595      0.00000
     11      15.0626      0.00000
     12      15.0626      0.00000

 k-point  69 :       0.3333    0.3333    0.2500
  band No.  band energies     occupation 
      1      -0.0648      2.00000
      2       3.0400      2.00000
      3       3.0400      2.00000
      4       4.5390      2.00000
      5       6.1397      2.00000
      6       7.6111      2.00000
      7       7.6111      2.00000
      8      10.5865      0.00000
      9      13.7742      0.00000
     10      15.1593      0.00000
     11      15.1593      0.00000
     12      16.6547      0.00000

 k-point  70 :       0.4167    0.3333    0.2500
  band No.  band energies     occupation 
      1       0.5241      2.00000
      2       2.0800      2.00000
      3       3.6105      2.00000
      4       4.9048      2.00000
      5       5.4026      2.00000
      6       6.6829      2.00000
      7       8.1727      2.00000
      8       9.6632      0.00000
      9      14.3082      0.00000
     10      15.3889      0.00000
     11      16.1830      0.00000
     12      16.8435      0.00000

 k-point  71 :       0.5000    0.3333    0.2500
  band No.  band energies     occupation 
      1       1.2400      2.00000
      2       1.2400      2.00000
      3       4.2929      2.00000
      4       4.2929      2.00000
      5       5.8856      2.00000
      6       5.8856      2.00000
      7       8.8575      2.00000
      8       8.8575      2.00000
      9      14.9157      0.00000
     10      14.9157      0.00000
     11      16.5365      0.00000
     12      16.5365      0.00000

 k-point  72 :       0.4167    0.4167    0.2500
  band No.  band energies     occupation 
      1       1.1103      2.00000
      2       2.6579      2.00000
      3       2.6579      2.00000
      4       4.1682      2.00000
      5       5.7600      2.00000
      6       7.2427      2.00000
      7       7.2427      2.00000
      8       8.7367      2.00000
      9      14.8627      0.00000
     10      16.2231      0.00000
     11      16.2231      0.00000
     12      17.6518      0.00000

 k-point  73 :       0.5000    0.4167    0.2500
  band No.  band energies     occupation 
      1       1.8226      2.00000
      2       1.8226      2.00000
      3       3.3579      2.00000
      4       3.3579      2.00000
      5       6.4341      2.00000
      6       6.4341      2.00000
      7       7.9286      2.00000
      8       7.9286      2.00000
      9      15.5079      0.00000
     10      15.5079      0.00000
     11      16.9064      0.00000
     12      16.9064      0.00000

 k-point  74 :       0.5000    0.5000    0.2500
  band No.  band energies     occupation 
      1       2.5301      2.00000
      2       2.5301      2.00000
      3       2.5301      2.00000
      4       2.5301      2.00000
      5       7.1191      2.00000
      6       7.1191      2.00000
      7       7.1191      2.00000
      8       7.1191      2.00000
      9      16.1670      0.00000
     10      16.1670      0.00000
     11      16.1670      0.00000
     12      16.1670      0.00000

 k-point  75 :       0.3333    0.3333    0.3333
  band No.  band energies     occupation 
      1       0.3935      2.00000
      2       3.4833      2.00000
      3       3.4833      2.00000
      4       3.4833      2.00000
      5       6.5632      2.00000
      6       6.5632      2.00000
      7       6.5632      2.00000
      8       9.5470      0.00000
      9      15.6170      0.00000
     10      15.6170      0.00000
     11      15.6170      0.00000
     12      17.7776      0.00000

 k-point  76 :       0.4167    0.3333    0.3333
  band No.  band energies     occupation 
      1       0.9803      2.00000
      2       2.5296      2.00000
      3       4.0408      2.00000
      4       4.0408      2.00000
      5       5.6401      2.00000
      6       5.6401      2.00000
      7       7.1238      2.00000
      8       8.6196      2.00000
      9      16.1191      0.00000
     10      16.1191      0.00000
     11      17.5401      0.00000
     12      17.5708      0.00000

 k-point  77 :       0.5000    0.3333    0.3333
  band No.  band energies     occupation 
      1       1.6934      2.00000
      2       1.6934      2.00000
      3       4.5360      2.00000
      4       4.5360      2.00000
      5       5.0226      2.00000
      6       5.0226      2.00000
      7       7.8106      2.00000
      8       7.8106      2.00000
      9      16.4832      0.00000
     10      16.4832      0.00000
     11      17.1793      0.00000
     12      17.1793      0.00000

 k-point  78 :       0.4167    0.4167    0.3333
  band No.  band energies     occupation 
      1       1.5642      2.00000
      2       3.1032      2.00000
      3       3.1032      2.00000
      4       4.4130      2.00000
      5       4.8946      2.00000
      6       6.1906      2.00000
      7       6.1906      2.00000
      8       7.6887      2.00000
      9      16.6810      0.00000
     10      17.7942      0.00000
     11      17.7942      0.00000
     12      18.3108      0.00000

 k-point  79 :       0.5000    0.4167    0.3333
  band No.  band energies     occupation 
      1       2.2733      2.00000
      2       2.2733      2.00000
      3       3.7901      2.00000
      4       3.7901      2.00000
      5       5.3880      2.00000
      6       5.3880      2.00000
      7       6.8773      2.00000
      8       6.8773      2.00000
      9      17.2868      0.00000
     10      17.2868      0.00000
     11      18.5967      0.00000
     12      18.6155      0.00000

 k-point  80 :       0.5000    0.5000    0.3333
  band No.  band energies     occupation 
      1       2.9760      2.00000
      2       2.9760      2.00000
      3       2.9760      2.00000
      4       2.9760      2.00000
      5       6.0657      2.00000
      6       6.0657      2.00000
      7       6.0657      2.00000
      8       6.0657      2.00000
      9      17.9340      0.00000
     10      17.9340      0.00000
     11      17.9340      0.00000
     12      17.9340      0.00000

 k-point  81 :       0.4167    0.4167    0.4167
  band No.  band energies     occupation 
      1       2.1447      2.00000
      2       3.6637      2.00000
      3       3.6637      2.00000
      4       3.6637      2.00000
      5       5.2630      2.00000
      6       5.2630      2.00000
      7       5.2630      2.00000
      8       6.7544      2.00000
      9      18.5549      0.00000
     10      18.5549      0.00000
     11      18.5549      0.00000
     12      19.3021      0.00000

 k-point  82 :       0.5000    0.4167    0.4167
  band No.  band energies     occupation 
      1       2.8484      2.00000
      2       2.8484      2.00000
      3       4.1670      2.00000
      4       4.1670      2.00000
      5       4.6370      2.00000
      6       4.6370      2.00000
      7       5.9417      2.00000
      8       5.9417      2.00000
      9      18.9485      0.00000
     10      18.9485      0.00000
     11      19.3279      0.00000
     12      19.3279      0.00000

 k-point  83 :       0.5000    0.5000    0.4167
  band No.  band energies     occupation 
      1       3.5377      2.00000
      2       3.5377      2.00000
      3       3.5377      2.00000
      4       3.5377      2.00000
      5       5.1365      2.00000
      6       5.1365      2.00000
      7       5.1365      2.00000
      8       5.1365      2.00000
      9      19.6805      0.00000
     10      19.6805      0.00000
     11      19.6805      0.00000
     12      19.6805      0.00000

 k-point  84 :       0.5000    0.5000    0.5000
  band No.  band energies     occupation 
      1       4.0440      2.00000
      2       4.0440      2.00000
      3       4.0440      2.00000
      4       4.0440      2.00000
      5       4.5074      2.00000
      6       4.5074      2.00000
      7       4.5074      2.00000
      8       4.5074      2.00000
      9      20.9258      0.00000
     10      20.9258      0.00000
     11      20.9258      0.00000
     12      20.9258      0.00000


--------------------------------------------------------------------------------------------------------


 soft charge-density along one line, spin component           1
         0         1         2         3         4         5         6         7         8         9
 total charge-density along one line
 
 pseudopotential strength for first ion, spin component:           1
  8.413  -0.008  -0.000  -0.000  -0.000  -0.000  -0.000  -0.000
 -0.008   0.000  -0.000  -0.000  -0.000   0.000   0.000   0.000
 -0.000  -0.000   1.993  -0.000  -0.000  -0.030   0.000   0.000
 -0.000  -0.000  -0.000   1.993  -0.000   0.000  -0.030   0.000
 -0.000  -0.000  -0.000  -0.000   1.993   0.000   0.000  -0.030
 -0.000   0.000  -0.030   0.000   0.000  -0.011   0.000   0.000
 -0.000   0.000   0.000  -0.030   0.000   0.000  -0.011   0.000
 -0.000   0.000   0.000   0.000  -0.030   0.000   0.000  -0.011
 total augmentation occupancy for first ion, spin component:           1
  1.302  -0.585  -0.000   0.000  -0.000  -0.000  -0.000  -0.000
 -0.585   0.588  -0.000   0.000  -0.000   0.000  -0.000   0.000
 -0.000  -0.000   0.805  -0.055   0.035  -0.179   0.015   0.003
  0.000   0.000  -0.055   0.893  -0.001   0.015  -0.147   0.007
 -0.000  -0.000   0.035  -0.001   0.729   0.003   0.007  -0.187
 -0.000   0.000  -0.179   0.015   0.003   0.044  -0.003  -0.002
 -0.000  -0.000   0.015  -0.147   0.007  -0.003   0.027  -0.002
 -0.000   0.000   0.003   0.007  -0.187  -0.002  -0.002   0.054


------------------------ aborting loop because EDIFF is reached ----------------------------------------




--------------------------------------------------------------------------------------------------------


    CHARGE:  VPU time    0.17: CPU time    0.17
    FORLOC:  VPU time    0.00: CPU time    0.00
    FORNL :  VPU time    0.54: CPU time    0.54
    STRESS:  VPU time    1.72: CPU time    1.72
    FORCOR:  VPU time    0.07: CPU time    0.07
    FORHAR:  VPU time    0.01: CPU time    0.02
    MIXING:  VPU time    0.00: CPU time    0.00


--------------------------------------------------------------------------------------------------------



  FREE ENERGIE OF THE ION-ELECTRON SYSTEM (eV)
  ---------------------------------------------------
  free  energy   TOTEN  =       -14.823575 eV

  energy  without entropy=      -14.823409  energy(sigma->0) =      -14.823492
 

  FORCE on cell =-STRESS in cart. coord.  units (eV/reduce length):
  Direction    X        Y        Z        XY       YZ       ZX
  --------------------------------------------------------------------------------------
  Alpha Z     -0.89     -0.89     -0.89
  Ewald     -101.15   -101.15   -101.15      0.00      0.00      0.00
  Hartree      0.16      0.16      0.16      0.00     -0.00     -0.00
  E(xc)      -35.33    -35.33    -35.33      0.00      0.00      0.00
  Local        2.96      2.96      2.96      0.00      0.00     -0.00
  n-local     76.19     77.05     79.63      0.56      1.38      0.61
  augment     -3.93     -3.93     -3.93      0.00      0.00      0.00
  Kinetic     60.76     64.07     66.83      1.99     -8.25     -1.62
  -------------------------------------------------------------------------------------
  Total        3.33      3.33      3.33      0.00      0.00      0.00
  in kB       88.94     88.94     88.94      0.00      0.00      0.00
  external pressure =       88.94 kB  Pullay stress =        0.00 kB


 VOLUME and BASIS-vectors are now :
 -----------------------------------------------------------------------------
  energy-cutoff  :      750.00
  volume of cell :       60.06
      direct lattice vectors                 reciprocal lattice vectors
     3.916187179  0.000000000  0.000000000     0.255350410  0.000000000  0.000000000
     0.000000000  3.916187179  0.000000000     0.000000000  0.255350410  0.000000000
     0.000000000  0.000000000  3.916187179     0.000000000  0.000000000  0.255350410

  length of vectors
     3.916187179  3.916187179  3.916187179     0.255350410  0.255350410  0.255350410


 FORCES acting on ions
    electron-ion (+dipol)            ewald-force                    non-local-force                 convergence-correction
 -----------------------------------------------------------------------------------------------
   -.227E-14 -.170E-13 0.112E-13   0.115E-14 0.871E-15 -.672E-15   0.000E+00 -.808E-27 0.162E-26   -.132E-17 -.260E-16 0.121E-15
   -.248E-14 -.855E-15 -.596E-13   0.125E-14 -.103E-14 0.353E-15   0.162E-26 0.162E-26 0.646E-26   0.141E-16 0.380E-16 -.126E-15
   -.118E-14 -.444E-14 -.472E-14   -.111E-14 0.920E-15 0.347E-15   -.485E-26 0.323E-26 0.162E-26   0.370E-16 -.393E-16 -.122E-15
   -.123E-14 0.251E-15 -.899E-15   -.101E-14 -.976E-15 -.552E-16   -.364E-26 -.646E-26 -.162E-26   0.250E-16 0.501E-16 0.123E-15
 -----------------------------------------------------------------------------------------------
   -.716E-14 -.221E-13 -.540E-13   0.285E-15 -.210E-15 -.265E-16   -.687E-26 -.242E-26 0.808E-26   0.747E-16 0.227E-16 -.343E-17
 
 
 POSITION                                       TOTAL-FORCE (eV/Angst)
 -----------------------------------------------------------------------------------
      1.95809      1.95809      0.00000         0.000000     -0.000000      0.000000
      1.95809      0.00000      1.95809         0.000000     -0.000000      0.000000
      0.00000      1.95809      1.95809         0.000000     -0.000000      0.000000
      0.00000      0.00000      0.00000         0.000000      0.000000      0.000000
 -----------------------------------------------------------------------------------
    total drift:                               -0.000000     -0.000000     -0.000000


--------------------------------------------------------------------------------------------------------



 mean value of Nose-termostat <S>:     1.000 mean value of <T> :     0.000
 mean temperature <T/S>/<1/S>  :     0.000

     LOOP+:  VPU time   25.86: CPU time   25.89
  
  
 General timing and accounting informations for this job:
 ========================================================
  
                  Total CPU time used (sec):       26.963
                            User time (sec):       22.841
                          System time (sec):        4.122
                         Elapsed time (sec):       27.009
  
                   Maximum memory used (kb):      219100.
                   Average memory used (kb):           0.
  
                          Minor page faults:       135460
                          Major page faults:            0
                 Voluntary context switches:          817
