<?xml version="1.0" encoding="ISO-8859-1"?>
<modeling>
 <generator>
  <i name="program" type="string">vasp</i>
  <i name="version" type="string">4.6.28 </i>
  <i name="subversion" type="string">25Jul05 complex  parallel</i>
  <i name="platform" type="string">LinuxIFC</i>
  <i name="date" type="string">2017 01 08</i>
  <i name="time" type="string">09:56:42</i>
 </generator>
 <incar>
  <i type="string" name="PREC">accurate</i>
  <i type="int" name="IALGO">    38</i>
  <i type="logical" name="ADDGRID"> T  </i>
  <i name="EDIFF">      0.00000001</i>
  <i type="int" name="IBRION">    -1</i>
  <i name="ENCUT">    750.00000000</i>
  <i type="logical" name="LREAL"> F  </i>
  <i type="int" name="ISMEAR">     0</i>
  <i name="SIGMA">      0.01000000</i>
  <i type="logical" name="LWAVE"> F  </i>
  <i type="logical" name="LCHARG"> F  </i>
 </incar>
 <kpoints>
  <generation param="Gamma">
   <v type="int" name="divisions">      12      12      12</v>
   <v name="usershift">      0.00000000      0.00000000      0.00000000</v>
   <v name="genvec1">      0.08333333      0.00000000      0.00000000</v>
   <v name="genvec2">      0.00000000      0.08333333      0.00000000</v>
   <v name="genvec3">      0.00000000      0.00000000      0.08333333</v>
   <v name="shift">      0.00000000      0.00000000      0.00000000</v>
  </generation>
  <varray name="kpointlist" >
   <v>       0.00000000      0.00000000      0.00000000</v>
   <v>       0.08333333      0.00000000      0.00000000</v>
   <v>       0.16666667      0.00000000      0.00000000</v>
   <v>       0.25000000      0.00000000      0.00000000</v>
   <v>       0.33333333      0.00000000      0.00000000</v>
   <v>       0.41666667      0.00000000      0.00000000</v>
   <v>       0.50000000      0.00000000      0.00000000</v>
   <v>       0.08333333      0.08333333      0.00000000</v>
   <v>       0.16666667      0.08333333      0.00000000</v>
   <v>       0.25000000      0.08333333      0.00000000</v>
   <v>       0.33333333      0.08333333      0.00000000</v>
   <v>       0.41666667      0.08333333      0.00000000</v>
   <v>       0.50000000      0.08333333      0.00000000</v>
   <v>       0.16666667      0.16666667      0.00000000</v>
   <v>       0.25000000      0.16666667      0.00000000</v>
   <v>       0.33333333      0.16666667      0.00000000</v>
   <v>       0.41666667      0.16666667      0.00000000</v>
   <v>       0.50000000      0.16666667      0.00000000</v>
   <v>       0.25000000      0.25000000      0.00000000</v>
   <v>       0.33333333      0.25000000      0.00000000</v>
   <v>       0.41666667      0.25000000      0.00000000</v>
   <v>       0.50000000      0.25000000      0.00000000</v>
   <v>       0.33333333      0.33333333      0.00000000</v>
   <v>       0.41666667      0.33333333      0.00000000</v>
   <v>       0.50000000      0.33333333      0.00000000</v>
   <v>       0.41666667      0.41666667      0.00000000</v>
   <v>       0.50000000      0.41666667      0.00000000</v>
   <v>       0.50000000      0.50000000      0.00000000</v>
   <v>       0.08333333      0.08333333      0.08333333</v>
   <v>       0.16666667      0.08333333      0.08333333</v>
   <v>       0.25000000      0.08333333      0.08333333</v>
   <v>       0.33333333      0.08333333      0.08333333</v>
   <v>       0.41666667      0.08333333      0.08333333</v>
   <v>       0.50000000      0.08333333      0.08333333</v>
   <v>       0.16666667      0.16666667      0.08333333</v>
   <v>       0.25000000      0.16666667      0.08333333</v>
   <v>       0.33333333      0.16666667      0.08333333</v>
   <v>       0.41666667      0.16666667      0.08333333</v>
   <v>       0.50000000      0.16666667      0.08333333</v>
   <v>       0.25000000      0.25000000      0.08333333</v>
   <v>       0.33333333      0.25000000      0.08333333</v>
   <v>       0.41666667      0.25000000      0.08333333</v>
   <v>       0.50000000      0.25000000      0.08333333</v>
   <v>       0.33333333      0.33333333      0.08333333</v>
   <v>       0.41666667      0.33333333      0.08333333</v>
   <v>       0.50000000      0.33333333      0.08333333</v>
   <v>       0.41666667      0.41666667      0.08333333</v>
   <v>       0.50000000      0.41666667      0.08333333</v>
   <v>       0.50000000      0.50000000      0.08333333</v>
   <v>       0.16666667      0.16666667      0.16666667</v>
   <v>       0.25000000      0.16666667      0.16666667</v>
   <v>       0.33333333      0.16666667      0.16666667</v>
   <v>       0.41666667      0.16666667      0.16666667</v>
   <v>       0.50000000      0.16666667      0.16666667</v>
   <v>       0.25000000      0.25000000      0.16666667</v>
   <v>       0.33333333      0.25000000      0.16666667</v>
   <v>       0.41666667      0.25000000      0.16666667</v>
   <v>       0.50000000      0.25000000      0.16666667</v>
   <v>       0.33333333      0.33333333      0.16666667</v>
   <v>       0.41666667      0.33333333      0.16666667</v>
   <v>       0.50000000      0.33333333      0.16666667</v>
   <v>       0.41666667      0.41666667      0.16666667</v>
   <v>       0.50000000      0.41666667      0.16666667</v>
   <v>       0.50000000      0.50000000      0.16666667</v>
   <v>       0.25000000      0.25000000      0.25000000</v>
   <v>       0.33333333      0.25000000      0.25000000</v>
   <v>       0.41666667      0.25000000      0.25000000</v>
   <v>       0.50000000      0.25000000      0.25000000</v>
   <v>       0.33333333      0.33333333      0.25000000</v>
   <v>       0.41666667      0.33333333      0.25000000</v>
   <v>       0.50000000      0.33333333      0.25000000</v>
   <v>       0.41666667      0.41666667      0.25000000</v>
   <v>       0.50000000      0.41666667      0.25000000</v>
   <v>       0.50000000      0.50000000      0.25000000</v>
   <v>       0.33333333      0.33333333      0.33333333</v>
   <v>       0.41666667      0.33333333      0.33333333</v>
   <v>       0.50000000      0.33333333      0.33333333</v>
   <v>       0.41666667      0.41666667      0.33333333</v>
   <v>       0.50000000      0.41666667      0.33333333</v>
   <v>       0.50000000      0.50000000      0.33333333</v>
   <v>       0.41666667      0.41666667      0.41666667</v>
   <v>       0.50000000      0.41666667      0.41666667</v>
   <v>       0.50000000      0.50000000      0.41666667</v>
   <v>       0.50000000      0.50000000      0.50000000</v>
  </varray>
  <varray name="weights" >
   <v>       0.00057870</v>
   <v>       0.00347222</v>
   <v>       0.00347222</v>
   <v>       0.00347222</v>
   <v>       0.00347222</v>
   <v>       0.00347222</v>
   <v>       0.00173611</v>
   <v>       0.00694444</v>
   <v>       0.01388889</v>
   <v>       0.01388889</v>
   <v>       0.01388889</v>
   <v>       0.01388889</v>
   <v>       0.00694444</v>
   <v>       0.00694444</v>
   <v>       0.01388889</v>
   <v>       0.01388889</v>
   <v>       0.01388889</v>
   <v>       0.00694444</v>
   <v>       0.00694444</v>
   <v>       0.01388889</v>
   <v>       0.01388889</v>
   <v>       0.00694444</v>
   <v>       0.00694444</v>
   <v>       0.01388889</v>
   <v>       0.00694444</v>
   <v>       0.00694444</v>
   <v>       0.00694444</v>
   <v>       0.00173611</v>
   <v>       0.00462963</v>
   <v>       0.01388889</v>
   <v>       0.01388889</v>
   <v>       0.01388889</v>
   <v>       0.01388889</v>
   <v>       0.00694444</v>
   <v>       0.01388889</v>
   <v>       0.02777778</v>
   <v>       0.02777778</v>
   <v>       0.02777778</v>
   <v>       0.01388889</v>
   <v>       0.01388889</v>
   <v>       0.02777778</v>
   <v>       0.02777778</v>
   <v>       0.01388889</v>
   <v>       0.01388889</v>
   <v>       0.02777778</v>
   <v>       0.01388889</v>
   <v>       0.01388889</v>
   <v>       0.01388889</v>
   <v>       0.00347222</v>
   <v>       0.00462963</v>
   <v>       0.01388889</v>
   <v>       0.01388889</v>
   <v>       0.01388889</v>
   <v>       0.00694444</v>
   <v>       0.01388889</v>
   <v>       0.02777778</v>
   <v>       0.02777778</v>
   <v>       0.01388889</v>
   <v>       0.01388889</v>
   <v>       0.02777778</v>
   <v>       0.01388889</v>
   <v>       0.01388889</v>
   <v>       0.01388889</v>
   <v>       0.00347222</v>
   <v>       0.00462963</v>
   <v>       0.01388889</v>
   <v>       0.01388889</v>
   <v>       0.00694444</v>
   <v>       0.01388889</v>
   <v>       0.02777778</v>
   <v>       0.01388889</v>
   <v>       0.01388889</v>
   <v>       0.01388889</v>
   <v>       0.00347222</v>
   <v>       0.00462963</v>
   <v>       0.01388889</v>
   <v>       0.00694444</v>
   <v>       0.01388889</v>
   <v>       0.01388889</v>
   <v>       0.00347222</v>
   <v>       0.00462963</v>
   <v>       0.00694444</v>
   <v>       0.00347222</v>
   <v>       0.00057870</v>
  </varray>
 </kpoints>
 <parameters>
  <separator name="general" >
   <i type="string" name="SYSTEM">unknown system</i>
   <i type="logical" name="LCOMPAT"> F  </i>
  </separator>
  <separator name="electronic" >
   <i type="string" name="PREC">accura</i>
   <i name="ENMAX">    750.00000000</i>
   <i name="ENAUG">    291.05200000</i>
   <i name="EDIFF">      0.00000001</i>
   <i type="int" name="IALGO">    38</i>
   <i type="int" name="IWAVPR">    10</i>
   <i type="int" name="NBANDS">    10</i>
   <i name="NELECT">     12.00000000</i>
   <separator name="electronic smearing" >
    <i type="int" name="ISMEAR">     0</i>
    <i name="SIGMA">      0.01000000</i>
   </separator>
   <separator name="electronic projectors" >
    <i type="logical" name="LREAL"> F  </i>
    <v name="ROPT">      0.00000000</v>
    <i type="int" name="LMAXPAW">  -100</i>
    <i type="int" name="LMAXMIX">     2</i>
   </separator>
   <separator name="electronic startup" >
    <i type="int" name="ISTART">     0</i>
    <i type="int" name="ICHARG">     2</i>
    <i type="int" name="INIWAV">     1</i>
   </separator>
   <separator name="electronic spin" >
    <i type="int" name="ISPIN">     1</i>
    <i type="logical" name="LNONCOLLINEAR"> F  </i>
    <v name="MAGMOM">      1.00000000      1.00000000      1.00000000      1.00000000</v>
    <i name="NUPDOWN">     -1.00000000</i>
    <i type="logical" name="LSORBIT"> F  </i>
    <v name="SAXIS">      0.00000000      0.00000000      1.00000000</v>
    <i type="logical" name="LSPIRAL"> F  </i>
    <v name="QSPIRAL">      0.00000000      0.00000000      0.00000000</v>
    <i type="logical" name="LZEROZ"> F  </i>
   </separator>
   <separator name="electronic exchange-correlation" >
    <i type="string" name="GGA">--</i>
    <i type="int" name="VOSKOWN">     0</i>
    <i type="logical" name="LASPH"> F  </i>
    <i type="logical" name="LMETAGGA"> F  </i>
    <i type="string" name="GGA2">--</i>
   </separator>
   <separator name="electronic convergence" >
    <i type="int" name="NELM">    60</i>
    <i type="int" name="NELMDL">     0</i>
    <i type="int" name="NELMIN">     2</i>
    <i name="ENINI">    750.00000000</i>
    <separator name="electronic convergence detail" >
     <i type="logical" name="LDIAG"> T  </i>
     <i name="WEIMIN">      0.00000000</i>
     <i name="EBREAK">      0.00000000</i>
     <i name="DEPER">      0.30000000</i>
     <i type="int" name="NRMM">     4</i>
     <i name="TIME">      0.10000000</i>
    </separator>
   </separator>
   <separator name="electronic mixer" >
    <i name="AMIX">      0.40000000</i>
    <i name="BMIX">      1.00000000</i>
    <i name="AMIN">      0.10000000</i>
    <i name="AMIX_MAG">      1.60000000</i>
    <i name="BMIX_MAG">      1.00000000</i>
    <separator name="electronic mixer details" >
     <i type="int" name="IMIX">     4</i>
     <i type="int" name="MAXMIX">   -45</i>
     <i name="WC">    100.00000000</i>
     <i type="int" name="INIMIX">     1</i>
     <i type="int" name="MIXPRE">     1</i>
     <i type="int" name="MREMOVE">     5</i>
    </separator>
   </separator>
   <separator name="electronic dipolcorrection" >
    <i type="int" name="IDIPOL">     0</i>
    <i type="logical" name="LDIPOL"> F  </i>
    <v name="DIPOL">   -100.00000000</v>
    <i name="EFIELD">      0.00000000</i>
   </separator>
  </separator>
  <separator name="grids" >
   <i type="int" name="NGX">    36</i>
   <i type="int" name="NGY">    36</i>
   <i type="int" name="NGZ">    36</i>
   <i type="int" name="NGXF">    72</i>
   <i type="int" name="NGYF">    72</i>
   <i type="int" name="NGZF">    72</i>
   <i type="logical" name="ADDGRID"> T  </i>
  </separator>
  <separator name="ionic" >
   <i type="int" name="NSW">     0</i>
   <i type="int" name="IBRION">    -1</i>
   <i type="int" name="ISIF">     2</i>
   <i name="PSTRESS">      0.00000000</i>
   <i name="EDIFFG">      0.00000010</i>
   <i type="int" name="NFREE">     0</i>
   <i name="POTIM">      0.50000000</i>
   <i name="SMASS">     -3.00000000</i>
  </separator>
  <separator name="ionic md" >
   <i name="TEBEG">      0.00010000</i>
   <i name="TEEND">      0.00010000</i>
   <i type="int" name="NBLOCK">     1</i>
   <i type="int" name="KBLOCK">     1</i>
   <i type="int" name="NPACO">   256</i>
   <i name="APACO">     16.00000000</i>
  </separator>
  <separator name="symmetry" >
   <i type="int" name="ISYM">     2</i>
   <i name="SYMPREC">      0.00001000</i>
  </separator>
  <separator name="dos" >
   <i type="logical" name="LORBIT"> F  </i>
   <v name="RWIGS">     -1.00000000</v>
   <i type="int" name="NEDOS">   301</i>
   <i name="EMIN">     10.00000000</i>
   <i name="EMAX">    -10.00000000</i>
  </separator>
  <separator name="writing" >
   <i type="int" name="NWRITE">     2</i>
   <i type="logical" name="LWAVE"> F  </i>
   <i type="logical" name="LCHARG"> F  </i>
   <i type="logical" name="LPARD"> F  </i>
   <i type="logical" name="LVTOT"> F  </i>
   <i type="logical" name="LELF"> F  </i>
   <i type="logical" name="LOPTICS"> F  </i>
   <i name="STM">      0.00000000</i>
  </separator>
  <separator name="performance" >
   <i type="int" name="NPAR">     4</i>
   <i type="int" name="NSIM">     4</i>
   <i type="int" name="NBLK">   256</i>
   <i type="logical" name="LPLANE"> T  </i>
   <i type="logical" name="LCRITICAL_MEM"> F  </i>
   <i type="logical" name="LSCALAPACK"> F  </i>
   <i type="logical" name="LSCALU"> F  </i>
   <i type="logical" name="LASYNC"> F  </i>
  </separator>
  <separator name="miscellaneous" >
   <i type="int" name="IDIOT">     3</i>
   <i type="logical" name="LMUSIC"> F  </i>
   <v name="POMASS">     26.98200000</v>
   <i type="logical" name="LCORR"> T  </i>
  </separator>
  <i type="logical" name="LREAL_COMPAT"> F  </i>
  <i type="logical" name="GGA_COMPAT"> T  </i>
  <i type="logical" name="LBERRY"> F  </i>
  <i type="int" name="ICORELEVEL">     0</i>
  <i type="logical" name="LDAU"> F  </i>
  <i type="int" name="I_CONSTRAINED_M">     0</i>
 </parameters>
 <atominfo>
  <atoms>       4</atoms>
  <types>       1</types>
  <array name="atoms" >
   <dimension dim="1">ion</dimension>
   <field type="string">element</field>
   <field type="int">atomtype</field>
   <set>
    <rc><c>Al</c><c>   1</c></rc>
    <rc><c>Al</c><c>   1</c></rc>
    <rc><c>Al</c><c>   1</c></rc>
    <rc><c>Al</c><c>   1</c></rc>
   </set>
  </array>
  <array name="atomtypes" >
   <dimension dim="1">type</dimension>
   <field type="int">atomspertype</field>
   <field type="string">element</field>
   <field>mass</field>
   <field>valence</field>
   <field type="string">pseudopotential</field>
   <set>
    <rc><c>   4</c><c>Al</c><c>     26.98200000</c><c>      3.00000000</c><c> PAW_PBE Al 04Jan2001                   </c></rc>
   </set>
  </array>
 </atominfo>
 <structure name="initialpos" >
  <crystal>
   <varray name="basis" >
    <v>       3.91618718      0.00000000      0.00000000</v>
    <v>       0.00000000      3.91618718      0.00000000</v>
    <v>       0.00000000      0.00000000      3.91618718</v>
   </varray>
   <i name="volume">     60.06069089</i>
   <varray name="rec_basis" >
    <v>       0.25535041      0.00000000      0.00000000</v>
    <v>       0.00000000      0.25535041      0.00000000</v>
    <v>       0.00000000      0.00000000      0.25535041</v>
   </varray>
  </crystal>
  <varray name="positions" >
   <v>       0.50000000      0.50000000      0.00000000</v>
   <v>       0.50000000      0.00000000      0.50000000</v>
   <v>       0.00000000      0.50000000      0.50000000</v>
   <v>       0.00000000      0.00000000      0.00000000</v>
  </varray>
 </structure>
 <calculation>
  <scstep>
   <time name="dav">    1.58    1.58</time>
   <time name="total">    1.77    1.78</time>
   <energy>
    <i name="alphaZ">     -0.89477812</i>
    <i name="ewald">   -303.45298716</i>
    <i name="hartreedc">     -0.29941578</i>
    <i name="XCdc">   -104.26831623</i>
    <i name="pawpsdc">    142.21701965</i>
    <i name="pawaedc">    -14.39593217</i>
    <i name="eentropy">     -0.00001471</i>
    <i name="bandstr">     81.49477165</i>
    <i name="atom">    214.15438658</i>
    <i name="e_fr_energy">     14.55473371</i>
    <i name="e_wo_entrp">     14.55474843</i>
    <i name="e_0_energy">     14.55474107</i>
   </energy>
  </scstep>
  <scstep>
   <time name="dav">    1.79    1.79</time>
   <time name="total">    1.79    1.80</time>
   <energy>
    <i name="e_fr_energy">    -13.87650903</i>
    <i name="e_wo_entrp">    -13.87638817</i>
    <i name="e_0_energy">    -13.87644860</i>
   </energy>
  </scstep>
  <scstep>
   <time name="dav">    1.84    1.84</time>
   <time name="total">    1.84    1.84</time>
   <energy>
    <i name="e_fr_energy">    -14.91376261</i>
    <i name="e_wo_entrp">    -14.91362369</i>
    <i name="e_0_energy">    -14.91369315</i>
   </energy>
  </scstep>
  <scstep>
   <time name="dav">    1.69    1.69</time>
   <time name="total">    1.70    1.70</time>
   <energy>
    <i name="e_fr_energy">    -14.92303298</i>
    <i name="e_wo_entrp">    -14.92289375</i>
    <i name="e_0_energy">    -14.92296336</i>
   </energy>
  </scstep>
  <scstep>
   <time name="dav">    1.73    1.74</time>
   <time name="total">    1.91    1.91</time>
   <energy>
    <i name="e_fr_energy">    -14.92311103</i>
    <i name="e_wo_entrp">    -14.92297180</i>
    <i name="e_0_energy">    -14.92304142</i>
   </energy>
  </scstep>
  <scstep>
   <time name="dav">    1.63    1.63</time>
   <time name="total">    1.94    1.94</time>
   <energy>
    <i name="e_fr_energy">    -14.86532878</i>
    <i name="e_wo_entrp">    -14.86518131</i>
    <i name="e_0_energy">    -14.86525505</i>
   </energy>
  </scstep>
  <scstep>
   <time name="dav">    1.60    1.60</time>
   <time name="total">    1.90    1.91</time>
   <energy>
    <i name="e_fr_energy">    -14.82353930</i>
    <i name="e_wo_entrp">    -14.82337335</i>
    <i name="e_0_energy">    -14.82345633</i>
   </energy>
  </scstep>
  <scstep>
   <time name="dav">    1.77    1.78</time>
   <time name="total">    2.08    2.08</time>
   <energy>
    <i name="e_fr_energy">    -14.82357392</i>
    <i name="e_wo_entrp">    -14.82340742</i>
    <i name="e_0_energy">    -14.82349067</i>
   </energy>
  </scstep>
  <scstep>
   <time name="dav">    1.68    1.68</time>
   <time name="total">    1.99    1.99</time>
   <energy>
    <i name="e_fr_energy">    -14.82357616</i>
    <i name="e_wo_entrp">    -14.82340966</i>
    <i name="e_0_energy">    -14.82349291</i>
   </energy>
  </scstep>
  <scstep>
   <time name="dav">    1.76    1.76</time>
   <time name="total">    2.06    2.07</time>
   <energy>
    <i name="e_fr_energy">    -14.82357534</i>
    <i name="e_wo_entrp">    -14.82340883</i>
    <i name="e_0_energy">    -14.82349209</i>
   </energy>
  </scstep>
  <scstep>
   <time name="dav">    1.25    1.25</time>
   <time name="total">    1.56    1.56</time>
   <energy>
    <i name="e_fr_energy">    -14.82357522</i>
    <i name="e_wo_entrp">    -14.82340872</i>
    <i name="e_0_energy">    -14.82349197</i>
   </energy>
  </scstep>
  <scstep>
   <time name="dav">    1.20    1.20</time>
   <time name="total">    1.50    1.51</time>
   <energy>
    <i name="e_fr_energy">    -14.82357524</i>
    <i name="e_wo_entrp">    -14.82340873</i>
    <i name="e_0_energy">    -14.82349198</i>
   </energy>
  </scstep>
  <scstep>
   <time name="dav">    1.14    1.14</time>
   <time name="total">    1.27    1.27</time>
   <energy>
    <i name="alphaZ">     -0.89477812</i>
    <i name="ewald">   -303.45298716</i>
    <i name="hartreedc">     -0.49182398</i>
    <i name="XCdc">   -103.74626666</i>
    <i name="pawpsdc">    143.98235191</i>
    <i name="pawaedc">    -16.28047592</i>
    <i name="eentropy">     -0.00016651</i>
    <i name="bandstr">     51.90618463</i>
    <i name="atom">    214.15438658</i>
    <i name="e_fr_energy">    -14.82357524</i>
    <i name="e_wo_entrp">    -14.82340873</i>
    <i name="e_0_energy">    -14.82349198</i>
   </energy>
  </scstep>
  <structure>
   <crystal>
    <varray name="basis" >
     <v>       3.91618718      0.00000000      0.00000000</v>
     <v>       0.00000000      3.91618718      0.00000000</v>
     <v>       0.00000000      0.00000000      3.91618718</v>
    </varray>
    <i name="volume">     60.06069089</i>
    <varray name="rec_basis" >
     <v>       0.25535041      0.00000000      0.00000000</v>
     <v>       0.00000000      0.25535041      0.00000000</v>
     <v>       0.00000000      0.00000000      0.25535041</v>
    </varray>
   </crystal>
   <varray name="positions" >
    <v>       0.50000000      0.50000000      0.00000000</v>
    <v>       0.50000000      0.00000000      0.50000000</v>
    <v>       0.00000000      0.50000000      0.50000000</v>
    <v>       0.00000000      0.00000000      0.00000000</v>
   </varray>
  </structure>
  <varray name="forces" >
   <v>       0.00000000     -0.00000000      0.00000000</v>
   <v>       0.00000000     -0.00000000      0.00000000</v>
   <v>       0.00000000     -0.00000000      0.00000000</v>
   <v>       0.00000000      0.00000000      0.00000000</v>
  </varray>
  <varray name="stress" >
   <v>      88.94453027      0.00000000      0.00000000</v>
   <v>       0.00000000     88.94453027      0.00000000</v>
   <v>      -0.00000000      0.00000000     88.94453027</v>
  </varray>
  <energy>
   <i name="e_fr_energy">    -14.82357524</i>
   <i name="e_wo_entrp">    -14.82349198</i>
   <i name="e_0_energy">     -0.00016651</i>
  </energy>
  <eigenvalues>
   <array>
    <dimension dim="1">band</dimension>
    <dimension dim="2">kpoint</dimension>
    <dimension dim="3">spin</dimension>
    <field>eigene</field>
    <field>occ</field>
    <set>
     <set comment="spin 1">
      <set comment="kpoint 1">
       <r>  -2.7830  1.0000</r>
       <r>   5.8672  1.0000</r>
       <r>   5.8672  1.0000</r>
       <r>   5.8672  1.0000</r>
       <r>   7.3860  1.0000</r>
       <r>   7.3860  1.0000</r>
       <r>   7.3860  1.0000</r>
       <r>  14.2961  0.0000</r>
       <r>  14.2961  0.0000</r>
       <r>  14.2961  0.0000</r>
       <r>  15.0754  0.0000</r>
       <r>  15.0754  0.0000</r>
      </set>
      <set comment="kpoint 2">
       <r>  -2.7160  1.0000</r>
       <r>   4.9839  1.0000</r>
       <r>   5.9278  1.0000</r>
       <r>   5.9278  1.0000</r>
       <r>   7.4485  1.0000</r>
       <r>   7.4485  1.0000</r>
       <r>   8.3828  1.0000</r>
       <r>  13.2201  0.0000</r>
       <r>  13.2201  0.0000</r>
       <r>  14.3624  0.0000</r>
       <r>  14.6458  0.0000</r>
       <r>  14.6458  0.0000</r>
      </set>
      <set comment="kpoint 3">
       <r>  -2.5152  1.0000</r>
       <r>   3.7222  1.0000</r>
       <r>   6.1096  1.0000</r>
       <r>   6.1096  1.0000</r>
       <r>   7.6344  1.0000</r>
       <r>   7.6344  1.0000</r>
       <r>   9.9850  0.0000</r>
       <r>  11.9545  0.0000</r>
       <r>  11.9545  0.0000</r>
       <r>  13.7362  0.0000</r>
       <r>  13.7362  0.0000</r>
       <r>  14.5609  0.0000</r>
      </set>
      <set comment="kpoint 4">
       <r>  -2.1813  1.0000</r>
       <r>   2.5242  1.0000</r>
       <r>   6.4128  1.0000</r>
       <r>   6.4128  1.0000</r>
       <r>   7.9366  1.0000</r>
       <r>   7.9366  1.0000</r>
       <r>  10.7972  0.0000</r>
       <r>  10.7972  0.0000</r>
       <r>  11.7499  0.0000</r>
       <r>  12.7367  0.0000</r>
       <r>  12.7367  0.0000</r>
       <r>  14.8913  0.0000</r>
      </set>
      <set comment="kpoint 5">
       <r>  -1.7153  1.0000</r>
       <r>   1.4323  1.0000</r>
       <r>   6.8376  1.0000</r>
       <r>   6.8376  1.0000</r>
       <r>   8.3366  1.0000</r>
       <r>   8.3366  1.0000</r>
       <r>   9.7601  0.0000</r>
       <r>   9.7601  0.0000</r>
       <r>  11.7988  0.0000</r>
       <r>  11.7988  0.0000</r>
       <r>  13.6336  0.0000</r>
       <r>  15.3529  0.0000</r>
      </set>
      <set comment="kpoint 6">
       <r>  -1.1187  1.0000</r>
       <r>   0.4581  1.0000</r>
       <r>   7.3844  1.0000</r>
       <r>   7.3844  1.0000</r>
       <r>   8.7736  1.0000</r>
       <r>   8.7736  1.0000</r>
       <r>   8.8454  1.0000</r>
       <r>   8.8454  1.0000</r>
       <r>  11.0283  0.0000</r>
       <r>  11.0283  0.0000</r>
       <r>  15.6223  0.0000</r>
       <r>  15.9443  0.0000</r>
      </set>
      <set comment="kpoint 7">
       <r>  -0.3934  1.0000</r>
       <r>  -0.3934  1.0000</r>
       <r>   8.0536  1.0000</r>
       <r>   8.0536  1.0000</r>
       <r>   8.0536  1.0000</r>
       <r>   8.0536  1.0000</r>
       <r>   9.0164  0.1576</r>
       <r>   9.0164  0.1576</r>
       <r>  10.6729  0.0000</r>
       <r>  10.6729  0.0000</r>
       <r>  16.6633  0.0000</r>
       <r>  16.6633  0.0000</r>
      </set>
      <set comment="kpoint 8">
       <r>  -2.6490  1.0000</r>
       <r>   5.0461  1.0000</r>
       <r>   5.0461  1.0000</r>
       <r>   5.9884  1.0000</r>
       <r>   7.5101  1.0000</r>
       <r>   8.4432  1.0000</r>
       <r>   8.4432  1.0000</r>
       <r>  12.3948  0.0000</r>
       <r>  13.2825  0.0000</r>
       <r>  13.2825  0.0000</r>
       <r>  14.7037  0.0000</r>
       <r>  14.7037  0.0000</r>
      </set>
      <set comment="kpoint 9">
       <r>  -2.4484  1.0000</r>
       <r>   3.7855  1.0000</r>
       <r>   5.2325  1.0000</r>
       <r>   6.1702  1.0000</r>
       <r>   7.6918  1.0000</r>
       <r>   8.6221  1.0000</r>
       <r>  10.0419  0.0000</r>
       <r>  11.2032  0.0000</r>
       <r>  12.0162  0.0000</r>
       <r>  13.4692  0.0000</r>
       <r>  13.7988  0.0000</r>
       <r>  14.5550  0.0000</r>
      </set>
      <set comment="kpoint 10">
       <r>  -2.1147  1.0000</r>
       <r>   2.5883  1.0000</r>
       <r>   5.5423  1.0000</r>
       <r>   6.4735  1.0000</r>
       <r>   7.9785  1.0000</r>
       <r>   8.9112  1.0000</r>
       <r>  10.0883  0.0000</r>
       <r>  10.8586  0.0000</r>
       <r>  11.8002  0.0000</r>
       <r>  12.8074  0.0000</r>
       <r>  13.5660  0.0000</r>
       <r>  13.7801  0.0000</r>
      </set>
      <set comment="kpoint 11">
       <r>  -1.6489  1.0000</r>
       <r>   1.4971  1.0000</r>
       <r>   5.9744  1.0000</r>
       <r>   6.8984  1.0000</r>
       <r>   8.2735  1.0000</r>
       <r>   9.1820  0.0000</r>
       <r>   9.2830  0.0000</r>
       <r>   9.8213  0.0000</r>
       <r>  11.8915  0.0000</r>
       <r>  12.6119  0.0000</r>
       <r>  13.6661  0.0000</r>
       <r>  14.2145  0.0000</r>
      </set>
      <set comment="kpoint 12">
       <r>  -1.0526  1.0000</r>
       <r>   0.5233  1.0000</r>
       <r>   6.5259  1.0000</r>
       <r>   7.4453  1.0000</r>
       <r>   7.9204  1.0000</r>
       <r>   8.9065  1.0000</r>
       <r>   9.1246  0.0000</r>
       <r>   9.6208  0.0000</r>
       <r>  11.2161  0.0000</r>
       <r>  11.7776  0.0000</r>
       <r>  14.7711  0.0000</r>
       <r>  15.5389  0.0000</r>
      </set>
      <set comment="kpoint 13">
       <r>  -0.3277  1.0000</r>
       <r>  -0.3277  1.0000</r>
       <r>   7.1886  1.0000</r>
       <r>   7.1886  1.0000</r>
       <r>   8.1145  1.0000</r>
       <r>   8.1145  1.0000</r>
       <r>   9.5439  0.0000</r>
       <r>   9.5439  0.0000</r>
       <r>  11.1867  0.0000</r>
       <r>  11.1867  0.0000</r>
       <r>  15.4487  0.0000</r>
       <r>  15.4487  0.0000</r>
      </set>
      <set comment="kpoint 14">
       <r>  -2.2480  1.0000</r>
       <r>   3.9753  1.0000</r>
       <r>   3.9753  1.0000</r>
       <r>   6.3522  1.0000</r>
       <r>   7.8528  1.0000</r>
       <r>  10.0591  0.0000</r>
       <r>  10.2083  0.0000</r>
       <r>  10.2083  0.0000</r>
       <r>  12.2011  0.0000</r>
       <r>  12.2011  0.0000</r>
       <r>  13.9886  0.0000</r>
       <r>  13.9886  0.0000</r>
      </set>
      <set comment="kpoint 15">
       <r>  -1.9149  1.0000</r>
       <r>   2.7805  1.0000</r>
       <r>   4.2909  1.0000</r>
       <r>   6.6555  1.0000</r>
       <r>   8.0184  1.0000</r>
       <r>   9.0743  0.0000</r>
       <r>  10.4633  0.0000</r>
       <r>  11.0427  0.0000</r>
       <r>  11.9376  0.0000</r>
       <r>  12.5092  0.0000</r>
       <r>  13.0305  0.0000</r>
       <r>  14.3176  0.0000</r>
      </set>
      <set comment="kpoint 16">
       <r>  -1.4498  1.0000</r>
       <r>   1.6912  1.0000</r>
       <r>   4.7309  1.0000</r>
       <r>   7.0807  1.0000</r>
       <r>   7.5920  1.0000</r>
       <r>   8.8994  1.0000</r>
       <r>  10.0050  0.0000</r>
       <r>  10.7086  0.0000</r>
       <r>  12.2363  0.0000</r>
       <r>  12.9401  0.0000</r>
       <r>  13.6869  0.0000</r>
       <r>  14.0822  0.0000</r>
      </set>
      <set comment="kpoint 17">
       <r>  -0.8545  1.0000</r>
       <r>   0.7190  1.0000</r>
       <r>   5.2932  1.0000</r>
       <r>   6.7587  1.0000</r>
       <r>   7.6278  1.0000</r>
       <r>   9.0897  0.0000</r>
       <r>   9.3537  0.0000</r>
       <r>  10.5516  0.0000</r>
       <r>  12.0461  0.0000</r>
       <r>  13.2320  0.0000</r>
       <r>  13.4934  0.0000</r>
       <r>  14.9295  0.0000</r>
      </set>
      <set comment="kpoint 18">
       <r>  -0.1307  1.0000</r>
       <r>  -0.1307  1.0000</r>
       <r>   5.9731  1.0000</r>
       <r>   5.9731  1.0000</r>
       <r>   8.2974  1.0000</r>
       <r>   8.2974  1.0000</r>
       <r>   9.9609  0.0000</r>
       <r>   9.9609  0.0000</r>
       <r>  12.5123  0.0000</r>
       <r>  12.5123  0.0000</r>
       <r>  14.1686  0.0000</r>
       <r>  14.1686  0.0000</r>
      </set>
      <set comment="kpoint 19">
       <r>  -1.5825  1.0000</r>
       <r>   3.1001  1.0000</r>
       <r>   3.1001  1.0000</r>
       <r>   6.9592  1.0000</r>
       <r>   7.4755  1.0000</r>
       <r>   8.7983  1.0000</r>
       <r>  11.3496  0.0000</r>
       <r>  11.3496  0.0000</r>
       <r>  12.0711  0.0000</r>
       <r>  12.0711  0.0000</r>
       <r>  13.4844  0.0000</r>
       <r>  13.4844  0.0000</r>
      </set>
      <set comment="kpoint 20">
       <r>  -1.1187  1.0000</r>
       <r>   2.0140  1.0000</r>
       <r>   3.5460  1.0000</r>
       <r>   6.5260  1.0000</r>
       <r>   7.3847  1.0000</r>
       <r>   9.1462  0.0000</r>
       <r>  10.3111  0.0000</r>
       <r>  11.7792  0.0000</r>
       <r>  11.7999  0.0000</r>
       <r>  13.2049  0.0000</r>
       <r>  13.2738  0.0000</r>
       <r>  14.5819  0.0000</r>
      </set>
      <set comment="kpoint 21">
       <r>  -0.5249  1.0000</r>
       <r>   1.0445  1.0000</r>
       <r>   4.1164  1.0000</r>
       <r>   5.6162  1.0000</r>
       <r>   7.9323  1.0000</r>
       <r>   9.3953  0.0000</r>
       <r>   9.6830  0.0000</r>
       <r>  11.0859  0.0000</r>
       <r>  12.3314  0.0000</r>
       <r>  13.5641  0.0000</r>
       <r>  13.8023  0.0000</r>
       <r>  13.9979  0.0000</r>
      </set>
      <set comment="kpoint 22">
       <r>   0.1970  1.0000</r>
       <r>   0.1970  1.0000</r>
       <r>   4.8083  1.0000</r>
       <r>   4.8083  1.0000</r>
       <r>   8.6024  1.0000</r>
       <r>   8.6024  1.0000</r>
       <r>  10.3423  0.0000</r>
       <r>  10.3423  0.0000</r>
       <r>  13.0059  0.0000</r>
       <r>  13.0059  0.0000</r>
       <r>  14.1660  0.0000</r>
       <r>  14.1660  0.0000</r>
      </set>
      <set comment="kpoint 23">
       <r>  -0.6566  1.0000</r>
       <r>   2.4645  1.0000</r>
       <r>   2.4645  1.0000</r>
       <r>   5.4951  1.0000</r>
       <r>   7.8106  1.0000</r>
       <r>   9.5725  0.0000</r>
       <r>  10.7398  0.0000</r>
       <r>  10.7398  0.0000</r>
       <r>  12.4421  0.0000</r>
       <r>  12.4421  0.0000</r>
       <r>  13.6798  0.0000</r>
       <r>  14.8616  0.0000</r>
      </set>
      <set comment="kpoint 24">
       <r>  -0.0649  1.0000</r>
       <r>   1.4987  1.0000</r>
       <r>   3.0411  1.0000</r>
       <r>   4.5616  1.0000</r>
       <r>   8.3588  1.0000</r>
       <r>   9.8232  0.0000</r>
       <r>  10.1314  0.0000</r>
       <r>  11.2911  0.0000</r>
       <r>  11.5877  0.0000</r>
       <r>  12.7613  0.0000</r>
       <r>  13.0522  0.0000</r>
       <r>  14.5229  0.0000</r>
      </set>
      <set comment="kpoint 25">
       <r>   0.6544  1.0000</r>
       <r>   0.6544  1.0000</r>
       <r>   3.7413  1.0000</r>
       <r>   3.7413  1.0000</r>
       <r>   9.0296  0.0020</r>
       <r>   9.0296  0.0020</r>
       <r>  10.8080  0.0000</r>
       <r>  10.8080  0.0000</r>
       <r>  11.9650  0.0000</r>
       <r>  11.9650  0.0000</r>
       <r>  13.7401  0.0000</r>
       <r>  13.7401  0.0000</r>
      </set>
      <set comment="kpoint 26">
       <r>   0.5240  1.0000</r>
       <r>   2.0802  1.0000</r>
       <r>   2.0802  1.0000</r>
       <r>   3.6156  1.0000</r>
       <r>   8.9077  1.0000</r>
       <r>  10.3737  0.0000</r>
       <r>  10.3737  0.0000</r>
       <r>  10.6990  0.0000</r>
       <r>  11.8427  0.0000</r>
       <r>  12.1705  0.0000</r>
       <r>  12.1705  0.0000</r>
       <r>  13.6416  0.0000</r>
      </set>
      <set comment="kpoint 27">
       <r>   1.2399  1.0000</r>
       <r>   1.2399  1.0000</r>
       <r>   2.7868  1.0000</r>
       <r>   2.7868  1.0000</r>
       <r>   9.5792  0.0000</r>
       <r>   9.5792  0.0000</r>
       <r>  11.0468  0.0000</r>
       <r>  11.0468  0.0000</r>
       <r>  11.3813  0.0000</r>
       <r>  11.3813  0.0000</r>
       <r>  12.8548  0.0000</r>
       <r>  12.8548  0.0000</r>
      </set>
      <set comment="kpoint 28">
       <r>   1.9517  1.0000</r>
       <r>   1.9517  1.0000</r>
       <r>   1.9517  1.0000</r>
       <r>   1.9517  1.0000</r>
       <r>  10.2516  0.0000</r>
       <r>  10.2516  0.0000</r>
       <r>  10.2516  0.0000</r>
       <r>  10.2516  0.0000</r>
       <r>  12.0651  0.0000</r>
       <r>  12.0651  0.0000</r>
       <r>  12.0651  0.0000</r>
       <r>  12.0651  0.0000</r>
      </set>
      <set comment="kpoint 29">
       <r>  -2.5821  1.0000</r>
       <r>   5.1082  1.0000</r>
       <r>   5.1082  1.0000</r>
       <r>   5.1082  1.0000</r>
       <r>   8.5021  1.0000</r>
       <r>   8.5021  1.0000</r>
       <r>   8.5021  1.0000</r>
       <r>  12.4579  0.0000</r>
       <r>  12.4579  0.0000</r>
       <r>  12.4579  0.0000</r>
       <r>  15.2436  0.0000</r>
       <r>  15.2436  0.0000</r>
      </set>
      <set comment="kpoint 30">
       <r>  -2.3816  1.0000</r>
       <r>   3.8488  1.0000</r>
       <r>   5.2944  1.0000</r>
       <r>   5.2944  1.0000</r>
       <r>   8.6745  1.0000</r>
       <r>   8.6745  1.0000</r>
       <r>  10.0950  0.0000</r>
       <r>  11.2705  0.0000</r>
       <r>  11.2705  0.0000</r>
       <r>  12.6490  0.0000</r>
       <r>  14.6147  0.0000</r>
       <r>  14.6147  0.0000</r>
      </set>
      <set comment="kpoint 31">
       <r>  -2.0480  1.0000</r>
       <r>   2.6524  1.0000</r>
       <r>   5.6037  1.0000</r>
       <r>   5.6037  1.0000</r>
       <r>   8.9288  1.0000</r>
       <r>   8.9288  1.0000</r>
       <r>  10.1791  0.0000</r>
       <r>  10.1791  0.0000</r>
       <r>  11.8307  0.0000</r>
       <r>  12.9823  0.0000</r>
       <r>  13.6305  0.0000</r>
       <r>  13.6305  0.0000</r>
      </set>
      <set comment="kpoint 32">
       <r>  -1.5825  1.0000</r>
       <r>   1.5618  1.0000</r>
       <r>   6.0342  1.0000</r>
       <r>   6.0342  1.0000</r>
       <r>   8.8633  1.0000</r>
       <r>   8.8633  1.0000</r>
       <r>   9.6191  0.0000</r>
       <r>   9.6191  0.0000</r>
       <r>  12.6861  0.0000</r>
       <r>  12.6861  0.0000</r>
       <r>  13.2605  0.0000</r>
       <r>  13.8598  0.0000</r>
      </set>
      <set comment="kpoint 33">
       <r>  -0.9865  1.0000</r>
       <r>   0.5886  1.0000</r>
       <r>   6.5786  1.0000</r>
       <r>   6.5786  1.0000</r>
       <r>   8.0807  1.0000</r>
       <r>   8.0807  1.0000</r>
       <r>   9.9592  0.0000</r>
       <r>   9.9592  0.0000</r>
       <r>  11.8866  0.0000</r>
       <r>  11.8866  0.0000</r>
       <r>  13.8879  0.0000</r>
       <r>  15.3646  0.0000</r>
      </set>
      <set comment="kpoint 34">
       <r>  -0.2620  1.0000</r>
       <r>  -0.2620  1.0000</r>
       <r>   7.0896  1.0000</r>
       <r>   7.0896  1.0000</r>
       <r>   7.4629  1.0000</r>
       <r>   7.4629  1.0000</r>
       <r>  10.2307  0.0000</r>
       <r>  10.2307  0.0000</r>
       <r>  11.4877  0.0000</r>
       <r>  11.4877  0.0000</r>
       <r>  14.5709  0.0000</r>
       <r>  14.5709  0.0000</r>
      </set>
      <set comment="kpoint 35">
       <r>  -2.1813  1.0000</r>
       <r>   4.0384  1.0000</r>
       <r>   4.0384  1.0000</r>
       <r>   5.4797  1.0000</r>
       <r>   8.8040  1.0000</r>
       <r>  10.1553  0.0000</r>
       <r>  10.2340  0.0000</r>
       <r>  10.2340  0.0000</r>
       <r>  11.4882  0.0000</r>
       <r>  11.4882  0.0000</r>
       <r>  14.7944  0.0000</r>
       <r>  14.7944  0.0000</r>
      </set>
      <set comment="kpoint 36">
       <r>  -1.8483  1.0000</r>
       <r>   2.8445  1.0000</r>
       <r>   4.3536  1.0000</r>
       <r>   5.7866  1.0000</r>
       <r>   8.6435  1.0000</r>
       <r>   9.4927  0.0000</r>
       <r>  10.0922  0.0000</r>
       <r>  10.7755  0.0000</r>
       <r>  11.5670  0.0000</r>
       <r>  12.2133  0.0000</r>
       <r>  13.8276  0.0000</r>
       <r>  15.0472  0.0000</r>
      </set>
      <set comment="kpoint 37">
       <r>  -1.3835  1.0000</r>
       <r>   1.7558  1.0000</r>
       <r>   4.7929  1.0000</r>
       <r>   6.2079  1.0000</r>
       <r>   7.7848  1.0000</r>
       <r>   9.1837  0.0000</r>
       <r>   9.7513  0.0000</r>
       <r>  11.0065  0.0000</r>
       <r>  12.1140  0.0000</r>
       <r>  12.9294  0.0000</r>
       <r>  13.9431  0.0000</r>
       <r>  14.1463  0.0000</r>
      </set>
      <set comment="kpoint 38">
       <r>  -0.7885  1.0000</r>
       <r>   0.7842  1.0000</r>
       <r>   5.3530  1.0000</r>
       <r>   6.6090  1.0000</r>
       <r>   7.0428  1.0000</r>
       <r>   8.2867  1.0000</r>
       <r>  10.2523  0.0000</r>
       <r>  11.2087  0.0000</r>
       <r>  12.3676  0.0000</r>
       <r>  12.6841  0.0000</r>
       <r>  13.3049  0.0000</r>
       <r>  14.1584  0.0000</r>
      </set>
      <set comment="kpoint 39">
       <r>  -0.0651  1.0000</r>
       <r>  -0.0651  1.0000</r>
       <r>   6.0232  1.0000</r>
       <r>   6.0232  1.0000</r>
       <r>   7.5064  1.0000</r>
       <r>   7.5064  1.0000</r>
       <r>  10.8309  0.0000</r>
       <r>  10.8309  0.0000</r>
       <r>  12.6199  0.0000</r>
       <r>  12.6199  0.0000</r>
       <r>  13.3635  0.0000</r>
       <r>  13.3635  0.0000</r>
      </set>
      <set comment="kpoint 40">
       <r>  -1.5162  1.0000</r>
       <r>   3.1639  1.0000</r>
       <r>   3.1639  1.0000</r>
       <r>   6.0841  1.0000</r>
       <r>   7.6748  1.0000</r>
       <r>   9.6496  0.0000</r>
       <r>  10.5330  0.0000</r>
       <r>  10.5330  0.0000</r>
       <r>  12.3484  0.0000</r>
       <r>  12.3484  0.0000</r>
       <r>  14.1792  0.0000</r>
       <r>  14.1792  0.0000</r>
      </set>
      <set comment="kpoint 41">
       <r>  -1.0526  1.0000</r>
       <r>   2.0785  1.0000</r>
       <r>   3.6093  1.0000</r>
       <r>   6.3649  1.0000</r>
       <r>   6.8119  1.0000</r>
       <r>   9.5145  0.0000</r>
       <r>  10.0550  0.0000</r>
       <r>  10.9850  0.0000</r>
       <r>  12.4479  0.0000</r>
       <r>  13.5206  0.0000</r>
       <r>  13.9342  0.0000</r>
       <r>  13.9353  0.0000</r>
      </set>
      <set comment="kpoint 42">
       <r>  -0.4591  1.0000</r>
       <r>   1.1095  1.0000</r>
       <r>   4.1789  1.0000</r>
       <r>   5.6659  1.0000</r>
       <r>   7.1431  1.0000</r>
       <r>   8.6012  1.0000</r>
       <r>  10.5950  0.0000</r>
       <r>  11.5459  0.0000</r>
       <r>  11.9493  0.0000</r>
       <r>  13.0210  0.0000</r>
       <r>  13.6667  0.0000</r>
       <r>  14.8564  0.0000</r>
      </set>
      <set comment="kpoint 43">
       <r>   0.2625  1.0000</r>
       <r>   0.2625  1.0000</r>
       <r>   4.8685  1.0000</r>
       <r>   4.8685  1.0000</r>
       <r>   7.8065  1.0000</r>
       <r>   7.8065  1.0000</r>
       <r>  11.2428  0.0000</r>
       <r>  11.2428  0.0000</r>
       <r>  12.2243  0.0000</r>
       <r>  12.2243  0.0000</r>
       <r>  14.2369  0.0000</r>
       <r>  14.2369  0.0000</r>
      </set>
      <set comment="kpoint 44">
       <r>  -0.5907  1.0000</r>
       <r>   2.5287  1.0000</r>
       <r>   2.5287  1.0000</r>
       <r>   5.5449  1.0000</r>
       <r>   7.0208  1.0000</r>
       <r>   9.9539  0.0000</r>
       <r>   9.9539  0.0000</r>
       <r>  10.4883  0.0000</r>
       <r>  12.9045  0.0000</r>
       <r>  13.2995  0.0000</r>
       <r>  13.2995  0.0000</r>
       <r>  14.9543  0.0000</r>
      </set>
      <set comment="kpoint 45">
       <r>   0.0007  1.0000</r>
       <r>   1.5635  1.0000</r>
       <r>   3.1048  1.0000</r>
       <r>   4.6220  1.0000</r>
       <r>   7.5624  1.0000</r>
       <r>   9.0361  0.0001</r>
       <r>  10.5121  0.0000</r>
       <r>  11.0425  0.0000</r>
       <r>  11.9885  0.0000</r>
       <r>  12.4761  0.0000</r>
       <r>  13.9301  0.0000</r>
       <r>  15.3960  0.0000</r>
      </set>
      <set comment="kpoint 46">
       <r>   0.7196  1.0000</r>
       <r>   0.7196  1.0000</r>
       <r>   3.8041  1.0000</r>
       <r>   3.8041  1.0000</r>
       <r>   8.2376  1.0000</r>
       <r>   8.2376  1.0000</r>
       <r>  11.1905  0.0000</r>
       <r>  11.1905  0.0000</r>
       <r>  11.7098  0.0000</r>
       <r>  11.7098  0.0000</r>
       <r>  14.6167  0.0000</r>
       <r>  14.6167  0.0000</r>
      </set>
      <set comment="kpoint 47">
       <r>   0.5893  1.0000</r>
       <r>   2.1446  1.0000</r>
       <r>   2.1446  1.0000</r>
       <r>   3.6784  1.0000</r>
       <r>   8.1154  1.0000</r>
       <r>   9.5930  0.0000</r>
       <r>   9.5930  0.0000</r>
       <r>  11.0708  0.0000</r>
       <r>  11.6039  0.0000</r>
       <r>  13.0581  0.0000</r>
       <r>  13.0581  0.0000</r>
       <r>  14.5187  0.0000</r>
      </set>
      <set comment="kpoint 48">
       <r>   1.3048  1.0000</r>
       <r>   1.3048  1.0000</r>
       <r>   2.8507  1.0000</r>
       <r>   2.8507  1.0000</r>
       <r>   8.7933  1.0000</r>
       <r>   8.7933  1.0000</r>
       <r>  10.2716  0.0000</r>
       <r>  10.2716  0.0000</r>
       <r>  12.2779  0.0000</r>
       <r>  12.2779  0.0000</r>
       <r>  13.7373  0.0000</r>
       <r>  13.7373  0.0000</r>
      </set>
      <set comment="kpoint 49">
       <r>   2.0162  1.0000</r>
       <r>   2.0162  1.0000</r>
       <r>   2.0162  1.0000</r>
       <r>   2.0162  1.0000</r>
       <r>   9.4718  0.0000</r>
       <r>   9.4718  0.0000</r>
       <r>   9.4718  0.0000</r>
       <r>   9.4718  0.0000</r>
       <r>  12.9546  0.0000</r>
       <r>  12.9546  0.0000</r>
       <r>  12.9546  0.0000</r>
       <r>  12.9546  0.0000</r>
      </set>
      <set comment="kpoint 50">
       <r>  -1.9814  1.0000</r>
       <r>   4.2275  1.0000</r>
       <r>   4.2275  1.0000</r>
       <r>   4.2275  1.0000</r>
       <r>   9.9919  0.0000</r>
       <r>   9.9919  0.0000</r>
       <r>   9.9919  0.0000</r>
       <r>  10.7441  0.0000</r>
       <r>  10.7441  0.0000</r>
       <r>  10.7441  0.0000</r>
       <r>  15.7486  0.0000</r>
       <r>  15.7486  0.0000</r>
      </set>
      <set comment="kpoint 51">
       <r>  -1.6489  1.0000</r>
       <r>   3.0361  1.0000</r>
       <r>   4.5414  1.0000</r>
       <r>   4.5414  1.0000</r>
       <r>   9.0107  0.4167</r>
       <r>   9.0107  0.4167</r>
       <r>  10.4714  0.0000</r>
       <r>  10.8931  0.0000</r>
       <r>  10.8931  0.0000</r>
       <r>  12.3277  0.0000</r>
       <r>  14.9069  0.0000</r>
       <r>  15.2267  0.0000</r>
      </set>
      <set comment="kpoint 52">
       <r>  -1.1849  1.0000</r>
       <r>   1.9495  1.0000</r>
       <r>   4.9774  1.0000</r>
       <r>   4.9774  1.0000</r>
       <r>   8.0020  1.0000</r>
       <r>   8.0020  1.0000</r>
       <r>  10.9315  0.0000</r>
       <r>  11.2765  0.0000</r>
       <r>  11.2765  0.0000</r>
       <r>  13.8847  0.0000</r>
       <r>  14.1686  0.0000</r>
       <r>  14.3418  0.0000</r>
      </set>
      <set comment="kpoint 53">
       <r>  -0.5907  1.0000</r>
       <r>   0.9795  1.0000</r>
       <r>   5.5249  1.0000</r>
       <r>   5.5249  1.0000</r>
       <r>   7.1004  1.0000</r>
       <r>   7.1004  1.0000</r>
       <r>  11.4957  0.0000</r>
       <r>  11.7480  0.0000</r>
       <r>  11.7480  0.0000</r>
       <r>  12.9727  0.0000</r>
       <r>  13.5447  0.0000</r>
       <r>  13.5447  0.0000</r>
      </set>
      <set comment="kpoint 54">
       <r>   0.1316  1.0000</r>
       <r>   0.1316  1.0000</r>
       <r>   6.0074  1.0000</r>
       <r>   6.0074  1.0000</r>
       <r>   6.4989  1.0000</r>
       <r>   6.4989  1.0000</r>
       <r>  12.0621  0.0000</r>
       <r>  12.0621  0.0000</r>
       <r>  12.1757  0.0000</r>
       <r>  12.1757  0.0000</r>
       <r>  13.1198  0.0000</r>
       <r>  13.1198  0.0000</r>
      </set>
      <set comment="kpoint 55">
       <r>  -1.3173  1.0000</r>
       <r>   3.3548  1.0000</r>
       <r>   3.3548  1.0000</r>
       <r>   4.8518  1.0000</r>
       <r>   7.8943  1.0000</r>
       <r>   9.3525  0.0000</r>
       <r>   9.3525  0.0000</r>
       <r>  11.1879  0.0000</r>
       <r>  12.6031  0.0000</r>
       <r>  12.6031  0.0000</r>
       <r>  13.7813  0.0000</r>
       <r>  15.5289  0.0000</r>
      </set>
      <set comment="kpoint 56">
       <r>  -0.8544  1.0000</r>
       <r>   2.2716  1.0000</r>
       <r>   3.7988  1.0000</r>
       <r>   5.2749  1.0000</r>
       <r>   6.8731  1.0000</r>
       <r>   8.3213  1.0000</r>
       <r>   9.7969  0.0000</r>
       <r>  11.6074  0.0000</r>
       <r>  12.7546  0.0000</r>
       <r>  12.9621  0.0000</r>
       <r>  14.4298  0.0000</r>
       <r>  14.6909  0.0000</r>
      </set>
      <set comment="kpoint 57">
       <r>  -0.2618  1.0000</r>
       <r>   1.3043  1.0000</r>
       <r>   4.3648  1.0000</r>
       <r>   5.6404  1.0000</r>
       <r>   6.1408  1.0000</r>
       <r>   7.4020  1.0000</r>
       <r>  10.3585  0.0000</r>
       <r>  11.8389  0.0000</r>
       <r>  12.1361  0.0000</r>
       <r>  13.1748  0.0000</r>
       <r>  14.1532  0.0000</r>
       <r>  15.1525  0.0000</r>
      </set>
      <set comment="kpoint 58">
       <r>   0.4586  1.0000</r>
       <r>   0.4586  1.0000</r>
       <r>   5.0412  1.0000</r>
       <r>   5.0412  1.0000</r>
       <r>   6.6122  1.0000</r>
       <r>   6.6122  1.0000</r>
       <r>  11.0394  0.0000</r>
       <r>  11.0394  0.0000</r>
       <r>  12.7372  0.0000</r>
       <r>  12.7372  0.0000</r>
       <r>  14.4689  0.0000</r>
       <r>  14.4689  0.0000</r>
      </set>
      <set comment="kpoint 59">
       <r>  -0.3932  1.0000</r>
       <r>   2.7209  1.0000</r>
       <r>   2.7209  1.0000</r>
       <r>   5.5178  1.0000</r>
       <r>   6.0186  1.0000</r>
       <r>   8.7602  1.0000</r>
       <r>   8.7602  1.0000</r>
       <r>  11.7237  0.0000</r>
       <r>  12.0438  0.0000</r>
       <r>  14.5346  0.0000</r>
       <r>  14.5346  0.0000</r>
       <r>  15.3947  0.0000</r>
      </set>
      <set comment="kpoint 60">
       <r>   0.1972  1.0000</r>
       <r>   1.7575  1.0000</r>
       <r>   3.2953  1.0000</r>
       <r>   4.7955  1.0000</r>
       <r>   6.3644  1.0000</r>
       <r>   7.8363  1.0000</r>
       <r>   9.3208  0.0000</r>
       <r>  10.8047  0.0000</r>
       <r>  12.5906  0.0000</r>
       <r>  13.9612  0.0000</r>
       <r>  15.3992  0.0000</r>
       <r>  15.6367  0.0000</r>
      </set>
      <set comment="kpoint 61">
       <r>   0.9150  1.0000</r>
       <r>   0.9150  1.0000</r>
       <r>   3.9910  1.0000</r>
       <r>   3.9910  1.0000</r>
       <r>   7.0333  1.0000</r>
       <r>   7.0333  1.0000</r>
       <r>  10.0028  0.0000</r>
       <r>  10.0028  0.0000</r>
       <r>  13.2403  0.0000</r>
       <r>  13.2403  0.0000</r>
       <r>  16.1001  0.0000</r>
       <r>  16.1001  0.0000</r>
      </set>
      <set comment="kpoint 62">
       <r>   0.7849  1.0000</r>
       <r>   2.3375  1.0000</r>
       <r>   2.3375  1.0000</r>
       <r>   3.8657  1.0000</r>
       <r>   6.9095  1.0000</r>
       <r>   8.3962  1.0000</r>
       <r>   8.3962  1.0000</r>
       <r>   9.8830  0.0000</r>
       <r>  13.1474  0.0000</r>
       <r>  14.5707  0.0000</r>
       <r>  14.5707  0.0000</r>
       <r>  16.0159  0.0000</r>
      </set>
      <set comment="kpoint 63">
       <r>   1.4993  1.0000</r>
       <r>   1.4993  1.0000</r>
       <r>   3.0418  1.0000</r>
       <r>   3.0418  1.0000</r>
       <r>   7.5907  1.0000</r>
       <r>   7.5907  1.0000</r>
       <r>   9.0792  0.0000</r>
       <r>   9.0792  0.0000</r>
       <r>  13.8102  0.0000</r>
       <r>  13.8102  0.0000</r>
       <r>  15.2470  0.0000</r>
       <r>  15.2470  0.0000</r>
      </set>
      <set comment="kpoint 64">
       <r>   2.2093  1.0000</r>
       <r>   2.2093  1.0000</r>
       <r>   2.2093  1.0000</r>
       <r>   2.2093  1.0000</r>
       <r>   8.2739  1.0000</r>
       <r>   8.2739  1.0000</r>
       <r>   8.2739  1.0000</r>
       <r>   8.2739  1.0000</r>
       <r>  14.4789  0.0000</r>
       <r>  14.4789  0.0000</r>
       <r>  14.4789  0.0000</r>
       <r>  14.4789  0.0000</r>
      </set>
      <set comment="kpoint 65">
       <r>  -0.9865  1.0000</r>
       <r>   3.6718  1.0000</r>
       <r>   3.6718  1.0000</r>
       <r>   3.6718  1.0000</r>
       <r>   8.2148  1.0000</r>
       <r>   8.2148  1.0000</r>
       <r>   8.2148  1.0000</r>
       <r>  12.6523  0.0000</r>
       <r>  12.9205  0.0000</r>
       <r>  12.9205  0.0000</r>
       <r>  12.9205  0.0000</r>
       <r>  16.5926  0.0000</r>
      </set>
      <set comment="kpoint 66">
       <r>  -0.5248  1.0000</r>
       <r>   2.5926  1.0000</r>
       <r>   4.1120  1.0000</r>
       <r>   4.1120  1.0000</r>
       <r>   7.1755  1.0000</r>
       <r>   7.1755  1.0000</r>
       <r>   8.6546  1.0000</r>
       <r>  11.6215  0.0000</r>
       <r>  13.3343  0.0000</r>
       <r>  13.3343  0.0000</r>
       <r>  14.7740  0.0000</r>
       <r>  16.2205  0.0000</r>
      </set>
      <set comment="kpoint 67">
       <r>   0.0662  1.0000</r>
       <r>   1.6282  1.0000</r>
       <r>   4.6647  1.0000</r>
       <r>   4.6647  1.0000</r>
       <r>   6.2600  1.0000</r>
       <r>   6.2600  1.0000</r>
       <r>   9.2162  0.0000</r>
       <r>  10.7019  0.0000</r>
       <r>  13.8219  0.0000</r>
       <r>  13.8219  0.0000</r>
       <r>  15.4938  0.0000</r>
       <r>  15.4938  0.0000</r>
      </set>
      <set comment="kpoint 68">
       <r>   0.7848  1.0000</r>
       <r>   0.7848  1.0000</r>
       <r>   5.1504  1.0000</r>
       <r>   5.1504  1.0000</r>
       <r>   5.6529  1.0000</r>
       <r>   5.6529  1.0000</r>
       <r>   9.8992  0.0000</r>
       <r>   9.8992  0.0000</r>
       <r>  14.1595  0.0000</r>
       <r>  14.1595  0.0000</r>
       <r>  15.0626  0.0000</r>
       <r>  15.0626  0.0000</r>
      </set>
      <set comment="kpoint 69">
       <r>  -0.0648  1.0000</r>
       <r>   3.0400  1.0000</r>
       <r>   3.0400  1.0000</r>
       <r>   4.5390  1.0000</r>
       <r>   6.1397  1.0000</r>
       <r>   7.6111  1.0000</r>
       <r>   7.6111  1.0000</r>
       <r>  10.5865  0.0000</r>
       <r>  13.7742  0.0000</r>
       <r>  15.1593  0.0000</r>
       <r>  15.1593  0.0000</r>
       <r>  16.6547  0.0000</r>
      </set>
      <set comment="kpoint 70">
       <r>   0.5241  1.0000</r>
       <r>   2.0800  1.0000</r>
       <r>   3.6105  1.0000</r>
       <r>   4.9048  1.0000</r>
       <r>   5.4026  1.0000</r>
       <r>   6.6829  1.0000</r>
       <r>   8.1727  1.0000</r>
       <r>   9.6632  0.0000</r>
       <r>  14.3082  0.0000</r>
       <r>  15.3889  0.0000</r>
       <r>  16.1830  0.0000</r>
       <r>  16.8435  0.0000</r>
      </set>
      <set comment="kpoint 71">
       <r>   1.2400  1.0000</r>
       <r>   1.2400  1.0000</r>
       <r>   4.2929  1.0000</r>
       <r>   4.2929  1.0000</r>
       <r>   5.8856  1.0000</r>
       <r>   5.8856  1.0000</r>
       <r>   8.8575  1.0000</r>
       <r>   8.8575  1.0000</r>
       <r>  14.9157  0.0000</r>
       <r>  14.9157  0.0000</r>
       <r>  16.5365  0.0000</r>
       <r>  16.5365  0.0000</r>
      </set>
      <set comment="kpoint 72">
       <r>   1.1103  1.0000</r>
       <r>   2.6579  1.0000</r>
       <r>   2.6579  1.0000</r>
       <r>   4.1682  1.0000</r>
       <r>   5.7600  1.0000</r>
       <r>   7.2427  1.0000</r>
       <r>   7.2427  1.0000</r>
       <r>   8.7367  1.0000</r>
       <r>  14.8627  0.0000</r>
       <r>  16.2231  0.0000</r>
       <r>  16.2231  0.0000</r>
       <r>  17.6518  0.0000</r>
      </set>
      <set comment="kpoint 73">
       <r>   1.8226  1.0000</r>
       <r>   1.8226  1.0000</r>
       <r>   3.3579  1.0000</r>
       <r>   3.3579  1.0000</r>
       <r>   6.4341  1.0000</r>
       <r>   6.4341  1.0000</r>
       <r>   7.9286  1.0000</r>
       <r>   7.9286  1.0000</r>
       <r>  15.5079  0.0000</r>
       <r>  15.5079  0.0000</r>
       <r>  16.9064  0.0000</r>
       <r>  16.9064  0.0000</r>
      </set>
      <set comment="kpoint 74">
       <r>   2.5301  1.0000</r>
       <r>   2.5301  1.0000</r>
       <r>   2.5301  1.0000</r>
       <r>   2.5301  1.0000</r>
       <r>   7.1191  1.0000</r>
       <r>   7.1191  1.0000</r>
       <r>   7.1191  1.0000</r>
       <r>   7.1191  1.0000</r>
       <r>  16.1670  0.0000</r>
       <r>  16.1670  0.0000</r>
       <r>  16.1670  0.0000</r>
       <r>  16.1670  0.0000</r>
      </set>
      <set comment="kpoint 75">
       <r>   0.3935  1.0000</r>
       <r>   3.4833  1.0000</r>
       <r>   3.4833  1.0000</r>
       <r>   3.4833  1.0000</r>
       <r>   6.5632  1.0000</r>
       <r>   6.5632  1.0000</r>
       <r>   6.5632  1.0000</r>
       <r>   9.5470  0.0000</r>
       <r>  15.6170  0.0000</r>
       <r>  15.6170  0.0000</r>
       <r>  15.6170  0.0000</r>
       <r>  17.7776  0.0000</r>
      </set>
      <set comment="kpoint 76">
       <r>   0.9803  1.0000</r>
       <r>   2.5296  1.0000</r>
       <r>   4.0408  1.0000</r>
       <r>   4.0408  1.0000</r>
       <r>   5.6401  1.0000</r>
       <r>   5.6401  1.0000</r>
       <r>   7.1238  1.0000</r>
       <r>   8.6196  1.0000</r>
       <r>  16.1191  0.0000</r>
       <r>  16.1191  0.0000</r>
       <r>  17.5401  0.0000</r>
       <r>  17.5708  0.0000</r>
      </set>
      <set comment="kpoint 77">
       <r>   1.6934  1.0000</r>
       <r>   1.6934  1.0000</r>
       <r>   4.5360  1.0000</r>
       <r>   4.5360  1.0000</r>
       <r>   5.0226  1.0000</r>
       <r>   5.0226  1.0000</r>
       <r>   7.8106  1.0000</r>
       <r>   7.8106  1.0000</r>
       <r>  16.4832  0.0000</r>
       <r>  16.4832  0.0000</r>
       <r>  17.1793  0.0000</r>
       <r>  17.1793  0.0000</r>
      </set>
      <set comment="kpoint 78">
       <r>   1.5642  1.0000</r>
       <r>   3.1032  1.0000</r>
       <r>   3.1032  1.0000</r>
       <r>   4.4130  1.0000</r>
       <r>   4.8946  1.0000</r>
       <r>   6.1906  1.0000</r>
       <r>   6.1906  1.0000</r>
       <r>   7.6887  1.0000</r>
       <r>  16.6810  0.0000</r>
       <r>  17.7942  0.0000</r>
       <r>  17.7942  0.0000</r>
       <r>  18.3108  0.0000</r>
      </set>
      <set comment="kpoint 79">
       <r>   2.2733  1.0000</r>
       <r>   2.2733  1.0000</r>
       <r>   3.7901  1.0000</r>
       <r>   3.7901  1.0000</r>
       <r>   5.3880  1.0000</r>
       <r>   5.3880  1.0000</r>
       <r>   6.8773  1.0000</r>
       <r>   6.8773  1.0000</r>
       <r>  17.2868  0.0000</r>
       <r>  17.2868  0.0000</r>
       <r>  18.5967  0.0000</r>
       <r>  18.6155  0.0000</r>
      </set>
      <set comment="kpoint 80">
       <r>   2.9760  1.0000</r>
       <r>   2.9760  1.0000</r>
       <r>   2.9760  1.0000</r>
       <r>   2.9760  1.0000</r>
       <r>   6.0657  1.0000</r>
       <r>   6.0657  1.0000</r>
       <r>   6.0657  1.0000</r>
       <r>   6.0657  1.0000</r>
       <r>  17.9340  0.0000</r>
       <r>  17.9340  0.0000</r>
       <r>  17.9340  0.0000</r>
       <r>  17.9340  0.0000</r>
      </set>
      <set comment="kpoint 81">
       <r>   2.1447  1.0000</r>
       <r>   3.6637  1.0000</r>
       <r>   3.6637  1.0000</r>
       <r>   3.6637  1.0000</r>
       <r>   5.2630  1.0000</r>
       <r>   5.2630  1.0000</r>
       <r>   5.2630  1.0000</r>
       <r>   6.7544  1.0000</r>
       <r>  18.5549  0.0000</r>
       <r>  18.5549  0.0000</r>
       <r>  18.5549  0.0000</r>
       <r>  19.3021  0.0000</r>
      </set>
      <set comment="kpoint 82">
       <r>   2.8484  1.0000</r>
       <r>   2.8484  1.0000</r>
       <r>   4.1670  1.0000</r>
       <r>   4.1670  1.0000</r>
       <r>   4.6370  1.0000</r>
       <r>   4.6370  1.0000</r>
       <r>   5.9417  1.0000</r>
       <r>   5.9417  1.0000</r>
       <r>  18.9485  0.0000</r>
       <r>  18.9485  0.0000</r>
       <r>  19.3279  0.0000</r>
       <r>  19.3279  0.0000</r>
      </set>
      <set comment="kpoint 83">
       <r>   3.5377  1.0000</r>
       <r>   3.5377  1.0000</r>
       <r>   3.5377  1.0000</r>
       <r>   3.5377  1.0000</r>
       <r>   5.1365  1.0000</r>
       <r>   5.1365  1.0000</r>
       <r>   5.1365  1.0000</r>
       <r>   5.1365  1.0000</r>
       <r>  19.6805  0.0000</r>
       <r>  19.6805  0.0000</r>
       <r>  19.6805  0.0000</r>
       <r>  19.6805  0.0000</r>
      </set>
      <set comment="kpoint 84">
       <r>   4.0440  1.0000</r>
       <r>   4.0440  1.0000</r>
       <r>   4.0440  1.0000</r>
       <r>   4.0440  1.0000</r>
       <r>   4.5074  1.0000</r>
       <r>   4.5074  1.0000</r>
       <r>   4.5074  1.0000</r>
       <r>   4.5074  1.0000</r>
       <r>  20.9258  0.0000</r>
       <r>  20.9258  0.0000</r>
       <r>  20.9258  0.0000</r>
       <r>  20.9258  0.0000</r>
      </set>
     </set>
    </set>
   </array>
  </eigenvalues>
 </calculation>
 <structure name="finalpos" >
  <crystal>
   <varray name="basis" >
    <v>       3.91618718      0.00000000      0.00000000</v>
    <v>       0.00000000      3.91618718      0.00000000</v>
    <v>       0.00000000      0.00000000      3.91618718</v>
   </varray>
   <i name="volume">     60.06069089</i>
   <varray name="rec_basis" >
    <v>       0.25535041      0.00000000      0.00000000</v>
    <v>       0.00000000      0.25535041      0.00000000</v>
    <v>       0.00000000      0.00000000      0.25535041</v>
   </varray>
  </crystal>
  <varray name="positions" >
   <v>       0.50000000      0.50000000      0.00000000</v>
   <v>       0.50000000      0.00000000      0.50000000</v>
   <v>       0.00000000      0.50000000      0.50000000</v>
   <v>       0.00000000      0.00000000      0.00000000</v>
  </varray>
 </structure>
</modeling>
