 vasp.4.6.28 25Jul05 complex 
 executed on             LinuxIFC date 2017.01.06  18:54:54
 running on    4 nodes
 distr:  one band on    1 nodes,    4 groups


--------------------------------------------------------------------------------------------------------


 INCAR:
 POTCAR:   PAW_PBE Au 06Sep2000                   
 POTCAR:   PAW_PBE Au 06Sep2000                   
   VRHFIN =Au: s1d10                                                            
   LEXCH  = PE                                                                  
   EATOM  =   926.0567 eV,   68.0632 Ry                                         
                                                                                
   TITEL  = PAW_PBE Au 06Sep2000                                                
   LULTRA =        F    use ultrasoft PP ?                                      
   IUNSCR =        1    unscreen: 0-lin 1-nonlin 2-no                           
   RPACOR =    2.330    partial core radius                                     
   POMASS =  196.966; ZVAL   =   11.000    mass and valenz                      
   RCORE  =    2.500    outmost cutoff radius                                   
   RWIGS  =    2.840; RWIGS  =    1.503    wigner-seitz radius (au A)           
   ENMAX  =  229.948; ENMIN  =  172.461 eV                                      
   RCLOC  =    1.964    cutoff for local pot                                    
   LCOR   =        T    correct aug charges                                     
   LPAW   =        T    paw PP                                                  
   EAUG   =  356.670                                                            
   DEXC   =    -.025                                                            
   RMAX   =    3.041    core radius for proj-oper                               
   RAUG   =    1.300    factor for augmentation sphere                          
   RDEP   =    2.598    radius for radial grids                                 
   QCUT   =   -4.111; QGAM   =    8.222    optimization parameters              
                                                                                
   Description                                                                  
     l     E      TYP  RCUT    TYP  RCUT                                        
     2   .000     23  2.500                                                     
     2   .000     23  2.500                                                     
     0   .000     23  2.500                                                     
     0   .000     23  2.500                                                     
     1  -.200     23  2.500                                                     
     1   .000     23  2.500                                                     
     3   .000      7   .000                                                     
  local pseudopotential read in
  partial core-charges read in
  atomic valenz-charges read in
  non local Contribution for L=           2  read in
    real space projection operators read in
  non local Contribution for L=           2  read in
    real space projection operators read in
  non local Contribution for L=           0  read in
    real space projection operators read in
  non local Contribution for L=           0  read in
    real space projection operators read in
  non local Contribution for L=           1  read in
    real space projection operators read in
  non local Contribution for L=           1  read in
    real space projection operators read in
    PAW grid and wavefunctions read in
 
   number of l-projection  operators is LMAX  =           6
   number of lm-projection operators is LMMAX =          18
 

 ----------------------------------------------------------------------------- 
|                                                                             |
|  ADVICE TO THIS USER RUNNING 'VASP/VAMP'   (HEAR YOUR MASTER'S VOICE ...):  |
|                                                                             |
|      You have a (more or less) 'large supercell' and for larger cells       |
|      it might be more efficient to use real space projection operators      |
|      So try LREAL= Auto  in the INCAR   file.                               |
|      Mind: If you want to do an extremely accurate calculations keep the    |
|      reciprocal projection scheme          (i.e. LREAL=.FALSE.)             |
|                                                                             |
 ----------------------------------------------------------------------------- 

 PAW_PBE Au 06Sep2000                   :
 energy of atom  1       EATOM= -926.0567
 kinetic energy error for atom=    0.0013 (will be added to EATOM!!)
 
 EXHCAR: internal setup
 exchange correlation table for  LEXCH =        8
   RHO(1)=    0.500       N(1)  =     2000
   RHO(2)=  100.500       N(2)  =     4000
 
 POSCAR: No title                                
  positions in direct lattice
  No initial velocities read in
 


--------------------------------------------------------------------------------------------------------


 ion  position               nearest neighbor table
   1  0.750  0.750  0.500-   3 2.92  14 2.92  19 2.92  20 2.92   5 2.92  26 2.92   6 2.92  29 2.92
                            11 2.92  18 2.92  10 2.92   8 2.92
   2  0.750  0.750  0.000-   8 2.92  10 2.92  22 2.92  27 2.92  11 2.92  18 2.92  32 2.92   5 2.92
                            26 2.92   3 2.92  20 2.92  12 2.93
   3  0.750  0.000  0.250-   1 2.92   5 2.92   9 2.92  28 2.92  19 2.92  13 2.92  18 2.92  27 2.92
                             6 2.92   2 2.92   4 2.92  12 2.93
   4  0.750  0.250  0.500-   6 2.92   8 2.92  10 2.92  29 2.92  13 2.92  31 2.92  14 2.92  19 2.92
                            21 2.92  28 2.92   3 2.92  20 2.92
   5  0.000  0.750  0.250-   3 2.92  14 2.92  25 2.92  15 2.92   1 2.92  16 2.92  10 2.92   7 2.92
                             2 2.92  22 2.92   6 2.92  12 2.92
   6  0.000  0.000  0.500-   4 2.92   7 2.92  11 2.92  13 2.92   8 2.92  16 2.92   1 2.92  17 2.92
                             3 2.92  23 2.92  21 2.92   5 2.92
   7  0.250  0.750  0.500-   6 2.92  16 2.92  29 2.92  30 2.92  11 2.92  18 2.92  14 2.92  19 2.92
                             5 2.92  26 2.92  25 2.92  23 2.92
   8  0.750  0.000  0.750-   2 2.92   4 2.92  11 2.92  31 2.92  27 2.92   6 2.92  21 2.92  26 2.92
                            19 2.92   1 2.92   9 2.92  12 2.93
   9  0.750  0.250  0.000-   3 2.92  20 2.92  32 2.92  28 2.92  21 2.92  22 2.92  27 2.92  31 2.92
                            13 2.92   8 2.92  10 2.92  12 2.93
  10  0.750  0.500  0.250-   2 2.92   4 2.92  13 2.92  18 2.92  22 2.92  29 2.92  28 2.92   5 2.92
                            14 2.92  32 2.92   9 2.92   1 2.92
  11  0.000  0.750  0.750-   6 2.92   8 2.92  22 2.92  30 2.92   7 2.92   2 2.92  23 2.92  20 2.92
                             1 2.92  15 2.92  14 2.92  12 2.92
  12  0.002  0.000  0.000-  15 2.90  23 2.90  24 2.90  16 2.90   5 2.92  21 2.92  13 2.92  11 2.92
                             9 2.93   3 2.93   2 2.93   8 2.93
  13  0.000  0.250  0.250-   6 2.92  10 2.92  16 2.92  22 2.92   4 2.92  24 2.92   3 2.92  25 2.92
                            17 2.92   9 2.92  14 2.92  12 2.92
  14  0.000  0.500  0.500-   1 2.92   5 2.92  17 2.92  21 2.92  20 2.92  25 2.92   4 2.92   7 2.92
                            10 2.92  30 2.92  13 2.92  11 2.92
  15  0.250  0.750  0.000-  12 2.90  23 2.92  25 2.92  32 2.92  26 2.92   5 2.92  27 2.92  22 2.92
                            11 2.92  18 2.92  30 2.92  16 2.92
  16  0.250  0.000  0.250-  12 2.90   7 2.92  13 2.92  18 2.92  24 2.92   6 2.92  27 2.92   5 2.92
                            28 2.92  19 2.92  17 2.92  15 2.92
  17  0.250  0.250  0.500-  14 2.92  19 2.92  23 2.92  25 2.92  21 2.92  28 2.92   6 2.92  29 2.92
                            13 2.92  31 2.92  30 2.92  16 2.92
  18  0.500  0.750  0.250-  10 2.92  16 2.92  27 2.92  29 2.92   2 2.92   7 2.92   3 2.92  25 2.92
                             1 2.92  15 2.92  19 2.92  32 2.92
  19  0.500  0.000  0.500-   1 2.92  17 2.92  26 2.92  28 2.92   3 2.92  23 2.92   4 2.92   7 2.92
                             8 2.92  16 2.92  18 2.92  31 2.92
  20  0.750  0.500  0.750-   1 2.92   9 2.92  21 2.92  26 2.92  14 2.92  32 2.92  31 2.92  11 2.92
                            22 2.92  29 2.92   4 2.92   2 2.92
  21  0.000  0.250  0.750-  14 2.92  20 2.92  23 2.92   9 2.92  17 2.92   8 2.92  30 2.92  24 2.92
                             4 2.92  22 2.92   6 2.92  12 2.92
  22  0.000  0.500  0.000-   2 2.92  11 2.92  13 2.92  24 2.92  10 2.92  30 2.92   9 2.92  15 2.92
                            25 2.92  20 2.92  21 2.92   5 2.92
  23  0.250  0.000  0.750-  12 2.90  15 2.92  17 2.92  21 2.92  26 2.92  19 2.92  11 2.92  31 2.92
                            27 2.92   6 2.92  24 2.92   7 2.92
  24  0.250  0.250  0.000-  12 2.90  16 2.92  22 2.92  27 2.92  30 2.92  13 2.92  31 2.92  32 2.92
                            28 2.92  21 2.92  25 2.92  23 2.92
  25  0.250  0.500  0.250-   5 2.92  15 2.92  17 2.92  28 2.92  14 2.92  32 2.92  13 2.92  18 2.92
                            29 2.92  22 2.92  24 2.92   7 2.92
  26  0.500  0.750  0.750-  19 2.92  20 2.92  23 2.92  32 2.92   1 2.92  15 2.92  30 2.92   8 2.92
                             7 2.92   2 2.92  27 2.92  29 2.92
  27  0.500  0.000  0.000-   2 2.92  18 2.92  24 2.92  31 2.92  16 2.92   8 2.92   9 2.92  15 2.92
                             3 2.92  23 2.92  28 2.92  26 2.92
  28  0.500  0.250  0.250-   3 2.92  19 2.92  25 2.92  32 2.92  17 2.92   9 2.92  10 2.92  16 2.92
                             4 2.92  24 2.92  29 2.92  27 2.92
  29  0.500  0.500  0.500-   4 2.92   7 2.92  18 2.92  31 2.92  30 2.92  10 2.92  17 2.92   1 2.92
                            20 2.92  25 2.92  26 2.92  28 2.92
  30  0.250  0.500  0.750-   7 2.92  11 2.92  24 2.92  31 2.92  29 2.92  22 2.92  21 2.92  26 2.92
                            14 2.92  32 2.92  17 2.92  15 2.92
  31  0.500  0.250  0.750-   8 2.92  27 2.92  29 2.92  30 2.92  24 2.92   4 2.92  20 2.92  23 2.92
                             9 2.92  17 2.92  19 2.92  32 2.92
  32  0.500  0.500  0.000-   9 2.92  15 2.92  26 2.92  28 2.92  20 2.92  25 2.92  24 2.92   2 2.92
                            10 2.92  30 2.92  18 2.92  31 2.92
 
  LATTYP: Found a simple cubic cell.
 ALAT       =     8.2552007800
  
  Lattice vectors:
  
 A1 = (   8.2552007800,   0.0000000000,   0.0000000000)
 A2 = (   0.0000001500,   8.2552007800,   0.0000000000)
 A3 = (   0.0000001500,   0.0000001500,   8.2552007800)
 Subroutine PRICEL returns:
 Original cell was already a primitive cell.
 

Analysis of symmetry for initial positions (statically):

 Routine SETGRP: Setting up the symmetry group for a 
 simple cubic supercell.


 Subroutine GETGRP returns: Found  8 space group operations
 (whereof  8 operations were pure point group operations)
 out of a pool of 48 trial point group operations.


The static configuration has the point symmetry C_4v.

Analysis of symmetry for dynamics (positions and initial velocities):

 Subroutine DYNSYM returns: Found  8 space group operations
 (whereof  8 operations were pure point group operations)
 out of a pool of  8 trial space group operations
 (whereof  8 operations were pure point group operations)
 and found also     1 'primitive' translations


The dynamic configuration has the point symmetry C_4v.
 
 
 KPOINTS: Automatic mesh                          

Automatic generation of k-mesh.
 
 Subroutine IBZKPT returns following result:
 ===========================================
 
 Found      6 irreducible k-points:
 
 Following reciprocal coordinates:
            Coordinates               Weight
  0.000000  0.000000  0.000000      1.000000
  0.333333  0.000000  0.000000      2.000000
  0.000000  0.333333  0.000000      4.000000
  0.333333  0.333333  0.000000      8.000000
  0.000000  0.333333  0.333333      4.000000
  0.333333  0.333333  0.333333      8.000000
 
 Following cartesian coordinates:
            Coordinates               Weight
  0.000000  0.000000  0.000000      1.000000
  0.040379 -0.000000 -0.000000      2.000000
  0.000000  0.040379 -0.000000      4.000000
  0.040379  0.040379 -0.000000      8.000000
  0.000000  0.040379  0.040379      4.000000
  0.040379  0.040379  0.040379      8.000000
 


--------------------------------------------------------------------------------------------------------




 Dimension of arrays:
   k-Points           NKPTS =      6   number of bands    NBANDS=    212
   number of dos      NEDOS =    301   number of ions     NIONS =     32
   non local maximal  LDIM  =      6   non local SUM 2l+1 LMDIM =     18
   total plane-waves  NPLWV = 343000
   max r-space proj   IRMAX =      1   max aug-charges    IRDMAX= 298442
   dimension x,y,z NGX =    70 NGY =   70 NGZ =   70
   dimension x,y,z NGXF=   140 NGYF=  140 NGZF=  140
   support grid    NGXF=   280 NGYF=  280 NGZF=  280
   ions per type =              32
 NGX,Y,Z   is equivalent  to a cutoff of  14.10, 14.10, 14.10 a.u.
 NGXF,Y,Z  is equivalent  to a cutoff of  28.19, 28.19, 28.19 a.u.


 I would recommend the setting:
   dimension x,y,z NGX =    66 NGY =   66 NGZ =   66
 SYSTEM =  No title                                
 POSCAR =  No title                                

 Startparameter for this run:
   NWRITE =      2    write-flag & timer
   PREC   = accura    medium, high low
   ISTART =      1    job   : 0-new  1-cont  2-samecut
   ICHARG =      0    charge: 1-file 2-atom 10-const
   ISPIN  =      1    spin polarized calculation?
   LNONCOLLINEAR =      F non collinear calculations
   LSORBIT =      F    spin-orbit coupling
   INIWAV =      1    electr: 0-lowe 1-rand  2-diag
   LASPH  =      F    aspherical Exc in radial PAW
   METAGGA=      F    non-selfconsistent MetaGGA calc.

 Electronic Relaxation 1
   ENCUT  =  600.0 eV  44.10 Ry    6.64 a.u.  16.49 16.49 16.49*2*pi/ulx,y,z
   ENINI  =  600.0     initial cutoff
   ENAUG  =  356.7 eV  augmentation charge cutoff
   NELM   =     60;   NELMIN=  2; NELMDL=  0     # of ELM steps 
   EDIFF  = 0.1E-04   stopping-criterion for ELM
   LREAL  =      F    real-space projection
   LCOMPAT=      F    compatible to vasp.4.4
   LREAL_COMPAT= F    compatible to vasp.4.5.1-3
   GGA_COMPAT  = T    GGA compatible to vasp.4.4-vasp.4.6
   LMAXPAW     = -100 max onsite density
   LMAXMIX     =    2 max onsite mixed and CHGCAR
   VOSKOWN=      1    Vosko Wilk Nusair interpolation
   ROPT   =    0.00000
 Ionic relaxation
   EDIFFG = -.2E-01   stopping-criterion for IOM
   NSW    =      0    number of steps for IOM
   NBLOCK =      1;   KBLOCK =      1    inner block; outer block 
   IBRION =     -1    ionic relax: 0-MD 1-quasi-New 2-CG
   NFREE  =      0    steps in history (QN), initial steepest desc. (CG)
   ISIF   =      2    stress and relaxation
   IWAVPR =     10    prediction:  0-non 1-charg 2-wave 3-comb
   ISYM   =      2    0-nonsym 1-usesym 2-fastsym
   LCORR  =      T    Harris-Foulkes like correction to forces

   POTIM  =   0.50    time-step for ionic-motion
   TEIN   =    0.0    initial temperature
   TEBEG  =    0.0;   TEEND  =   0.0 temperature during run
   SMASS  =  -3.00    Nose mass-parameter (am)
   estimated Nose-frequenzy (Omega)   =  0.10E-29 period in steps =****** mass=  -0.156E-26a.u.
   NPACO  =    256;   APACO  = 16.0  distance and # of slots for P.C.
   PSTRESS=    0.0 pullay stress

  Mass of Ions in am
   POMASS = 196.97
  Ionic Valenz
   ZVAL   =  11.00
  Atomic Wigner-Seitz radii
   RWIGS  =   1.34
   NELECT =     352.0000    total number of electrons
   NUPDOWN=      -1.0000    fix difference up-down

 DOS related values:
   EMIN   =  10.00;   EMAX   =-10.00  energy-range for DOS
   ISMEAR =     1;   SIGMA  =   0.20  broadening in eV -4-tet -1-fermi 0-gaus

 Electronic relaxation 2 (details)
   IALGO  =     38    algorithm
   LDIAG  =      T    sub-space diagonalisation
   IMIX   =      4    mixing-type and parameters
     AMIX     =   0.40;   BMIX     =  1.00
     AMIX_MAG =   1.60;   BMIX_MAG =  1.00
     AMIN     =   0.10
     WC   =   100.;   INIMIX=   1;  MIXPRE=   1

 Intra band minimization:
   WEIMIN = 0.0000     energy-eigenvalue tresh-hold
   EBREAK =  0.12E-07  absolut break condition
   DEPER  =   0.30     relativ break condition  

   TIME   =   0.10     timestep for ELM

  volume/ion in A,a.u.               =      17.58       118.64
  Fermi-wavevector in a.u.,eV,Ry     =   1.400215 26.675613  1.960602

 Second variation
   LSECVAR=     F    do a second variation
 
 Write flags
   LWAVE  =      F    write WAVECAR
   LCHARG =      F    write CHGCAR
   LVTOT  =      F    write LOCPOT, local potential
   LELF   =      F    write electronic localiz. function (ELF)
   LORBIT =      0    0 simple, 1 ext, 2 COOP (PROOUT)


 Dipole corrections
   IDIPOL =      0    1-x, 2-y, 3-z
   LDIPOL =      F    correct potential



--------------------------------------------------------------------------------------------------------


 Static calculation
 charge density will be updated during run
 non-spin polarized calculation
 Variant of blocked Davidson
 Davidson routine will perform the subspace rotation
 performe sub-space diagonalisation
    after iterative eigenvector-optimisation
 modified Broyden-mixing scheme, WC =      100.0
 initial mixing is a Kerker type mixing with AMIX =  0.4000 and BMIX =      1.0000
 Hartree-type preconditioning will be used
 using additional bands           36
 reciprocal scheme for non local part
 use partial core corrections
 calculate Harris-corrections to forces 
   (improved forces if not selfconsistent)
 use gradient corrections 
 use of overlap-Matrix (Vanderbilt PP)
 Methfessel and Paxton  Order N= 1 SIGMA  =   0.20


--------------------------------------------------------------------------------------------------------


  energy-cutoff  :      600.00
  volume of cell :      562.58
      direct lattice vectors                 reciprocal lattice vectors
     8.255200780  0.000000000  0.000000000     0.121135758 -0.000000002 -0.000000002
     0.000000150  8.255200780  0.000000000     0.000000000  0.121135758 -0.000000002
     0.000000150  0.000000150  8.255200780     0.000000000  0.000000000  0.121135758

  length of vectors
     8.255200780  8.255200780  8.255200780     0.121135758  0.121135758  0.121135758


 
 old parameters found on file WAVECAR:
  energy-cutoff  :      600.00
  volume of cell :      562.58
      direct lattice vectors                 reciprocal lattice vectors
     8.255200780  0.000000000  0.000000000     0.121135758 -0.000000002 -0.000000002
     0.000000150  8.255200780  0.000000000     0.000000000  0.121135758 -0.000000002
     0.000000150  0.000000150  8.255200780     0.000000000  0.000000000  0.121135758

  length of vectors

 
 k-points in units of 2pi/SCALE and weight: Automatic mesh                          
   0.00000000  0.00000000  0.00000000       0.037
   0.04037859 -0.00000000 -0.00000000       0.074
   0.00000000  0.04037859 -0.00000000       0.148
   0.04037859  0.04037859 -0.00000000       0.296
   0.00000000  0.04037859  0.04037859       0.148
   0.04037859  0.04037859  0.04037858       0.296
 
 k-points in reciprocal lattice and weights: Automatic mesh                          
   0.00000000  0.00000000  0.00000000       0.037
   0.33333333  0.00000000  0.00000000       0.074
   0.00000000  0.33333333  0.00000000       0.148
   0.33333333  0.33333333  0.00000000       0.296
   0.00000000  0.33333333  0.33333333       0.148
   0.33333333  0.33333333  0.33333333       0.296
 
 position of ions in fractional coordinates (direct lattice) 
   0.75000000  0.75000000  0.50000000
   0.75000000  0.75000000  0.00000000
   0.75000000  0.00000000  0.25000000
   0.75000000  0.25000000  0.50000000
   0.00000000  0.75000000  0.25000000
   0.00000000  0.00000000  0.50000000
   0.25000000  0.75000000  0.50000000
   0.75000000  0.00000000  0.75000000
   0.75000000  0.25000000  0.00000000
   0.75000000  0.50000000  0.25000000
   0.00000000  0.75000000  0.75000000
   0.00242300  0.00000000  0.00000000
   0.00000000  0.25000000  0.25000000
   0.00000000  0.50000000  0.50000000
   0.25000000  0.75000000  0.00000000
   0.25000000  0.00000000  0.25000000
   0.25000000  0.25000000  0.50000000
   0.50000000  0.75000000  0.25000000
   0.50000000  0.00000000  0.50000000
   0.75000000  0.50000000  0.75000000
   0.00000000  0.25000000  0.75000000
   0.00000000  0.50000000  0.00000000
   0.25000000  0.00000000  0.75000000
   0.25000000  0.25000000  0.00000000
   0.25000000  0.50000000  0.25000000
   0.50000000  0.75000000  0.75000000
   0.50000000  0.00000000  0.00000000
   0.50000000  0.25000000  0.25000000
   0.50000000  0.50000000  0.50000000
   0.25000000  0.50000000  0.75000000
   0.50000000  0.25000000  0.75000000
   0.50000000  0.50000000  0.00000000
 
 position of ions in cartesian coordinates  (Angst):
   6.19140077  6.19140066  4.12760039
   6.19140070  6.19140058  0.00000000
   6.19140062  0.00000004  2.06380019
   6.19140070  2.06380027  4.12760039
   0.00000015  6.19140062  2.06380019
   0.00000007  0.00000007  4.12760039
   2.06380038  6.19140066  4.12760039
   6.19140070  0.00000011  6.19140058
   6.19140062  2.06380019  0.00000000
   6.19140070  4.12760043  2.06380019
   0.00000022  6.19140070  6.19140058
   0.02000235  0.00000000  0.00000000
   0.00000007  2.06380023  2.06380019
   0.00000015  4.12760046  4.12760039
   2.06380031  6.19140058  0.00000000
   2.06380023  0.00000004  2.06380019
   2.06380031  2.06380027  4.12760039
   4.12760054  6.19140062  2.06380019
   4.12760046  0.00000007  4.12760039
   6.19140077  4.12760050  6.19140058
   0.00000015  2.06380031  6.19140058
   0.00000007  4.12760039  0.00000000
   2.06380031  0.00000011  6.19140058
   2.06380023  2.06380019  0.00000000
   2.06380031  4.12760043  2.06380019
   4.12760062  6.19140070  6.19140058
   4.12760039  0.00000000  0.00000000
   4.12760047  2.06380023  2.06380019
   4.12760054  4.12760046  4.12760039
   2.06380038  4.12760050  6.19140058
   4.12760054  2.06380031  6.19140058
   4.12760046  4.12760039  0.00000000
 


--------------------------------------------------------------------------------------------------------


 k-point  1 :  0.00000.00000.0000  plane waves:  18805
 k-point  2 :  0.33330.00000.0000  plane waves:  18773
 k-point  3 :  0.00000.33330.0000  plane waves:  18773
 k-point  4 :  0.33330.33330.0000  plane waves:  18779
 k-point  5 :  0.00000.33330.3333  plane waves:  18779
 k-point  6 :  0.33330.33330.3333  plane waves:  18775

 maximum and minimum number of plane-waves per node :  18805 18773

 maximum number of plane-waves:  18805
 maximal index in each direction: 
   IXMAX= 16   IYMAX= 16   IZMAX= 16
   IXMIN=-16   IYMIN=-16   IZMIN=-16

 NGX is ok and might be reduce to  66
 NGY is ok and might be reduce to  66
 NGZ is ok and might be reduce to  66

 parallel 3dFFT wavefunction:
    minimum data exchange during FFTs selected (reduces bandwidth)
 parallel 3dFFT charge:
    minimum data exchange during FFTs selected (reduces bandwidth)

 For storing wavefunctions  382.22 MBYTES are necessary
 For predicting wavefunctions  138.30 MBYTES are necessary
Broyden mixing: mesh for mixing (old mesh)
   NGX = 33   NGY = 33   NGZ = 33
  (NGX  =140   NGY  =140   NGZ  =140)
 gives a total of  35937 points
 charge density for first step will be calculated from the start-wavefunctions


--------------------------------------------------------------------------------------------------------


 Maximum index for augmentation-charges        72365 (set IRDMAX)


--------------------------------------------------------------------------------------------------------


 initial charge from wavefunction
 First call to EWALD:  gamma=   0.215
 Maximum number of real-space cells 3x 3x 3
 Maximum number of reciprocal cells 3x 3x 3

    FEWALD:  VPU time    0.01: CPU time    0.01


----------------------------------------- Iteration    1(   1)  ---------------------------------------


    POTLOK:  VPU time    0.71: CPU time    0.72
    SETDIJ:  VPU time    1.35: CPU time    1.35
    EDDAV :  VPU time   58.92: CPU time   59.04
    DOS   :  VPU time    0.00: CPU time   -0.00
    CHARGE:  VPU time    5.73: CPU time    5.74
    MIXING:  VPU time    0.01: CPU time    0.02
    ------------------------------------------
      LOOP:  VPU time   66.75: CPU time   66.87

 eigenvalue-minimisations  :  2752
 total energy-change (2. order) :-0.1038848E+03  (-0.5795649E+02)
 number of electron  352.0000008 magnetization 
 augmentation part   131.0385813 magnetization 

 Broyden mixing:
  rms(total) = 0.52118E+00    rms(broyden)= 0.48754E+00
  rms(prec ) = 0.75103E+00
  weight for this iteration     100.00

 Free energy of the ion-electron system (eV)
  ---------------------------------------------------
  alpha Z        PSCENC =      3408.89140614
  Ewald energy   TEWEN  =    -30966.27595179
  -1/2 Hartree   DENC   =     -3670.88807511
  -V(xc)+E(xc)   XCENC  =       453.23050729
  PAW double counting   =     23374.87426206   -22714.33434426
  entropy T*S    EENTRO =        -0.06375230
  eigenvalues    EBANDS =       376.90716692
  atomic energy  EATOM  =     29633.77399530
  ---------------------------------------------------
  free energy    TOTEN  =      -103.88478573 eV

  energy without entropy =     -103.82103343  energy(sigma->0) =     -103.86353496


--------------------------------------------------------------------------------------------------------




----------------------------------------- Iteration    1(   2)  ---------------------------------------


    POTLOK:  VPU time    0.71: CPU time    0.71
    SETDIJ:  VPU time    1.35: CPU time    1.35
    EDDAV :  VPU time   58.68: CPU time   58.74
    DOS   :  VPU time    0.00: CPU time   -0.00
    CHARGE:  VPU time    4.99: CPU time    4.99
    MIXING:  VPU time    0.02: CPU time    0.02
    ------------------------------------------
      LOOP:  VPU time   65.76: CPU time   65.83

 eigenvalue-minimisations  :  2676
 total energy-change (2. order) :-0.3542290E+00  (-0.1505251E+01)
 number of electron  352.0000008 magnetization 
 augmentation part   129.5182817 magnetization 

 Broyden mixing:
  rms(total) = 0.10626E+00    rms(broyden)= 0.10626E+00
  rms(prec ) = 0.14349E+00
  weight for this iteration     100.00

 eigenvalues of (default mixing * dielectric matrix)
  average eigenvalue GAMMA=   1.0783
  1.0783

 Free energy of the ion-electron system (eV)
  ---------------------------------------------------
  alpha Z        PSCENC =      3408.89140614
  Ewald energy   TEWEN  =    -30966.27595179
  -1/2 Hartree   DENC   =     -3735.47468731
  -V(xc)+E(xc)   XCENC  =       472.20704034
  PAW double counting   =     23706.72200575   -23043.35100847
  entropy T*S    EENTRO =        -0.05262781
  eigenvalues    EBANDS =       419.32081307
  atomic energy  EATOM  =     29633.77399530
  ---------------------------------------------------
  free energy    TOTEN  =      -104.23901476 eV

  energy without entropy =     -104.18638695  energy(sigma->0) =     -104.22147215


--------------------------------------------------------------------------------------------------------




----------------------------------------- Iteration    1(   3)  ---------------------------------------


    POTLOK:  VPU time    0.71: CPU time    0.71
    SETDIJ:  VPU time    1.36: CPU time    1.36
    EDDAV :  VPU time   57.82: CPU time   57.88
    DOS   :  VPU time    0.00: CPU time   -0.00
    CHARGE:  VPU time    5.26: CPU time    5.26
    MIXING:  VPU time    0.02: CPU time    0.02
    ------------------------------------------
      LOOP:  VPU time   65.18: CPU time   65.25

 eigenvalue-minimisations  :  2668
 total energy-change (2. order) :-0.1490094E-01  (-0.4004556E-01)
 number of electron  352.0000008 magnetization 
 augmentation part   129.2269571 magnetization 

 Broyden mixing:
  rms(total) = 0.57778E-01    rms(broyden)= 0.57777E-01
  rms(prec ) = 0.63209E-01
  weight for this iteration     100.00

 eigenvalues of (default mixing * dielectric matrix)
  average eigenvalue GAMMA=   1.1827
  1.1827  1.1827

 Free energy of the ion-electron system (eV)
  ---------------------------------------------------
  alpha Z        PSCENC =      3408.89140614
  Ewald energy   TEWEN  =    -30966.27595179
  -1/2 Hartree   DENC   =     -3746.88317754
  -V(xc)+E(xc)   XCENC  =       472.70323331
  PAW double counting   =     23882.44404882   -23217.82666219
  entropy T*S    EENTRO =        -0.05290606
  eigenvalues    EBANDS =       428.97209830
  atomic energy  EATOM  =     29633.77399530
  ---------------------------------------------------
  free energy    TOTEN  =      -104.25391570 eV

  energy without entropy =     -104.20100964  energy(sigma->0) =     -104.23628035


--------------------------------------------------------------------------------------------------------




----------------------------------------- Iteration    1(   4)  ---------------------------------------


    POTLOK:  VPU time    0.68: CPU time    0.68
    SETDIJ:  VPU time    1.25: CPU time    1.25
    EDDAV :  VPU time   64.48: CPU time   64.61
    DOS   :  VPU time    0.00: CPU time   -0.00
    CHARGE:  VPU time    5.33: CPU time    5.34
    MIXING:  VPU time    0.01: CPU time    0.01
    ------------------------------------------
      LOOP:  VPU time   71.76: CPU time   71.90

 eigenvalue-minimisations  :  2992
 total energy-change (2. order) :-0.9750932E-03  (-0.9843236E-03)
 number of electron  352.0000008 magnetization 
 augmentation part   129.2199592 magnetization 

 Broyden mixing:
  rms(total) = 0.33857E-01    rms(broyden)= 0.33857E-01
  rms(prec ) = 0.36100E-01
  weight for this iteration     100.00

 eigenvalues of (default mixing * dielectric matrix)
  average eigenvalue GAMMA=   1.5213
  2.5270  1.1665  0.8703

 Free energy of the ion-electron system (eV)
  ---------------------------------------------------
  alpha Z        PSCENC =      3408.89140614
  Ewald energy   TEWEN  =    -30966.27595179
  -1/2 Hartree   DENC   =     -3747.20817853
  -V(xc)+E(xc)   XCENC  =       472.72647121
  PAW double counting   =     23960.60687879   -23295.53651940
  entropy T*S    EENTRO =        -0.05289118
  eigenvalues    EBANDS =       428.81989867
  atomic energy  EATOM  =     29633.77399530
  ---------------------------------------------------
  free energy    TOTEN  =      -104.25489079 eV

  energy without entropy =     -104.20199961  energy(sigma->0) =     -104.23726040


--------------------------------------------------------------------------------------------------------




----------------------------------------- Iteration    1(   5)  ---------------------------------------


    POTLOK:  VPU time    0.66: CPU time    0.66
    SETDIJ:  VPU time    1.23: CPU time    1.23
    EDDAV :  VPU time   58.68: CPU time   58.71
    DOS   :  VPU time    0.00: CPU time   -0.00
    CHARGE:  VPU time    5.80: CPU time    5.80
    MIXING:  VPU time    0.02: CPU time    0.02
    ------------------------------------------
      LOOP:  VPU time   66.40: CPU time   66.44

 eigenvalue-minimisations  :  2724
 total energy-change (2. order) :-0.4357718E-03  (-0.1235648E-03)
 number of electron  352.0000008 magnetization 
 augmentation part   129.2285757 magnetization 

 Broyden mixing:
  rms(total) = 0.34116E-02    rms(broyden)= 0.34116E-02
  rms(prec ) = 0.51228E-02
  weight for this iteration     100.00

 eigenvalues of (default mixing * dielectric matrix)
  average eigenvalue GAMMA=   1.4107
  2.5493  1.1240  1.1240  0.8455

 Free energy of the ion-electron system (eV)
  ---------------------------------------------------
  alpha Z        PSCENC =      3408.89140614
  Ewald energy   TEWEN  =    -30966.27595179
  -1/2 Hartree   DENC   =     -3747.59326478
  -V(xc)+E(xc)   XCENC  =       472.75663245
  PAW double counting   =     24062.25272660   -23396.58782881
  entropy T*S    EENTRO =        -0.05285674
  eigenvalues    EBANDS =       428.57981506
  atomic energy  EATOM  =     29633.77399530
  ---------------------------------------------------
  free energy    TOTEN  =      -104.25532656 eV

  energy without entropy =     -104.20246982  energy(sigma->0) =     -104.23770765


--------------------------------------------------------------------------------------------------------




----------------------------------------- Iteration    1(   6)  ---------------------------------------


    POTLOK:  VPU time    0.70: CPU time    0.71
    SETDIJ:  VPU time    1.32: CPU time    1.33
    EDDAV :  VPU time   58.09: CPU time   58.17
    DOS   :  VPU time    0.00: CPU time   -0.00
    CHARGE:  VPU time    5.19: CPU time    5.21
    MIXING:  VPU time    0.01: CPU time    0.01
    ------------------------------------------
      LOOP:  VPU time   65.35: CPU time   65.43

 eigenvalue-minimisations  :  2752
 total energy-change (2. order) : 0.7919887E-05  (-0.1696427E-04)
 number of electron  352.0000008 magnetization 
 augmentation part   129.2202757 magnetization 

 Broyden mixing:
  rms(total) = 0.98869E-03    rms(broyden)= 0.98868E-03
  rms(prec ) = 0.14318E-02
  weight for this iteration     100.00

 eigenvalues of (default mixing * dielectric matrix)
  average eigenvalue GAMMA=   1.3810
  2.5389  0.8479  1.0074  1.1208  1.3901

 Free energy of the ion-electron system (eV)
  ---------------------------------------------------
  alpha Z        PSCENC =      3408.89140614
  Ewald energy   TEWEN  =    -30966.27595179
  -1/2 Hartree   DENC   =     -3748.12136390
  -V(xc)+E(xc)   XCENC  =       472.78072428
  PAW double counting   =     24070.42361386   -23404.69502210
  entropy T*S    EENTRO =        -0.05287550
  eigenvalues    EBANDS =       429.02015505
  atomic energy  EATOM  =     29633.77399530
  ---------------------------------------------------
  free energy    TOTEN  =      -104.25531864 eV

  energy without entropy =     -104.20244315  energy(sigma->0) =     -104.23769348


--------------------------------------------------------------------------------------------------------




----------------------------------------- Iteration    1(   7)  ---------------------------------------


    POTLOK:  VPU time    0.65: CPU time    0.65
    SETDIJ:  VPU time    1.24: CPU time    1.24
    EDDAV :  VPU time   39.94: CPU time   39.97
    DOS   :  VPU time    0.00: CPU time   -0.00
    ------------------------------------------
      LOOP:  VPU time   41.85: CPU time   41.88

 eigenvalue-minimisations  :  1460
 total energy-change (2. order) : 0.4015885E-05  (-0.1334073E-05)
 number of electron  352.0000008 magnetization 
 augmentation part   129.2202757 magnetization 

 Free energy of the ion-electron system (eV)
  ---------------------------------------------------
  alpha Z        PSCENC =      3408.89140614
  Ewald energy   TEWEN  =    -30966.27595179
  -1/2 Hartree   DENC   =     -3748.18503868
  -V(xc)+E(xc)   XCENC  =       472.78398378
  PAW double counting   =     24069.90465459   -23404.17302018
  entropy T*S    EENTRO =        -0.05287716
  eigenvalues    EBANDS =       429.07753337
  atomic energy  EATOM  =     29633.77399530
  ---------------------------------------------------
  free energy    TOTEN  =      -104.25531463 eV

  energy without entropy =     -104.20243746  energy(sigma->0) =     -104.23768891


--------------------------------------------------------------------------------------------------------




 average (electrostatic) potential at core
  the test charge radii are     1.2098
  (the norm of the test charge is              1.0000)
       1 -45.8503       2 -45.8480       3 -45.8480       4 -45.8503       5 -45.8507
       6 -45.8508       7 -45.8511       8 -45.8480       9 -45.8480      10 -45.8503
      11 -45.8507      12 -45.8508      13 -45.8507      14 -45.8508      15 -45.8536
      16 -45.8536      17 -45.8511      18 -45.8507      19 -45.8508      20 -45.8503
      21 -45.8507      22 -45.8508      23 -45.8536      24 -45.8536      25 -45.8511
      26 -45.8507      27 -45.8508      28 -45.8507      29 -45.8508      30 -45.8511
      31 -45.8507      32 -45.8508
 
 
 
 E-fermi :   5.3300     XC(G=0): -12.5339     alpha+bet : -9.8712
   add alpha+bet to get absolut eigen values

 k-point   1 :       0.0000    0.0000    0.0000
  band No.  band energies     occupation 
      1      -4.1714      2.00000
      2      -1.8185      2.00000
      3      -1.8117      2.00000
      4      -1.8116      2.00000
      5      -1.8116      2.00000
      6      -1.8116      2.00000
      7      -1.8050      2.00000
      8      -1.7116      2.00000
      9      -1.7115      2.00000
     10      -1.7115      2.00000
     11      -1.7115      2.00000
     12      -1.4690      2.00000
     13      -1.4689      2.00000
     14      -1.4688      2.00000
     15      -1.1780      2.00000
     16      -1.1779      2.00000
     17      -1.1779      2.00000
     18      -0.5337      2.00000
     19      -0.5308      2.00000
     20      -0.5308      2.00000
     21      -0.5270      2.00000
     22      -0.5267      2.00000
     23      -0.5265      2.00000
     24      -0.5265      2.00000
     25      -0.5265      2.00000
     26      -0.5261      2.00000
     27      -0.5225      2.00000
     28      -0.5225      2.00000
     29      -0.5194      2.00000
     30      -0.4179      2.00000
     31      -0.4133      2.00000
     32      -0.4132      2.00000
     33      -0.4132      2.00000
     34      -0.4132      2.00000
     35      -0.4087      2.00000
     36      -0.2867      2.00000
     37      -0.2820      2.00000
     38      -0.2820      2.00000
     39      -0.2820      2.00000
     40      -0.2819      2.00000
     41      -0.2773      2.00000
     42       0.2747      2.00000
     43       0.2807      2.00000
     44       0.2807      2.00000
     45       0.2835      2.00000
     46       0.2836      2.00000
     47       0.2836      2.00000
     48       0.2836      2.00000
     49       0.2836      2.00000
     50       0.2837      2.00000
     51       0.2859      2.00000
     52       0.2859      2.00000
     53       0.2913      2.00000
     54       0.3453      2.00000
     55       0.3453      2.00000
     56       0.3501      2.00000
     57       0.3501      2.00000
     58       0.3501      2.00000
     59       0.3501      2.00000
     60       0.3501      2.00000
     61       0.3503      2.00000
     62       0.3503      2.00000
     63       0.3512      2.00000
     64       0.3555      2.00000
     65       0.3555      2.00000
     66       0.6100      2.00000
     67       0.6181      2.00000
     68       0.6182      2.00000
     69       0.6182      2.00000
     70       0.6188      2.00000
     71       0.6188      2.00000
     72       0.6188      2.00000
     73       0.6189      2.00000
     74       0.6193      2.00000
     75       0.6194      2.00000
     76       0.6194      2.00000
     77       0.6273      2.00000
     78       0.7464      2.00000
     79       0.7465      2.00000
     80       0.7465      2.00000
     81       0.7467      2.00000
     82       0.7467      2.00000
     83       0.7467      2.00000
     84       0.7468      2.00000
     85       0.7470      2.00000
     86       0.7790      2.00000
     87       0.7790      2.00000
     88       0.7790      2.00000
     89       1.4587      2.00000
     90       1.4631      2.00000
     91       1.4634      2.00000
     92       1.4634      2.00000
     93       1.4635      2.00000
     94       1.4681      2.00000
     95       1.6531      2.00000
     96       1.6550      2.00000
     97       1.6576      2.00000
     98       1.6576      2.00000
     99       1.6589      2.00000
    100       1.6589      2.00000
    101       1.6589      2.00000
    102       1.6589      2.00000
    103       1.6601      2.00000
    104       1.6601      2.00000
    105       1.6632      2.00000
    106       1.6643      2.00000
    107       1.9486      2.00000
    108       1.9486      2.00000
    109       1.9545      2.00000
    110       1.9545      2.00000
    111       1.9548      2.00000
    112       1.9550      2.00000
    113       1.9550      2.00000
    114       1.9550      2.00000
    115       1.9553      2.00000
    116       1.9553      2.00000
    117       1.9608      2.00000
    118       1.9608      2.00000
    119       2.0904      2.00000
    120       2.0944      2.00000
    121       2.0945      2.00000
    122       2.0945      2.00000
    123       2.0946      2.00000
    124       2.0985      2.00000
    125       2.2078      2.00000
    126       2.2078      2.00000
    127       2.2119      2.00000
    128       2.2134      2.00000
    129       2.2142      2.00000
    130       2.2143      2.00000
    131       2.2143      2.00000
    132       2.2144      2.00000
    133       2.2146      2.00000
    134       2.2153      2.00000
    135       2.2176      2.00000
    136       2.2203      2.00000
    137       2.2214      2.00000
    138       2.2214      2.00000
    139       2.7399      2.00000
    140       2.7427      2.00000
    141       2.7428      2.00000
    142       2.7428      2.00000
    143       2.7428      2.00000
    144       2.7456      2.00000
    145       3.3122      2.00000
    146       3.3122      2.00000
    147       3.3123      2.00000
    148       3.3539      2.00000
    149       3.3540      2.00000
    150       3.3540      2.00000
    151       3.3541      2.00000
    152       3.3541      2.00000
    153       3.3541      2.00000
    154       3.3541      2.00000
    155       3.3541      2.00000
    156       3.6567      2.00000
    157       3.6578      2.00000
    158       3.6579      2.00000
    159       3.6579      2.00000
    160       3.6580      2.00000
    161       3.6580      2.00000
    162       3.6595      2.00000
    163       3.6596      2.00000
    164       3.6596      2.00000
    165       3.6597      2.00000
    166       3.6597      2.00000
    167       3.6607      2.00000
    168       4.5312      2.00000
    169       4.5313      2.00000
    170       4.5313      2.00000
    171       4.5314      2.00000
    172       5.0167      2.04924
    173       5.0177      2.04968
    174       5.0177      2.04968
    175       5.0192      2.05041
    176       5.0202      2.05084
    177       5.0202      2.05086
    178       5.0202      2.05086
    179       5.0202      2.05086
    180       5.0214      2.05139
    181       5.0229      2.05209
    182       5.0229      2.05209
    183       5.0239      2.05254
    184       6.4728     -0.00000
    185       6.4728     -0.00000
    186       6.4730     -0.00000
    187       8.2825     -0.00000
    188       8.2825     -0.00000
    189       8.2825     -0.00000
    190       8.2826     -0.00000
    191      10.0148     -0.00000
    192      10.0153     -0.00000
    193      10.0155     -0.00000
    194      10.0155     -0.00000
    195      10.0155     -0.00000
    196      10.0161     -0.00000
    197      10.9288      0.00000
    198      10.9290      0.00000
    199      10.9291      0.00000
    200      11.5703      0.00000
    201      11.5703      0.00000
    202      11.5768      0.00000
    203      11.5768      0.00000
    204      11.5778      0.00000
    205      11.5778      0.00000
    206      11.5779      0.00000
    207      11.5782      0.00000
    208      11.5788      0.00000
    209      11.5788      0.00000
    210      11.5853      0.00000
    211      11.5853      0.00000
    212      13.8127      0.00000

 k-point   2 :       0.3333    0.0000    0.0000
  band No.  band energies     occupation 
      1      -3.8578      2.00000
      2      -2.9722      2.00000
      3      -1.5900      2.00000
      4      -1.5898      2.00000
      5      -1.5898      2.00000
      6      -1.5898      2.00000
      7      -1.5359      2.00000
      8      -1.5359      2.00000
      9      -1.5359      2.00000
     10      -1.5359      2.00000
     11      -1.3700      2.00000
     12      -1.2658      2.00000
     13      -1.2653      2.00000
     14      -1.2553      2.00000
     15      -1.0655      2.00000
     16      -1.0411      2.00000
     17      -1.0411      2.00000
     18      -1.0400      2.00000
     19      -1.0397      2.00000
     20      -1.0376      2.00000
     21      -1.0372      2.00000
     22      -1.0365      2.00000
     23      -1.0365      2.00000
     24      -1.0053      2.00000
     25      -1.0053      2.00000
     26      -0.7595      2.00000
     27      -0.7594      2.00000
     28      -0.7467      2.00000
     29      -0.4919      2.00000
     30      -0.4919      2.00000
     31      -0.2729      2.00000
     32      -0.2725      2.00000
     33      -0.2725      2.00000
     34      -0.2725      2.00000
     35      -0.2183      2.00000
     36      -0.2183      2.00000
     37      -0.2183      2.00000
     38      -0.2181      2.00000
     39      -0.1879      2.00000
     40      -0.1879      2.00000
     41      -0.1879      2.00000
     42      -0.1877      2.00000
     43       0.0492      2.00000
     44       0.0493      2.00000
     45       0.0493      2.00000
     46       0.0494      2.00000
     47       0.2044      2.00000
     48       0.2045      2.00000
     49       0.2045      2.00000
     50       0.2045      2.00000
     51       0.2232      2.00000
     52       0.2525      2.00000
     53       0.2526      2.00000
     54       0.2526      2.00000
     55       0.2527      2.00000
     56       0.3623      2.00000
     57       0.3647      2.00000
     58       0.3647      2.00000
     59       0.3649      2.00000
     60       0.3747      2.00000
     61       0.3749      2.00000
     62       0.3749      2.00000
     63       0.3774      2.00000
     64       0.5274      2.00000
     65       0.5274      2.00000
     66       0.5275      2.00000
     67       0.5275      2.00000
     68       0.6245      2.00000
     69       0.6776      2.00000
     70       0.6777      2.00000
     71       0.6777      2.00000
     72       0.6778      2.00000
     73       0.7055      2.00000
     74       0.7057      2.00000
     75       0.7057      2.00000
     76       0.7060      2.00000
     77       0.8871      2.00000
     78       0.8872      2.00000
     79       0.8872      2.00000
     80       0.8875      2.00000
     81       0.9182      2.00000
     82       0.9182      2.00000
     83       1.0368      2.00000
     84       1.0369      2.00000
     85       1.0370      2.00000
     86       1.0370      2.00000
     87       1.2288      2.00000
     88       1.2288      2.00000
     89       1.2288      2.00000
     90       1.2289      2.00000
     91       1.2754      2.00000
     92       1.2755      2.00000
     93       1.2755      2.00000
     94       1.2756      2.00000
     95       1.3246      2.00000
     96       1.3246      2.00000
     97       1.4864      2.00000
     98       1.4864      2.00000
     99       1.6634      2.00000
    100       1.8755      2.00000
    101       1.8756      2.00000
    102       1.8757      2.00000
    103       1.8757      2.00000
    104       1.9498      2.00000
    105       1.9498      2.00000
    106       1.9498      2.00000
    107       1.9500      2.00000
    108       1.9808      2.00000
    109       1.9808      2.00000
    110       1.9808      2.00000
    111       1.9809      2.00000
    112       1.9861      2.00000
    113       1.9861      2.00000
    114       1.9862      2.00000
    115       1.9862      2.00000
    116       2.0539      2.00000
    117       2.1317      2.00000
    118       2.1319      2.00000
    119       2.1321      2.00000
    120       2.1321      2.00000
    121       2.1483      2.00000
    122       2.1483      2.00000
    123       2.1485      2.00000
    124       2.1486      2.00000
    125       2.2854      2.00000
    126       2.4636      2.00000
    127       2.4745      2.00000
    128       2.4790      2.00000
    129       2.4790      2.00000
    130       2.4790      2.00000
    131       2.4790      2.00000
    132       2.4899      2.00000
    133       2.4900      2.00000
    134       2.6533      2.00000
    135       2.6533      2.00000
    136       2.6533      2.00000
    137       2.6535      2.00000
    138       2.7074      2.00000
    139       2.7074      2.00000
    140       2.7388      2.00000
    141       2.7388      2.00000
    142       2.7388      2.00000
    143       2.7389      2.00000
    144       2.8033      2.00000
    145       2.8033      2.00000
    146       3.0213      2.00000
    147       3.0469      2.00000
    148       3.0471      2.00000
    149       3.0471      2.00000
    150       3.0471      2.00000
    151       3.0763      2.00000
    152       3.0766      2.00000
    153       3.1552      2.00000
    154       3.1552      2.00000
    155       3.1552      2.00000
    156       3.1554      2.00000
    157       3.2330      2.00000
    158       3.3628      2.00000
    159       3.3628      2.00000
    160       3.3628      2.00000
    161       3.3628      2.00000
    162       3.3765      2.00000
    163       3.3765      2.00000
    164       3.6569      2.00000
    165       3.6582      2.00000
    166       3.6591      2.00000
    167       3.6606      2.00000
    168       3.9374      2.00000
    169       3.9374      2.00000
    170       3.9374      2.00000
    171       3.9375      2.00000
    172       4.7218      2.00015
    173       4.8432      2.00309
    174       4.8432      2.00310
    175       4.8432      2.00310
    176       4.8432      2.00310
    177       4.9960      2.03975
    178       4.9960      2.03975
    179       4.9960      2.03976
    180       4.9962      2.03984
    181       6.4371     -0.00000
    182       6.4371     -0.00000
    183       6.4372     -0.00000
    184       6.4372     -0.00000
    185       7.5477     -0.00000
    186       7.5477     -0.00000
    187       8.4102     -0.00000
    188       8.4102     -0.00000
    189       8.4102     -0.00000
    190       8.4102     -0.00000
    191       9.2465     -0.00000
    192       9.2465     -0.00000
    193       9.2465     -0.00000
    194       9.2465     -0.00000
    195       9.4955     -0.00000
    196       9.4955     -0.00000
    197      10.2178     -0.00000
    198      10.2178     -0.00000
    199      10.6746     -0.00000
    200      10.6747     -0.00000
    201      11.5318      0.00000
    202      11.5319      0.00000
    203      11.5319      0.00000
    204      11.5319      0.00000
    205      12.1069      0.00000
    206      12.1069      0.00000
    207      12.1069      0.00000
    208      12.1070      0.00000
    209      12.1424      0.00000
    210      12.1424      0.00000
    211      12.1424      0.00000
    212      12.1424      0.00000

 k-point   3 :       0.0000    0.3333    0.0000
  band No.  band energies     occupation 
      1      -3.8578      2.00000
      2      -2.9722      2.00000
      3      -1.5951      2.00000
      4      -1.5898      2.00000
      5      -1.5898      2.00000
      6      -1.5850      2.00000
      7      -1.5363      2.00000
      8      -1.5362      2.00000
      9      -1.5356      2.00000
     10      -1.5354      2.00000
     11      -1.3700      2.00000
     12      -1.2653      2.00000
     13      -1.2652      2.00000
     14      -1.2557      2.00000
     15      -1.0654      2.00000
     16      -1.0456      2.00000
     17      -1.0414      2.00000
     18      -1.0407      2.00000
     19      -1.0384      2.00000
     20      -1.0377      2.00000
     21      -1.0370      2.00000
     22      -1.0360      2.00000
     23      -1.0331      2.00000
     24      -1.0056      2.00000
     25      -1.0053      2.00000
     26      -0.7595      2.00000
     27      -0.7594      2.00000
     28      -0.7467      2.00000
     29      -0.4920      2.00000
     30      -0.4919      2.00000
     31      -0.2758      2.00000
     32      -0.2727      2.00000
     33      -0.2725      2.00000
     34      -0.2695      2.00000
     35      -0.2212      2.00000
     36      -0.2188      2.00000
     37      -0.2183      2.00000
     38      -0.2155      2.00000
     39      -0.1915      2.00000
     40      -0.1878      2.00000
     41      -0.1877      2.00000
     42      -0.1841      2.00000
     43       0.0458      2.00000
     44       0.0494      2.00000
     45       0.0494      2.00000
     46       0.0529      2.00000
     47       0.2011      2.00000
     48       0.2044      2.00000
     49       0.2045      2.00000
     50       0.2079      2.00000
     51       0.2232      2.00000
     52       0.2492      2.00000
     53       0.2525      2.00000
     54       0.2526      2.00000
     55       0.2558      2.00000
     56       0.3594      2.00000
     57       0.3650      2.00000
     58       0.3650      2.00000
     59       0.3689      2.00000
     60       0.3713      2.00000
     61       0.3747      2.00000
     62       0.3748      2.00000
     63       0.3798      2.00000
     64       0.5251      2.00000
     65       0.5272      2.00000
     66       0.5276      2.00000
     67       0.5293      2.00000
     68       0.6244      2.00000
     69       0.6762      2.00000
     70       0.6773      2.00000
     71       0.6780      2.00000
     72       0.6788      2.00000
     73       0.7025      2.00000
     74       0.7057      2.00000
     75       0.7059      2.00000
     76       0.7090      2.00000
     77       0.8866      2.00000
     78       0.8875      2.00000
     79       0.8875      2.00000
     80       0.8884      2.00000
     81       0.9182      2.00000
     82       0.9183      2.00000
     83       1.0331      2.00000
     84       1.0369      2.00000
     85       1.0369      2.00000
     86       1.0409      2.00000
     87       1.2269      2.00000
     88       1.2280      2.00000
     89       1.2294      2.00000
     90       1.2308      2.00000
     91       1.2745      2.00000
     92       1.2756      2.00000
     93       1.2757      2.00000
     94       1.2771      2.00000
     95       1.3246      2.00000
     96       1.3246      2.00000
     97       1.4862      2.00000
     98       1.4862      2.00000
     99       1.6632      2.00000
    100       1.8731      2.00000
    101       1.8755      2.00000
    102       1.8756      2.00000
    103       1.8778      2.00000
    104       1.9451      2.00000
    105       1.9499      2.00000
    106       1.9499      2.00000
    107       1.9534      2.00000
    108       1.9775      2.00000
    109       1.9793      2.00000
    110       1.9808      2.00000
    111       1.9823      2.00000
    112       1.9836      2.00000
    113       1.9861      2.00000
    114       1.9879      2.00000
    115       1.9913      2.00000
    116       2.0538      2.00000
    117       2.1295      2.00000
    118       2.1321      2.00000
    119       2.1324      2.00000
    120       2.1346      2.00000
    121       2.1458      2.00000
    122       2.1482      2.00000
    123       2.1485      2.00000
    124       2.1507      2.00000
    125       2.2857      2.00000
    126       2.4638      2.00000
    127       2.4751      2.00000
    128       2.4769      2.00000
    129       2.4780      2.00000
    130       2.4799      2.00000
    131       2.4811      2.00000
    132       2.4892      2.00000
    133       2.4894      2.00000
    134       2.6502      2.00000
    135       2.6533      2.00000
    136       2.6534      2.00000
    137       2.6565      2.00000
    138       2.7073      2.00000
    139       2.7076      2.00000
    140       2.7365      2.00000
    141       2.7388      2.00000
    142       2.7390      2.00000
    143       2.7412      2.00000
    144       2.8030      2.00000
    145       2.8031      2.00000
    146       3.0214      2.00000
    147       3.0450      2.00000
    148       3.0471      2.00000
    149       3.0471      2.00000
    150       3.0493      2.00000
    151       3.0763      2.00000
    152       3.0763      2.00000
    153       3.1534      2.00000
    154       3.1552      2.00000
    155       3.1552      2.00000
    156       3.1570      2.00000
    157       3.2330      2.00000
    158       3.3619      2.00000
    159       3.3627      2.00000
    160       3.3629      2.00000
    161       3.3635      2.00000
    162       3.3764      2.00000
    163       3.3765      2.00000
    164       3.6584      2.00000
    165       3.6584      2.00000
    166       3.6593      2.00000
    167       3.6593      2.00000
    168       3.9352      2.00000
    169       3.9374      2.00000
    170       3.9374      2.00000
    171       3.9396      2.00000
    172       4.7219      2.00015
    173       4.8408      2.00294
    174       4.8425      2.00305
    175       4.8441      2.00315
    176       4.8456      2.00326
    177       4.9936      2.03868
    178       4.9957      2.03963
    179       4.9964      2.03992
    180       4.9986      2.04091
    181       6.4346     -0.00000
    182       6.4371     -0.00000
    183       6.4371     -0.00000
    184       6.4398     -0.00000
    185       7.5477     -0.00000
    186       7.5478     -0.00000
    187       8.4081     -0.00000
    188       8.4102     -0.00000
    189       8.4102     -0.00000
    190       8.4124     -0.00000
    191       9.2441     -0.00000
    192       9.2464     -0.00000
    193       9.2466     -0.00000
    194       9.2489     -0.00000
    195       9.4954     -0.00000
    196       9.4954     -0.00000
    197      10.2177     -0.00000
    198      10.2178     -0.00000
    199      10.6746     -0.00000
    200      10.6747     -0.00000
    201      11.5301      0.00000
    202      11.5318      0.00000
    203      11.5324      0.00000
    204      11.5337      0.00000
    205      12.1037      0.00000
    206      12.1063      0.00000
    207      12.1080      0.00000
    208      12.1103      0.00000
    209      12.1374      0.00000
    210      12.1452      0.00000
    211      12.1478      0.00000
    212      12.1688      0.00000

 k-point   4 :       0.3333    0.3333    0.0000
  band No.  band energies     occupation 
      1      -3.5579      2.00000
      2      -2.7148      2.00000
      3      -2.7098      2.00000
      4      -1.9941      2.00000
      5      -1.5581      2.00000
      6      -1.5581      2.00000
      7      -1.5095      2.00000
      8      -1.5093      2.00000
      9      -1.3122      2.00000
     10      -1.3104      2.00000
     11      -1.3096      2.00000
     12      -1.3078      2.00000
     13      -1.2271      2.00000
     14      -1.2271      2.00000
     15      -1.1581      2.00000
     16      -1.1579      2.00000
     17      -1.1519      2.00000
     18      -1.0260      2.00000
     19      -1.0231      2.00000
     20      -0.9024      2.00000
     21      -0.9015      2.00000
     22      -0.7786      2.00000
     23      -0.7662      2.00000
     24      -0.7625      2.00000
     25      -0.6819      2.00000
     26      -0.6806      2.00000
     27      -0.6775      2.00000
     28      -0.6761      2.00000
     29      -0.6226      2.00000
     30      -0.6201      2.00000
     31      -0.6108      2.00000
     32      -0.6086      2.00000
     33      -0.6081      2.00000
     34      -0.4204      2.00000
     35      -0.4185      2.00000
     36      -0.4182      2.00000
     37      -0.4165      2.00000
     38      -0.2604      2.00000
     39      -0.2572      2.00000
     40      -0.2239      2.00000
     41      -0.2237      2.00000
     42      -0.2152      2.00000
     43      -0.2137      2.00000
     44      -0.1308      2.00000
     45      -0.1307      2.00000
     46       0.0423      2.00000
     47       0.0423      2.00000
     48       0.1761      2.00000
     49       0.2086      2.00000
     50       0.2106      2.00000
     51       0.2114      2.00000
     52       0.2134      2.00000
     53       0.2457      2.00000
     54       0.2589      2.00000
     55       0.2616      2.00000
     56       0.4483      2.00000
     57       0.4484      2.00000
     58       0.5033      2.00000
     59       0.5053      2.00000
     60       0.5751      2.00000
     61       0.6259      2.00000
     62       0.6289      2.00000
     63       0.6297      2.00000
     64       0.6325      2.00000
     65       0.7268      2.00000
     66       0.7269      2.00000
     67       0.7301      2.00000
     68       0.7306      2.00000
     69       0.7326      2.00000
     70       0.7336      2.00000
     71       0.7349      2.00000
     72       0.7352      2.00000
     73       0.9121      2.00000
     74       0.9121      2.00000
     75       0.9688      2.00000
     76       0.9839      2.00000
     77       0.9839      2.00000
     78       0.9902      2.00000
     79       1.0039      2.00000
     80       1.0434      2.00000
     81       1.0697      2.00000
     82       1.0711      2.00000
     83       1.0715      2.00000
     84       1.0731      2.00000
     85       1.0903      2.00000
     86       1.0955      2.00000
     87       1.1366      2.00000
     88       1.1370      2.00000
     89       1.1633      2.00000
     90       1.1635      2.00000
     91       1.3273      2.00000
     92       1.3315      2.00000
     93       1.3429      2.00000
     94       1.3443      2.00000
     95       1.3456      2.00000
     96       1.3469      2.00000
     97       1.3774      2.00000
     98       1.3784      2.00000
     99       1.4371      2.00000
    100       1.4425      2.00000
    101       1.4919      2.00000
    102       1.5505      2.00000
    103       1.5505      2.00000
    104       1.6145      2.00000
    105       1.6164      2.00000
    106       1.6188      2.00000
    107       1.6207      2.00000
    108       1.6923      2.00000
    109       1.7875      2.00000
    110       1.7875      2.00000
    111       1.8141      2.00000
    112       1.8164      2.00000
    113       1.9012      2.00000
    114       1.9012      2.00000
    115       1.9901      2.00000
    116       1.9903      2.00000
    117       2.0226      2.00000
    118       2.1222      2.00000
    119       2.2865      2.00000
    120       2.3250      2.00000
    121       2.3265      2.00000
    122       2.3823      2.00000
    123       2.3831      2.00000
    124       2.3912      2.00000
    125       2.4050      2.00000
    126       2.4067      2.00000
    127       2.5631      2.00000
    128       2.5665      2.00000
    129       2.5738      2.00000
    130       2.5768      2.00000
    131       2.6651      2.00000
    132       2.6661      2.00000
    133       2.6679      2.00000
    134       2.6693      2.00000
    135       2.6938      2.00000
    136       2.6975      2.00000
    137       2.7006      2.00000
    138       2.7034      2.00000
    139       2.7860      2.00000
    140       2.7894      2.00000
    141       2.8123      2.00000
    142       2.8123      2.00000
    143       2.8896      2.00000
    144       2.9397      2.00000
    145       2.9850      2.00000
    146       2.9850      2.00000
    147       3.0370      2.00000
    148       3.0377      2.00000
    149       3.0378      2.00000
    150       3.0385      2.00000
    151       3.0968      2.00000
    152       3.1042      2.00000
    153       3.1052      2.00000
    154       3.2537      2.00000
    155       3.2537      2.00000
    156       3.2734      2.00000
    157       3.2735      2.00000
    158       3.2837      2.00000
    159       3.2838      2.00000
    160       3.3668      2.00000
    161       3.3684      2.00000
    162       3.3723      2.00000
    163       3.3740      2.00000
    164       3.3742      2.00000
    165       3.3764      2.00000
    166       3.4669      2.00000
    167       3.7850      2.00000
    168       3.7850      2.00000
    169       3.8426      2.00000
    170       3.8430      2.00000
    171       3.8449      2.00000
    172       3.8453      2.00000
    173       3.9380      2.00000
    174       3.9387      2.00000
    175       5.2160      1.81224
    176       5.2176      1.80448
    177       5.8000     -0.00441
    178       5.8009     -0.00433
    179       6.5651     -0.00000
    180       6.5653     -0.00000
    181       6.6611     -0.00000
    182       6.6627     -0.00000
    183       6.6630     -0.00000
    184       6.6647     -0.00000
    185       7.2518     -0.00000
    186       7.2544     -0.00000
    187       7.7695     -0.00000
    188       8.2607     -0.00000
    189       8.2607     -0.00000
    190       8.3780     -0.00000
    191       8.6119     -0.00000
    192       8.6119     -0.00000
    193       9.3440     -0.00000
    194       9.3467     -0.00000
    195       9.4211     -0.00000
    196       9.4211     -0.00000
    197      10.0427     -0.00000
    198      10.0440     -0.00000
    199      10.0442     -0.00000
    200      10.0454     -0.00000
    201      10.1338     -0.00000
    202      10.1383     -0.00000
    203      10.2500     -0.00000
    204      11.0708      0.00000
    205      11.0708      0.00000
    206      11.6673      0.00000
    207      12.1918      0.00000
    208      12.1932      0.00000
    209      12.3609      0.00000
    210      12.6027      0.00000
    211      12.6513      0.00000
    212      12.8319      0.00000

 k-point   5 :       0.0000    0.3333    0.3333
  band No.  band energies     occupation 
      1      -3.5579      2.00000
      2      -2.7123      2.00000
      3      -2.7123      2.00000
      4      -1.9942      2.00000
      5      -1.5584      2.00000
      6      -1.5578      2.00000
      7      -1.5113      2.00000
      8      -1.5076      2.00000
      9      -1.3125      2.00000
     10      -1.3107      2.00000
     11      -1.3092      2.00000
     12      -1.3073      2.00000
     13      -1.2272      2.00000
     14      -1.2272      2.00000
     15      -1.1580      2.00000
     16      -1.1580      2.00000
     17      -1.1519      2.00000
     18      -1.0246      2.00000
     19      -1.0246      2.00000
     20      -0.9019      2.00000
     21      -0.9019      2.00000
     22      -0.7781      2.00000
     23      -0.7647      2.00000
     24      -0.7646      2.00000
     25      -0.6793      2.00000
     26      -0.6793      2.00000
     27      -0.6788      2.00000
     28      -0.6788      2.00000
     29      -0.6212      2.00000
     30      -0.6212      2.00000
     31      -0.6095      2.00000
     32      -0.6095      2.00000
     33      -0.6084      2.00000
     34      -0.4197      2.00000
     35      -0.4195      2.00000
     36      -0.4172      2.00000
     37      -0.4171      2.00000
     38      -0.2590      2.00000
     39      -0.2588      2.00000
     40      -0.2237      2.00000
     41      -0.2237      2.00000
     42      -0.2145      2.00000
     43      -0.2144      2.00000
     44      -0.1308      2.00000
     45      -0.1308      2.00000
     46       0.0401      2.00000
     47       0.0444      2.00000
     48       0.1759      2.00000
     49       0.2105      2.00000
     50       0.2108      2.00000
     51       0.2110      2.00000
     52       0.2116      2.00000
     53       0.2461      2.00000
     54       0.2600      2.00000
     55       0.2601      2.00000
     56       0.4482      2.00000
     57       0.4483      2.00000
     58       0.5043      2.00000
     59       0.5043      2.00000
     60       0.5752      2.00000
     61       0.6267      2.00000
     62       0.6291      2.00000
     63       0.6294      2.00000
     64       0.6319      2.00000
     65       0.7234      2.00000
     66       0.7282      2.00000
     67       0.7296      2.00000
     68       0.7310      2.00000
     69       0.7317      2.00000
     70       0.7345      2.00000
     71       0.7354      2.00000
     72       0.7373      2.00000
     73       0.9095      2.00000
     74       0.9152      2.00000
     75       0.9687      2.00000
     76       0.9836      2.00000
     77       0.9840      2.00000
     78       0.9899      2.00000
     79       1.0040      2.00000
     80       1.0436      2.00000
     81       1.0706      2.00000
     82       1.0713      2.00000
     83       1.0715      2.00000
     84       1.0718      2.00000
     85       1.0927      2.00000
     86       1.0933      2.00000
     87       1.1371      2.00000
     88       1.1372      2.00000
     89       1.1632      2.00000
     90       1.1633      2.00000
     91       1.3292      2.00000
     92       1.3292      2.00000
     93       1.3432      2.00000
     94       1.3442      2.00000
     95       1.3457      2.00000
     96       1.3467      2.00000
     97       1.3778      2.00000
     98       1.3779      2.00000
     99       1.4397      2.00000
    100       1.4399      2.00000
    101       1.4918      2.00000
    102       1.5494      2.00000
    103       1.5514      2.00000
    104       1.6169      2.00000
    105       1.6170      2.00000
    106       1.6183      2.00000
    107       1.6184      2.00000
    108       1.6921      2.00000
    109       1.7862      2.00000
    110       1.7886      2.00000
    111       1.8151      2.00000
    112       1.8152      2.00000
    113       1.9012      2.00000
    114       1.9013      2.00000
    115       1.9902      2.00000
    116       1.9903      2.00000
    117       2.0225      2.00000
    118       2.1222      2.00000
    119       2.2868      2.00000
    120       2.3257      2.00000
    121       2.3258      2.00000
    122       2.3827      2.00000
    123       2.3827      2.00000
    124       2.3911      2.00000
    125       2.4057      2.00000
    126       2.4059      2.00000
    127       2.5650      2.00000
    128       2.5651      2.00000
    129       2.5748      2.00000
    130       2.5750      2.00000
    131       2.6655      2.00000
    132       2.6668      2.00000
    133       2.6675      2.00000
    134       2.6687      2.00000
    135       2.6962      2.00000
    136       2.6963      2.00000
    137       2.7015      2.00000
    138       2.7016      2.00000
    139       2.7876      2.00000
    140       2.7876      2.00000
    141       2.8106      2.00000
    142       2.8142      2.00000
    143       2.8895      2.00000
    144       2.9398      2.00000
    145       2.9846      2.00000
    146       2.9853      2.00000
    147       3.0361      2.00000
    148       3.0374      2.00000
    149       3.0381      2.00000
    150       3.0394      2.00000
    151       3.0968      2.00000
    152       3.1046      2.00000
    153       3.1046      2.00000
    154       3.2535      2.00000
    155       3.2541      2.00000
    156       3.2733      2.00000
    157       3.2734      2.00000
    158       3.2836      2.00000
    159       3.2837      2.00000
    160       3.3681      2.00000
    161       3.3681      2.00000
    162       3.3740      2.00000
    163       3.3740      2.00000
    164       3.3742      2.00000
    165       3.3742      2.00000
    166       3.4669      2.00000
    167       3.7846      2.00000
    168       3.7854      2.00000
    169       3.8436      2.00000
    170       3.8438      2.00000
    171       3.8441      2.00000
    172       3.8443      2.00000
    173       3.9383      2.00000
    174       3.9383      2.00000
    175       5.2167      1.80871
    176       5.2167      1.80864
    177       5.8004     -0.00438
    178       5.8004     -0.00437
    179       6.5651     -0.00000
    180       6.5653     -0.00000
    181       6.6592     -0.00000
    182       6.6623     -0.00000
    183       6.6636     -0.00000
    184       6.6668     -0.00000
    185       7.2530     -0.00000
    186       7.2531     -0.00000
    187       7.7694     -0.00000
    188       8.2607     -0.00000
    189       8.2607     -0.00000
    190       8.3782     -0.00000
    191       8.6119     -0.00000
    192       8.6119     -0.00000
    193       9.3453     -0.00000
    194       9.3454     -0.00000
    195       9.4211     -0.00000
    196       9.4212     -0.00000
    197      10.0413     -0.00000
    198      10.0439     -0.00000
    199      10.0443     -0.00000
    200      10.0468     -0.00000
    201      10.1360     -0.00000
    202      10.1363     -0.00000
    203      10.2500     -0.00000
    204      11.0694      0.00000
    205      11.0722      0.00000
    206      11.6673      0.00000
    207      12.1925      0.00000
    208      12.1926      0.00000
    209      12.5654      0.00000
    210      12.6002      0.00000
    211      12.6494      0.00000
    212      12.8319      0.00000

 k-point   6 :       0.3333    0.3333    0.3333
  band No.  band energies     occupation 
      1      -3.2810      2.00000
      2      -2.5130      2.00000
      3      -2.5096      2.00000
      4      -2.5063      2.00000
      5      -1.9762      2.00000
      6      -1.9735      2.00000
      7      -1.9709      2.00000
      8      -1.8500      2.00000
      9      -1.1269      2.00000
     10      -1.1266      2.00000
     11      -1.1263      2.00000
     12      -1.0689      2.00000
     13      -1.0684      2.00000
     14      -1.0682      2.00000
     15      -0.9947      2.00000
     16      -0.9922      2.00000
     17      -0.9897      2.00000
     18      -0.8273      2.00000
     19      -0.8264      2.00000
     20      -0.8238      2.00000
     21      -0.8238      2.00000
     22      -0.8215      2.00000
     23      -0.8206      2.00000
     24      -0.7330      2.00000
     25      -0.7301      2.00000
     26      -0.7284      2.00000
     27      -0.7264      2.00000
     28      -0.7257      2.00000
     29      -0.7240      2.00000
     30      -0.7235      2.00000
     31      -0.7224      2.00000
     32      -0.7210      2.00000
     33      -0.6607      2.00000
     34      -0.6598      2.00000
     35      -0.6589      2.00000
     36      -0.3341      2.00000
     37      -0.3328      2.00000
     38      -0.3316      2.00000
     39      -0.1569      2.00000
     40      -0.1548      2.00000
     41      -0.1534      2.00000
     42      -0.1534      2.00000
     43      -0.1520      2.00000
     44      -0.1502      2.00000
     45       0.1760      2.00000
     46       0.1780      2.00000
     47       0.1797      2.00000
     48       0.2076      2.00000
     49       0.2093      2.00000
     50       0.2107      2.00000
     51       0.2107      2.00000
     52       0.2119      2.00000
     53       0.2141      2.00000
     54       0.3802      2.00000
     55       0.3823      2.00000
     56       0.3844      2.00000
     57       0.4090      2.00000
     58       0.4093      2.00000
     59       0.4099      2.00000
     60       0.5782      2.00000
     61       0.6001      2.00000
     62       0.6026      2.00000
     63       0.6051      2.00000
     64       0.7300      2.00000
     65       0.7305      2.00000
     66       0.7325      2.00000
     67       0.7327      2.00000
     68       0.7344      2.00000
     69       0.7351      2.00000
     70       0.9265      2.00000
     71       0.9267      2.00000
     72       1.0136      2.00000
     73       1.0137      2.00000
     74       1.0319      2.00000
     75       1.0337      2.00000
     76       1.0358      2.00000
     77       1.1048      2.00000
     78       1.1062      2.00000
     79       1.1072      2.00000
     80       1.1125      2.00000
     81       1.1131      2.00000
     82       1.1151      2.00000
     83       1.1153      2.00000
     84       1.1180      2.00000
     85       1.1183      2.00000
     86       1.1332      2.00000
     87       1.1346      2.00000
     88       1.1356      2.00000
     89       1.1357      2.00000
     90       1.1366      2.00000
     91       1.1378      2.00000
     92       1.1879      2.00000
     93       1.1902      2.00000
     94       1.1921      2.00000
     95       1.1924      2.00000
     96       1.1941      2.00000
     97       1.1951      2.00000
     98       1.2965      2.00000
     99       1.2966      2.00000
    100       1.2967      2.00000
    101       1.4350      2.00000
    102       1.4371      2.00000
    103       1.4390      2.00000
    104       1.5391      2.00000
    105       1.7767      2.00000
    106       1.7801      2.00000
    107       1.7828      2.00000
    108       1.7940      2.00000
    109       1.7945      2.00000
    110       1.7969      2.00000
    111       1.7970      2.00000
    112       1.7997      2.00000
    113       1.7999      2.00000
    114       2.0012      2.00000
    115       2.0020      2.00000
    116       2.0028      2.00000
    117       2.0560      2.00000
    118       2.0594      2.00000
    119       2.0623      2.00000
    120       2.0952      2.00000
    121       2.0975      2.00000
    122       2.1001      2.00000
    123       2.1718      2.00000
    124       2.1720      2.00000
    125       2.1938      2.00000
    126       2.1967      2.00000
    127       2.1994      2.00000
    128       2.2494      2.00000
    129       2.2509      2.00000
    130       2.2523      2.00000
    131       2.2523      2.00000
    132       2.2537      2.00000
    133       2.2552      2.00000
    134       2.5407      2.00000
    135       2.5429      2.00000
    136       2.5450      2.00000
    137       2.5991      2.00000
    138       2.5993      2.00000
    139       2.5993      2.00000
    140       2.8019      2.00000
    141       2.8019      2.00000
    142       2.9833      2.00000
    143       2.9850      2.00000
    144       2.9867      2.00000
    145       3.1915      2.00000
    146       3.1917      2.00000
    147       3.1927      2.00000
    148       3.2018      2.00000
    149       3.2035      2.00000
    150       3.2040      2.00000
    151       3.2041      2.00000
    152       3.2044      2.00000
    153       3.2064      2.00000
    154       3.3437      2.00000
    155       3.3440      2.00000
    156       3.3445      2.00000
    157       3.3545      2.00000
    158       3.3559      2.00000
    159       3.3564      2.00000
    160       3.3564      2.00000
    161       3.3571      2.00000
    162       3.3584      2.00000
    163       3.3941      2.00000
    164       3.3943      2.00000
    165       3.3947      2.00000
    166       3.4922      2.00000
    167       3.4923      2.00000
    168       3.4925      2.00000
    169       4.3058      2.00000
    170       4.3076      2.00000
    171       4.3094      2.00000
    172       5.3982      0.45801
    173       5.3994      0.45000
    174       5.4010      0.43868
    175       5.4010      0.43867
    176       5.4027      0.42765
    177       5.4038      0.41973
    178       5.9931     -0.00003
    179       5.9939     -0.00003
    180       5.9946     -0.00003
    181       6.4648     -0.00000
    182       6.4661     -0.00000
    183       6.4673     -0.00000
    184       7.7014     -0.00000
    185       7.7037     -0.00000
    186       7.7048     -0.00000
    187       7.7048     -0.00000
    188       7.7059     -0.00000
    189       7.7083     -0.00000
    190       8.2140     -0.00000
    191       8.2142     -0.00000
    192       8.2142     -0.00000
    193       8.7761     -0.00000
    194       8.7781     -0.00000
    195       8.7801     -0.00000
    196       9.4002     -0.00000
    197       9.4017     -0.00000
    198       9.4031     -0.00000
    199      10.3620     -0.00000
    200      10.3622     -0.00000
    201      10.3650     -0.00000
    202      10.3650     -0.00000
    203      10.3679     -0.00000
    204      10.3681     -0.00000
    205      11.6640      0.00000
    206      11.6646      0.00000
    207      11.6667      0.00000
    208      11.6667      0.00000
    209      11.6688      0.00000
    210      11.6695      0.00000
    211      11.8711      0.00000
    212      11.8716      0.00000


--------------------------------------------------------------------------------------------------------


 soft charge-density along one line, spin component           1
         0         1         2         3         4         5         6         7         8         9
 total charge-density along one line
 
 pseudopotential strength for first ion, spin component:           1
 -9.923   0.000  -0.000   0.000  -0.000  -0.086  -0.000   0.000
  0.000  -9.923   0.000  -0.000  -0.000  -0.000  -0.086  -0.000
 -0.000   0.000  -9.908   0.000  -0.000   0.000  -0.000  -0.088
  0.000  -0.000   0.000  -9.923   0.000  -0.000   0.000  -0.000
 -0.000  -0.000  -0.000   0.000  -9.908   0.000   0.000   0.000
 -0.086  -0.000   0.000  -0.000   0.000   0.282   0.000  -0.000
 -0.000  -0.086  -0.000   0.000   0.000   0.000   0.282   0.000
  0.000  -0.000  -0.088  -0.000   0.000  -0.000   0.000   0.282
 -0.000   0.000  -0.000  -0.086  -0.000   0.000  -0.000   0.000
  0.000   0.000   0.000  -0.000  -0.088  -0.000  -0.000  -0.000
  0.000  -0.000   0.000  -0.000  -0.000  -0.000   0.000  -0.000
 -0.000   0.000  -0.000   0.000   0.000   0.000  -0.000   0.000
 -0.000   0.000  -0.000  -0.000  -0.000   0.000  -0.000   0.000
 -0.000   0.000   0.000  -0.000  -0.000  -0.000  -0.000  -0.000
  0.000  -0.000   0.000   0.000  -0.000  -0.000  -0.000  -0.000
  0.000  -0.000   0.000   0.000   0.000  -0.000   0.000  -0.000
  0.000  -0.000  -0.000   0.000   0.000  -0.000   0.000   0.000
 -0.000   0.000  -0.000  -0.000   0.000   0.000  -0.000   0.000
 total augmentation occupancy for first ion, spin component:           1
  1.900  -0.000  -0.007  -0.001   0.000  -0.036   0.001   0.003   0.001   0.000   0.011   0.002  -0.000   0.000   0.000  -0.000
 -0.000   1.908   0.003  -0.001  -0.005   0.001  -0.044  -0.002   0.001   0.003   0.011   0.003  -0.000   0.000  -0.000   0.000
 -0.007   0.003   1.958   0.003  -0.002   0.003  -0.002  -0.090  -0.002   0.002   0.011   0.003  -0.000   0.000   0.000  -0.000
 -0.001  -0.001   0.003   1.916   0.005   0.001   0.001  -0.002  -0.052  -0.003   0.011   0.003   0.000  -0.000  -0.000  -0.000
  0.000  -0.005  -0.002   0.005   1.951   0.000   0.003   0.002  -0.003  -0.084   0.007   0.002  -0.000   0.000   0.000  -0.000
 -0.036   0.001   0.003   0.001   0.000   0.196  -0.001   0.001  -0.001  -0.000  -0.005   0.001   0.000  -0.000  -0.000   0.000
  0.001  -0.044  -0.002   0.001   0.003  -0.001   0.202   0.000  -0.001  -0.000  -0.007  -0.000   0.000   0.000   0.000  -0.000
  0.003  -0.002  -0.090  -0.002   0.002   0.001   0.000   0.161   0.001  -0.001  -0.008  -0.001   0.000  -0.000  -0.000   0.000
  0.001   0.001  -0.002  -0.052  -0.003  -0.001  -0.001   0.001   0.208   0.001  -0.008  -0.002  -0.000   0.000   0.000   0.000
  0.000   0.003   0.002  -0.003  -0.084  -0.000  -0.000  -0.001   0.001   0.159  -0.005  -0.001   0.000  -0.000  -0.000   0.000
  0.011   0.011   0.011   0.011   0.007  -0.005  -0.007  -0.008  -0.008  -0.005   1.065  -0.370  -0.000   0.000   0.000   0.000
  0.002   0.003   0.003   0.003   0.002   0.001  -0.000  -0.001  -0.002  -0.001  -0.370   0.239  -0.000   0.000   0.000  -0.000
 -0.000  -0.000  -0.000   0.000  -0.000   0.000   0.000   0.000  -0.000   0.000  -0.000  -0.000   0.154   0.002   0.003  -0.011
  0.000   0.000   0.000  -0.000   0.000  -0.000   0.000  -0.000   0.000  -0.000   0.000   0.000   0.002   0.153   0.002  -0.000
  0.000  -0.000   0.000  -0.000   0.000  -0.000   0.000  -0.000   0.000  -0.000   0.000   0.000   0.003   0.002   0.154  -0.000
 -0.000   0.000  -0.000  -0.000  -0.000   0.000  -0.000   0.000   0.000   0.000   0.000  -0.000  -0.011  -0.000  -0.000   0.001
 -0.000   0.000   0.000  -0.000  -0.000  -0.000   0.000   0.000   0.000   0.000  -0.000   0.000  -0.000  -0.011  -0.000   0.000
  0.000   0.000   0.000   0.000  -0.000  -0.000  -0.000   0.000  -0.000   0.000  -0.000   0.000  -0.000  -0.000  -0.011   0.000


------------------------ aborting loop because EDIFF is reached ----------------------------------------




--------------------------------------------------------------------------------------------------------


    CHARGE:  VPU time    5.43: CPU time    5.43
    FORLOC:  VPU time    0.14: CPU time    0.14
    FORNL :  VPU time   26.05: CPU time   26.06
    STRESS:  VPU time   46.37: CPU time   46.39
    FORCOR:  VPU time    0.78: CPU time    0.78
    FORHAR:  VPU time    0.28: CPU time    0.28
    MIXING:  VPU time    0.01: CPU time    0.02


--------------------------------------------------------------------------------------------------------



  FREE ENERGIE OF THE ION-ELECTRON SYSTEM (eV)
  ---------------------------------------------------
  free  energy   TOTEN  =      -104.255315 eV

  energy  without entropy=     -104.202437  energy(sigma->0) =     -104.237689
 

  FORCE on cell =-STRESS in cart. coord.  units (eV/reduce length):
  Direction    X        Y        Z        XY       YZ       ZX
  --------------------------------------------------------------------------------------
  Alpha Z   3408.89   3408.89   3408.89
  Ewald   -10322.23 -10322.09 -10322.09     -0.00     -0.00     -0.00
  Hartree   1249.32   1249.42   1249.42     -0.00     -0.00     -0.00
  E(xc)    -1589.32  -1589.32  -1589.32     -0.00     -0.00     -0.00
  Local     2582.62   2582.33   2582.33      0.00      0.00      0.00
  n-local  -1584.58  -1589.97  -1579.17      7.01      6.67      6.34
  augment   1374.01   1373.99   1373.99     -0.00     -0.00     -0.00
  Kinetic   4899.13   4894.03   4904.21      3.22      3.61      4.01
  -------------------------------------------------------------------------------------
  Total       17.83     17.79     17.79      0.00      0.00      0.00
  in kB       50.78     50.65     50.65      0.00      0.00      0.00
  external pressure =       50.70 kB  Pullay stress =        0.00 kB


 VOLUME and BASIS-vectors are now :
 -----------------------------------------------------------------------------
  energy-cutoff  :      600.00
  volume of cell :      562.58
      direct lattice vectors                 reciprocal lattice vectors
     8.255200780  0.000000000  0.000000000     0.121135758 -0.000000002 -0.000000002
     0.000000150  8.255200780  0.000000000     0.000000000  0.121135758 -0.000000002
     0.000000150  0.000000150  8.255200780     0.000000000  0.000000000  0.121135758

  length of vectors
     8.255200780  8.255200780  8.255200780     0.121135758  0.121135758  0.121135758


 FORCES acting on ions
    electron-ion (+dipol)            ewald-force                    non-local-force                 convergence-correction
 -----------------------------------------------------------------------------------------------
   -.349E-01 -.161E+00 0.151E-07   0.358E-01 0.161E+00 -.165E-07   -.617E-03 0.595E-03 0.000E+00   0.200E-03 -.754E-03 -.240E-09
   -.102E+01 -.192E+01 0.105E-07   0.103E+01 0.194E+01 -.340E-09   0.585E-02 0.225E-02 0.000E+00   0.852E-04 0.804E-03 0.349E-09
   -.102E+01 0.321E-07 0.192E+01   0.103E+01 -.349E-07 -.194E+01   0.585E-02 -.409E-10 -.225E-02   0.850E-04 -.263E-09 -.804E-03
   -.349E-01 0.161E+00 -.821E-08   0.358E-01 -.161E+00 0.910E-08   -.617E-03 -.595E-03 0.000E+00   0.200E-03 0.754E-03 0.134E-09
   0.125E+01 -.985E-02 0.985E-02   -.127E+01 0.966E-02 -.966E-02   0.638E-02 -.685E-04 0.685E-04   0.330E-03 0.380E-03 -.380E-03
   0.663E+00 -.269E-08 -.436E-07   -.672E+00 0.179E-08 0.484E-07   0.568E-02 -.124E-18 0.000E+00   0.179E-02 -.487E-09 0.925E-09
   -.286E-01 0.162E+00 -.859E-08   0.295E-01 -.161E+00 0.949E-08   -.569E-03 -.479E-03 0.000E+00   0.759E-04 0.623E-03 0.137E-09
   -.102E+01 -.243E-07 -.192E+01   0.103E+01 0.349E-07 0.194E+01   0.585E-02 0.409E-10 0.225E-02   0.850E-04 0.364E-09 0.804E-03
   -.102E+01 0.192E+01 -.276E-08   0.103E+01 -.194E+01 0.278E-09   0.585E-02 -.225E-02 0.000E+00   0.852E-04 -.804E-03 -.248E-09
   -.349E-01 -.530E-08 0.161E+00   0.358E-01 0.617E-08 -.161E+00   -.617E-03 -.108E-10 -.595E-03   0.200E-03 0.148E-09 0.753E-03
   0.125E+01 -.985E-02 -.985E-02   -.127E+01 0.966E-02 0.966E-02   0.638E-02 -.685E-04 -.685E-04   0.330E-03 0.380E-03 0.380E-03
   0.796E+01 -.123E-06 -.641E-07   -.804E+01 0.139E-06 0.139E-06   -.699E-01 0.122E-18 0.542E-19   0.178E-01 -.145E-08 -.145E-08
   0.125E+01 0.985E-02 0.985E-02   -.127E+01 -.966E-02 -.966E-02   0.638E-02 0.685E-04 0.685E-04   0.330E-03 -.380E-03 -.380E-03
   0.274E+00 -.121E-07 -.121E-07   -.277E+00 0.129E-07 0.129E-07   0.673E-04 -.733E-20 0.000E+00   0.155E-02 0.435E-09 0.435E-09
   -.100E+01 0.195E+01 -.293E-08   0.102E+01 -.197E+01 0.309E-09   0.647E-02 -.278E-02 0.000E+00   -.434E-03 -.377E-03 -.240E-09
   -.100E+01 -.247E-07 -.195E+01   0.102E+01 0.355E-07 0.197E+01   0.647E-02 0.506E-10 0.278E-02   -.434E-03 0.433E-09 0.377E-03
   -.286E-01 -.162E+00 0.148E-07   0.295E-01 0.161E+00 -.162E-07   -.569E-03 0.479E-03 0.136E-19   0.759E-04 -.623E-03 -.296E-09
   -.708E+00 0.267E-02 -.267E-02   0.713E+00 -.289E-02 0.289E-02   -.284E-02 0.104E-03 -.104E-03   -.187E-02 0.100E-03 -.100E-03
   -.535E+00 0.249E-08 0.290E-07   0.528E+00 -.178E-08 -.306E-07   0.627E-02 -.947E-20 -.542E-19   -.371E-02 0.529E-09 -.797E-09
   -.349E-01 0.122E-07 -.161E+00   0.358E-01 -.136E-07 0.161E+00   -.617E-03 0.108E-10 0.595E-03   0.200E-03 -.253E-09 -.753E-03
   0.125E+01 0.985E-02 -.985E-02   -.127E+01 -.966E-02 0.966E-02   0.638E-02 0.685E-04 -.685E-04   0.330E-03 -.380E-03 0.380E-03
   0.663E+00 -.436E-07 -.268E-08   -.672E+00 0.484E-07 0.179E-08   0.568E-02 0.605E-20 0.000E+00   0.179E-02 0.925E-09 -.487E-09
   -.100E+01 0.325E-07 0.195E+01   0.102E+01 -.355E-07 -.197E+01   0.647E-02 -.506E-10 -.278E-02   -.434E-03 -.247E-09 -.377E-03
   -.100E+01 -.195E+01 0.107E-07   0.102E+01 0.197E+01 -.309E-09   0.647E-02 0.278E-02 0.136E-19   -.434E-03 0.377E-03 0.426E-09
   -.286E-01 0.119E-07 -.162E+00   0.295E-01 -.133E-07 0.161E+00   -.569E-03 0.870E-11 0.479E-03   0.759E-04 -.308E-09 -.623E-03
   -.708E+00 0.267E-02 0.267E-02   0.713E+00 -.289E-02 -.289E-02   -.284E-02 0.104E-03 0.104E-03   -.187E-02 0.100E-03 0.100E-03
   -.210E+01 0.591E-08 -.523E-07   0.212E+01 -.238E-08 -.238E-08   -.131E-01 0.526E-21 0.000E+00   0.944E-03 0.105E-08 0.105E-08
   -.708E+00 -.267E-02 -.267E-02   0.713E+00 0.289E-02 0.289E-02   -.284E-02 -.104E-03 -.104E-03   -.187E-02 -.100E-03 -.100E-03
   -.254E+00 0.108E-07 0.108E-07   0.259E+00 -.113E-07 -.113E-07   -.948E-03 -.624E-19 0.000E+00   -.141E-02 -.468E-09 -.467E-09
   -.286E-01 -.566E-08 0.162E+00   0.295E-01 0.656E-08 -.161E+00   -.569E-03 -.870E-11 -.479E-03   0.759E-04 0.148E-09 0.623E-03
   -.708E+00 -.267E-02 0.267E-02   0.713E+00 0.289E-02 -.289E-02   -.284E-02 -.104E-03 0.104E-03   -.187E-02 -.100E-03 0.100E-03
   -.535E+00 0.289E-07 0.250E-08   0.528E+00 -.306E-07 -.178E-08   0.627E-02 0.112E-19 0.136E-19   -.371E-02 -.797E-09 0.529E-09
 -----------------------------------------------------------------------------------------------
   -.810E-02 -.410E-11 0.160E-10   0.391E-12 -.183E-12 -.731E-13   -.128E-02 0.458E-18 0.285E-18   0.856E-02 -.837E-10 -.847E-10
 
 
 POSITION                                       TOTAL-FORCE (eV/Angst)
 -----------------------------------------------------------------------------------
      6.19140      6.19140      4.12760         0.000431     -0.000792      0.000000
      6.19140      6.19140      0.00000         0.019304      0.022300      0.000000
      6.19140      0.00000      2.06380         0.019304     -0.000000     -0.022300
      6.19140      2.06380      4.12760         0.000431      0.000792      0.000000
      0.00000      6.19140      2.06380        -0.007204      0.000124     -0.000124
      0.00000      0.00000      4.12760        -0.001803      0.000000      0.000000
      2.06380      6.19140      4.12760         0.000417      0.000722     -0.000000
      6.19140      0.00000      6.19140         0.019304      0.000000      0.022300
      6.19140      2.06380      0.00000         0.019304     -0.022300      0.000000
      6.19140      4.12760      2.06380         0.000431      0.000000      0.000792
      0.00000      6.19140      6.19140        -0.007204      0.000124      0.000124
      0.02000      0.00000      0.00000        -0.131575      0.000000     -0.000000
      0.00000      2.06380      2.06380        -0.007204     -0.000124     -0.000124
      0.00000      4.12760      4.12760        -0.001991     -0.000000      0.000000
      2.06380      6.19140      0.00000         0.020295     -0.023850     -0.000000
      2.06380      0.00000      2.06380         0.020295      0.000000      0.023850
      2.06380      2.06380      4.12760         0.000417     -0.000722      0.000000
      4.12760      6.19140      2.06380         0.000451     -0.000021      0.000021
      4.12760      0.00000      4.12760        -0.003964      0.000000     -0.000000
      6.19140      4.12760      6.19140         0.000431     -0.000000     -0.000792
      0.00000      2.06380      6.19140        -0.007204     -0.000124      0.000124
      0.00000      4.12760      0.00000        -0.001803      0.000000      0.000000
      2.06380      0.00000      6.19140         0.020295     -0.000000     -0.023850
      2.06380      2.06380      0.00000         0.020295      0.023850     -0.000000
      2.06380      4.12760      2.06380         0.000417     -0.000000     -0.000722
      4.12760      6.19140      6.19140         0.000451     -0.000021     -0.000021
      4.12760      0.00000      0.00000         0.007369     -0.000000      0.000000
      4.12760      2.06380      2.06380         0.000451      0.000021      0.000021
      4.12760      4.12760      4.12760         0.002953     -0.000000      0.000000
      2.06380      4.12760      6.19140         0.000417      0.000000      0.000722
      4.12760      2.06380      6.19140         0.000451      0.000021     -0.000021
      4.12760      4.12760      0.00000        -0.003964      0.000000      0.000000
 -----------------------------------------------------------------------------------
    total drift:                               -0.000825     -0.000000     -0.000000


--------------------------------------------------------------------------------------------------------



 mean value of Nose-termostat <S>:     1.000 mean value of <T> :     0.000
 mean temperature <T/S>/<1/S>  :     0.000

     LOOP+:  VPU time  522.22: CPU time  522.82

 ----------------------------------------------------------------------------- 
|                                                                             |
|           W    W    AA    RRRRR   N    N  II  N    N   GGGG   !!!           |
|           W    W   A  A   R    R  NN   N  II  NN   N  G    G  !!!           |
|           W    W  A    A  R    R  N N  N  II  N N  N  G       !!!           |
|           W WW W  AAAAAA  RRRRR   N  N N  II  N  N N  G  GGG   !            |
|           WW  WW  A    A  R   R   N   NN  II  N   NN  G    G                |
|           W    W  A    A  R    R  N    N  II  N    N   GGGG   !!!           |
|                                                                             |
|      The partial DOS and the PROCAR file are not evaluated for NPAR/=1      |
|      please rerun with NPAR=1                                               |
|                                                                             |
 ----------------------------------------------------------------------------- 

  
  
 General timing and accounting informations for this job:
 ========================================================
  
                  Total CPU time used (sec):      540.832
                            User time (sec):      515.829
                          System time (sec):       25.003
                         Elapsed time (sec):      541.476
  
                   Maximum memory used (kb):      848648.
                   Average memory used (kb):           0.
  
                          Minor page faults:       146730
                          Major page faults:            0
                 Voluntary context switches:          831
