       N       E                     dE             d eps       ncg     rms          rms(c)
DAV:   1     0.428668352248E+04    0.42867E+04   -0.18374E+05  1696   0.188E+03
DAV:   2     0.135120760739E+03   -0.41516E+04   -0.39808E+04  1696   0.531E+02
DAV:   3    -0.104252621392E+03   -0.23937E+03   -0.22050E+03  1872   0.135E+02
DAV:   4    -0.112034886215E+03   -0.77823E+01   -0.76736E+01  1824   0.235E+01
DAV:   5    -0.112190947890E+03   -0.15606E+00   -0.15562E+00  1848   0.281E+00    0.162E+01
DAV:   6    -0.104897493682E+03    0.72935E+01   -0.18807E+01  1796   0.154E+01    0.448E+00
DAV:   7    -0.104353089512E+03    0.54440E+00   -0.15161E+00  1896   0.373E+00    0.170E+00
DAV:   8    -0.104256491631E+03    0.96598E-01   -0.69974E-02  1740   0.956E-01    0.157E-01
DAV:   9    -0.104256584449E+03   -0.92818E-04   -0.65399E-03  1896   0.261E-01    0.887E-02
DAV:  10    -0.104256606764E+03   -0.22315E-04   -0.66086E-04  1764   0.756E-02    0.863E-03
DAV:  11    -0.104256620816E+03   -0.14052E-04   -0.11035E-05  1032   0.952E-03    0.202E-03
DAV:  12    -0.104256617448E+03    0.33680E-05   -0.16386E-06   920   0.469E-03
   1 F= -.10425662E+03 E0= -.10423899E+03  d E =-.104257E+03
