 running on    8 nodes
 distr:  one band on    1 nodes,    8 groups
 vasp.4.6.28 25Jul05 complex 
 POSCAR found :  1 types and   32 ions

 ----------------------------------------------------------------------------- 
|                                                                             |
|  ADVICE TO THIS USER RUNNING 'VASP/VAMP'   (HEAR YOUR MASTER'S VOICE ...):  |
|                                                                             |
|      You have a (more or less) 'large supercell' and for larger cells       |
|      it might be more efficient to use real space projection operators      |
|      So try LREAL= Auto  in the INCAR   file.                               |
|      Mind: If you want to do an extremely accurate calculations keep the    |
|      reciprocal projection scheme          (i.e. LREAL=.FALSE.)             |
|                                                                             |
 ----------------------------------------------------------------------------- 

 LDA part: xc-table for Pade appr. of Perdew
 generate k-points for:   7   7   7
 POSCAR, INCAR and KPOINTS ok, starting setup
 FFT: planning ...           1
 reading WAVECAR
 WARNING: random wavefunctions but no delay for mixing, default for NELMDL
 entering main loop
       N       E                     dE             d eps       ncg     rms          rms(c)
DAV:   1     0.319330146384E+04    0.31933E+04   -0.14627E+05  8640   0.240E+03
DAV:   2     0.291455183017E+03   -0.29018E+04   -0.27854E+04  8640   0.533E+02
DAV:   3    -0.123422965462E+03   -0.41488E+03   -0.37318E+03  8640   0.207E+02
DAV:   4    -0.145183038461E+03   -0.21760E+02   -0.21298E+02  9248   0.575E+01
DAV:   5    -0.145353975231E+03   -0.17094E+00   -0.17065E+00  9240   0.521E+00    0.389E+01
DAV:   6    -0.130006483413E+03    0.15347E+02   -0.27809E+02  9304   0.937E+01    0.195E+01
DAV:   7    -0.118763288029E+03    0.11243E+02   -0.50705E+01  9616   0.405E+01    0.258E+00
DAV:   8    -0.118584986840E+03    0.17830E+00   -0.78208E-01  9032   0.318E+00    0.225E+00
DAV:   9    -0.118488270070E+03    0.96717E-01   -0.31093E-01  9168   0.310E+00    0.150E-01
DAV:  10    -0.118488787705E+03   -0.51763E-03   -0.89975E-03  9064   0.395E-01    0.299E-02
DAV:  11    -0.118488757169E+03    0.30536E-04   -0.93971E-05  9184   0.411E-02    0.794E-03
DAV:  12    -0.118488789959E+03   -0.32790E-04   -0.88372E-07  9408   0.413E-03    0.142E-03
DAV:  13    -0.118488796741E+03   -0.67822E-05   -0.49804E-08  7672   0.964E-04    0.329E-04
DAV:  14    -0.118488796440E+03    0.30103E-06   -0.19757E-08  5104   0.733E-04    0.783E-05
DAV:  15    -0.118488796235E+03    0.20423E-06   -0.17660E-09  4800   0.249E-04    0.627E-05
DAV:  16    -0.118488796203E+03    0.32436E-07   -0.66024E-10  4800   0.141E-04    0.381E-05
DAV:  17    -0.118488796212E+03   -0.89931E-08   -0.72822E-11  4800   0.353E-05
   1 F= -.11848880E+03 E0= -.11848826E+03  d E =-.107971E-02
