  32  32   0   0
  0.1275737E+02  0.7418288E-09  0.7418288E-09  0.7418288E-09  0.5000000E-15
  1.000000000000000E-004
  CAR 
 unknown system                          
     13.72788139     -6.54254300  301      3.15521878      1.00000000
     -6.543  0.0000E+00  0.0000E+00
     -6.475  0.0000E+00  0.0000E+00
     -6.407  0.0000E+00  0.0000E+00
     -6.340  0.0000E+00  0.0000E+00
     -6.272  0.0000E+00  0.0000E+00
     -6.205  0.0000E+00  0.0000E+00
     -6.137  0.0000E+00  0.0000E+00
     -6.070  0.0000E+00  0.0000E+00
     -6.002  0.0000E+00  0.0000E+00
     -5.934  0.0000E+00  0.0000E+00
     -5.867  0.0000E+00  0.0000E+00
     -5.799  0.0000E+00  0.0000E+00
     -5.732  0.0000E+00  0.0000E+00
     -5.664  0.5159E-10  0.3486E-11
     -5.597  0.8628E-01  0.5829E-02
     -5.529  0.5180E+00  0.4083E-01
     -5.461  0.1043E+01  0.1113E+00
     -5.394  0.7670E+00  0.1632E+00
     -5.326  0.1761E+01  0.2822E+00
     -5.259  0.2728E+01  0.4665E+00
     -5.191  0.8622E-01  0.4723E+00
     -5.124  0.1036E+01  0.5423E+00
     -5.056  0.2616E+01  0.7190E+00
     -4.988  0.2534E+01  0.8903E+00
     -4.921  0.2150E+01  0.1036E+01
     -4.853  0.2171E+01  0.1182E+01
     -4.786  0.4142E+01  0.1464E+01
     -4.718  0.1904E-02  0.1464E+01
     -4.651  0.1391E+01  0.1558E+01
     -4.583  0.5650E+01  0.1939E+01
     -4.516  0.2787E+01  0.2128E+01
     -4.448  0.2072E+01  0.2268E+01
     -4.380  0.4340E+01  0.2562E+01
     -4.313  0.1873E+01  0.2688E+01
     -4.245  0.2039E+01  0.2826E+01
     -4.178  0.2589E+01  0.3003E+01
     -4.110  0.6365E+01  0.3433E+01
     -4.043  0.2610E+01  0.3609E+01
     -3.975  0.6108E+01  0.4022E+01
     -3.907  0.4237E+01  0.4309E+01
     -3.840  0.7276E-01  0.4314E+01
     -3.772  0.4541E+01  0.4621E+01
     -3.705  0.4700E+01  0.4938E+01
     -3.637  0.4703E+01  0.5257E+01
     -3.570  0.3019E+01  0.5461E+01
     -3.502  0.7272E+01  0.5952E+01
     -3.434  0.1206E-01  0.5954E+01
     -3.367  0.7409E+01  0.6455E+01
     -3.299  0.7320E+01  0.6949E+01
     -3.232  0.2093E+01  0.7091E+01
     -3.164  0.7415E+01  0.7592E+01
     -3.097  0.4740E+01  0.7913E+01
     -3.029  0.6891E+00  0.7959E+01
     -2.961  0.8679E+01  0.8546E+01
     -2.894  0.4495E+01  0.8858E+01
     -2.826  0.4524E+01  0.9164E+01
     -2.759  0.1160E+02  0.9947E+01
     -2.691  0.5148E+01  0.1030E+02
     -2.624  0.5294E+01  0.1065E+02
     -2.556  0.5091E+01  0.1100E+02
     -2.488  0.8246E+01  0.1156E+02
     -2.421  0.3165E+01  0.1178E+02
     -2.353  0.9739E+01  0.1243E+02
     -2.286  0.7179E+01  0.1292E+02
     -2.218  0.1147E+02  0.1370E+02
     -2.151  0.1070E+02  0.1442E+02
     -2.083  0.4487E+01  0.1472E+02
     -2.015  0.9803E+01  0.1539E+02
     -1.948  0.9082E+01  0.1600E+02
     -1.880  0.1001E+02  0.1668E+02
     -1.813  0.1444E+02  0.1766E+02
     -1.745  0.1001E+02  0.1833E+02
     -1.678  0.1645E+02  0.1944E+02
     -1.610  0.1103E+02  0.2019E+02
     -1.543  0.2459E+02  0.2185E+02
     -1.475  0.2020E+02  0.2323E+02
     -1.407  0.3573E+02  0.2564E+02
     -1.340  0.2046E+02  0.2704E+02
     -1.272  0.2621E+02  0.2882E+02
     -1.205  0.4704E+02  0.3199E+02
     -1.137  0.4386E+02  0.3496E+02
     -1.070  0.3614E+02  0.3741E+02
     -1.002  0.4376E+02  0.4039E+02
     -0.934  0.4048E+02  0.4312E+02
     -0.867  0.5141E+02  0.4660E+02
     -0.799  0.6856E+02  0.5123E+02
     -0.732  0.7408E+02  0.5625E+02
     -0.664  0.6829E+02  0.6087E+02
     -0.597  0.9603E+02  0.6736E+02
     -0.529  0.7718E+02  0.7258E+02
     -0.461  0.8538E+02  0.7836E+02
     -0.394  0.6295E+02  0.8262E+02
     -0.326  0.8050E+02  0.8807E+02
     -0.259  0.7761E+02  0.9332E+02
     -0.191  0.6845E+02  0.9795E+02
     -0.124  0.7061E+02  0.1027E+03
     -0.056  0.9583E+02  0.1092E+03
      0.012  0.1062E+03  0.1164E+03
      0.079  0.9548E+02  0.1228E+03
      0.147  0.1311E+03  0.1317E+03
      0.214  0.1068E+03  0.1389E+03
      0.282  0.1273E+03  0.1476E+03
      0.349  0.1469E+03  0.1575E+03
      0.417  0.1621E+03  0.1685E+03
      0.485  0.1729E+03  0.1801E+03
      0.552  0.1345E+03  0.1893E+03
      0.620  0.1094E+03  0.1967E+03
      0.687  0.1076E+03  0.2039E+03
      0.755  0.8942E+02  0.2100E+03
      0.822  0.9432E+02  0.2164E+03
      0.890  0.1080E+03  0.2237E+03
      0.958  0.1273E+03  0.2323E+03
      1.025  0.1485E+03  0.2424E+03
      1.093  0.1373E+03  0.2517E+03
      1.160  0.1241E+03  0.2601E+03
      1.228  0.1061E+03  0.2672E+03
      1.295  0.1149E+03  0.2750E+03
      1.363  0.1143E+03  0.2827E+03
      1.430  0.1474E+03  0.2927E+03
      1.498  0.1388E+03  0.3021E+03
      1.566  0.2431E+03  0.3186E+03
      1.633  0.1670E+03  0.3299E+03
      1.701  0.6628E+02  0.3343E+03
      1.768  0.1567E+02  0.3354E+03
      1.836  0.2724E+02  0.3372E+03
      1.903  0.5026E+01  0.3376E+03
      1.971  0.1296E+02  0.3385E+03
      2.039  0.1222E+02  0.3393E+03
      2.106  0.1976E+02  0.3406E+03
      2.174  0.1103E+02  0.3414E+03
      2.241  0.9454E+01  0.3420E+03
      2.309  0.1264E+02  0.3429E+03
      2.376  0.9847E+01  0.3435E+03
      2.444  0.1634E+02  0.3446E+03
      2.512  0.1167E+02  0.3454E+03
      2.579  0.6761E+01  0.3459E+03
      2.647  0.1031E+02  0.3466E+03
      2.714  0.4455E+01  0.3469E+03
      2.782  0.1216E+02  0.3477E+03
      2.849  0.2696E+02  0.3495E+03
      2.917  0.7059E+01  0.3500E+03
      2.985  0.9972E+01  0.3507E+03
      3.052  0.8020E+01  0.3512E+03
      3.120  0.5962E+00  0.3513E+03
      3.187  0.1336E+02  0.3522E+03
      3.255  0.7300E+01  0.3527E+03
      3.322  0.8274E+01  0.3532E+03
      3.390  0.1863E+02  0.3545E+03
      3.458  0.6868E+01  0.3550E+03
      3.525  0.9902E+01  0.3556E+03
      3.593  0.1087E+02  0.3564E+03
      3.660  0.1430E+02  0.3573E+03
      3.728  0.4917E+01  0.3577E+03
      3.795  0.5431E+01  0.3580E+03
      3.863  0.1057E+02  0.3587E+03
      3.931  0.1821E+01  0.3589E+03
      3.998  0.7894E+01  0.3594E+03
      4.066  0.1487E+02  0.3604E+03
      4.133  0.1962E+02  0.3617E+03
      4.201  0.3766E+01  0.3620E+03
      4.268  0.2559E+01  0.3622E+03
      4.336  0.1509E+02  0.3632E+03
      4.403  0.7809E+01  0.3637E+03
      4.471  0.2372E+01  0.3639E+03
      4.539  0.1033E+02  0.3646E+03
      4.606  0.9420E+01  0.3652E+03
      4.674  0.5633E+01  0.3656E+03
      4.741  0.7992E+01  0.3661E+03
      4.809  0.1097E+02  0.3669E+03
      4.876  0.1058E+02  0.3676E+03
      4.944  0.3947E+01  0.3678E+03
      5.012  0.1536E+02  0.3689E+03
      5.079  0.8832E+01  0.3695E+03
      5.147  0.4359E+01  0.3698E+03
      5.214  0.4075E+01  0.3701E+03
      5.282  0.7045E+01  0.3705E+03
      5.349  0.1397E+02  0.3715E+03
      5.417  0.6032E+01  0.3719E+03
      5.485  0.3275E+01  0.3721E+03
      5.552  0.9049E+01  0.3727E+03
      5.620  0.3883E+01  0.3730E+03
      5.687  0.9023E+01  0.3736E+03
      5.755  0.1131E+02  0.3744E+03
      5.822  0.7629E+01  0.3749E+03
      5.890  0.1020E+01  0.3749E+03
      5.958  0.6063E+01  0.3753E+03
      6.025  0.7149E+01  0.3758E+03
      6.093  0.7481E+01  0.3763E+03
      6.160  0.4830E+01  0.3767E+03
      6.228  0.9583E+01  0.3773E+03
      6.295  0.2156E+01  0.3775E+03
      6.363  0.4467E+00  0.3775E+03
      6.431  0.6928E+01  0.3780E+03
      6.498  0.7123E+01  0.3784E+03
      6.566  0.1139E+02  0.3792E+03
      6.633  0.4461E+01  0.3795E+03
      6.701  0.4278E+01  0.3798E+03
      6.768  0.1478E+02  0.3808E+03
      6.836  0.1497E+02  0.3818E+03
      6.904  0.6244E+01  0.3822E+03
      6.971  0.3999E+01  0.3825E+03
      7.039  0.1023E+02  0.3832E+03
      7.106  0.8467E+01  0.3838E+03
      7.174  0.1361E+02  0.3847E+03
      7.241  0.7103E+01  0.3852E+03
      7.309  0.1072E+02  0.3859E+03
      7.376  0.6777E+01  0.3864E+03
      7.444  0.1037E+02  0.3871E+03
      7.512  0.6906E+01  0.3875E+03
      7.579  0.1393E+02  0.3885E+03
      7.647  0.7793E+01  0.3890E+03
      7.714  0.1380E+02  0.3899E+03
      7.782  0.4369E+01  0.3902E+03
      7.849  0.9674E+01  0.3909E+03
      7.917  0.1010E+02  0.3916E+03
      7.985  0.1051E+02  0.3923E+03
      8.052  0.8560E+01  0.3929E+03
      8.120  0.1180E+02  0.3937E+03
      8.187  0.5038E+01  0.3940E+03
      8.255  0.8811E+01  0.3946E+03
      8.322  0.1682E+02  0.3957E+03
      8.390  0.1013E+02  0.3964E+03
      8.458  0.2194E+00  0.3964E+03
      8.525  0.5994E+01  0.3968E+03
      8.593  0.5957E+01  0.3972E+03
      8.660  0.1066E+02  0.3980E+03
      8.728  0.1202E+02  0.3988E+03
      8.795  0.1140E+02  0.3995E+03
      8.863  0.6452E+01  0.4000E+03
      8.931  0.7307E+01  0.4005E+03
      8.998  0.1123E+02  0.4012E+03
      9.066  0.5433E+01  0.4016E+03
      9.133  0.7120E+01  0.4021E+03
      9.201  0.6203E+01  0.4025E+03
      9.268  0.8181E+01  0.4031E+03
      9.336  0.1329E+02  0.4040E+03
      9.404  0.2607E+01  0.4042E+03
      9.471  0.1186E+02  0.4050E+03
      9.539  0.1034E+02  0.4057E+03
      9.606  0.5847E+01  0.4061E+03
      9.674  0.2438E+01  0.4062E+03
      9.741  0.1300E+01  0.4063E+03
      9.809  0.1244E+02  0.4071E+03
      9.877  0.1304E+02  0.4080E+03
      9.944  0.6794E+01  0.4085E+03
     10.012  0.1387E+02  0.4094E+03
     10.079  0.9503E+01  0.4101E+03
     10.147  0.4119E+01  0.4104E+03
     10.214  0.9482E+01  0.4110E+03
     10.282  0.1122E+02  0.4118E+03
     10.349  0.1578E+02  0.4128E+03
     10.417  0.1137E+02  0.4136E+03
     10.485  0.1133E+02  0.4144E+03
     10.552  0.1299E+02  0.4152E+03
     10.620  0.1088E+02  0.4160E+03
     10.687  0.1120E+02  0.4167E+03
     10.755  0.5715E+01  0.4171E+03
     10.822  0.1495E+02  0.4181E+03
     10.890  0.9883E+01  0.4188E+03
     10.958  0.1498E+02  0.4198E+03
     11.025  0.8363E+01  0.4204E+03
     11.093  0.4342E+01  0.4207E+03
     11.160  0.1700E+02  0.4218E+03
     11.228  0.1135E+02  0.4226E+03
     11.295  0.1458E+02  0.4236E+03
     11.363  0.3016E+01  0.4238E+03
     11.431  0.1366E+02  0.4247E+03
     11.498  0.1100E+02  0.4255E+03
     11.566  0.1512E+02  0.4265E+03
     11.633  0.8970E+01  0.4271E+03
     11.701  0.7595E+01  0.4276E+03
     11.768  0.1012E+02  0.4283E+03
     11.836  0.1729E+02  0.4295E+03
     11.904  0.7343E+01  0.4300E+03
     11.971  0.6100E+01  0.4304E+03
     12.039  0.7680E+01  0.4309E+03
     12.106  0.2624E+01  0.4311E+03
     12.174  0.2070E+01  0.4312E+03
     12.241  0.6193E+01  0.4316E+03
     12.309  0.4944E-02  0.4316E+03
     12.377  0.2068E+01  0.4318E+03
     12.444  0.1379E+01  0.4319E+03
     12.512  0.0000E+00  0.4319E+03
     12.579  0.0000E+00  0.4319E+03
     12.647  0.0000E+00  0.4319E+03
     12.714  0.0000E+00  0.4319E+03
     12.782  0.1314E-01  0.4319E+03
     12.849  0.2058E+01  0.4320E+03
     12.917  0.0000E+00  0.4320E+03
     12.985  0.0000E+00  0.4320E+03
     13.052  0.0000E+00  0.4320E+03
     13.120  0.0000E+00  0.4320E+03
     13.187  0.0000E+00  0.4320E+03
     13.255  0.0000E+00  0.4320E+03
     13.322  0.0000E+00  0.4320E+03
     13.390  0.0000E+00  0.4320E+03
     13.458  0.0000E+00  0.4320E+03
     13.525  0.0000E+00  0.4320E+03
     13.593  0.0000E+00  0.4320E+03
     13.660  0.0000E+00  0.4320E+03
     13.728  0.0000E+00  0.4320E+03
