   32   32    1    1
  0.1275737E+02  0.7418288E-09  0.7418288E-09  0.7418288E-09  0.5000000E-15
  1.000000000000000E-004
  CAR 
 unknown system                          
  352   20  216
 
  0.0000000E+00  0.0000000E+00  0.0000000E+00  0.2915452E-02
   1       -5.6212
   2       -2.9879
   3       -2.9879
   4       -2.9879
   5       -2.9879
   6       -2.9879
   7       -2.9879
   8       -1.5221
   9       -1.5221
  10       -1.5221
  11       -1.5221
  12       -1.3078
  13       -1.3078
  14       -1.3078
  15       -1.1827
  16       -1.1827
  17       -1.1827
  18       -1.1827
  19       -1.1827
  20       -1.1827
  21       -1.1827
  22       -1.1827
  23       -1.1827
  24       -1.1827
  25       -1.1827
  26       -1.1827
  27       -0.9036
  28       -0.9036
  29       -0.9036
  30       -0.6363
  31       -0.6363
  32       -0.6363
  33       -0.6363
  34       -0.6363
  35       -0.6363
  36       -0.3014
  37       -0.3014
  38       -0.3014
  39       -0.3014
  40       -0.3014
  41       -0.3014
  42       -0.1082
  43       -0.1082
  44       -0.1082
  45       -0.1082
  46       -0.1082
  47       -0.1082
  48       -0.1082
  49       -0.1082
  50       -0.1082
  51       -0.1082
  52       -0.1082
  53       -0.1082
  54       -0.1066
  55       -0.1066
  56       -0.1066
  57       -0.1066
  58       -0.1066
  59       -0.1066
  60       -0.1066
  61       -0.1066
  62       -0.1066
  63       -0.1066
  64       -0.1066
  65       -0.1066
  66        0.0825
  67        0.0825
  68        0.0825
  69        0.0825
  70        0.0825
  71        0.0825
  72        0.0825
  73        0.0825
  74        0.0825
  75        0.0825
  76        0.0825
  77        0.0825
  78        0.3050
  79        0.3050
  80        0.3050
  81        0.3050
  82        0.3050
  83        0.3050
  84        0.3050
  85        0.3050
  86        0.3291
  87        0.3291
  88        0.3291
  89        0.6666
  90        0.6666
  91        0.6666
  92        0.6666
  93        0.6666
  94        0.6666
  95        0.7803
  96        0.7803
  97        0.7803
  98        0.7803
  99        0.7803
 100        0.7803
 101        0.7803
 102        0.7803
 103        0.7803
 104        0.7803
 105        0.7803
 106        0.7803
 107        0.9177
 108        0.9177
 109        0.9177
 110        0.9177
 111        0.9177
 112        0.9177
 113        0.9177
 114        0.9177
 115        0.9177
 116        0.9177
 117        0.9177
 118        0.9177
 119        1.0316
 120        1.0316
 121        1.0316
 122        1.0316
 123        1.0316
 124        1.0316
 125        1.0592
 126        1.0592
 127        1.0592
 128        1.0592
 129        1.0592
 130        1.0592
 131        1.0592
 132        1.0592
 133        1.0592
 134        1.0592
 135        1.0592
 136        1.0592
 137        1.0633
 138        1.0633
 139        1.3051
 140        1.3051
 141        1.3051
 142        1.3051
 143        1.3051
 144        1.3051
 145        1.5516
 146        1.5516
 147        1.5516
 148        1.5643
 149        1.5643
 150        1.5643
 151        1.5643
 152        1.5643
 153        1.5643
 154        1.5643
 155        1.5643
 156        1.6883
 157        1.6883
 158        1.6883
 159        1.6883
 160        1.6883
 161        1.6883
 162        1.6890
 163        1.6890
 164        1.6890
 165        1.6890
 166        1.6890
 167        1.6890
 168        2.3792
 169        2.3792
 170        2.3792
 171        2.3792
 172        2.7967
 173        2.7967
 174        2.7967
 175        2.7967
 176        2.7967
 177        2.7967
 178        2.7967
 179        2.7967
 180        2.7967
 181        2.7967
 182        2.7967
 183        2.7967
 184        4.7228
 185        4.7228
 186        4.7228
 187        6.5338
 188        6.5338
 189        6.5338
 190        6.5338
 191        9.0881
 192        9.0881
 193        9.0881
 194        9.0881
 195        9.0881
 196        9.0881
 197        9.0881
 198        9.0881
 199        9.0881
 200        9.0881
 201        9.0881
 202        9.0881
 203        9.7484
 204        9.7484
 205        9.7484
 206       11.1100
 207       11.1100
 208       11.1100
 209       11.1100
 210       11.1100
 211       11.1100
 212       11.2972
 213       11.2972
 214       11.2972
 215       11.2972
 216       11.2972
 
  0.1428571E+00  0.0000000E+00  0.0000000E+00  0.1749271E-01
   1       -5.5624
   2       -3.6206
   3       -2.9398
   4       -2.9398
   5       -2.9398
   6       -2.9398
   7       -2.3636
   8       -1.5368
   9       -1.5368
  10       -1.5368
  11       -1.5368
  12       -1.5097
  13       -1.5097
  14       -1.5097
  15       -1.5097
  16       -1.3091
  17       -1.2814
  18       -1.2814
  19       -1.2078
  20       -1.2078
  21       -1.2078
  22       -1.2078
  23       -0.8888
  24       -0.8880
  25       -0.8880
  26       -0.8830
  27       -0.8830
  28       -0.8830
  29       -0.8830
  30       -0.6806
  31       -0.6806
  32       -0.6161
  33       -0.6161
  34       -0.6161
  35       -0.6161
  36       -0.4378
  37       -0.3239
  38       -0.3239
  39       -0.2950
  40       -0.2950
  41       -0.2950
  42       -0.2950
  43       -0.1636
  44       -0.1349
  45       -0.1349
  46       -0.1349
  47       -0.1349
  48       -0.1303
  49       -0.1303
  50       -0.1303
  51       -0.1303
  52       -0.1061
  53       -0.1061
  54       -0.1061
  55       -0.1061
  56       -0.0894
  57       -0.0894
  58       -0.0894
  59       -0.0894
  60       -0.0443
  61       -0.0443
  62       -0.0443
  63       -0.0443
  64       -0.0322
  65       -0.0322
  66       -0.0322
  67       -0.0322
  68        0.0948
  69        0.0948
  70        0.0948
  71        0.0948
  72        0.1420
  73        0.1420
  74        0.1643
  75        0.1643
  76        0.1643
  77        0.1643
  78        0.2950
  79        0.2950
  80        0.2950
  81        0.2950
  82        0.3129
  83        0.3193
  84        0.3193
  85        0.3193
  86        0.3193
  87        0.3422
  88        0.3422
  89        0.5984
  90        0.5984
  91        0.5984
  92        0.5984
  93        0.6914
  94        0.7253
  95        0.7253
  96        0.7253
  97        0.7253
  98        0.7540
  99        0.7741
 100        0.7741
 101        0.7908
 102        0.7908
 103        0.7908
 104        0.7908
 105        0.8278
 106        0.8278
 107        0.8278
 108        0.8278
 109        0.9176
 110        0.9176
 111        0.9176
 112        0.9176
 113        0.9730
 114        0.9730
 115        0.9730
 116        0.9730
 117        0.9950
 118        0.9950
 119        0.9950
 120        0.9950
 121        1.0318
 122        1.0318
 123        1.0318
 124        1.0318
 125        1.0487
 126        1.0685
 127        1.0685
 128        1.0693
 129        1.0701
 130        1.0701
 131        1.1156
 132        1.1156
 133        1.1156
 134        1.1156
 135        1.1477
 136        1.1477
 137        1.1477
 138        1.1477
 139        1.2509
 140        1.3237
 141        1.3237
 142        1.3237
 143        1.3237
 144        1.3596
 145        1.4079
 146        1.4079
 147        1.4079
 148        1.4079
 149        1.5327
 150        1.5327
 151        1.5454
 152        1.5486
 153        1.5486
 154        1.5486
 155        1.5486
 156        1.5946
 157        1.5946
 158        1.6647
 159        1.6647
 160        1.6647
 161        1.6647
 162        1.6658
 163        1.6658
 164        1.6884
 165        1.6884
 166        1.6889
 167        1.6889
 168        2.3823
 169        2.3823
 170        2.3823
 171        2.3823
 172        2.4612
 173        2.4612
 174        2.4612
 175        2.4612
 176        2.7923
 177        2.7923
 178        2.7923
 179        2.7923
 180        3.3437
 181        3.3437
 182        3.3437
 183        3.3437
 184        4.3255
 185        4.8699
 186        4.8699
 187        6.7123
 188        6.7123
 189        6.7123
 190        6.7123
 191        8.1657
 192        8.1657
 193        8.3392
 194        8.3392
 195        8.3392
 196        8.3392
 197        9.1665
 198        9.1665
 199        9.1665
 200        9.1665
 201        9.7721
 202        9.7721
 203       10.0704
 204       10.0704
 205       10.2654
 206       10.7567
 207       10.7567
 208       11.2490
 209       11.2490
 210       11.2490
 211       11.2490
 212       11.4181
 213       11.4181
 214       11.4181
 215       11.4182
 216       11.6015
 
  0.2857143E+00  0.0000000E+00  0.0000000E+00  0.1749271E-01
   1       -5.3870
   2       -4.2014
   3       -2.7978
   4       -2.7978
   5       -2.7978
   6       -2.7978
   7       -1.9112
   8       -1.9112
   9       -1.9112
  10       -1.9112
  11       -1.8465
  12       -1.4736
  13       -1.4736
  14       -1.4736
  15       -1.4736
  16       -1.3211
  17       -1.2699
  18       -1.2699
  19       -1.2699
  20       -1.2699
  21       -1.2048
  22       -1.2048
  23       -0.8452
  24       -0.8410
  25       -0.8410
  26       -0.7951
  27       -0.7951
  28       -0.6508
  29       -0.6508
  30       -0.6508
  31       -0.6508
  32       -0.5661
  33       -0.5586
  34       -0.5586
  35       -0.5586
  36       -0.5586
  37       -0.5044
  38       -0.5044
  39       -0.2762
  40       -0.2762
  41       -0.2762
  42       -0.2762
  43       -0.1923
  44       -0.1923
  45       -0.1923
  46       -0.1923
  47       -0.1712
  48       -0.1712
  49       -0.1712
  50       -0.1712
  51       -0.1654
  52       -0.1654
  53       -0.1654
  54       -0.1654
  55       -0.1002
  56       -0.1002
  57       -0.1002
  58       -0.1002
  59       -0.0832
  60       -0.0832
  61       -0.0832
  62       -0.0832
  63       -0.0314
  64        0.1215
  65        0.1215
  66        0.1215
  67        0.1215
  68        0.1371
  69        0.1371
  70        0.1371
  71        0.1371
  72        0.2255
  73        0.2255
  74        0.2255
  75        0.2255
  76        0.2654
  77        0.2664
  78        0.2664
  79        0.2664
  80        0.2664
  81        0.3614
  82        0.3614
  83        0.3614
  84        0.3614
  85        0.3814
  86        0.3814
  87        0.4241
  88        0.4241
  89        0.4831
  90        0.4831
  91        0.4831
  92        0.4831
  93        0.6220
  94        0.6220
  95        0.6220
  96        0.6220
  97        0.6448
  98        0.6448
  99        0.7658
 100        0.8527
 101        0.8527
 102        0.8527
 103        0.8527
 104        0.9025
 105        0.9025
 106        0.9025
 107        0.9025
 108        0.9179
 109        0.9179
 110        0.9179
 111        0.9179
 112        0.9540
 113        0.9540
 114        0.9540
 115        0.9540
 116        1.0059
 117        1.0225
 118        1.0225
 119        1.0225
 120        1.0225
 121        1.0281
 122        1.0281
 123        1.0281
 124        1.0281
 125        1.0524
 126        1.0792
 127        1.0792
 128        1.0792
 129        1.0792
 130        1.0871
 131        1.1620
 132        1.1620
 133        1.1996
 134        1.2231
 135        1.2231
 136        1.2231
 137        1.2231
 138        1.2239
 139        1.2239
 140        1.2568
 141        1.2568
 142        1.2568
 143        1.2568
 144        1.3572
 145        1.3572
 146        1.4085
 147        1.4085
 148        1.4085
 149        1.4085
 150        1.4115
 151        1.4772
 152        1.4772
 153        1.5023
 154        1.5023
 155        1.5023
 156        1.5023
 157        1.5270
 158        1.5964
 159        1.5964
 160        1.5964
 161        1.5964
 162        1.6007
 163        1.6007
 164        1.6884
 165        1.6884
 166        1.6889
 167        1.6889
 168        2.0592
 169        2.0592
 170        2.0592
 171        2.0592
 172        2.5923
 173        2.5923
 174        2.5923
 175        2.5923
 176        2.7772
 177        2.7772
 178        2.7772
 179        2.7772
 180        3.4485
 181        4.0551
 182        4.0551
 183        4.0551
 184        4.0551
 185        5.2671
 186        5.2671
 187        7.1377
 188        7.1377
 189        7.1377
 190        7.1377
 191        7.2218
 192        7.2218
 193        7.2218
 194        7.2218
 195        7.3094
 196        7.3094
 197        9.3974
 198        9.3974
 199        9.3974
 200        9.3974
 201        9.8449
 202        9.8449
 203       10.1508
 204       10.1508
 205       10.1508
 206       10.1508
 207       10.4178
 208       10.4178
 209       10.8852
 210       10.8852
 211       10.8852
 212       10.8852
 213       11.1061
 214       11.1061
 215       11.3882
 216       11.3882
 
  0.4285714E+00  0.0000000E+00  0.0000000E+00  0.1749271E-01
   1       -5.0975
   2       -4.6993
   3       -2.5688
   4       -2.5688
   5       -2.5688
   6       -2.5688
   7       -2.2660
   8       -2.2660
   9       -2.2660
  10       -2.2660
  11       -1.5219
  12       -1.4168
  13       -1.4168
  14       -1.4168
  15       -1.4168
  16       -1.3726
  17       -1.3454
  18       -1.3454
  19       -1.3454
  20       -1.3454
  21       -1.0864
  22       -1.0864
  23       -0.9418
  24       -0.9418
  25       -0.7746
  26       -0.7620
  27       -0.7620
  28       -0.6801
  29       -0.6502
  30       -0.6502
  31       -0.4901
  32       -0.4901
  33       -0.4901
  34       -0.4901
  35       -0.4799
  36       -0.4799
  37       -0.4799
  38       -0.4799
  39       -0.2835
  40       -0.2835
  41       -0.2835
  42       -0.2835
  43       -0.2780
  44       -0.2780
  45       -0.2780
  46       -0.2780
  47       -0.2470
  48       -0.2470
  49       -0.2470
  50       -0.2470
  51       -0.2105
  52       -0.2105
  53       -0.2105
  54       -0.2105
  55       -0.0924
  56       -0.0924
  57       -0.0924
  58       -0.0924
  59       -0.0855
  60       -0.0855
  61       -0.0855
  62       -0.0855
  63        0.0883
  64        0.1741
  65        0.1741
  66        0.1741
  67        0.1741
  68        0.1891
  69        0.2236
  70        0.2236
  71        0.2236
  72        0.2236
  73        0.2914
  74        0.2914
  75        0.2914
  76        0.2914
  77        0.3768
  78        0.3768
  79        0.3768
  80        0.3768
  81        0.3940
  82        0.3940
  83        0.3940
  84        0.3940
  85        0.4291
  86        0.4291
  87        0.4291
  88        0.4291
  89        0.4459
  90        0.4459
  91        0.5183
  92        0.5183
  93        0.5183
  94        0.5183
  95        0.5344
  96        0.5344
  97        0.7207
  98        0.7207
  99        0.7207
 100        0.7207
 101        0.7319
 102        0.7319
 103        0.8549
 104        0.9212
 105        0.9212
 106        0.9212
 107        0.9212
 108        0.9314
 109        0.9314
 110        0.9314
 111        0.9314
 112        0.9329
 113        0.9329
 114        0.9329
 115        0.9329
 116        0.9389
 117        0.9687
 118        0.9687
 119        0.9687
 120        0.9687
 121        0.9997
 122        0.9997
 123        0.9997
 124        0.9997
 125        1.0102
 126        1.0102
 127        1.0102
 128        1.0102
 129        1.0521
 130        1.0521
 131        1.1157
 132        1.1538
 133        1.2784
 134        1.2784
 135        1.3328
 136        1.3328
 137        1.3328
 138        1.3328
 139        1.3702
 140        1.3702
 141        1.3770
 142        1.3770
 143        1.3770
 144        1.3770
 145        1.3893
 146        1.3893
 147        1.4286
 148        1.4286
 149        1.4286
 150        1.4286
 151        1.4582
 152        1.4954
 153        1.4954
 154        1.4954
 155        1.4954
 156        1.4974
 157        1.4992
 158        1.4992
 159        1.5752
 160        1.5752
 161        1.5752
 162        1.5752
 163        1.6414
 164        1.6886
 165        1.6886
 166        1.6887
 167        1.6887
 168        1.7952
 169        1.7952
 170        1.7952
 171        1.7952
 172        2.4839
 173        2.6883
 174        2.6883
 175        2.6883
 176        2.6883
 177        2.7459
 178        2.7459
 179        2.7459
 180        2.7459
 181        4.9379
 182        4.9379
 183        4.9379
 184        4.9379
 185        5.8378
 186        5.8378
 187        5.9764
 188        5.9764
 189        5.9764
 190        5.9764
 191        6.5283
 192        6.5283
 193        8.0030
 194        8.0030
 195        8.0030
 196        8.0030
 197        8.9955
 198        8.9955
 199        8.9955
 200        8.9955
 201        9.7702
 202        9.7702
 203        9.7702
 204        9.7702
 205        9.9714
 206        9.9714
 207       10.1591
 208       10.1591
 209       10.2708
 210       10.2708
 211       10.2708
 212       10.2708
 213       11.6134
 214       11.6134
 215       11.6134
 216       11.6134
 
  0.1428571E+00  0.1428571E+00  0.0000000E+00  0.3498542E-01
   1       -5.5038
   2       -3.5692
   3       -3.5692
   4       -2.8927
   5       -2.8927
   6       -2.3196
   7       -2.3196
   8       -1.9855
   9       -1.5451
  10       -1.5451
  11       -1.5394
  12       -1.5394
  13       -1.5394
  14       -1.5394
  15       -1.4525
  16       -1.4525
  17       -1.2821
  18       -1.2821
  19       -1.2554
  20       -1.1308
  21       -1.1308
  22       -0.9286
  23       -0.9286
  24       -0.9286
  25       -0.9286
  26       -0.8735
  27       -0.8735
  28       -0.8728
  29       -0.7010
  30       -0.6647
  31       -0.6647
  32       -0.6593
  33       -0.6593
  34       -0.5956
  35       -0.5956
  36       -0.4292
  37       -0.4292
  38       -0.3350
  39       -0.3350
  40       -0.3179
  41       -0.3179
  42       -0.2879
  43       -0.2879
  44       -0.1809
  45       -0.1809
  46       -0.1646
  47       -0.1646
  48       -0.1594
  49       -0.1594
  50       -0.1264
  51       -0.1164
  52       -0.0859
  53       -0.0859
  54       -0.0859
  55       -0.0859
  56       -0.0741
  57       -0.0741
  58       -0.0365
  59       -0.0365
  60       -0.0365
  61       -0.0365
  62       -0.0200
  63       -0.0009
  64       -0.0009
  65       -0.0009
  66       -0.0009
  67        0.0413
  68        0.0413
  69        0.1116
  70        0.1116
  71        0.1390
  72        0.1390
  73        0.1734
  74        0.1734
  75        0.1734
  76        0.1734
  77        0.2630
  78        0.2642
  79        0.2642
  80        0.2994
  81        0.2994
  82        0.3039
  83        0.3294
  84        0.3294
  85        0.3437
  86        0.3437
  87        0.3485
  88        0.3544
  89        0.5564
  90        0.5564
  91        0.6142
  92        0.6142
  93        0.6576
  94        0.6576
  95        0.7240
  96        0.7240
  97        0.7240
  98        0.7240
  99        0.7621
 100        0.7742
 101        0.7742
 102        0.7768
 103        0.7768
 104        0.7768
 105        0.7768
 106        0.8455
 107        0.8455
 108        0.8473
 109        0.8676
 110        0.8676
 111        0.8722
 112        0.8722
 113        0.9048
 114        1.0289
 115        1.0289
 116        1.0446
 117        1.0578
 118        1.0578
 119        1.0646
 120        1.0646
 121        1.0657
 122        1.0662
 123        1.0662
 124        1.0662
 125        1.0662
 126        1.0698
 127        1.0698
 128        1.0721
 129        1.0721
 130        1.1081
 131        1.1081
 132        1.1410
 133        1.1410
 134        1.1975
 135        1.1975
 136        1.1975
 137        1.1975
 138        1.2085
 139        1.2208
 140        1.2208
 141        1.2616
 142        1.2616
 143        1.3322
 144        1.3322
 145        1.3344
 146        1.3344
 147        1.3922
 148        1.3922
 149        1.5144
 150        1.5148
 151        1.5148
 152        1.5229
 153        1.5565
 154        1.5565
 155        1.5587
 156        1.5587
 157        1.5803
 158        1.5803
 159        1.6440
 160        1.6440
 161        1.6644
 162        1.6644
 163        1.6651
 164        1.6651
 165        1.6658
 166        1.6658
 167        1.6739
 168        2.0512
 169        2.1920
 170        2.1920
 171        2.3733
 172        2.3733
 173        2.3733
 174        2.3733
 175        2.8378
 176        2.8378
 177        2.8461
 178        2.8461
 179        3.3478
 180        3.3478
 181        3.3478
 182        3.3478
 183        3.9779
 184        4.4698
 185        4.4698
 186        5.0095
 187        6.5680
 188        6.5680
 189        7.1636
 190        7.1636
 191        7.5144
 192        7.5144
 193        8.2487
 194        8.2487
 195        8.2615
 196        8.2615
 197        8.5663
 198        8.5663
 199        9.2164
 200        9.2164
 201        9.7961
 202       10.1455
 203       10.1455
 204       10.2955
 205       10.2955
 206       10.6697
 207       10.6697
 208       10.6697
 209       10.6697
 210       10.7752
 211       10.8118
 212       10.8118
 213       11.5199
 214       11.5199
 215       11.8089
 216       11.8089
 
  0.2857143E+00  0.1428571E+00  0.0000000E+00  0.6997085E-01
   1       -5.3289
   2       -4.1475
   3       -3.4166
   4       -2.7536
   5       -2.7536
   6       -2.4307
   7       -2.1906
   8       -1.8949
   9       -1.8949
  10       -1.8071
  11       -1.5614
  12       -1.5614
  13       -1.5465
  14       -1.5465
  15       -1.4232
  16       -1.3729
  17       -1.3729
  18       -1.2926
  19       -1.2040
  20       -1.1803
  21       -1.0341
  22       -1.0341
  23       -0.8304
  24       -0.8271
  25       -0.8269
  26       -0.8094
  27       -0.7842
  28       -0.7750
  29       -0.7082
  30       -0.7082
  31       -0.6227
  32       -0.5977
  33       -0.5763
  34       -0.5555
  35       -0.5372
  36       -0.5372
  37       -0.5042
  38       -0.4955
  39       -0.4036
  40       -0.3667
  41       -0.3004
  42       -0.2671
  43       -0.2671
  44       -0.2631
  45       -0.2631
  46       -0.2461
  47       -0.2388
  48       -0.2008
  49       -0.1590
  50       -0.1590
  51       -0.1480
  52       -0.1375
  53       -0.1375
  54       -0.1113
  55       -0.0751
  56       -0.0452
  57       -0.0452
  58       -0.0295
  59       -0.0050
  60       -0.0050
  61        0.0196
  62        0.0196
  63        0.0292
  64        0.0380
  65        0.0609
  66        0.0609
  67        0.1182
  68        0.1295
  69        0.1610
  70        0.1610
  71        0.1982
  72        0.1982
  73        0.2147
  74        0.2147
  75        0.2315
  76        0.2315
  77        0.2608
  78        0.2877
  79        0.2877
  80        0.3279
  81        0.3648
  82        0.3648
  83        0.3840
  84        0.3873
  85        0.3906
  86        0.3950
  87        0.3950
  88        0.4144
  89        0.4656
  90        0.4656
  91        0.4965
  92        0.5184
  93        0.6018
  94        0.6149
  95        0.6149
  96        0.6453
  97        0.6748
  98        0.6748
  99        0.7580
 100        0.7580
 101        0.7759
 102        0.7924
 103        0.8086
 104        0.8412
 105        0.8413
 106        0.8413
 107        0.8554
 108        0.8554
 109        0.8557
 110        0.9069
 111        0.9071
 112        0.9492
 113        0.9555
 114        0.9555
 115        0.9568
 116        1.0071
 117        1.0129
 118        1.0129
 119        1.0164
 120        1.0164
 121        1.0507
 122        1.0573
 123        1.0573
 124        1.0693
 125        1.0761
 126        1.0812
 127        1.0853
 128        1.1320
 129        1.1320
 130        1.1544
 131        1.1675
 132        1.1717
 133        1.1883
 134        1.1883
 135        1.2045
 136        1.2235
 137        1.2366
 138        1.2916
 139        1.2956
 140        1.2956
 141        1.2976
 142        1.2976
 143        1.3088
 144        1.3118
 145        1.3122
 146        1.3370
 147        1.3991
 148        1.3991
 149        1.4503
 150        1.4605
 151        1.4853
 152        1.5041
 153        1.5102
 154        1.5102
 155        1.5346
 156        1.5346
 157        1.5460
 158        1.5482
 159        1.5859
 160        1.5859
 161        1.5963
 162        1.5971
 163        1.6006
 164        1.6640
 165        1.6654
 166        1.6658
 167        1.6661
 168        1.7975
 169        2.0489
 170        2.0489
 171        2.1677
 172        2.1677
 173        2.3457
 174        2.3457
 175        2.4289
 176        3.1472
 177        3.1472
 178        3.3559
 179        3.3559
 180        3.4640
 181        3.5974
 182        4.0698
 183        4.0698
 184        4.7605
 185        4.8527
 186        5.3915
 187        6.3822
 188        6.7430
 189        6.7991
 190        6.7991
 191        7.1664
 192        7.1664
 193        7.3988
 194        7.8548
 195        7.8548
 196        7.9625
 197        8.4924
 198        8.6675
 199        8.6675
 200        9.4299
 201        9.4299
 202        9.8697
 203       10.0132
 204       10.0132
 205       10.0395
 206       10.1264
 207       10.3672
 208       10.3877
 209       10.4933
 210       10.9333
 211       10.9689
 212       10.9689
 213       11.1063
 214       11.1791
 215       11.5470
 216       11.8061
 
  0.4285714E+00  0.1428571E+00  0.0000000E+00  0.6997085E-01
   1       -5.0403
   2       -4.6434
   3       -3.1681
   4       -2.8338
   5       -2.5300
   6       -2.5300
   7       -2.2360
   8       -2.2360
   9       -1.9853
  10       -1.7205
  11       -1.5630
  12       -1.5630
  13       -1.5560
  14       -1.5560
  15       -1.4870
  16       -1.3414
  17       -1.2726
  18       -1.2726
  19       -1.1562
  20       -1.1562
  21       -1.0833
  22       -1.0641
  23       -0.9353
  24       -0.9215
  25       -0.7608
  26       -0.7501
  27       -0.7492
  28       -0.6678
  29       -0.6423
  30       -0.6390
  31       -0.6154
  32       -0.5801
  33       -0.5396
  34       -0.5396
  35       -0.5037
  36       -0.4896
  37       -0.4651
  38       -0.4651
  39       -0.4141
  40       -0.3743
  41       -0.3620
  42       -0.3498
  43       -0.3498
  44       -0.3061
  45       -0.2911
  46       -0.2911
  47       -0.2730
  48       -0.2385
  49       -0.2334
  50       -0.2334
  51       -0.1890
  52       -0.1890
  53       -0.1326
  54       -0.1321
  55       -0.1183
  56       -0.0763
  57       -0.0242
  58       -0.0242
  59       -0.0103
  60       -0.0103
  61        0.0817
  62        0.0831
  63        0.0831
  64        0.0881
  65        0.1113
  66        0.1517
  67        0.1517
  68        0.1868
  69        0.2175
  70        0.2287
  71        0.2287
  72        0.2629
  73        0.2629
  74        0.2933
  75        0.2933
  76        0.3051
  77        0.3051
  78        0.3447
  79        0.3718
  80        0.3718
  81        0.3788
  82        0.3953
  83        0.3953
  84        0.4236
  85        0.4236
  86        0.4392
  87        0.4474
  88        0.4493
  89        0.4694
  90        0.4694
  91        0.5141
  92        0.5141
  93        0.5261
  94        0.5353
  95        0.5692
  96        0.5692
  97        0.6379
  98        0.6379
  99        0.6722
 100        0.6722
 101        0.6904
 102        0.7131
 103        0.7832
 104        0.7938
 105        0.7938
 106        0.8025
 107        0.8194
 108        0.8194
 109        0.8531
 110        0.8676
 111        0.9035
 112        0.9309
 113        0.9309
 114        0.9437
 115        0.9721
 116        0.9857
 117        0.9857
 118        1.0079
 119        1.0208
 120        1.0213
 121        1.0269
 122        1.0424
 123        1.0654
 124        1.0699
 125        1.0741
 126        1.0846
 127        1.0846
 128        1.1121
 129        1.1238
 130        1.1239
 131        1.1239
 132        1.1276
 133        1.1539
 134        1.2674
 135        1.2843
 136        1.3111
 137        1.3111
 138        1.3266
 139        1.3695
 140        1.3699
 141        1.3752
 142        1.3924
 143        1.3949
 144        1.3949
 145        1.3953
 146        1.4020
 147        1.4020
 148        1.4213
 149        1.4213
 150        1.4262
 151        1.4518
 152        1.4777
 153        1.4777
 154        1.4942
 155        1.4990
 156        1.4996
 157        1.5012
 158        1.5012
 159        1.5076
 160        1.5638
 161        1.5638
 162        1.5920
 163        1.6639
 164        1.6642
 165        1.6656
 166        1.6657
 167        1.7845
 168        1.7845
 169        1.7929
 170        1.9018
 171        2.0871
 172        2.2333
 173        2.2333
 174        2.2986
 175        2.2986
 176        2.6610
 177        3.3022
 178        3.3022
 179        3.3523
 180        3.3523
 181        4.2796
 182        4.9621
 183        4.9621
 184        5.2673
 185        5.3912
 186        5.6945
 187        5.9474
 188        6.0066
 189        6.0066
 190        6.0307
 191        6.6263
 192        6.7692
 193        7.4076
 194        7.4076
 195        8.3146
 196        8.3146
 197        8.7396
 198        8.7396
 199        8.8833
 200        8.9999
 201        8.9999
 202        9.4044
 203        9.4536
 204        9.4536
 205        9.7859
 206        9.7859
 207        9.9968
 208       10.1814
 209       10.5475
 210       10.7268
 211       10.7836
 212       11.1345
 213       11.1751
 214       11.2119
 215       11.4220
 216       12.2025
 
  0.2857143E+00  0.2857143E+00  0.0000000E+00  0.3498542E-01
   1       -5.1555
   2       -3.9869
   3       -3.9869
   4       -2.9277
   5       -2.6237
   6       -2.6237
   7       -1.8499
   8       -1.8499
   9       -1.8499
  10       -1.8499
  11       -1.6920
  12       -1.6920
  13       -1.6406
  14       -1.6406
  15       -1.2570
  16       -1.2570
  17       -1.2100
  18       -1.2100
  19       -1.1094
  20       -1.0348
  21       -1.0348
  22       -0.8361
  23       -0.8361
  24       -0.8361
  25       -0.8361
  26       -0.7860
  27       -0.7860
  28       -0.7845
  29       -0.7586
  30       -0.7586