 vasp.4.6.28 25Jul05 complex 
 executed on             LinuxIFC date 2016.01.16  20:46:49
 running on    8 nodes
 distr:  one band on    1 nodes,    8 groups


--------------------------------------------------------------------------------------------------------


 INCAR:
 POTCAR:   PAW_PBE Cu 05Jan2001                   
 POTCAR:   PAW_PBE Cu 05Jan2001                   
   VRHFIN =Cu: d10 p1                                                           
   LEXCH  = PE                                                                  
   EATOM  =  1390.9800 eV,  102.2341 Ry                                         
                                                                                
   TITEL  = PAW_PBE Cu 05Jan2001                                                
   LULTRA =        F    use ultrasoft PP ?                                      
   IUNSCR =        1    unscreen: 0-lin 1-nonlin 2-no                           
   RPACOR =    2.000    partial core radius                                     
   POMASS =   63.546; ZVAL   =   11.000    mass and valenz                      
   RCORE  =    2.300    outmost cutoff radius                                   
   RWIGS  =    2.480; RWIGS  =    1.312    wigner-seitz radius (au A)           
   ENMAX  =  273.214; ENMIN  =  204.910 eV                                      
   RCLOC  =    1.712    cutoff for local pot                                    
   LCOR   =        T    correct aug charges                                     
   LPAW   =        T    paw PP                                                  
   EAUG   =  516.456                                                            
   DEXC   =    -.008                                                            
   RMAX   =    2.789    core radius for proj-oper                               
   RAUG   =    1.300    factor for augmentation sphere                          
   RDEP   =    2.302    radius for radial grids                                 
   QCUT   =   -4.481; QGAM   =    8.962    optimization parameters              
                                                                                
   Description                                                                  
     l     E      TYP  RCUT    TYP  RCUT                                        
     2   .000     23  2.300                                                     
     2   .000     23  2.300                                                     
     0   .000     23  2.300                                                     
     0   .000     23  2.300                                                     
     1  -.200     23  2.300                                                     
     1   .000     23  2.300                                                     
     3   .000      7   .000                                                     
  local pseudopotential read in
  partial core-charges read in
  atomic valenz-charges read in
  non local Contribution for L=           2  read in
    real space projection operators read in
  non local Contribution for L=           2  read in
    real space projection operators read in
  non local Contribution for L=           0  read in
    real space projection operators read in
  non local Contribution for L=           0  read in
    real space projection operators read in
  non local Contribution for L=           1  read in
    real space projection operators read in
  non local Contribution for L=           1  read in
    real space projection operators read in
    PAW grid and wavefunctions read in
 
   number of l-projection  operators is LMAX  =           6
   number of lm-projection operators is LMMAX =          18
 

 ----------------------------------------------------------------------------- 
|                                                                             |
|  ADVICE TO THIS USER RUNNING 'VASP/VAMP'   (HEAR YOUR MASTER'S VOICE ...):  |
|                                                                             |
|      You have a (more or less) 'large supercell' and for larger cells       |
|      it might be more efficient to use real space projection operators      |
|      So try LREAL= Auto  in the INCAR   file.                               |
|      Mind: If you want to do an extremely accurate calculations keep the    |
|      reciprocal projection scheme          (i.e. LREAL=.FALSE.)             |
|                                                                             |
 ----------------------------------------------------------------------------- 

 PAW_PBE Cu 05Jan2001                   :
 energy of atom  1       EATOM=-1390.9800
 kinetic energy error for atom=    0.0032 (will be added to EATOM!!)
 
 EXHCAR: internal setup
 exchange correlation table for  LEXCH =        8
   RHO(1)=    0.500       N(1)  =     2000
   RHO(2)=  100.500       N(2)  =     4000
 
 POSCAR: Cu                                      
  positions in direct lattice
  No initial velocities read in
 


--------------------------------------------------------------------------------------------------------


 ion  position               nearest neighbor table
   1  0.000  0.000  0.000-   9 2.62  10 2.62  11 2.62  12 2.62  17 2.62  18 2.62  21 2.62  22 2.62
                            25 2.62  27 2.62  29 2.62  31 2.62
   2  0.500  0.000  0.000-   9 2.62  10 2.62  11 2.62  12 2.62  17 2.62  18 2.62  21 2.62  22 2.62
                            26 2.62  28 2.62  30 2.62  32 2.62
   3  0.000  0.500  0.000-   9 2.62  10 2.62  11 2.62  12 2.62  19 2.62  20 2.62  23 2.62  24 2.62
                            25 2.62  27 2.62  29 2.62  31 2.62
   4  0.500  0.500  0.000-   9 2.62  10 2.62  11 2.62  12 2.62  19 2.62  20 2.62  23 2.62  24 2.62
                            26 2.62  28 2.62  30 2.62  32 2.62
   5  0.000  0.000  0.500-  13 2.62  14 2.62  15 2.62  16 2.62  17 2.62  18 2.62  21 2.62  22 2.62
                            25 2.62  27 2.62  29 2.62  31 2.62
   6  0.500  0.000  0.500-  13 2.62  14 2.62  15 2.62  16 2.62  17 2.62  18 2.62  21 2.62  22 2.62
                            26 2.62  28 2.62  30 2.62  32 2.62
   7  0.000  0.500  0.500-  13 2.62  14 2.62  15 2.62  16 2.62  19 2.62  20 2.62  23 2.62  24 2.62
                            25 2.62  27 2.62  29 2.62  31 2.62
   8  0.500  0.500  0.500-  13 2.62  14 2.62  15 2.62  16 2.62  19 2.62  20 2.62  23 2.62  24 2.62
                            26 2.62  28 2.62  30 2.62  32 2.62
   9  0.250  0.250  0.000-   1 2.62   2 2.62   3 2.62   4 2.62  17 2.62  19 2.62  21 2.62  23 2.62
                            25 2.62  26 2.62  29 2.62  30 2.62
  10  0.750  0.250  0.000-   1 2.62   2 2.62   3 2.62   4 2.62  18 2.62  20 2.62  22 2.62  24 2.62
                            25 2.62  26 2.62  29 2.62  30 2.62
  11  0.250  0.750  0.000-   1 2.62   2 2.62   3 2.62   4 2.62  17 2.62  19 2.62  21 2.62  23 2.62
                            27 2.62  28 2.62  31 2.62  32 2.62
  12  0.750  0.750  0.000-   1 2.62   2 2.62   3 2.62   4 2.62  18 2.62  20 2.62  22 2.62  24 2.62
                            27 2.62  28 2.62  31 2.62  32 2.62
  13  0.250  0.250  0.500-   5 2.62   6 2.62   7 2.62   8 2.62  17 2.62  19 2.62  21 2.62  23 2.62
                            25 2.62  26 2.62  29 2.62  30 2.62
  14  0.750  0.250  0.500-   5 2.62   6 2.62   7 2.62   8 2.62  18 2.62  20 2.62  22 2.62  24 2.62
                            25 2.62  26 2.62  29 2.62  30 2.62
  15  0.250  0.750  0.500-   5 2.62   6 2.62   7 2.62   8 2.62  17 2.62  19 2.62  21 2.62  23 2.62
                            27 2.62  28 2.62  31 2.62  32 2.62
  16  0.750  0.750  0.500-   5 2.62   6 2.62   7 2.62   8 2.62  18 2.62  20 2.62  22 2.62  24 2.62
                            27 2.62  28 2.62  31 2.62  32 2.62
  17  0.250  0.000  0.250-   1 2.62   2 2.62   5 2.62   6 2.62   9 2.62  11 2.62  13 2.62  15 2.62
                            25 2.62  26 2.62  27 2.62  28 2.62
  18  0.750  0.000  0.250-   1 2.62   2 2.62   5 2.62   6 2.62  10 2.62  12 2.62  14 2.62  16 2.62
                            25 2.62  26 2.62  27 2.62  28 2.62
  19  0.250  0.500  0.250-   3 2.62   4 2.62   7 2.62   8 2.62   9 2.62  11 2.62  13 2.62  15 2.62
                            25 2.62  26 2.62  27 2.62  28 2.62
  20  0.750  0.500  0.250-   3 2.62   4 2.62   7 2.62   8 2.62  10 2.62  12 2.62  14 2.62  16 2.62
                            25 2.62  26 2.62  27 2.62  28 2.62
  21  0.250  0.000  0.750-   1 2.62   2 2.62   5 2.62   6 2.62   9 2.62  11 2.62  13 2.62  15 2.62
                            29 2.62  30 2.62  31 2.62  32 2.62
  22  0.750  0.000  0.750-   1 2.62   2 2.62   5 2.62   6 2.62  10 2.62  12 2.62  14 2.62  16 2.62
                            29 2.62  30 2.62  31 2.62  32 2.62
  23  0.250  0.500  0.750-   3 2.62   4 2.62   7 2.62   8 2.62   9 2.62  11 2.62  13 2.62  15 2.62
                            29 2.62  30 2.62  31 2.62  32 2.62
  24  0.750  0.500  0.750-   3 2.62   4 2.62   7 2.62   8 2.62  10 2.62  12 2.62  14 2.62  16 2.62
                            29 2.62  30 2.62  31 2.62  32 2.62
  25  0.000  0.250  0.250-   1 2.62   3 2.62   5 2.62   7 2.62   9 2.62  10 2.62  13 2.62  14 2.62
                            17 2.62  18 2.62  19 2.62  20 2.62
  26  0.500  0.250  0.250-   2 2.62   4 2.62   6 2.62   8 2.62   9 2.62  10 2.62  13 2.62  14 2.62
                            17 2.62  18 2.62  19 2.62  20 2.62
  27  0.000  0.750  0.250-   1 2.62   3 2.62   5 2.62   7 2.62  11 2.62  12 2.62  15 2.62  16 2.62
                            17 2.62  18 2.62  19 2.62  20 2.62
  28  0.500  0.750  0.250-   2 2.62   4 2.62   6 2.62   8 2.62  11 2.62  12 2.62  15 2.62  16 2.62
                            17 2.62  18 2.62  19 2.62  20 2.62
  29  0.000  0.250  0.750-   1 2.62   3 2.62   5 2.62   7 2.62   9 2.62  10 2.62  13 2.62  14 2.62
                            21 2.62  22 2.62  23 2.62  24 2.62
  30  0.500  0.250  0.750-   2 2.62   4 2.62   6 2.62   8 2.62   9 2.62  10 2.62  13 2.62  14 2.62
                            21 2.62  22 2.62  23 2.62  24 2.62
  31  0.000  0.750  0.750-   1 2.62   3 2.62   5 2.62   7 2.62  11 2.62  12 2.62  15 2.62  16 2.62
                            21 2.62  22 2.62  23 2.62  24 2.62
  32  0.500  0.750  0.750-   2 2.62   4 2.62   6 2.62   8 2.62  11 2.62  12 2.62  15 2.62  16 2.62
                            21 2.62  22 2.62  23 2.62  24 2.62
 
  LATTYP: Found a simple cubic cell.
 ALAT       =     7.4182882559
  
  Lattice vectors:
  
 A1 = (   7.4182882559,   0.0000000000,   0.0000000000)
 A2 = (   0.0000000000,   7.4182882559,   0.0000000000)
 A3 = (   0.0000000000,   0.0000000000,   7.4182882559)
 Subroutine PRICEL returns following result:
 
  LATTYP: Found a face centered cubic cell.
 ALAT       =     3.7091441280
  
  Lattice vectors:
  
 A1 = (   1.8545720640,   1.8545720640,   0.0000000000)
 A2 = (   1.8545720640,   0.0000000000,  -1.8545720640)
 A3 = (   0.0000000000,   1.8545720640,  -1.8545720640)
 
  32 primitive cells build up your supercell.
 

Analysis of symmetry for initial positions (statically):

 Routine SETGRP: Setting up the symmetry group for a 
 simple cubic supercell.


 Subroutine GETGRP returns: Found 48 space group operations
 (whereof 48 operations were pure point group operations)
 out of a pool of 48 trial point group operations.


The static configuration has the point symmetry O_h .

Analysis of symmetry for dynamics (positions and initial velocities):

 Subroutine DYNSYM returns: Found 48 space group operations
 (whereof 48 operations were pure point group operations)
 out of a pool of 48 trial space group operations
 (whereof 48 operations were pure point group operations)
 and found also    32 'primitive' translations


The dynamic configuration has the point symmetry O_h .
 
 
 KPOINTS: Automatic mesh                          

Automatic generation of k-mesh.
 generate k-points for:   7   7   7
 
 Subroutine IBZKPT returns following result:
 ===========================================
 
 Found     20 irreducible k-points:
 
 Following reciprocal coordinates:
            Coordinates               Weight
  0.000000  0.000000  0.000000      1.000000
  0.142857  0.000000  0.000000      6.000000
  0.285714  0.000000  0.000000      6.000000
  0.428571  0.000000  0.000000      6.000000
  0.142857  0.142857  0.000000     12.000000
  0.285714  0.142857  0.000000     24.000000
  0.428571  0.142857  0.000000     24.000000
  0.285714  0.285714  0.000000     12.000000
  0.428571  0.285714  0.000000     24.000000
  0.428571  0.428571  0.000000     12.000000
  0.142857  0.142857  0.142857      8.000000
  0.285714  0.142857  0.142857     24.000000
  0.428571  0.142857  0.142857     24.000000
  0.285714  0.285714  0.142857     24.000000
  0.428571  0.285714  0.142857     48.000000
  0.428571  0.428571  0.142857     24.000000
  0.285714  0.285714  0.285714      8.000000
  0.428571  0.285714  0.285714     24.000000
  0.428571  0.428571  0.285714     24.000000
  0.428571  0.428571  0.428571      8.000000
 
 Following cartesian coordinates:
            Coordinates               Weight
  0.000000  0.000000  0.000000      1.000000
  0.019257  0.000000  0.000000      6.000000
  0.038515  0.000000  0.000000      6.000000
  0.057772  0.000000  0.000000      6.000000
  0.019257  0.019257  0.000000     12.000000
  0.038515  0.019257  0.000000     24.000000
  0.057772  0.019257  0.000000     24.000000
  0.038515  0.038515  0.000000     12.000000
  0.057772  0.038515  0.000000     24.000000
  0.057772  0.057772  0.000000     12.000000
  0.019257  0.019257  0.019257      8.000000
  0.038515  0.019257  0.019257     24.000000
  0.057772  0.019257  0.019257     24.000000
  0.038515  0.038515  0.019257     24.000000
  0.057772  0.038515  0.019257     48.000000
  0.057772  0.057772  0.019257     24.000000
  0.038515  0.038515  0.038515      8.000000
  0.057772  0.038515  0.038515     24.000000
  0.057772  0.057772  0.038515     24.000000
  0.057772  0.057772  0.057772      8.000000
 


--------------------------------------------------------------------------------------------------------




 Dimension of arrays:
   k-Points           NKPTS =     20   number of bands    NBANDS=    216
   number of dos      NEDOS =    301   number of ions     NIONS =     32
   non local maximal  LDIM  =      6   non local SUM 2l+1 LMDIM =     18
   total plane-waves  NPLWV = 157464
   max r-space proj   IRMAX =      1   max aug-charges    IRDMAX= 108487
   dimension x,y,z NGX =    54 NGY =   54 NGZ =   54
   dimension x,y,z NGXF=   108 NGYF=  108 NGZF=  108
   support grid    NGXF=   216 NGYF=  216 NGZF=  216
   ions per type =              32
 NGX,Y,Z   is equivalent  to a cutoff of  12.10, 12.10, 12.10 a.u.
 NGXF,Y,Z  is equivalent  to a cutoff of  24.20, 24.20, 24.20 a.u.


 I would recommend the setting:
   dimension x,y,z NGX =    54 NGY =   54 NGZ =   54
 SYSTEM =  unknown system                          
 POSCAR =  Cu                                      

 Startparameter for this run:
   NWRITE =      2    write-flag & timer
   PREC   = accura    medium, high low
   ISTART =      0    job   : 0-new  1-cont  2-samecut
   ICHARG =      2    charge: 1-file 2-atom 10-const
   ISPIN  =      1    spin polarized calculation?
   LNONCOLLINEAR =      F non collinear calculations
   LSORBIT =      F    spin-orbit coupling
   INIWAV =      1    electr: 0-lowe 1-rand  2-diag
   LASPH  =      F    aspherical Exc in radial PAW
   METAGGA=      F    non-selfconsistent MetaGGA calc.

 Electronic Relaxation 1
   ENCUT  =  500.0 eV  36.75 Ry    6.06 a.u.  13.53 13.53 13.53*2*pi/ulx,y,z
   ENINI  =  500.0     initial cutoff
   ENAUG  =  516.5 eV  augmentation charge cutoff
   NELM   =     60;   NELMIN=  2; NELMDL=  0     # of ELM steps 
   EDIFF  = 0.1E-07   stopping-criterion for ELM
   LREAL  =      F    real-space projection
   LCOMPAT=      F    compatible to vasp.4.4
   LREAL_COMPAT= F    compatible to vasp.4.5.1-3
   GGA_COMPAT  = T    GGA compatible to vasp.4.4-vasp.4.6
   LMAXPAW     = -100 max onsite density
   LMAXMIX     =    2 max onsite mixed and CHGCAR
   VOSKOWN=      0    Vosko Wilk Nusair interpolation
   ROPT   =    0.00000
 Ionic relaxation
   EDIFFG = 0.1E-06   stopping-criterion for IOM
   NSW    =      0    number of steps for IOM
   NBLOCK =      1;   KBLOCK =      1    inner block; outer block 
   IBRION =     -1    ionic relax: 0-MD 1-quasi-New 2-CG
   NFREE  =      0    steps in history (QN), initial steepest desc. (CG)
   ISIF   =      2    stress and relaxation
   IWAVPR =     10    prediction:  0-non 1-charg 2-wave 3-comb
   ISYM   =      2    0-nonsym 1-usesym 2-fastsym
   LCORR  =      T    Harris-Foulkes like correction to forces

   POTIM  =   0.50    time-step for ionic-motion
   TEIN   =    0.0    initial temperature
   TEBEG  =    0.0;   TEEND  =   0.0 temperature during run
   SMASS  =  -3.00    Nose mass-parameter (am)
   estimated Nose-frequenzy (Omega)   =  0.10E-29 period in steps =****** mass=  -0.126E-26a.u.
   NPACO  =    256;   APACO  = 16.0  distance and # of slots for P.C.
   PSTRESS=    0.0 pullay stress

  Mass of Ions in am
   POMASS =  63.55
  Ionic Valenz
   ZVAL   =  11.00
  Atomic Wigner-Seitz radii
   RWIGS  =  -1.00
   NELECT =     352.0000    total number of electrons
   NUPDOWN=      -1.0000    fix difference up-down

 DOS related values:
   EMIN   =  10.00;   EMAX   =-10.00  energy-range for DOS
   ISMEAR =     0;   SIGMA  =   0.01  broadening in eV -4-tet -1-fermi 0-gaus

 Electronic relaxation 2 (details)
   IALGO  =     38    algorithm
   LDIAG  =      T    sub-space diagonalisation
   IMIX   =      4    mixing-type and parameters
     AMIX     =   0.40;   BMIX     =  1.00
     AMIX_MAG =   1.60;   BMIX_MAG =  1.00
     AMIN     =   0.10
     WC   =   100.;   INIMIX=   1;  MIXPRE=   1

 Intra band minimization:
   WEIMIN = 0.0000     energy-eigenvalue tresh-hold
   EBREAK =  0.12E-10  absolut break condition
   DEPER  =   0.30     relativ break condition  

   TIME   =   0.10     timestep for ELM

  volume/ion in A,a.u.               =      12.76        86.09
  Fermi-wavevector in a.u.,eV,Ry     =   1.558184 33.034084  2.427937

 Second variation
   LSECVAR=     F    do a second variation
 
 Write flags
   LWAVE  =      F    write WAVECAR
   LCHARG =      F    write CHGCAR
   LVTOT  =      F    write LOCPOT, local potential
   LELF   =      F    write electronic localiz. function (ELF)
   LORBIT =      0    0 simple, 1 ext, 2 COOP (PROOUT)


 Dipole corrections
   IDIPOL =      0    1-x, 2-y, 3-z
   LDIPOL =      F    correct potential



--------------------------------------------------------------------------------------------------------


 Static calculation
 charge density will be updated during run
 non-spin polarized calculation
 Variant of blocked Davidson
 Davidson routine will perform the subspace rotation
 performe sub-space diagonalisation
    after iterative eigenvector-optimisation
 modified Broyden-mixing scheme, WC =      100.0
 initial mixing is a Kerker type mixing with AMIX =  0.4000 and BMIX =      1.0000
 Hartree-type preconditioning will be used
 using additional bands           40
 reciprocal scheme for non local part
 use partial core corrections
 calculate Harris-corrections to forces 
   (improved forces if not selfconsistent)
 use gradient corrections 
 use of overlap-Matrix (Vanderbilt PP)
 Gauss-broadening in eV      SIGMA  =   0.01


--------------------------------------------------------------------------------------------------------


  energy-cutoff  :      500.00
  volume of cell :      408.24
      direct lattice vectors                 reciprocal lattice vectors
     7.418288256  0.000000000  0.000000000     0.134801987  0.000000000  0.000000000
     0.000000000  7.418288256  0.000000000     0.000000000  0.134801987  0.000000000
     0.000000000  0.000000000  7.418288256     0.000000000  0.000000000  0.134801987

  length of vectors
     7.418288256  7.418288256  7.418288256     0.134801987  0.134801987  0.134801987


 
 k-points in units of 2pi/SCALE and weight: Automatic mesh                          
   0.00000000  0.00000000  0.00000000       0.003
   0.01925743  0.00000000  0.00000000       0.017
   0.03851485  0.00000000  0.00000000       0.017
   0.05777228  0.00000000  0.00000000       0.017
   0.01925743  0.01925743  0.00000000       0.035
   0.03851485  0.01925743  0.00000000       0.070
   0.05777228  0.01925743  0.00000000       0.070
   0.03851485  0.03851485  0.00000000       0.035
   0.05777228  0.03851485  0.00000000       0.070
   0.05777228  0.05777228  0.00000000       0.035
   0.01925743  0.01925743  0.01925743       0.023
   0.03851485  0.01925743  0.01925743       0.070
   0.05777228  0.01925743  0.01925743       0.070
   0.03851485  0.03851485  0.01925743       0.070
   0.05777228  0.03851485  0.01925743       0.140
   0.05777228  0.05777228  0.01925743       0.070
   0.03851485  0.03851485  0.03851485       0.023
   0.05777228  0.03851485  0.03851485       0.070
   0.05777228  0.05777228  0.03851485       0.070
   0.05777228  0.05777228  0.05777228       0.023
 
 k-points in reciprocal lattice and weights: Automatic mesh                          
   0.00000000  0.00000000  0.00000000       0.003
   0.14285714  0.00000000  0.00000000       0.017
   0.28571429  0.00000000  0.00000000       0.017
   0.42857143  0.00000000  0.00000000       0.017
   0.14285714  0.14285714  0.00000000       0.035
   0.28571429  0.14285714  0.00000000       0.070
   0.42857143  0.14285714  0.00000000       0.070
   0.28571429  0.28571429  0.00000000       0.035
   0.42857143  0.28571429  0.00000000       0.070
   0.42857143  0.42857143  0.00000000       0.035
   0.14285714  0.14285714  0.14285714       0.023
   0.28571429  0.14285714  0.14285714       0.070
   0.42857143  0.14285714  0.14285714       0.070
   0.28571429  0.28571429  0.14285714       0.070
   0.42857143  0.28571429  0.14285714       0.140
   0.42857143  0.42857143  0.14285714       0.070
   0.28571429  0.28571429  0.28571429       0.023
   0.42857143  0.28571429  0.28571429       0.070
   0.42857143  0.42857143  0.28571429       0.070
   0.42857143  0.42857143  0.42857143       0.023
 
 position of ions in fractional coordinates (direct lattice) 
   0.00000000  0.00000000  0.00000000
   0.50000000  0.00000000  0.00000000
   0.00000000  0.50000000  0.00000000
   0.50000000  0.50000000  0.00000000
   0.00000000  0.00000000  0.50000000
   0.50000000  0.00000000  0.50000000
   0.00000000  0.50000000  0.50000000
   0.50000000  0.50000000  0.50000000
   0.25000000  0.25000000  0.00000000
   0.75000000  0.25000000  0.00000000
   0.25000000  0.75000000  0.00000000
   0.75000000  0.75000000  0.00000000
   0.25000000  0.25000000  0.50000000
   0.75000000  0.25000000  0.50000000
   0.25000000  0.75000000  0.50000000
   0.75000000  0.75000000  0.50000000
   0.25000000  0.00000000  0.25000000
   0.75000000  0.00000000  0.25000000
   0.25000000  0.50000000  0.25000000
   0.75000000  0.50000000  0.25000000
   0.25000000  0.00000000  0.75000000
   0.75000000  0.00000000  0.75000000
   0.25000000  0.50000000  0.75000000
   0.75000000  0.50000000  0.75000000
   0.00000000  0.25000000  0.25000000
   0.50000000  0.25000000  0.25000000
   0.00000000  0.75000000  0.25000000
   0.50000000  0.75000000  0.25000000
   0.00000000  0.25000000  0.75000000
   0.50000000  0.25000000  0.75000000
   0.00000000  0.75000000  0.75000000
   0.50000000  0.75000000  0.75000000
 
 position of ions in cartesian coordinates  (Angst):
   0.00000000  0.00000000  0.00000000
   3.70914413  0.00000000  0.00000000
   0.00000000  3.70914413  0.00000000
   3.70914413  3.70914413  0.00000000
   0.00000000  0.00000000  3.70914413
   3.70914413  0.00000000  3.70914413
   0.00000000  3.70914413  3.70914413
   3.70914413  3.70914413  3.70914413
   1.85457206  1.85457206  0.00000000
   5.56371619  1.85457206  0.00000000
   1.85457206  5.56371619  0.00000000
   5.56371619  5.56371619  0.00000000
   1.85457206  1.85457206  3.70914413
   5.56371619  1.85457206  3.70914413
   1.85457206  5.56371619  3.70914413
   5.56371619  5.56371619  3.70914413
   1.85457206  0.00000000  1.85457206
   5.56371619  0.00000000  1.85457206
   1.85457206  3.70914413  1.85457206
   5.56371619  3.70914413  1.85457206
   1.85457206  0.00000000  5.56371619
   5.56371619  0.00000000  5.56371619
   1.85457206  3.70914413  5.56371619
   5.56371619  3.70914413  5.56371619
   0.00000000  1.85457206  1.85457206
   3.70914413  1.85457206  1.85457206
   0.00000000  5.56371619  1.85457206
   3.70914413  5.56371619  1.85457206
   0.00000000  1.85457206  5.56371619
   3.70914413  1.85457206  5.56371619
   0.00000000  5.56371619  5.56371619
   3.70914413  5.56371619  5.56371619
 


--------------------------------------------------------------------------------------------------------


 k-point  1 :  0.00000.00000.0000  plane waves:  10395
 k-point  2 :  0.14290.00000.0000  plane waves:  10395
 k-point  3 :  0.28570.00000.0000  plane waves:  10367
 k-point  4 :  0.42860.00000.0000  plane waves:  10383
 k-point  5 :  0.14290.14290.0000  plane waves:  10379
 k-point  6 :  0.28570.14290.0000  plane waves:  10363
 k-point  7 :  0.42860.14290.0000  plane waves:  10366
 k-point  8 :  0.28570.28570.0000  plane waves:  10385
 k-point  9 :  0.42860.28570.0000  plane waves:  10354
 k-point 10 :  0.42860.42860.0000  plane waves:  10363
 k-point 11 :  0.14290.14290.1429  plane waves:  10380
 k-point 12 :  0.28570.14290.1429  plane waves:  10368
 k-point 13 :  0.42860.14290.1429  plane waves:  10366
 k-point 14 :  0.28570.28570.1429  plane waves:  10367
 k-point 15 :  0.42860.28570.1429  plane waves:  10358
 k-point 16 :  0.42860.42860.1429  plane waves:  10351
 k-point 17 :  0.28570.28570.2857  plane waves:  10354
 k-point 18 :  0.42860.28570.2857  plane waves:  10355
 k-point 19 :  0.42860.42860.2857  plane waves:  10362
 k-point 20 :  0.42860.42860.4286  plane waves:  10294

 maximum and minimum number of plane-waves per node :  10395 10294

 maximum number of plane-waves:  10395
 maximal index in each direction: 
   IXMAX= 13   IYMAX= 13   IZMAX= 13
   IXMIN=-13   IYMIN=-13   IZMIN=-13

 NGX is ok and might be reduce to  54
 NGY is ok and might be reduce to  54
 NGZ is ok and might be reduce to  54

 parallel 3dFFT wavefunction:
    minimum data exchange during FFTs selected (reduces bandwidth)
 parallel 3dFFT charge:
    minimum data exchange during FFTs selected (reduces bandwidth)

 For storing wavefunctions  716.45 MBYTES are necessary
 For predicting wavefunctions   77.87 MBYTES are necessary
Broyden mixing: mesh for mixing (old mesh)
   NGX = 27   NGY = 27   NGZ = 27
  (NGX  =108   NGY  =108   NGZ  =108)
 gives a total of  19683 points
 initial charge density was supplied:
 charge density of overlapping atoms calculated
 number of electron  352.0000000 magnetization 
 keeping initial charge density in first step


--------------------------------------------------------------------------------------------------------


 Maximum index for augmentation-charges        13179 (set IRDMAX)


--------------------------------------------------------------------------------------------------------


 First call to EWALD:  gamma=   0.239
 Maximum number of real-space cells 3x 3x 3
 Maximum number of reciprocal cells 3x 3x 3

    FEWALD:  VPU time    0.01: CPU time    0.01


----------------------------------------- Iteration    1(   1)  ---------------------------------------


    POTLOK:  VPU time    0.12: CPU time    0.12
    SETDIJ:  VPU time    0.15: CPU time    0.15
    EDDAV :  VPU time   35.19: CPU time   35.25
    DOS   :  VPU time    0.00: CPU time   -0.00
    ------------------------------------------
      LOOP:  VPU time   35.48: CPU time   35.53

 eigenvalue-minimisations  :  8640
 total energy-change (2. order) : 0.3193301E+04  (-0.1462682E+05)
 number of electron  352.0000000 magnetization 
 augmentation part   352.0000000 magnetization 

 Free energy of the ion-electron system (eV)
  ---------------------------------------------------
  alpha Z        PSCENC =      3204.73595890
  Ewald energy   TEWEN  =    -34459.90243436
  -1/2 Hartree   DENC   =    -10916.55401539
  -V(xc)+E(xc)   XCENC  =      1398.20888483
  PAW double counting   =     34625.67335558   -39234.46421604
  entropy T*S    EENTRO =        -0.00041831
  eigenvalues    EBANDS =      4064.34578361
  atomic energy  EATOM  =     44511.25856501
  ---------------------------------------------------
  free energy    TOTEN  =      3193.30146384 eV

  energy without entropy =     3193.30188214  energy(sigma->0) =     3193.30167299


--------------------------------------------------------------------------------------------------------




----------------------------------------- Iteration    1(   2)  ---------------------------------------


    EDDAV :  VPU time   35.11: CPU time   35.11
    DOS   :  VPU time    0.00: CPU time   -0.00
    ------------------------------------------
      LOOP:  VPU time   35.13: CPU time   35.13

 eigenvalue-minimisations  :  8640
 total energy-change (2. order) :-0.2901846E+04  (-0.2785444E+04)
 number of electron  352.0000000 magnetization 
 augmentation part   352.0000000 magnetization 

 Free energy of the ion-electron system (eV)
  ---------------------------------------------------
  alpha Z        PSCENC =      3204.73595890
  Ewald energy   TEWEN  =    -34459.90243436
  -1/2 Hartree   DENC   =    -10916.55401539
  -V(xc)+E(xc)   XCENC  =      1398.20888483
  PAW double counting   =     34625.67335558   -39234.46421604
  entropy T*S    EENTRO =        -0.00116507
  eigenvalues    EBANDS =      1162.50024955
  atomic energy  EATOM  =     44511.25856501
  ---------------------------------------------------
  free energy    TOTEN  =       291.45518302 eV

  energy without entropy =      291.45634809  energy(sigma->0) =      291.45576555


--------------------------------------------------------------------------------------------------------




----------------------------------------- Iteration    1(   3)  ---------------------------------------


    EDDAV :  VPU time   35.11: CPU time   35.11
    DOS   :  VPU time    0.00: CPU time   -0.00
    ------------------------------------------
      LOOP:  VPU time   35.13: CPU time   35.13

 eigenvalue-minimisations  :  8640
 total energy-change (2. order) :-0.4148781E+03  (-0.3731828E+03)
 number of electron  352.0000000 magnetization 
 augmentation part   352.0000000 magnetization 

 Free energy of the ion-electron system (eV)
  ---------------------------------------------------
  alpha Z        PSCENC =      3204.73595890
  Ewald energy   TEWEN  =    -34459.90243436
  -1/2 Hartree   DENC   =    -10916.55401539
  -V(xc)+E(xc)   XCENC  =      1398.20888483
  PAW double counting   =     34625.67335558   -39234.46421604
  entropy T*S    EENTRO =        -0.00175554
  eigenvalues    EBANDS =       747.62269154
  atomic energy  EATOM  =     44511.25856501
  ---------------------------------------------------
  free energy    TOTEN  =      -123.42296546 eV

  energy without entropy =     -123.42120992  energy(sigma->0) =     -123.42208769


--------------------------------------------------------------------------------------------------------




----------------------------------------- Iteration    1(   4)  ---------------------------------------


    EDDAV :  VPU time   36.83: CPU time   36.83
    DOS   :  VPU time    0.00: CPU time   -0.00
    ------------------------------------------
      LOOP:  VPU time   36.85: CPU time   36.85

 eigenvalue-minimisations  :  9248
 total energy-change (2. order) :-0.2176007E+02  (-0.2129839E+02)
 number of electron  352.0000000 magnetization 
 augmentation part   352.0000000 magnetization 

 Free energy of the ion-electron system (eV)
  ---------------------------------------------------
  alpha Z        PSCENC =      3204.73595890
  Ewald energy   TEWEN  =    -34459.90243436
  -1/2 Hartree   DENC   =    -10916.55401539
  -V(xc)+E(xc)   XCENC  =      1398.20888483
  PAW double counting   =     34625.67335558   -39234.46421604
  entropy T*S    EENTRO =        -0.00207916
  eigenvalues    EBANDS =       725.86294217
  atomic energy  EATOM  =     44511.25856501
  ---------------------------------------------------
  free energy    TOTEN  =      -145.18303846 eV

  energy without entropy =     -145.18095930  energy(sigma->0) =     -145.18199888


--------------------------------------------------------------------------------------------------------




----------------------------------------- Iteration    1(   5)  ---------------------------------------


    EDDAV :  VPU time   36.76: CPU time   36.77
    DOS   :  VPU time    0.00: CPU time   -0.00
    CHARGE:  VPU time    1.46: CPU time    1.46
    MIXING:  VPU time    0.00: CPU time    0.00
    ------------------------------------------
      LOOP:  VPU time   38.24: CPU time   38.26

 eigenvalue-minimisations  :  9240
 total energy-change (2. order) :-0.1709368E+00  (-0.1706487E+00)
 number of electron  352.0000038 magnetization 
 augmentation part   214.5405403 magnetization 

 Broyden mixing:
  rms(total) = 0.38900E+01    rms(broyden)= 0.38899E+01
  rms(prec ) = 0.57228E+01
  weight for this iteration     100.00

 Free energy of the ion-electron system (eV)
  ---------------------------------------------------
  alpha Z        PSCENC =      3204.73595890
  Ewald energy   TEWEN  =    -34459.90243436
  -1/2 Hartree   DENC   =    -10916.55401539
  -V(xc)+E(xc)   XCENC  =      1398.20888483
  PAW double counting   =     34625.67335558   -39234.46421604
  entropy T*S    EENTRO =        -0.00205765
  eigenvalues    EBANDS =       725.69198389
  atomic energy  EATOM  =     44511.25856501
  ---------------------------------------------------
  free energy    TOTEN  =      -145.35397523 eV

  energy without entropy =     -145.35191758  energy(sigma->0) =     -145.35294640


--------------------------------------------------------------------------------------------------------




----------------------------------------- Iteration    1(   6)  ---------------------------------------


    POTLOK:  VPU time    0.11: CPU time    0.11
    SETDIJ:  VPU time    0.15: CPU time    0.15
    EDDAV :  VPU time   36.93: CPU time   36.92
    DOS   :  VPU time    0.00: CPU time   -0.00
    CHARGE:  VPU time    1.38: CPU time    1.38
    MIXING:  VPU time    0.00: CPU time    0.00
    ------------------------------------------
      LOOP:  VPU time   38.59: CPU time   38.59

 eigenvalue-minimisations  :  9304
 total energy-change (2. order) : 0.1534749E+02  (-0.2780905E+02)
 number of electron  352.0000041 magnetization 
 augmentation part   239.7577316 magnetization 

 Broyden mixing:
  rms(total) = 0.19488E+01    rms(broyden)= 0.19487E+01
  rms(prec ) = 0.26990E+01
  weight for this iteration     100.00

 eigenvalues of (default mixing * dielectric matrix)
  average eigenvalue GAMMA=   0.6675
  0.6675

 Free energy of the ion-electron system (eV)
  ---------------------------------------------------
  alpha Z        PSCENC =      3204.73595890
  Ewald energy   TEWEN  =    -34459.90243436
  -1/2 Hartree   DENC   =    -10109.56850447
  -V(xc)+E(xc)   XCENC  =      1357.67800055
  PAW double counting   =     33695.33902702   -38039.84517199
  entropy T*S    EENTRO =        -0.00123043
  eigenvalues    EBANDS =      -289.70069365
  atomic energy  EATOM  =     44511.25856501
  ---------------------------------------------------
  free energy    TOTEN  =      -130.00648341 eV

  energy without entropy =     -130.00525298  energy(sigma->0) =     -130.00586820


--------------------------------------------------------------------------------------------------------




----------------------------------------- Iteration    1(   7)  ---------------------------------------


    POTLOK:  VPU time    0.12: CPU time    0.13
    SETDIJ:  VPU time    0.15: CPU time    0.15
    EDDAV :  VPU time   37.95: CPU time   37.95
    DOS   :  VPU time    0.00: CPU time   -0.00
    CHARGE:  VPU time    1.39: CPU time    1.39
    MIXING:  VPU time    0.00: CPU time    0.00
    ------------------------------------------
      LOOP:  VPU time   39.64: CPU time   39.64

 eigenvalue-minimisations  :  9616
 total energy-change (2. order) : 0.1124320E+02  (-0.5070457E+01)
 number of electron  352.0000040 magnetization 
 augmentation part   230.3817045 magnetization 

 Broyden mixing:
  rms(total) = 0.25844E+00    rms(broyden)= 0.25835E+00
  rms(prec ) = 0.39217E+00
  weight for this iteration     100.00

 eigenvalues of (default mixing * dielectric matrix)
  average eigenvalue GAMMA=   1.2743
  1.9063  0.6423

 Free energy of the ion-electron system (eV)
  ---------------------------------------------------
  alpha Z        PSCENC =      3204.73595890
  Ewald energy   TEWEN  =    -34459.90243436
  -1/2 Hartree   DENC   =    -10348.67344440
  -V(xc)+E(xc)   XCENC  =      1370.21860752
  PAW double counting   =     34345.31130980   -38881.71376438
  entropy T*S    EENTRO =        -0.00105309
  eigenvalues    EBANDS =       140.00296697
  atomic energy  EATOM  =     44511.25856501
  ---------------------------------------------------
  free energy    TOTEN  =      -118.76328803 eV

  energy without entropy =     -118.76223494  energy(sigma->0) =     -118.76276148


--------------------------------------------------------------------------------------------------------




----------------------------------------- Iteration    1(   8)  ---------------------------------------


    POTLOK:  VPU time    0.11: CPU time    0.11
    SETDIJ:  VPU time    0.15: CPU time    0.15
    EDDAV :  VPU time   36.27: CPU time   36.29
    DOS   :  VPU time    0.00: CPU time   -0.00
    CHARGE:  VPU time    1.43: CPU time    1.43
    MIXING:  VPU time    0.00: CPU time    0.00
    ------------------------------------------
      LOOP:  VPU time   37.99: CPU time   38.00

 eigenvalue-minimisations  :  9032
 total energy-change (2. order) : 0.1783012E+00  (-0.7820800E-01)
 number of electron  352.0000040 magnetization 
 augmentation part   229.7704419 magnetization 

 Broyden mixing:
  rms(total) = 0.22460E+00    rms(broyden)= 0.22459E+00
  rms(prec ) = 0.33405E+00
  weight for this iteration     100.00

 eigenvalues of (default mixing * dielectric matrix)
  average eigenvalue GAMMA=   1.4030
  0.6740  0.9751  2.5601

 Free energy of the ion-electron system (eV)
  ---------------------------------------------------
  alpha Z        PSCENC =      3204.73595890
  Ewald energy   TEWEN  =    -34459.90243436
  -1/2 Hartree   DENC   =    -10279.71529491
  -V(xc)+E(xc)   XCENC  =      1367.21268925
  PAW double counting   =     34709.14380914   -39321.88202365
  entropy T*S    EENTRO =        -0.00107900
  eigenvalues    EBANDS =       150.56482278
  atomic energy  EATOM  =     44511.25856501
  ---------------------------------------------------
  free energy    TOTEN  =      -118.58498684 eV

  energy without entropy =     -118.58390784  energy(sigma->0) =     -118.58444734


--------------------------------------------------------------------------------------------------------




----------------------------------------- Iteration    1(   9)  ---------------------------------------


    POTLOK:  VPU time    0.12: CPU time    0.12
    SETDIJ:  VPU time    0.15: CPU time    0.15
    EDDAV :  VPU time   36.61: CPU time   36.63
    DOS   :  VPU time    0.00: CPU time   -0.00
    CHARGE:  VPU time    1.40: CPU time    1.40
    MIXING:  VPU time    0.00: CPU time    0.00
    ------------------------------------------
      LOOP:  VPU time   38.31: CPU time   38.33

 eigenvalue-minimisations  :  9168
 total energy-change (2. order) : 0.9671677E-01  (-0.3109264E-01)
 number of electron  352.0000040 magnetization 
 augmentation part   230.6618196 magnetization 

 Broyden mixing:
  rms(total) = 0.14982E-01    rms(broyden)= 0.14974E-01
  rms(prec ) = 0.21409E-01
  weight for this iteration     100.00

 eigenvalues of (default mixing * dielectric matrix)
  average eigenvalue GAMMA=   1.5793
  2.7546  0.6809  0.8901  1.9917

 Free energy of the ion-electron system (eV)
  ---------------------------------------------------
  alpha Z        PSCENC =      3204.73595890
  Ewald energy   TEWEN  =    -34459.90243436
  -1/2 Hartree   DENC   =    -10226.99006869
  -V(xc)+E(xc)   XCENC  =      1364.69603367
  PAW double counting   =     34786.79343052   -39409.97693543
  entropy T*S    EENTRO =        -0.00108893
  eigenvalues    EBANDS =       110.89826924
  atomic energy  EATOM  =     44511.25856501
  ---------------------------------------------------
  free energy    TOTEN  =      -118.48827007 eV

  energy without entropy =     -118.48718114  energy(sigma->0) =     -118.48772561


--------------------------------------------------------------------------------------------------------




----------------------------------------- Iteration    1(  10)  ---------------------------------------


    POTLOK:  VPU time    0.11: CPU time    0.11
    SETDIJ:  VPU time    0.15: CPU time    0.15
    EDDAV :  VPU time   36.20: CPU time   36.20
    DOS   :  VPU time    0.00: CPU time   -0.00
    CHARGE:  VPU time    1.40: CPU time    1.40
    MIXING:  VPU time    0.00: CPU time    0.00
    ------------------------------------------
      LOOP:  VPU time   37.89: CPU time   37.89

 eigenvalue-minimisations  :  9064
 total energy-change (2. order) :-0.5176348E-03  (-0.8997469E-03)
 number of electron  352.0000040 magnetization 
 augmentation part   230.6140679 magnetization 

 Broyden mixing:
  rms(total) = 0.29898E-02    rms(broyden)= 0.29895E-02
  rms(prec ) = 0.38216E-02
  weight for this iteration     100.00

 eigenvalues of (default mixing * dielectric matrix)
  average eigenvalue GAMMA=   1.5524
  2.5725  2.5725  0.6784  0.9693  0.9693

 Free energy of the ion-electron system (eV)
  ---------------------------------------------------
  alpha Z        PSCENC =      3204.73595890
  Ewald energy   TEWEN  =    -34459.90243436
  -1/2 Hartree   DENC   =    -10229.52464577
  -V(xc)+E(xc)   XCENC  =      1364.82091241
  PAW double counting   =     34797.16759705   -39420.26895336
  entropy T*S    EENTRO =        -0.00108097
  eigenvalues    EBANDS =       113.22529339
  atomic energy  EATOM  =     44511.25856501
  ---------------------------------------------------
  free energy    TOTEN  =      -118.48878770 eV

  energy without entropy =     -118.48770674  energy(sigma->0) =     -118.48824722


--------------------------------------------------------------------------------------------------------




----------------------------------------- Iteration    1(  11)  ---------------------------------------


    POTLOK:  VPU time    0.12: CPU time    0.12
    SETDIJ:  VPU time    0.15: CPU time    0.15
    EDDAV :  VPU time   36.59: CPU time   36.59
    DOS   :  VPU time    0.00: CPU time   -0.00
    CHARGE:  VPU time    1.40: CPU time    1.39
    MIXING:  VPU time    0.00: CPU time    0.00
    ------------------------------------------
      LOOP:  VPU time   38.29: CPU time   38.29

 eigenvalue-minimisations  :  9184
 total energy-change (2. order) : 0.3053602E-04  (-0.9397114E-05)
 number of electron  352.0000040 magnetization 
 augmentation part   230.6092193 magnetization 

 Broyden mixing:
  rms(total) = 0.79380E-03    rms(broyden)= 0.79367E-03
  rms(prec ) = 0.11588E-02
  weight for this iteration     100.00

 eigenvalues of (default mixing * dielectric matrix)
  average eigenvalue GAMMA=   1.5102
  2.6492  2.4093  0.6788  0.9218  1.2009  1.2009

 Free energy of the ion-electron system (eV)
  ---------------------------------------------------
  alpha Z        PSCENC =      3204.73595890
  Ewald energy   TEWEN  =    -34459.90243436
  -1/2 Hartree   DENC   =    -10230.54471780
  -V(xc)+E(xc)   XCENC  =      1364.86664390
  PAW double counting   =     34803.62540294   -39425.98479619
  entropy T*S    EENTRO =        -0.00107938
  eigenvalues    EBANDS =       113.45769981
  atomic energy  EATOM  =     44511.25856501
  ---------------------------------------------------
  free energy    TOTEN  =      -118.48875717 eV

  energy without entropy =     -118.48767778  energy(sigma->0) =     -118.48821748


--------------------------------------------------------------------------------------------------------




----------------------------------------- Iteration    1(  12)  ---------------------------------------


    POTLOK:  VPU time    0.11: CPU time    0.11
    SETDIJ:  VPU time    0.15: CPU time    0.15
    EDDAV :  VPU time   37.26: CPU time   37.26
    DOS   :  VPU time    0.00: CPU time   -0.00
    CHARGE:  VPU time    1.41: CPU time    1.41
    MIXING:  VPU time    0.00: CPU time    0.00
    ------------------------------------------
      LOOP:  VPU time   38.96: CPU time   38.95

 eigenvalue-minimisations  :  9408
 total energy-change (2. order) :-0.3278971E-04  (-0.8837153E-07)
 number of electron  352.0000040 magnetization 
 augmentation part   230.6101645 magnetization 

 Broyden mixing:
  rms(total) = 0.14177E-03    rms(broyden)= 0.14174E-03
  rms(prec ) = 0.18335E-03
  weight for this iteration     100.00

 eigenvalues of (default mixing * dielectric matrix)
  average eigenvalue GAMMA=   1.6324
  2.6359  2.6359  2.5333  0.6787  0.9297  1.0068  1.0068

 Free energy of the ion-electron system (eV)
  ---------------------------------------------------
  alpha Z        PSCENC =      3204.73595890
  Ewald energy   TEWEN  =    -34459.90243436
  -1/2 Hartree   DENC   =    -10230.18221297
  -V(xc)+E(xc)   XCENC  =      1364.84978661
  PAW double counting   =     34805.34292622   -39427.98465913
  entropy T*S    EENTRO =        -0.00107974
  eigenvalues    EBANDS =       113.39435952
  atomic energy  EATOM  =     44511.25856501
  ---------------------------------------------------
  free energy    TOTEN  =      -118.48878996 eV

  energy without entropy =     -118.48771022  energy(sigma->0) =     -118.48825009


--------------------------------------------------------------------------------------------------------




----------------------------------------- Iteration    1(  13)  ---------------------------------------


    POTLOK:  VPU time    0.12: CPU time    0.12
    SETDIJ:  VPU time    0.15: CPU time    0.15
    EDDAV :  VPU time   30.09: CPU time   30.08
    DOS   :  VPU time    0.00: CPU time   -0.00
    CHARGE:  VPU time    1.26: CPU time    1.26
    MIXING:  VPU time    0.00: CPU time    0.00
    ------------------------------------------
      LOOP:  VPU time   31.64: CPU time   31.64

 eigenvalue-minimisations  :  7672
 total energy-change (2. order) :-0.6782204E-05  (-0.4980413E-08)
 number of electron  352.0000040 magnetization 
 augmentation part   230.6099780 magnetization 

 Broyden mixing:
  rms(total) = 0.32930E-04    rms(broyden)= 0.32923E-04
  rms(prec ) = 0.39317E-04
  weight for this iteration     100.00

 eigenvalues of (default mixing * dielectric matrix)
  average eigenvalue GAMMA=   1.5747
  2.6761  2.6761  2.5337  0.6787  0.9245  0.9245  1.0918  1.0918

 Free energy of the ion-electron system (eV)
  ---------------------------------------------------
  alpha Z        PSCENC =      3204.73595890
  Ewald energy   TEWEN  =    -34459.90243436
  -1/2 Hartree   DENC   =    -10230.19767605
  -V(xc)+E(xc)   XCENC  =      1364.85001608
  PAW double counting   =     34805.72046821   -39428.36236718
  entropy T*S    EENTRO =        -0.00107971
  eigenvalues    EBANDS =       113.40975236
  atomic energy  EATOM  =     44511.25856501
  ---------------------------------------------------
  free energy    TOTEN  =      -118.48879674 eV

  energy without entropy =     -118.48771703  energy(sigma->0) =     -118.48825689


--------------------------------------------------------------------------------------------------------




----------------------------------------- Iteration    1(  14)  ---------------------------------------


    POTLOK:  VPU time    0.11: CPU time    0.11
    SETDIJ:  VPU time    0.13: CPU time    0.14
    EDDAV :  VPU time   22.58: CPU time   22.58
    DOS   :  VPU time    0.00: CPU time   -0.00
    CHARGE:  VPU time    1.09: CPU time    1.09
    MIXING:  VPU time    0.00: CPU time    0.00
    ------------------------------------------
      LOOP:  VPU time   23.93: CPU time   23.93

 eigenvalue-minimisations  :  5104
 total energy-change (2. order) : 0.3010282E-06  (-0.1975710E-08)
 number of electron  352.0000040 magnetization 
 augmentation part   230.6101290 magnetization 

 Broyden mixing:
  rms(total) = 0.78263E-05    rms(broyden)= 0.78247E-05
  rms(prec ) = 0.92416E-05
  weight for this iteration     100.00

 eigenvalues of (default mixing * dielectric matrix)
  average eigenvalue GAMMA=   1.6768
  2.9641  2.5671  2.4642  2.4642  0.6787  0.9399  1.0003  1.0003  1.0123

 Free energy of the ion-electron system (eV)
  ---------------------------------------------------
  alpha Z        PSCENC =      3204.73595890
  Ewald energy   TEWEN  =    -34459.90243436
  -1/2 Hartree   DENC   =    -10230.20663317
  -V(xc)+E(xc)   XCENC  =      1364.85033055
  PAW double counting   =     34805.72325476   -39428.35246521
  entropy T*S    EENTRO =        -0.00107972
  eigenvalues    EBANDS =       113.40570679
  atomic energy  EATOM  =     44511.25856501
  ---------------------------------------------------
  free energy    TOTEN  =      -118.48879644 eV

  energy without entropy =     -118.48771672  energy(sigma->0) =     -118.48825658


--------------------------------------------------------------------------------------------------------




----------------------------------------- Iteration    1(  15)  ---------------------------------------


    POTLOK:  VPU time    0.09: CPU time    0.09
    SETDIJ:  VPU time    0.12: CPU time    0.12
    EDDAV :  VPU time   22.35: CPU time   22.36
    DOS   :  VPU time    0.00: CPU time   -0.00
    CHARGE:  VPU time    1.40: CPU time    1.40
    MIXING:  VPU time    0.00: CPU time    0.00
    ------------------------------------------
      LOOP:  VPU time   23.99: CPU time   23.99

 eigenvalue-minimisations  :  4800
 total energy-change (2. order) : 0.2042289E-06  (-0.1765950E-09)
 number of electron  352.0000040 magnetization 
 augmentation part   230.6100789 magnetization 

 Broyden mixing:
  rms(total) = 0.62716E-05    rms(broyden)= 0.62714E-05
  rms(prec ) = 0.94289E-05
  weight for this iteration     100.00

 eigenvalues of (default mixing * dielectric matrix)
  average eigenvalue GAMMA=   1.5939
  2.7618  2.5668  2.5668  2.5589  0.6787  1.0308  1.0308  0.9512  0.9512  0.8418

 Free energy of the ion-electron system (eV)
  ---------------------------------------------------
  alpha Z        PSCENC =      3204.73595890
  Ewald energy   TEWEN  =    -34459.90243436
  -1/2 Hartree   DENC   =    -10230.20782539
  -V(xc)+E(xc)   XCENC  =      1364.85039315
  PAW double counting   =     34805.70985736   -39428.33992194
  entropy T*S    EENTRO =        -0.00107971
  eigenvalues    EBANDS =       113.40769075
  atomic energy  EATOM  =     44511.25856501
  ---------------------------------------------------
  free energy    TOTEN  =      -118.48879624 eV

  energy without entropy =     -118.48771653  energy(sigma->0) =     -118.48825638


--------------------------------------------------------------------------------------------------------




----------------------------------------- Iteration    1(  16)  ---------------------------------------


    POTLOK:  VPU time    0.11: CPU time    0.11
    SETDIJ:  VPU time    0.15: CPU time    0.15
    EDDAV :  VPU time   23.75: CPU time   23.75
    DOS   :  VPU time    0.00: CPU time   -0.00
    CHARGE:  VPU time    1.47: CPU time    1.47
    MIXING:  VPU time    0.01: CPU time    0.00
    ------------------------------------------
      LOOP:  VPU time   25.51: CPU time   25.51

 eigenvalue-minimisations  :  4800
 total energy-change (2. order) : 0.3243622E-07  (-0.6602412E-10)
 number of electron  352.0000040 magnetization 
 augmentation part   230.6101164 magnetization 

 Broyden mixing:
  rms(total) = 0.38115E-05    rms(broyden)= 0.38113E-05
  rms(prec ) = 0.54815E-05
  weight for this iteration     100.00

 eigenvalues of (default mixing * dielectric matrix)
  average eigenvalue GAMMA=   1.6101
  2.9212  2.5738  2.5738  2.4625  0.6787  1.2914  1.2914  0.9463  0.9463  1.0127
  1.0127

 Free energy of the ion-electron system (eV)
  ---------------------------------------------------
  alpha Z        PSCENC =      3204.73595890
  Ewald energy   TEWEN  =    -34459.90243436
  -1/2 Hartree   DENC   =    -10230.20578802
  -V(xc)+E(xc)   XCENC  =      1364.85030202
  PAW double counting   =     34805.70262554   -39428.33295988
  entropy T*S    EENTRO =        -0.00107972
  eigenvalues    EBANDS =       113.40601430
  atomic energy  EATOM  =     44511.25856501
  ---------------------------------------------------
  free energy    TOTEN  =      -118.48879620 eV

  energy without entropy =     -118.48771649  energy(sigma->0) =     -118.48825635


--------------------------------------------------------------------------------------------------------




----------------------------------------- Iteration    1(  17)  ---------------------------------------


    POTLOK:  VPU time    0.11: CPU time    0.11
    SETDIJ:  VPU time    0.15: CPU time    0.15
    EDDAV :  VPU time   23.74: CPU time   23.74
    DOS   :  VPU time    0.00: CPU time   -0.00
    ------------------------------------------
      LOOP:  VPU time   24.02: CPU time   24.02

 eigenvalue-minimisations  :  4800
 total energy-change (2. order) :-0.8993084E-08  (-0.7282244E-11)
 number of electron  352.0000040 magnetization 
 augmentation part   230.6101164 magnetization 

 Free energy of the ion-electron system (eV)
  ---------------------------------------------------
  alpha Z        PSCENC =      3204.73595890
  Ewald energy   TEWEN  =    -34459.90243436
  -1/2 Hartree   DENC   =    -10230.20576651
  -V(xc)+E(xc)   XCENC  =      1364.85030057
  PAW double counting   =     34805.70351185   -39428.33391855
  entropy T*S    EENTRO =        -0.00107971
  eigenvalues    EBANDS =       113.40606659
  atomic energy  EATOM  =     44511.25856501
  ---------------------------------------------------
  free energy    TOTEN  =      -118.48879621 eV

  energy without entropy =     -118.48771650  energy(sigma->0) =     -118.48825635


--------------------------------------------------------------------------------------------------------




 average (electrostatic) potential at core
  the test charge radii are     1.0053
  (the norm of the test charge is              1.0000)
       1 -40.3986       2 -40.3986       3 -40.3986       4 -40.3986       5 -40.3986
       6 -40.3986       7 -40.3986       8 -40.3986       9 -40.3986      10 -40.3986
      11 -40.3986      12 -40.3986      13 -40.3986      14 -40.3986      15 -40.3986
      16 -40.3986      17 -40.3986      18 -40.3986      19 -40.3986      20 -40.3986
      21 -40.3986      22 -40.3986      23 -40.3986      24 -40.3986      25 -40.3986
      26 -40.3986      27 -40.3986      28 -40.3986      29 -40.3986      30 -40.3986
      31 -40.3986      32 -40.3986
 
 
 
 E-fermi :   3.1552     XC(G=0): -12.3554     alpha+bet : -8.9158
   add alpha+bet to get absolut eigen values

 k-point   1 :       0.0000    0.0000    0.0000
  band No.  band energies     occupation 
      1      -5.6212      2.00000
      2      -2.9879      2.00000
      3      -2.9879      2.00000
      4      -2.9879      2.00000
      5      -2.9879      2.00000
      6      -2.9879      2.00000
      7      -2.9879      2.00000
      8      -1.5221      2.00000
      9      -1.5221      2.00000
     10      -1.5221      2.00000
     11      -1.5221      2.00000
     12      -1.3078      2.00000
     13      -1.3078      2.00000
     14      -1.3078      2.00000
     15      -1.1827      2.00000
     16      -1.1827      2.00000
     17      -1.1827      2.00000
     18      -1.1827      2.00000
     19      -1.1827      2.00000
     20      -1.1827      2.00000
     21      -1.1827      2.00000
     22      -1.1827      2.00000
     23      -1.1827      2.00000
     24      -1.1827      2.00000
     25      -1.1827      2.00000
     26      -1.1827      2.00000
     27      -0.9036      2.00000
     28      -0.9036      2.00000
     29      -0.9036      2.00000
     30      -0.6363      2.00000
     31      -0.6363      2.00000
     32      -0.6363      2.00000
     33      -0.6363      2.00000
     34      -0.6363      2.00000
     35      -0.6363      2.00000
     36      -0.3014      2.00000
     37      -0.3014      2.00000
     38      -0.3014      2.00000
     39      -0.3014      2.00000
     40      -0.3014      2.00000
     41      -0.3014      2.00000
     42      -0.1082      2.00000
     43      -0.1082      2.00000
     44      -0.1082      2.00000
     45      -0.1082      2.00000
     46      -0.1082      2.00000
     47      -0.1082      2.00000
     48      -0.1082      2.00000
     49      -0.1082      2.00000
     50      -0.1082      2.00000
     51      -0.1082      2.00000
     52      -0.1082      2.00000
     53      -0.1082      2.00000
     54      -0.1066      2.00000
     55      -0.1066      2.00000
     56      -0.1066      2.00000
     57      -0.1066      2.00000
     58      -0.1066      2.00000
     59      -0.1066      2.00000
     60      -0.1066      2.00000
     61      -0.1066      2.00000
     62      -0.1066      2.00000
     63      -0.1066      2.00000
     64      -0.1066      2.00000
     65      -0.1066      2.00000
     66       0.0825      2.00000
     67       0.0825      2.00000
     68       0.0825      2.00000
     69       0.0825      2.00000
     70       0.0825      2.00000
     71       0.0825      2.00000
     72       0.0825      2.00000
     73       0.0825      2.00000
     74       0.0825      2.00000
     75       0.0825      2.00000
     76       0.0825      2.00000
     77       0.0825      2.00000
     78       0.3050      2.00000
     79       0.3050      2.00000
     80       0.3050      2.00000
     81       0.3050      2.00000
     82       0.3050      2.00000
     83       0.3050      2.00000
     84       0.3050      2.00000
     85       0.3050      2.00000
     86       0.3291      2.00000
     87       0.3291      2.00000
     88       0.3291      2.00000
     89       0.6666      2.00000
     90       0.6666      2.00000
     91       0.6666      2.00000
     92       0.6666      2.00000
     93       0.6666      2.00000
     94       0.6666      2.00000
     95       0.7803      2.00000
     96       0.7803      2.00000
     97       0.7803      2.00000
     98       0.7803      2.00000
     99       0.7803      2.00000
    100       0.7803      2.00000
    101       0.7803      2.00000
    102       0.7803      2.00000
    103       0.7803      2.00000
    104       0.7803      2.00000
    105       0.7803      2.00000
    106       0.7803      2.00000
    107       0.9177      2.00000
    108       0.9177      2.00000
    109       0.9177      2.00000
    110       0.9177      2.00000
    111       0.9177      2.00000
    112       0.9177      2.00000
    113       0.9177      2.00000
    114       0.9177      2.00000
    115       0.9177      2.00000
    116       0.9177      2.00000
    117       0.9177      2.00000
    118       0.9177      2.00000
    119       1.0316      2.00000
    120       1.0316      2.00000
    121       1.0316      2.00000
    122       1.0316      2.00000
    123       1.0316      2.00000
    124       1.0316      2.00000
    125       1.0592      2.00000
    126       1.0592      2.00000
    127       1.0592      2.00000
    128       1.0592      2.00000
    129       1.0592      2.00000
    130       1.0592      2.00000
    131       1.0592      2.00000
    132       1.0592      2.00000
    133       1.0592      2.00000
    134       1.0592      2.00000
    135       1.0592      2.00000
    136       1.0592      2.00000
    137       1.0633      2.00000
    138       1.0633      2.00000
    139       1.3051      2.00000
    140       1.3051      2.00000
    141       1.3051      2.00000
    142       1.3051      2.00000
    143       1.3051      2.00000
    144       1.3051      2.00000
    145       1.5516      2.00000
    146       1.5516      2.00000
    147       1.5516      2.00000
    148       1.5643      2.00000
    149       1.5643      2.00000
    150       1.5643      2.00000
    151       1.5643      2.00000
    152       1.5643      2.00000
    153       1.5643      2.00000
    154       1.5643      2.00000
    155       1.5643      2.00000
    156       1.6883      2.00000
    157       1.6883      2.00000
    158       1.6883      2.00000
    159       1.6883      2.00000
    160       1.6883      2.00000
    161       1.6883      2.00000
    162       1.6890      2.00000
    163       1.6890      2.00000
    164       1.6890      2.00000
    165       1.6890      2.00000
    166       1.6890      2.00000
    167       1.6890      2.00000
    168       2.3792      2.00000
    169       2.3792      2.00000
    170       2.3792      2.00000
    171       2.3792      2.00000
    172       2.7967      2.00000
    173       2.7967      2.00000
    174       2.7967      2.00000
    175       2.7967      2.00000
    176       2.7967      2.00000
    177       2.7967      2.00000
    178       2.7967      2.00000
    179       2.7967      2.00000
    180       2.7967      2.00000
    181       2.7967      2.00000
    182       2.7967      2.00000
    183       2.7967      2.00000
    184       4.7228      0.00000
    185       4.7228      0.00000
    186       4.7228      0.00000
    187       6.5338      0.00000
    188       6.5338      0.00000
    189       6.5338      0.00000
    190       6.5338      0.00000
    191       9.0881      0.00000
    192       9.0881      0.00000
    193       9.0881      0.00000
    194       9.0881      0.00000
    195       9.0881      0.00000
    196       9.0881      0.00000
    197       9.0881      0.00000
    198       9.0881      0.00000
    199       9.0881      0.00000
    200       9.0881      0.00000
    201       9.0881      0.00000
    202       9.0881      0.00000
    203       9.7484      0.00000
    204       9.7484      0.00000
    205       9.7484      0.00000
    206      11.1100      0.00000
    207      11.1100      0.00000
    208      11.1100      0.00000
    209      11.1100      0.00000
    210      11.1100      0.00000
    211      11.1100      0.00000
    212      11.2972      0.00000
    213      11.2972      0.00000
    214      11.2972      0.00000
    215      11.2972      0.00000
    216      11.2972      0.00000

 k-point   2 :       0.1429    0.0000    0.0000
  band No.  band energies     occupation 
      1      -5.5624      2.00000
      2      -3.6206      2.00000
      3      -2.9398      2.00000
      4      -2.9398      2.00000
      5      -2.9398      2.00000
      6      -2.9398      2.00000
      7      -2.3636      2.00000
      8      -1.5368      2.00000
      9      -1.5368      2.00000
     10      -1.5368      2.00000
     11      -1.5368      2.00000
     12      -1.5097      2.00000
     13      -1.5097      2.00000
     14      -1.5097      2.00000
     15      -1.5097      2.00000
     16      -1.3091      2.00000
     17      -1.2814      2.00000
     18      -1.2814      2.00000
     19      -1.2078      2.00000
     20      -1.2078      2.00000
     21      -1.2078      2.00000
     22      -1.2078      2.00000
     23      -0.8888      2.00000
     24      -0.8880      2.00000
     25      -0.8880      2.00000
     26      -0.8830      2.00000
     27      -0.8830      2.00000
     28      -0.8830      2.00000
     29      -0.8830      2.00000
     30      -0.6806      2.00000
     31      -0.6806      2.00000
     32      -0.6161      2.00000
     33      -0.6161      2.00000
     34      -0.6161      2.00000
     35      -0.6161      2.00000
     36      -0.4378      2.00000
     37      -0.3239      2.00000
     38      -0.3239      2.00000
     39      -0.2950      2.00000
     40      -0.2950      2.00000
     41      -0.2950      2.00000
     42      -0.2950      2.00000
     43      -0.1636      2.00000
     44      -0.1349      2.00000
     45      -0.1349      2.00000
     46      -0.1349      2.00000
     47      -0.1349      2.00000
     48      -0.1303      2.00000
     49      -0.1303      2.00000
     50      -0.1303      2.00000
     51      -0.1303      2.00000
     52      -0.1061      2.00000
     53      -0.1061      2.00000
     54      -0.1061      2.00000
     55      -0.1061      2.00000
     56      -0.0894      2.00000
     57      -0.0894      2.00000
     58      -0.0894      2.00000
     59      -0.0894      2.00000
     60      -0.0443      2.00000
     61      -0.0443      2.00000
     62      -0.0443      2.00000
     63      -0.0443      2.00000
     64      -0.0322      2.00000
     65      -0.0322      2.00000
     66      -0.0322      2.00000
     67      -0.0322      2.00000
     68       0.0948      2.00000
     69       0.0948      2.00000
     70       0.0948      2.00000
     71       0.0948      2.00000
     72       0.1420      2.00000
     73       0.1420      2.00000
     74       0.1643      2.00000
     75       0.1643      2.00000
     76       0.1643      2.00000
     77       0.1643      2.00000
     78       0.2950      2.00000
     79       0.2950      2.00000
     80       0.2950      2.00000
     81       0.2950      2.00000
     82       0.3129      2.00000
     83       0.3193      2.00000
     84       0.3193      2.00000
     85       0.3193      2.00000
     86       0.3193      2.00000
     87       0.3422      2.00000
     88       0.3422      2.00000
     89       0.5984      2.00000
     90       0.5984      2.00000
     91       0.5984      2.00000
     92       0.5984      2.00000
     93       0.6914      2.00000
     94       0.7253      2.00000
     95       0.7253      2.00000
     96       0.7253      2.00000
     97       0.7253      2.00000
     98       0.7540      2.00000
     99       0.7741      2.00000
    100       0.7741      2.00000
    101       0.7908      2.00000
    102       0.7908      2.00000
    103       0.7908      2.00000
    104       0.7908      2.00000
    105       0.8278      2.00000
    106       0.8278      2.00000
    107       0.8278      2.00000
    108       0.8278      2.00000
    109       0.9176      2.00000
    110       0.9176      2.00000
    111       0.9176      2.00000
    112       0.9176      2.00000
    113       0.9730      2.00000
    114       0.9730      2.00000
    115       0.9730      2.00000
    116       0.9730      2.00000
    117       0.9950      2.00000
    118       0.9950      2.00000
    119       0.9950      2.00000
    120       0.9950      2.00000
    121       1.0318      2.00000
    122       1.0318      2.00000
    123       1.0318      2.00000
    124       1.0318      2.00000
    125       1.0487      2.00000
    126       1.0685      2.00000
    127       1.0685      2.00000
    128       1.0693      2.00000
    129       1.0701      2.00000
    130       1.0701      2.00000
    131       1.1156      2.00000
    132       1.1156      2.00000
    133       1.1156      2.00000
    134       1.1156      2.00000
    135       1.1477      2.00000
    136       1.1477      2.00000
    137       1.1477      2.00000
    138       1.1477      2.00000
    139       1.2509      2.00000
    140       1.3237      2.00000
    141       1.3237      2.00000
    142       1.3237      2.00000
    143       1.3237      2.00000
    144       1.3596      2.00000
    145       1.4079      2.00000
    146       1.4079      2.00000
    147       1.4079      2.00000
    148       1.4079      2.00000
    149       1.5327      2.00000
    150       1.5327      2.00000
    151       1.5454      2.00000
    152       1.5486      2.00000
    153       1.5486      2.00000
    154       1.5486      2.00000
    155       1.5486      2.00000
    156       1.5946      2.00000
    157       1.5946      2.00000
    158       1.6647      2.00000
    159       1.6647      2.00000
    160       1.6647      2.00000
    161       1.6647      2.00000
    162       1.6658      2.00000
    163       1.6658      2.00000
    164       1.6884      2.00000
    165       1.6884      2.00000
    166       1.6889      2.00000
    167       1.6889      2.00000
    168       2.3823      2.00000
    169       2.3823      2.00000
    170       2.3823      2.00000
    171       2.3823      2.00000
    172       2.4612      2.00000
    173       2.4612      2.00000
    174       2.4612      2.00000
    175       2.4612      2.00000
    176       2.7923      2.00000
    177       2.7923      2.00000
    178       2.7923      2.00000
    179       2.7923      2.00000
    180       3.3437      0.00000
    181       3.3437      0.00000
    182       3.3437      0.00000
    183       3.3437      0.00000
    184       4.3255      0.00000
    185       4.8699      0.00000
    186       4.8699      0.00000
    187       6.7123      0.00000
    188       6.7123      0.00000
    189       6.7123      0.00000
    190       6.7123      0.00000
    191       8.1657      0.00000
    192       8.1657      0.00000
    193       8.3392      0.00000
    194       8.3392      0.00000
    195       8.3392      0.00000
    196       8.3392      0.00000
    197       9.1665      0.00000
    198       9.1665      0.00000
    199       9.1665      0.00000
    200       9.1665      0.00000
    201       9.7721      0.00000
    202       9.7721      0.00000
    203      10.0704      0.00000
    204      10.0704      0.00000
    205      10.2654      0.00000
    206      10.7567      0.00000
    207      10.7567      0.00000
    208      11.2490      0.00000
    209      11.2490      0.00000
    210      11.2490      0.00000
    211      11.2490      0.00000
    212      11.4181      0.00000
    213      11.4181      0.00000
    214      11.4181      0.00000
    215      11.4182      0.00000
    216      11.6015      0.00000

 k-point   3 :       0.2857    0.0000    0.0000
  band No.  band energies     occupation 
      1      -5.3870      2.00000
      2      -4.2014      2.00000
      3      -2.7978      2.00000
      4      -2.7978      2.00000
      5      -2.7978      2.00000
      6      -2.7978      2.00000
      7      -1.9112      2.00000
      8      -1.9112      2.00000
      9      -1.9112      2.00000
     10      -1.9112      2.00000
     11      -1.8465      2.00000
     12      -1.4736      2.00000
     13      -1.4736      2.00000
     14      -1.4736      2.00000
     15      -1.4736      2.00000
     16      -1.3211      2.00000
     17      -1.2699      2.00000
     18      -1.2699      2.00000
     19      -1.2699      2.00000
     20      -1.2699      2.00000
     21      -1.2048      2.00000
     22      -1.2048      2.00000
     23      -0.8452      2.00000
     24      -0.8410      2.00000
     25      -0.8410      2.00000
     26      -0.7951      2.00000
     27      -0.7951      2.00000
     28      -0.6508      2.00000
     29      -0.6508      2.00000
     30      -0.6508      2.00000
     31      -0.6508      2.00000
     32      -0.5661      2.00000
     33      -0.5586      2.00000
     34      -0.5586      2.00000
     35      -0.5586      2.00000
     36      -0.5586      2.00000
     37      -0.5044      2.00000
     38      -0.5044      2.00000
     39      -0.2762      2.00000
     40      -0.2762      2.00000
     41      -0.2762      2.00000
     42      -0.2762      2.00000
     43      -0.1923      2.00000
     44      -0.1923      2.00000
     45      -0.1923      2.00000
     46      -0.1923      2.00000
     47      -0.1712      2.00000
     48      -0.1712      2.00000
     49      -0.1712      2.00000
     50      -0.1712      2.00000
     51      -0.1654      2.00000
     52      -0.1654      2.00000
     53      -0.1654      2.00000
     54      -0.1654      2.00000
     55      -0.1002      2.00000
     56      -0.1002      2.00000
     57      -0.1002      2.00000
     58      -0.1002      2.00000
     59      -0.0832      2.00000
     60      -0.0832      2.00000
     61      -0.0832      2.00000
     62      -0.0832      2.00000
     63      -0.0314      2.00000
     64       0.1215      2.00000
     65       0.1215      2.00000
     66       0.1215      2.00000
     67       0.1215      2.00000
     68       0.1371      2.00000
     69       0.1371      2.00000
     70       0.1371      2.00000
     71       0.1371      2.00000
     72       0.2255      2.00000
     73       0.2255      2.00000
     74       0.2255      2.00000
     75       0.2255      2.00000
     76       0.2654      2.00000
     77       0.2664      2.00000
     78       0.2664      2.00000
     79       0.2664      2.00000
     80       0.2664      2.00000
     81       0.3614      2.00000
     82       0.3614      2.00000
     83       0.3614      2.00000
     84       0.3614      2.00000
     85       0.3814      2.00000
     86       0.3814      2.00000
     87       0.4241      2.00000
     88       0.4241      2.00000
     89       0.4831      2.00000
     90       0.4831      2.00000
     91       0.4831      2.00000
     92       0.4831      2.00000
     93       0.6220      2.00000
     94       0.6220      2.00000
     95       0.6220      2.00000
     96       0.6220      2.00000
     97       0.6448      2.00000
     98       0.6448      2.00000
     99       0.7658      2.00000
    100       0.8527      2.00000
    101       0.8527      2.00000
    102       0.8527      2.00000
    103       0.8527      2.00000
    104       0.9025      2.00000
    105       0.9025      2.00000
    106       0.9025      2.00000
    107       0.9025      2.00000
    108       0.9179      2.00000
    109       0.9179      2.00000
    110       0.9179      2.00000
    111       0.9179      2.00000
    112       0.9540      2.00000
    113       0.9540      2.00000
    114       0.9540      2.00000
    115       0.9540      2.00000
    116       1.0059      2.00000
    117       1.0225      2.00000
    118       1.0225      2.00000
    119       1.0225      2.00000
    120       1.0225      2.00000
    121       1.0281      2.00000
    122       1.0281      2.00000
    123       1.0281      2.00000
    124       1.0281      2.00000
    125       1.0524      2.00000
    126       1.0792      2.00000
    127       1.0792      2.00000
    128       1.0792      2.00000
    129       1.0792      2.00000
    130       1.0871      2.00000
    131       1.1620      2.00000
    132       1.1620      2.00000
    133       1.1996      2.00000
    134       1.2231      2.00000
    135       1.2231      2.00000
    136       1.2231      2.00000
    137       1.2231      2.00000
    138       1.2239      2.00000
    139       1.2239      2.00000
    140       1.2568      2.00000
    141       1.2568      2.00000
    142       1.2568      2.00000
    143       1.2568      2.00000
    144       1.3572      2.00000
    145       1.3572      2.00000
    146       1.4085      2.00000
    147       1.4085      2.00000
    148       1.4085      2.00000
    149       1.4085      2.00000
    150       1.4115      2.00000
    151       1.4772      2.00000
    152       1.4772      2.00000
    153       1.5023      2.00000
    154       1.5023      2.00000
    155       1.5023      2.00000
    156       1.5023      2.00000
    157       1.5270      2.00000
    158       1.5964      2.00000
    159       1.5964      2.00000
    160       1.5964      2.00000
    161       1.5964      2.00000
    162       1.6007      2.00000
    163       1.6007      2.00000
    164       1.6884      2.00000
    165       1.6884      2.00000
    166       1.6889      2.00000
    167       1.6889      2.00000
    168       2.0592      2.00000
    169       2.0592      2.00000
    170       2.0592      2.00000
    171       2.0592      2.00000
    172       2.5923      2.00000
    173       2.5923      2.00000
    174       2.5923      2.00000
    175       2.5923      2.00000
    176       2.7772      2.00000
    177       2.7772      2.00000
    178       2.7772      2.00000
    179       2.7772      2.00000
    180       3.4485      0.00000
    181       4.0551      0.00000
    182       4.0551      0.00000
    183       4.0551      0.00000
    184       4.0551      0.00000
    185       5.2671      0.00000
    186       5.2671      0.00000
    187       7.1377      0.00000
    188       7.1377      0.00000
    189       7.1377      0.00000
    190       7.1377      0.00000
    191       7.2218      0.00000
    192       7.2218      0.00000
    193       7.2218      0.00000
    194       7.2218      0.00000
    195       7.3094      0.00000
    196       7.3094      0.00000
    197       9.3974      0.00000
    198       9.3974      0.00000
    199       9.3974      0.00000
    200       9.3974      0.00000
    201       9.8449      0.00000
    202       9.8449      0.00000
    203      10.1508      0.00000
    204      10.1508      0.00000
    205      10.1508      0.00000
    206      10.1508      0.00000
    207      10.4178      0.00000
    208      10.4178      0.00000
    209      10.8852      0.00000
    210      10.8852      0.00000
    211      10.8852      0.00000
    212      10.8852      0.00000
    213      11.1061      0.00000
    214      11.1061      0.00000
    215      11.3882      0.00000
    216      11.3882      0.00000

 k-point   4 :       0.4286    0.0000    0.0000
  band No.  band energies     occupation 
      1      -5.0975      2.00000
      2      -4.6993      2.00000
      3      -2.5688      2.00000
      4      -2.5688      2.00000
      5      -2.5688      2.00000
      6      -2.5688      2.00000
      7      -2.2660      2.00000
      8      -2.2660      2.00000
      9      -2.2660      2.00000
     10      -2.2660      2.00000
     11      -1.5219      2.00000
     12      -1.4168      2.00000
     13      -1.4168      2.00000
     14      -1.4168      2.00000
     15      -1.4168      2.00000
     16      -1.3726      2.00000
     17      -1.3454      2.00000
     18      -1.3454      2.00000
     19      -1.3454      2.00000
     20      -1.3454      2.00000
     21      -1.0864      2.00000
     22      -1.0864      2.00000
     23      -0.9418      2.00000
     24      -0.9418      2.00000
     25      -0.7746      2.00000
     26      -0.7620      2.00000
     27      -0.7620      2.00000
     28      -0.6801      2.00000
     29      -0.6502      2.00000
     30      -0.6502      2.00000
     31      -0.4901      2.00000
     32      -0.4901      2.00000
     33      -0.4901      2.00000
     34      -0.4901      2.00000
     35      -0.4799      2.00000
     36      -0.4799      2.00000
     37      -0.4799      2.00000
     38      -0.4799      2.00000
     39      -0.2835      2.00000
     40      -0.2835      2.00000
     41      -0.2835      2.00000
     42      -0.2835      2.00000
     43      -0.2780      2.00000
     44      -0.2780      2.00000
     45      -0.2780      2.00000
     46      -0.2780      2.00000
     47      -0.2470      2.00000
     48      -0.2470      2.00000
     49      -0.2470      2.00000
     50      -0.2470      2.00000
     51      -0.2105      2.00000
     52      -0.2105      2.00000
     53      -0.2105      2.00000
     54      -0.2105      2.00000
     55      -0.0924      2.00000
     56      -0.0924      2.00000
     57      -0.0924      2.00000
     58      -0.0924      2.00000
     59      -0.0855      2.00000
     60      -0.0855      2.00000
     61      -0.0855      2.00000
     62      -0.0855      2.00000
     63       0.0883      2.00000
     64       0.1741      2.00000
[...]
     72       0.3130      2.00000
     73       0.3130      2.00000
     74       0.3421      2.00000
     75       0.3421      2.00000
     76       0.3421      2.00000
     77       0.3809      2.00000
     78       0.3809      2.00000
     79       0.3809      2.00000
     80       0.3809      2.00000
     81       0.3809      2.00000
     82       0.3809      2.00000
     83       0.3896      2.00000
     84       0.3896      2.00000
     85       0.3896      2.00000
     86       0.4479      2.00000
     87       0.4479      2.00000
     88       0.4626      2.00000
     89       0.4626      2.00000
     90       0.4626      2.00000
     91       0.4763      2.00000
     92       0.4763      2.00000
     93       0.4770      2.00000
     94       0.4770      2.00000
     95       0.4770      2.00000
     96       0.4770      2.00000
     97       0.4770      2.00000
     98       0.4770      2.00000
     99       0.4863      2.00000
    100       0.4863      2.00000
    101       0.4863      2.00000
    102       0.5200      2.00000
    103       0.5200      2.00000
    104       0.5200      2.00000
    105       0.7619      2.00000
    106       0.7619      2.00000
    107       0.7619      2.00000
    108       0.8601      2.00000
    109       0.8601      2.00000
    110       0.8601      2.00000
    111       0.8601      2.00000
    112       0.8601      2.00000
    113       0.8601      2.00000
    114       0.8721      2.00000
    115       0.8721      2.00000
    116       0.8721      2.00000
    117       0.9339      2.00000
    118       0.9339      2.00000
    119       0.9339      2.00000
    120       0.9696      2.00000
    121       0.9696      2.00000
    122       0.9696      2.00000
    123       0.9696      2.00000
    124       0.9696      2.00000
    125       0.9696      2.00000
    126       1.0465      2.00000
    127       1.0465      2.00000
    128       1.0465      2.00000
    129       1.0680      2.00000
    130       1.0680      2.00000
    131       1.0680      2.00000
    132       1.0797      2.00000
    133       1.0797      2.00000
    134       1.0999      2.00000
    135       1.0999      2.00000
    136       1.0999      2.00000
    137       1.1724      2.00000
    138       1.1724      2.00000
    139       1.1724      2.00000
    140       1.2138      2.00000
    141       1.2138      2.00000
    142       1.2358      2.00000
    143       1.2358      2.00000
    144       1.2358      2.00000
    145       1.5722      2.00000
    146       1.5722      2.00000
    147       1.5722      2.00000
    148       1.5854      2.00000
    149       1.5854      2.00000
    150       1.5854      2.00000
    151       1.5854      2.00000
    152       1.5854      2.00000
    153       1.5854      2.00000
    154       1.5868      2.00000
    155       1.5868      2.00000
    156       1.5868      2.00000
    157       1.5868      2.00000
    158       1.5868      2.00000
    159       1.5868      2.00000
    160       1.5914      2.00000
    161       1.5914      2.00000
    162       1.5914      2.00000
    163       1.6004      2.00000
    164       1.6004      2.00000
    165       1.6004      2.00000
    166       1.6088      2.00000
    167       1.6088      2.00000
    168       1.6088      2.00000
    169       3.2270      0.00000
    170       3.2270      0.00000
    171       3.2270      0.00000
    172       3.5843      0.00000
    173       3.5843      0.00000
    174       3.5843      0.00000
    175       3.5843      0.00000
    176       3.5843      0.00000
    177       3.5843      0.00000
    178       3.8712      0.00000
    179       3.8712      0.00000
    180       3.8712      0.00000
    181       4.1524      0.00000
    182       4.1524      0.00000
    183       4.1524      0.00000
    184       4.5676      0.00000
    185       4.5676      0.00000
    186       4.5676      0.00000
    187       4.5676      0.00000
    188       4.5676      0.00000
    189       4.5676      0.00000
    190       4.9042      0.00000
    191       4.9042      0.00000
    192       4.9042      0.00000
    193       8.2769      0.00000
    194       8.2769      0.00000
    195       8.2769      0.00000
    196       8.6987      0.00000
    197       8.6987      0.00000
    198       8.6987      0.00000
    199       9.3120      0.00000
    200       9.3120      0.00000
    201       9.3120      0.00000
    202       9.3120      0.00000
    203       9.3120      0.00000
    204       9.3120      0.00000
    205       9.7527      0.00000
    206       9.7527      0.00000
    207       9.7527      0.00000
    208       9.7527      0.00000
    209       9.7527      0.00000
    210       9.7527      0.00000
    211      10.3855      0.00000
    212      10.3855      0.00000
    213      10.3855      0.00000
    214      10.8337      0.00000
    215      10.8337      0.00000
    216      10.8337      0.00000


--------------------------------------------------------------------------------------------------------


 soft charge-density along one line, spin component           1
         0         1         2         3         4         5         6         7         8         9
 total charge-density along one line
 
 pseudopotential strength for first ion, spin component:           1
 -6.772   0.000  -0.000   0.000   0.000  -0.106  -0.000   0.000
  0.000  -6.772  -0.000   0.000  -0.000  -0.000  -0.106   0.000
 -0.000  -0.000  -6.755  -0.000   0.000   0.000   0.000  -0.114
  0.000   0.000  -0.000  -6.772   0.000  -0.000  -0.000   0.000
  0.000  -0.000   0.000   0.000  -6.755  -0.000   0.000  -0.000
 -0.106  -0.000   0.000  -0.000  -0.000   1.616   0.000  -0.000
 -0.000  -0.106   0.000  -0.000   0.000   0.000   1.616  -0.000
  0.000   0.000  -0.114   0.000  -0.000  -0.000  -0.000   1.619
 -0.000  -0.000   0.000  -0.106  -0.000   0.000   0.000  -0.000
 -0.000   0.000  -0.000  -0.000  -0.114   0.000  -0.000   0.000
 -0.000  -0.000  -0.000  -0.000   0.000  -0.000  -0.000  -0.000
  0.000   0.000   0.000   0.000  -0.000  -0.000  -0.000  -0.000
 -0.000  -0.000  -0.000   0.000  -0.000   0.000   0.000   0.000
  0.000   0.000  -0.000  -0.000  -0.000   0.000  -0.000   0.000
  0.000   0.000   0.000  -0.000  -0.000  -0.000   0.000  -0.000
  0.000   0.000   0.000  -0.000   0.000  -0.000  -0.000  -0.000
 -0.000  -0.000   0.000   0.000   0.000   0.000   0.000  -0.000
 -0.000  -0.000  -0.000   0.000   0.000   0.000   0.000   0.000
 total augmentation occupancy for first ion, spin component:           1
  1.896  -0.001  -0.004   0.000   0.001  -0.024   0.000   0.001  -0.000  -0.001   0.009   0.001  -0.000  -0.000  -0.000  -0.000
 -0.001   1.904  -0.002  -0.001  -0.001   0.000  -0.033   0.002   0.001  -0.000   0.002  -0.001   0.000   0.000   0.000   0.000
 -0.004  -0.002   1.920  -0.001   0.004   0.002   0.002  -0.071   0.001  -0.002   0.020   0.003  -0.000   0.000  -0.000  -0.000
  0.000  -0.001  -0.001   1.903   0.002  -0.000   0.001   0.001  -0.028  -0.001   0.005   0.000  -0.000   0.000  -0.000  -0.000
  0.001  -0.001   0.004   0.002   1.903  -0.001  -0.000  -0.002  -0.001  -0.059  -0.008  -0.002   0.000  -0.000   0.000  -0.000
 -0.024   0.000   0.002  -0.000  -0.001   0.064  -0.000   0.000   0.000   0.000  -0.003   0.000  -0.000   0.000  -0.000  -0.000
  0.000  -0.033   0.002   0.001  -0.000  -0.000   0.070  -0.002  -0.000   0.001   0.002   0.001   0.000   0.000   0.000   0.000
  0.001   0.002  -0.071   0.001  -0.002   0.000  -0.002   0.064  -0.001  -0.000  -0.010   0.000  -0.000   0.000   0.000  -0.000
 -0.000   0.001   0.001  -0.028  -0.001   0.000  -0.000  -0.001   0.064  -0.000  -0.001   0.000  -0.000  -0.000  -0.000  -0.000
 -0.001  -0.000  -0.002  -0.001  -0.059   0.000   0.001  -0.000  -0.000   0.059   0.006   0.000   0.000  -0.000  -0.000  -0.000
  0.009   0.002   0.020   0.005  -0.008  -0.003   0.002  -0.010  -0.001   0.006   1.154  -0.321  -0.000   0.000  -0.000  -0.000
  0.001  -0.001   0.003   0.000  -0.002   0.000   0.001   0.000   0.000   0.000  -0.321   0.130   0.000   0.000  -0.000   0.000
 -0.000   0.000  -0.000  -0.000   0.000  -0.000   0.000  -0.000  -0.000   0.000  -0.000   0.000   0.167  -0.003   0.001  -0.011
 -0.000   0.000   0.000   0.000  -0.000   0.000   0.000   0.000  -0.000  -0.000   0.000   0.000  -0.003   0.170   0.000  -0.000
 -0.000   0.000  -0.000  -0.000   0.000  -0.000   0.000   0.000  -0.000  -0.000  -0.000  -0.000   0.001   0.000   0.168  -0.000
 -0.000   0.000  -0.000  -0.000  -0.000  -0.000   0.000  -0.000  -0.000  -0.000  -0.000   0.000  -0.011  -0.000  -0.000   0.001
 -0.000   0.000  -0.000   0.000  -0.000  -0.000   0.000  -0.000  -0.000  -0.000  -0.000   0.000  -0.000  -0.012  -0.000   0.000
 -0.000   0.000  -0.000  -0.000   0.000  -0.000   0.000  -0.000  -0.000   0.000  -0.000   0.000  -0.000  -0.000  -0.011   0.000


------------------------ aborting loop because EDIFF is reached ----------------------------------------




--------------------------------------------------------------------------------------------------------


    CHARGE:  VPU time    1.41: CPU time    1.41
    FORLOC:  VPU time    0.02: CPU time    0.02
    FORNL :  VPU time   17.60: CPU time   17.60
    STRESS:  VPU time   30.06: CPU time   30.06
    FORCOR:  VPU time    0.13: CPU time    0.13
    FORHAR:  VPU time    0.05: CPU time    0.05
    MIXING:  VPU time    0.00: CPU time    0.00


--------------------------------------------------------------------------------------------------------



  FREE ENERGIE OF THE ION-ELECTRON SYSTEM (eV)
  ---------------------------------------------------
  free  energy   TOTEN  =      -118.488796 eV

  energy  without entropy=     -118.487716  energy(sigma->0) =     -118.488256
 

  FORCE on cell =-STRESS in cart. coord.  units (eV/reduce length):
  Direction    X        Y        Z        XY       YZ       ZX
  --------------------------------------------------------------------------------------
  Alpha Z   3204.74   3204.74   3204.74
  Ewald   -11486.68 -11486.68 -11486.68      0.00      0.00      0.00
  Hartree   3410.07   3410.07   3410.07     -0.00     -0.00     -0.00
  E(xc)    -2000.81  -2000.81  -2000.81      0.00     -0.00      0.00
  Local     3736.91   3736.91   3736.91      0.00     -0.00      0.00
  n-local  -1194.47  -1191.04  -1185.40      2.32     -0.43      1.09
  augment   1806.74   1806.74   1806.74     -0.00     -0.00     -0.00
  Kinetic   2497.97   2499.68   2506.36      0.74     -3.61     -0.32
  -------------------------------------------------------------------------------------
  Total      -18.01    -18.01    -18.01      0.00      0.00      0.00
  in kB      -70.67    -70.67    -70.67      0.00      0.00      0.00
  external pressure =      -70.67 kB  Pullay stress =        0.00 kB


 VOLUME and BASIS-vectors are now :
 -----------------------------------------------------------------------------
  energy-cutoff  :      500.00
  volume of cell :      408.24
      direct lattice vectors                 reciprocal lattice vectors
     7.418288256  0.000000000  0.000000000     0.134801987  0.000000000  0.000000000
     0.000000000  7.418288256  0.000000000     0.000000000  0.134801987  0.000000000
     0.000000000  0.000000000  7.418288256     0.000000000  0.000000000  0.134801987

  length of vectors
     7.418288256  7.418288256  7.418288256     0.134801987  0.134801987  0.134801987


 FORCES acting on ions
    electron-ion (+dipol)            ewald-force                    non-local-force                 convergence-correction
 -----------------------------------------------------------------------------------------------
   -.194E-12 -.167E-12 -.224E-12   -.107E-12 -.187E-13 0.391E-13   0.509E-25 -.727E-25 0.323E-26   0.719E-13 0.110E-13 -.151E-13
   0.998E-12 -.179E-12 0.414E-11   -.356E-13 -.266E-14 -.355E-14   0.244E-25 0.420E-25 -.375E-25   -.380E-13 0.418E-13 -.704E-13
   -.161E-12 0.954E-12 -.262E-12   -.119E-12 -.737E-13 -.391E-13   -.741E-25 -.194E-25 -.981E-25   0.454E-13 0.242E-13 -.417E-13
   0.965E-12 -.465E-11 0.305E-11   -.800E-13 -.258E-13 0.258E-13   -.646E-26 -.499E-25 -.162E-26   -.318E-13 -.517E-14 -.952E-13
   -.193E-12 -.167E-12 0.106E-11   -.107E-12 -.115E-13 0.178E-13   0.198E-25 0.493E-25 -.145E-25   0.817E-13 0.281E-14 -.684E-13
   0.993E-12 -.196E-12 -.506E-11   -.640E-13 -.311E-13 0.355E-14   0.323E-26 0.153E-25 0.202E-26   -.561E-13 0.343E-13 -.144E-12
   -.161E-12 0.949E-12 0.109E-11   -.148E-12 -.453E-13 0.320E-13   -.741E-25 0.307E-25 0.971E-25   0.537E-13 0.351E-13 -.172E-12
   0.965E-12 -.447E-11 -.464E-11   -.800E-13 -.258E-13 0.879E-13   0.735E-25 -.234E-25 -.382E-25   -.418E-13 0.207E-14 -.243E-12
   0.401E-12 -.241E-11 0.142E-11   0.471E-13 -.125E-13 -.107E-13   0.452E-25 -.273E-25 0.404E-25   -.229E-12 -.126E-12 -.636E-13
   0.158E-11 0.502E-12 -.728E-11   0.382E-13 -.214E-13 -.142E-13   -.452E-25 0.315E-25 -.162E-26   0.122E-12 -.116E-12 -.738E-14
   0.441E-12 0.437E-11 0.141E-11   0.595E-13 0.480E-13 -.888E-13   -.239E-25 0.351E-25 -.101E-24   -.271E-12 0.750E-13 -.668E-13
   0.155E-11 0.181E-10 -.604E-11   0.258E-13 0.715E-14 -.888E-13   0.732E-25 -.662E-25 0.404E-26   0.150E-12 0.612E-13 -.249E-13
   0.436E-12 0.323E-11 0.256E-11   0.471E-13 -.409E-13 -.462E-13   0.848E-25 0.808E-26 0.339E-25   -.280E-12 -.140E-12 -.169E-12
   0.155E-11 0.116E-10 -.247E-11   0.977E-14 0.355E-13 -.462E-13   -.310E-25 -.404E-26 0.418E-25   0.174E-12 -.121E-12 -.153E-12
   0.475E-12 -.121E-11 0.291E-11   0.311E-13 0.551E-13 0.320E-13   -.474E-25 0.495E-25 0.258E-25   -.315E-12 0.916E-13 -.114E-12
   0.152E-11 0.719E-11 -.349E-11   0.258E-13 0.356E-13 0.320E-13   -.540E-26 0.275E-25 0.494E-25   0.194E-12 0.718E-13 -.131E-12
   0.437E-12 -.165E-12 -.270E-11   -.977E-14 0.977E-14 -.761E-13   -.646E-26 0.170E-25 0.699E-25   -.283E-12 0.140E-14 -.233E-12
   0.155E-11 -.200E-12 -.103E-10   -.400E-13 -.506E-13 -.262E-13   0.156E-24 0.404E-26 0.194E-25   0.163E-12 0.491E-13 -.218E-12
   0.439E-12 0.814E-12 0.293E-11   -.382E-13 0.187E-13 0.165E-13   0.485E-26 0.517E-25 -.101E-25   -.275E-12 0.116E-13 -.291E-12
   0.156E-11 0.387E-11 0.104E-11   -.435E-13 0.790E-13 0.152E-14   0.128E-25 0.323E-26 0.137E-25   0.149E-12 -.450E-13 -.306E-12
   0.438E-12 -.169E-12 0.421E-11   -.258E-13 0.258E-13 0.105E-12   0.691E-25 0.162E-25 -.687E-25   -.289E-12 -.297E-13 0.975E-14
   0.155E-11 -.197E-12 0.127E-10   -.595E-13 -.879E-13 0.487E-13   -.961E-25 -.501E-25 0.162E-26   0.174E-12 0.232E-13 0.580E-13
   0.439E-12 0.121E-11 -.152E-11   -.542E-13 -.258E-13 0.606E-14   -.263E-26 -.404E-27 -.105E-25   -.284E-12 0.252E-13 -.276E-13
   0.155E-11 0.344E-11 0.208E-12   -.595E-13 0.311E-13 0.213E-13   -.123E-25 0.113E-25 -.154E-25   0.156E-12 -.223E-13 -.240E-13
   -.141E-12 0.414E-12 0.370E-12   0.706E-13 -.134E-13 -.125E-13   -.240E-25 -.969E-26 0.844E-25   0.369E-13 -.107E-12 -.228E-12
   0.948E-12 -.539E-11 -.110E-11   0.141E-12 0.104E-12 -.665E-13   -.646E-26 0.501E-25 -.113E-25   0.231E-14 -.110E-12 -.332E-12
   -.177E-12 0.156E-11 0.364E-12   0.626E-13 0.473E-13 -.487E-13   -.530E-25 0.800E-25 0.820E-25   0.732E-13 0.779E-13 -.200E-12
   0.983E-12 -.492E-11 -.532E-12   0.136E-12 -.129E-13 0.652E-13   0.112E-24 -.434E-26 0.691E-25   -.396E-13 0.733E-13 -.317E-12
   -.174E-12 0.448E-12 0.162E-11   0.752E-13 0.220E-13 -.104E-13   0.537E-25 0.137E-25 -.283E-25   0.638E-13 -.143E-12 -.864E-14
   0.982E-12 -.381E-11 -.159E-11   0.121E-12 0.222E-13 0.475E-13   0.924E-26 -.115E-24 0.727E-26   -.221E-13 -.150E-12 -.233E-13
   -.209E-12 0.153E-11 0.162E-11   0.388E-13 0.295E-13 0.262E-13   0.103E-25 -.291E-25 -.998E-25   0.103E-12 0.114E-12 0.143E-13
   0.101E-11 0.555E-11 0.991E-11   0.141E-12 0.297E-13 0.263E-13   -.824E-25 -.182E-25 0.137E-25   -.553E-13 0.116E-12 -.116E-13
 -----------------------------------------------------------------------------------------------
   0.224E-10 0.375E-10 0.542E-11   0.198E-15 0.100E-12 0.568E-13   0.212E-24 0.468E-25 0.122E-24   -.697E-12 -.172E-12 -.372E-11
 
 
 POSITION                                       TOTAL-FORCE (eV/Angst)
 -----------------------------------------------------------------------------------
      0.00000      0.00000      0.00000         0.000000      0.000000     -0.000000
      3.70914      0.00000      0.00000         0.000000     -0.000000     -0.000000
      0.00000      3.70914      0.00000        -0.000000     -0.000000     -0.000000
      3.70914      3.70914      0.00000        -0.000000     -0.000000     -0.000000
      0.00000      0.00000      3.70914         0.000000     -0.000000      0.000000
      3.70914      0.00000      3.70914        -0.000000      0.000000     -0.000000
      0.00000      3.70914      3.70914        -0.000000     -0.000000     -0.000000
      3.70914      3.70914      3.70914        -0.000000      0.000000      0.000000
      1.85457      1.85457      0.00000        -0.000000      0.000000     -0.000000
      5.56372      1.85457      0.00000         0.000000      0.000000     -0.000000
      1.85457      5.56372      0.00000         0.000000      0.000000     -0.000000
      5.56372      5.56372      0.00000         0.000000      0.000000      0.000000
      1.85457      1.85457      3.70914         0.000000     -0.000000      0.000000
      5.56372      1.85457      3.70914        -0.000000      0.000000      0.000000
      1.85457      5.56372      3.70914        -0.000000      0.000000     -0.000000
      5.56372      5.56372      3.70914         0.000000     -0.000000      0.000000
      1.85457      0.00000      1.85457        -0.000000     -0.000000     -0.000000
      5.56372      0.00000      1.85457        -0.000000      0.000000     -0.000000
      1.85457      3.70914      1.85457        -0.000000     -0.000000      0.000000
      5.56372      3.70914      1.85457        -0.000000      0.000000      0.000000
      1.85457      0.00000      5.56372         0.000000     -0.000000      0.000000
      5.56372      0.00000      5.56372         0.000000      0.000000     -0.000000
      1.85457      3.70914      5.56372         0.000000      0.000000     -0.000000
      5.56372      3.70914      5.56372        -0.000000     -0.000000     -0.000000
      0.00000      1.85457      1.85457         0.000000      0.000000      0.000000
      3.70914      1.85457      1.85457        -0.000000      0.000000     -0.000000
      0.00000      5.56372      1.85457        -0.000000     -0.000000      0.000000
      3.70914      5.56372      1.85457         0.000000     -0.000000      0.000000
      0.00000      1.85457      5.56372        -0.000000     -0.000000     -0.000000
      3.70914      1.85457      5.56372        -0.000000      0.000000     -0.000000
      0.00000      5.56372      5.56372         0.000000     -0.000000      0.000000
      3.70914      5.56372      5.56372        -0.000000     -0.000000     -0.000000
 -----------------------------------------------------------------------------------
    total drift:                                0.000000      0.000000      0.000000


--------------------------------------------------------------------------------------------------------



 mean value of Nose-termostat <S>:     1.000 mean value of <T> :     0.000
 mean temperature <T/S>/<1/S>  :     0.000

     LOOP+:  VPU time  628.87: CPU time  628.97
  
  
 General timing and accounting informations for this job:
 ========================================================
  
                  Total CPU time used (sec):      640.424
                            User time (sec):      603.528
                          System time (sec):       36.895
                         Elapsed time (sec):      640.530
  
                   Maximum memory used (kb):     1201028.
                   Average memory used (kb):           0.
  
                          Minor page faults:       206031
                          Major page faults:            0
                 Voluntary context switches:          919
