   4   4   0   0
  0.1275737E+02  0.3709144E-09  0.3709144E-09  0.3709144E-09  0.5000000E-15
  1.000000000000000E-004
  CAR 
 unknown system                          
     13.31289412     -6.52251357  301      3.17123455      1.00000000
     -6.523  0.0000E+00  0.0000E+00
     -6.456  0.0000E+00  0.0000E+00
     -6.390  0.0000E+00  0.0000E+00
     -6.324  0.0000E+00  0.0000E+00
     -6.258  0.0000E+00  0.0000E+00
     -6.192  0.0000E+00  0.0000E+00
     -6.126  0.0000E+00  0.0000E+00
     -6.060  0.0000E+00  0.0000E+00
     -5.994  0.0000E+00  0.0000E+00
     -5.927  0.0000E+00  0.0000E+00
     -5.861  0.0000E+00  0.0000E+00
     -5.795  0.0000E+00  0.0000E+00
     -5.729  0.0000E+00  0.0000E+00
     -5.663  0.2342E-10  0.1549E-11
     -5.597  0.1750E-01  0.1157E-02
     -5.531  0.9722E-01  0.7586E-02
     -5.465  0.7508E-01  0.1255E-01
     -5.399  0.1442E+00  0.2208E-01
     -5.332  0.1387E+00  0.3125E-01
     -5.266  0.1050E+00  0.3819E-01
     -5.200  0.4200E+00  0.6596E-01
     -5.134  0.3996E+00  0.9239E-01
     -5.068  0.2052E-01  0.9375E-01
     -5.002  0.9176E-02  0.9436E-01
     -4.936  0.2012E+00  0.1077E+00
     -4.870  0.5249E+00  0.1424E+00
     -4.803  0.4201E+00  0.1701E+00
     -4.737  0.4194E+00  0.1979E+00
     -4.671  0.1345E+00  0.2068E+00
     -4.605  0.2214E+00  0.2214E+00
     -4.539  0.3044E+00  0.2416E+00
     -4.473  0.7401E+00  0.2905E+00
     -4.407  0.1720E-05  0.2905E+00
     -4.341  0.1050E+00  0.2975E+00
     -4.275  0.8402E+00  0.3530E+00
     -4.208  0.6294E+00  0.3946E+00
     -4.142  0.4163E+00  0.4222E+00
     -4.076  0.3390E+00  0.4449E+00
     -4.010  0.5538E+00  0.4815E+00
     -3.944  0.6476E+00  0.5243E+00
     -3.878  0.1401E+00  0.5336E+00
     -3.812  0.2486E-01  0.5352E+00
     -3.746  0.3955E+00  0.5614E+00
     -3.679  0.5253E+00  0.5961E+00
     -3.613  0.1272E+01  0.6802E+00
     -3.547  0.5484E+00  0.7164E+00
     -3.481  0.1236E-02  0.7165E+00
     -3.415  0.1259E+01  0.7998E+00
     -3.349  0.8402E+00  0.8553E+00
     -3.283  0.6003E-10  0.8553E+00
     -3.217  0.2099E+00  0.8692E+00
     -3.150  0.9674E+00  0.9332E+00
     -3.084  0.7124E+00  0.9803E+00
     -3.018  0.8716E+00  0.1038E+01
     -2.952  0.4937E+00  0.1071E+01
     -2.886  0.4764E+00  0.1102E+01
     -2.820  0.1204E+01  0.1182E+01
     -2.754  0.1093E-01  0.1182E+01
     -2.688  0.8409E+00  0.1238E+01
     -2.622  0.1339E+01  0.1327E+01
     -2.555  0.1171E+01  0.1404E+01
     -2.489  0.4570E+00  0.1434E+01
     -2.423  0.1046E+01  0.1504E+01
     -2.357  0.1148E+01  0.1580E+01
     -2.291  0.3208E-01  0.1582E+01
     -2.225  0.1753E+01  0.1698E+01
     -2.159  0.4783E+00  0.1730E+01
     -2.093  0.9858E+00  0.1795E+01
     -2.026  0.1902E+01  0.1921E+01
     -1.960  0.1875E+01  0.2045E+01
     -1.894  0.1260E+01  0.2128E+01
     -1.828  0.4586E+00  0.2159E+01
     -1.762  0.1604E+01  0.2265E+01
     -1.696  0.1248E+01  0.2347E+01
     -1.630  0.1558E+01  0.2450E+01
     -1.564  0.4205E+01  0.2729E+01
     -1.498  0.1632E+01  0.2838E+01
     -1.431  0.2733E+01  0.3019E+01
     -1.365  0.4287E+01  0.3303E+01
     -1.299  0.2573E+01  0.3473E+01
     -1.233  0.4897E+01  0.3797E+01
     -1.167  0.5153E+01  0.4138E+01
     -1.101  0.6006E+01  0.4536E+01
     -1.035  0.5311E+01  0.4887E+01
     -0.969  0.6708E+01  0.5331E+01
     -0.902  0.4228E+01  0.5611E+01
     -0.836  0.4795E+01  0.5930E+01
     -0.770  0.1181E+02  0.6711E+01
     -0.704  0.7940E+01  0.7237E+01
     -0.638  0.9989E+01  0.7898E+01
     -0.572  0.1151E+02  0.8660E+01
     -0.506  0.9269E+01  0.9273E+01
     -0.440  0.9255E+01  0.9885E+01
     -0.374  0.9333E+01  0.1050E+02
     -0.307  0.9950E+01  0.1116E+02
     -0.241  0.9659E+01  0.1180E+02
     -0.175  0.8845E+01  0.1238E+02
     -0.109  0.1005E+02  0.1305E+02
     -0.043  0.1114E+02  0.1379E+02
      0.023  0.1401E+02  0.1472E+02
      0.089  0.1151E+02  0.1548E+02
      0.155  0.1668E+02  0.1658E+02
      0.222  0.1483E+02  0.1756E+02
      0.288  0.1522E+02  0.1857E+02
      0.354  0.1770E+02  0.1974E+02
      0.420  0.1620E+02  0.2082E+02
      0.486  0.2373E+02  0.2239E+02
      0.552  0.1915E+02  0.2365E+02
      0.618  0.1520E+02  0.2466E+02
      0.684  0.1134E+02  0.2541E+02
      0.750  0.9346E+01  0.2603E+02
      0.817  0.1399E+02  0.2695E+02
      0.883  0.1431E+02  0.2790E+02
      0.949  0.1522E+02  0.2891E+02
      1.015  0.1807E+02  0.3010E+02
      1.081  0.1461E+02  0.3107E+02
      1.147  0.1760E+02  0.3224E+02
      1.213  0.1415E+02  0.3317E+02
      1.279  0.1392E+02  0.3409E+02
      1.346  0.1524E+02  0.3510E+02
      1.412  0.1327E+02  0.3598E+02
      1.478  0.2261E+02  0.3748E+02
      1.544  0.2214E+02  0.3894E+02
      1.610  0.2654E+02  0.4070E+02
      1.676  0.1636E+02  0.4178E+02
      1.742  0.2659E+01  0.4196E+02
      1.808  0.1249E+01  0.4205E+02
      1.874  0.8032E+00  0.4210E+02
      1.941  0.1854E+01  0.4222E+02
      2.007  0.2919E+01  0.4242E+02
      2.073  0.1431E+01  0.4251E+02
      2.139  0.1484E+01  0.4261E+02
      2.205  0.1289E+01  0.4269E+02
      2.271  0.8857E+00  0.4275E+02
      2.337  0.2220E+01  0.4290E+02
      2.403  0.2005E+01  0.4303E+02
      2.470  0.8230E+00  0.4309E+02
      2.536  0.1874E+01  0.4321E+02
      2.602  0.8402E+00  0.4327E+02
      2.668  0.8402E+00  0.4332E+02
      2.734  0.1228E+01  0.4340E+02
      2.800  0.1312E+01  0.4349E+02
      2.866  0.1458E+01  0.4359E+02
      2.932  0.3263E+01  0.4380E+02
      2.998  0.1341E+01  0.4389E+02
      3.065  0.7976E+00  0.4395E+02
      3.131  0.5469E+00  0.4398E+02
      3.197  0.8619E+00  0.4404E+02
      3.263  0.4187E+00  0.4407E+02
      3.329  0.9477E+00  0.4413E+02
      3.395  0.1573E+01  0.4423E+02
      3.461  0.2387E+01  0.4439E+02
      3.527  0.1813E+01  0.4451E+02
      3.594  0.2243E-02  0.4451E+02
      3.660  0.1831E+01  0.4463E+02
      3.726  0.1254E+01  0.4471E+02
      3.792  0.6953E+00  0.4476E+02
      3.858  0.1302E+01  0.4485E+02
      3.924  0.7979E+00  0.4490E+02
      3.990  0.1398E+01  0.4499E+02
      4.056  0.1542E+01  0.4509E+02
      4.122  0.1069E-01  0.4509E+02
      4.189  0.4201E+00  0.4512E+02
      4.255  0.1936E+01  0.4525E+02
      4.321  0.4731E+00  0.4528E+02
      4.387  0.2181E+01  0.4543E+02
      4.453  0.1596E+01  0.4553E+02
      4.519  0.9457E+00  0.4559E+02
      4.585  0.1144E+01  0.4567E+02
      4.651  0.2596E+00  0.4569E+02
      4.718  0.1004E+01  0.4575E+02
      4.784  0.1302E+01  0.4584E+02
      4.850  0.1670E+01  0.4595E+02
      4.916  0.4659E+00  0.4598E+02
      4.982  0.1004E+01  0.4605E+02
      5.048  0.7887E+00  0.4610E+02
      5.114  0.4261E+00  0.4613E+02
      5.180  0.1082E+01  0.4620E+02
      5.246  0.2552E+01  0.4637E+02
      5.313  0.4030E+00  0.4640E+02
      5.379  0.0000E+00  0.4640E+02
      5.445  0.1255E+01  0.4648E+02
      5.511  0.1658E+01  0.4659E+02
      5.577  0.1075E+01  0.4666E+02
      5.643  0.4201E+00  0.4669E+02
      5.709  0.8401E+00  0.4674E+02
      5.775  0.8388E+00  0.4680E+02
      5.842  0.4201E+00  0.4683E+02
      5.908  0.4198E+00  0.4685E+02
      5.974  0.8378E+00  0.4691E+02
      6.040  0.1492E+01  0.4701E+02
      6.106  0.5104E+00  0.4704E+02
      6.172  0.8433E+00  0.4710E+02
      6.238  0.7248E+00  0.4715E+02
      6.304  0.6633E-01  0.4715E+02
      6.371  0.2017E+01  0.4728E+02
      6.437  0.4626E-01  0.4729E+02
      6.503  0.7940E+00  0.4734E+02
      6.569  0.5431E+00  0.4738E+02
      6.635  0.7509E+00  0.4743E+02
      6.701  0.4670E+00  0.4746E+02
      6.767  0.2101E+01  0.4760E+02
      6.833  0.1076E+01  0.4767E+02
      6.899  0.4097E+00  0.4769E+02
      6.966  0.1474E+01  0.4779E+02
      7.032  0.9403E+00  0.4785E+02
      7.098  0.1361E+01  0.4794E+02
      7.164  0.5825E+00  0.4798E+02
      7.230  0.1518E+01  0.4808E+02
      7.296  0.9590E+00  0.4815E+02
      7.362  0.1680E+01  0.4826E+02
      7.428  0.1345E+01  0.4835E+02
      7.495  0.1050E+01  0.4842E+02
      7.561  0.1678E+01  0.4853E+02
      7.627  0.4165E+00  0.4856E+02
      7.693  0.9478E-01  0.4856E+02
      7.759  0.2071E+01  0.4870E+02
      7.825  0.9771E+00  0.4876E+02
      7.891  0.5806E-01  0.4877E+02
      7.957  0.1654E+01  0.4888E+02
      8.023  0.1086E+01  0.4895E+02
      8.090  0.1084E+01  0.4902E+02
      8.156  0.1450E+01  0.4912E+02
      8.222  0.1657E+01  0.4923E+02
      8.288  0.8402E+00  0.4928E+02
      8.354  0.6829E+00  0.4933E+02
      8.420  0.1616E+00  0.4934E+02
      8.486  0.1023E+01  0.4941E+02
      8.552  0.2203E-01  0.4941E+02
      8.619  0.2245E+01  0.4956E+02
      8.685  0.6534E-01  0.4956E+02
      8.751  0.4053E+00  0.4959E+02
      8.817  0.1390E+01  0.4968E+02
      8.883  0.9523E-01  0.4969E+02
      8.949  0.2093E+01  0.4982E+02
      9.015  0.6063E+00  0.4986E+02
      9.081  0.1102E+01  0.4994E+02
      9.147  0.2344E+00  0.4995E+02
      9.214  0.2463E+01  0.5012E+02
      9.280  0.4970E+00  0.5015E+02
      9.346  0.3433E+00  0.5017E+02
      9.412  0.0000E+00  0.5017E+02
      9.478  0.5133E-01  0.5017E+02
      9.544  0.1080E+01  0.5025E+02
      9.610  0.1033E+01  0.5031E+02
      9.676  0.1549E+01  0.5042E+02
      9.743  0.3758E+00  0.5044E+02
      9.809  0.4676E+00  0.5047E+02
      9.875  0.5757E+00  0.5051E+02
      9.941  0.1064E+01  0.5058E+02
     10.007  0.8618E+00  0.5064E+02
     10.073  0.8469E+00  0.5069E+02
     10.139  0.1229E+01  0.5078E+02
     10.205  0.4064E+00  0.5080E+02
     10.271  0.6439E+00  0.5084E+02
     10.338  0.8356E+00  0.5090E+02
     10.404  0.2735E+01  0.5108E+02
     10.470  0.6415E+00  0.5112E+02
     10.536  0.1015E+01  0.5119E+02
     10.602  0.8218E+00  0.5125E+02
     10.668  0.2729E+01  0.5143E+02
     10.734  0.3090E+00  0.5145E+02
     10.800  0.7822E+00  0.5150E+02
     10.867  0.8981E+00  0.5156E+02
     10.933  0.8399E+00  0.5161E+02
     10.999  0.0000E+00  0.5161E+02
     11.065  0.5673E+00  0.5165E+02
     11.131  0.1715E+01  0.5176E+02
     11.197  0.6189E-01  0.5177E+02
     11.263  0.1752E+00  0.5178E+02
     11.329  0.6724E+00  0.5182E+02
     11.395  0.3779E+00  0.5185E+02
     11.462  0.4275E+00  0.5188E+02
     11.528  0.4128E+00  0.5191E+02
     11.594  0.3537E+00  0.5193E+02
     11.660  0.6647E-01  0.5193E+02
     11.726  0.7002E+00  0.5198E+02
     11.792  0.0000E+00  0.5198E+02
     11.858  0.0000E+00  0.5198E+02
     11.924  0.0000E+00  0.5198E+02
     11.991  0.0000E+00  0.5198E+02
     12.057  0.2202E-13  0.5198E+02
     12.123  0.2054E+00  0.5199E+02
     12.189  0.0000E+00  0.5199E+02
     12.255  0.0000E+00  0.5199E+02
     12.321  0.0000E+00  0.5199E+02
     12.387  0.3536E-04  0.5199E+02
     12.453  0.1050E+00  0.5200E+02
     12.519  0.0000E+00  0.5200E+02
     12.586  0.0000E+00  0.5200E+02
     12.652  0.0000E+00  0.5200E+02
     12.718  0.0000E+00  0.5200E+02
     12.784  0.0000E+00  0.5200E+02
     12.850  0.0000E+00  0.5200E+02
     12.916  0.0000E+00  0.5200E+02
     12.982  0.0000E+00  0.5200E+02
     13.048  0.0000E+00  0.5200E+02
     13.115  0.0000E+00  0.5200E+02
     13.181  0.0000E+00  0.5200E+02
     13.247  0.0000E+00  0.5200E+02
     13.313  0.0000E+00  0.5200E+02
