    4    4    1    1
  0.1275737E+02  0.3709144E-09  0.3709144E-09  0.3709144E-09  0.5000000E-15
  1.000000000000000E-004
  CAR 
 unknown system                          
   44   84   26
 
  0.0000000E+00  0.0000000E+00  0.0000000E+00  0.5787037E-03
   1       -5.6209
   2       -1.3055
   3       -1.3055
   4       -1.3055
   5       -0.9007
   6       -0.9007
   7       -0.9007
   8        0.3324
   9        0.3324
  10        0.3324
  11        1.0668
  12        1.0668
  13        1.5553
  14        1.5553
  15        1.5553
  16        1.6920
  17        1.6920
  18        1.6920
  19        1.6920
  20        1.6920
  21        1.6920
  22        4.7233
  23        4.7233
  24        4.7233
  25        9.7495
  26        9.7496
 
  0.8333333E-01  0.0000000E+00  0.0000000E+00  0.3472222E-02
   1       -5.5410
   2       -1.3075
   3       -1.2696
   4       -1.2696
   5       -0.8806
   6       -0.8795
   7       -0.8795
   8        0.3105
   9        0.3503
  10        0.3503
  11        1.0469
  12        1.0750
  13        1.5296
  14        1.5296
  15        1.5468
  16        1.5665
  17        1.5665
  18        1.6615
  19        1.6615
  20        1.6921
  21        1.6921
  22        4.1999
  23        4.9214
  24        4.9214
  25        9.7819
  26        9.7819
 
  0.1666667E+00  0.0000000E+00  0.0000000E+00  0.3472222E-02
   1       -5.3027
   2       -1.3295
   3       -1.1669
   4       -1.1669
   5       -0.8216
   6       -0.8154
   7       -0.8154
   8        0.2462
   9        0.4035
  10        0.4035
  11        0.9895
  12        1.0990
  13        1.2632
  14        1.2632
  15        1.4547
  16        1.4547
  17        1.5220
  18        1.5742
  19        1.5742
  20        1.6922
  21        1.6922
  22        3.1247
  23        5.4421
  24        5.4421
  25        9.8819
  26        9.8819
 
  0.2500000E+00  0.0000000E+00  0.0000000E+00  0.3472222E-02
   1       -4.9113
   2       -1.4282
   3       -1.0136
   4       -1.0136
   5       -0.7271
   6       -0.7074
   7       -0.7074
   8        0.1447
   9        0.4907
  10        0.4907
  11        0.8949
  12        0.8949
  13        0.9019
  14        1.1372
  15        1.3394
  16        1.3394
  17        1.4412
  18        1.4412
  19        1.4825
  20        1.6924
  21        1.6924
  22        2.0392
  23        6.1713
  24        6.1713
  25       10.0581
  26       10.0581
 
  0.3333333E+00  0.0000000E+00  0.0000000E+00  0.3472222E-02
   1       -4.3774
   2       -1.7140
   3       -0.8398
   4       -0.8398
   5       -0.6030
   6       -0.5539
   7       -0.5539
   8        0.0135
   9        0.5274
  10        0.5274
  11        0.6092
  12        0.6092
  13        0.7984
  14        1.1872
  15        1.2034
  16        1.2034
  17        1.2175
  18        1.2776
  19        1.2776
  20        1.4314
  21        1.6925
  22        1.6925
  23        7.0411
  24        7.0411
  25       10.3240
  26       10.3240
 
  0.4166667E+00  0.0000000E+00  0.0000000E+00  0.3472222E-02
   1       -3.7218
   2       -2.2662
   3       -0.6931
   4       -0.6931
   5       -0.4569
   6       -0.3535
   7       -0.3535
   8       -0.1378
   9        0.1899
  10        0.1899
  11        0.7048
  12        0.7548
  13        0.7548
  14        0.7888
  15        1.0844
  16        1.0844
  17        1.0994
  18        1.0994
  19        1.2456
  20        1.3720
  21        1.6926
  22        1.6926
  23        8.0192
  24        8.0192
  25       10.2405
  26       10.2405
 
  0.5000000E+00  0.0000000E+00  0.0000000E+00  0.1736111E-02
   1       -2.9875
   2       -2.9875
   3       -0.6337
   4       -0.6337
   5       -0.2983
   6       -0.2983
   7       -0.1053
   8       -0.1053
   9       -0.1053
  10       -0.1053
  11        0.6697
  12        0.6697
  13        0.9212
  14        0.9212
  15        0.9212
  16        0.9212
  17        1.0350
  18        1.0350
  19        1.3087
  20        1.3087
  21        1.6927
  22        1.6927
  23        9.0892
  24        9.0892
  25        9.0892
  26        9.0892
 
  0.8333333E-01  0.8333333E-01  0.0000000E+00  0.6944444E-02
   1       -5.4613
   2       -1.2707
   3       -1.2707
   4       -1.2346
   5       -0.8598
   6       -0.8598
   7       -0.8589
   8        0.2983
   9        0.3587
  10        0.3664
  11        1.0415
  12        1.0704
  13        1.4735
  14        1.4914
  15        1.4914
  16        1.5049
  17        1.5594
  18        1.5594
  19        1.6615
  20        1.6615
  21        1.6724
  22        4.3935
  23        4.3935
  24        5.1068
  25        9.8148
  26       10.4794
 
  0.1666667E+00  0.8333333E-01  0.0000000E+00  0.1388889E-01
   1       -5.2240
   2       -1.2898
   3       -1.1653
   4       -1.1346
   5       -0.8019
   6       -0.7970
   7       -0.7969
   8        0.2406
   9        0.4068
  10        0.4139
  11        0.9919
  12        1.0924
  13        1.2031
  14        1.2053
  15        1.3824
  16        1.4331
  17        1.4629
  18        1.5317
  19        1.5740
  20        1.6614
  21        1.6619
  22        3.3309
  23        4.8879
  24        5.6034
  25        9.9160
  26       10.6125
 
  0.2500000E+00  0.8333333E-01  0.0000000E+00  0.1388889E-01
   1       -4.8343
   2       -1.3835
   3       -1.0076
   4       -0.9849
   5       -0.7094
   6       -0.6934
   7       -0.6910
   8        0.1427
   9        0.4890
  10        0.4924
  11        0.8368
  12        0.8613
  13        0.9118
  14        1.1351
  15        1.1923
  16        1.3222
  17        1.3468
  18        1.4407
  19        1.4811
  20        1.6594
  21        1.6612
  22        2.3072
  23        5.5593
  24        6.3115
  25       10.0916
  26       10.8453
 
  0.3333333E+00  0.8333333E-01  0.0000000E+00  0.1388889E-01
   1       -4.3030
   2       -1.6626
   3       -0.8274
   4       -0.8128
   5       -0.5877
   6       -0.5494
   7       -0.5406
   8        0.0149
   9        0.4755
  10        0.5104
  11        0.5756
  12        0.6101
  13        0.8334
  14        0.9031
  15        1.1914
  16        1.1920
  17        1.2107
  18        1.2770
  19        1.3887
  20        1.6479
  21        1.6591
  22        1.6608
  23        6.3416
  24        7.1660
  25       10.1951
  26       10.4522
 
  0.4166667E+00  0.8333333E-01  0.0000000E+00  0.1388889E-01
   1       -3.6512
   2       -2.2075
   3       -0.6729
   4       -0.6645
   5       -0.4447
   6       -0.3659
   7       -0.3446
   8       -0.1327
   9        0.1473
  10        0.1845
  11        0.6043
  12        0.6551
  13        0.7551
  14        0.8481
  15        1.0782
  16        1.0896
  17        1.0990
  18        1.1884
  19        1.2596
  20        1.4268
  21        1.6594
  22        1.6604
  23        7.2067
  24        8.1332
  25        9.1601
  26       10.3419
 
  0.5000000E+00  0.8333333E-01  0.0000000E+00  0.6944444E-02
   1       -2.9221
   2       -2.9221
   3       -0.6063
   4       -0.6063
   5       -0.2896
   6       -0.2896
   7       -0.1351
   8       -0.1351
   9       -0.1024
  10       -0.1024
  11        0.5830
  12        0.5830
  13        0.9210
  14        0.9210
  15        0.9889
  16        0.9889
  17        1.0351
  18        1.0351
  19        1.3355
  20        1.3355
  21        1.6599
  22        1.6599
  23        8.1459
  24        8.1459
  25        9.1956
  26        9.1956
 
  0.1666667E+00  0.1666667E+00  0.0000000E+00  0.6944444E-02
   1       -4.9897
   2       -1.1759
   3       -1.1759
   4       -1.0424
   5       -0.7426
   6       -0.7426
   7       -0.7416
   8        0.2061
   9        0.4354
  10        0.4439
  11        0.9740
  12        1.0255
  13        1.0508
  14        1.0508
  15        1.0999
  16        1.3698
  17        1.4585
  18        1.4585
  19        1.5733
  20        1.5733
  21        1.6142
  22        3.8108
  23        3.8108
  24        6.0497
  25       10.0169
  26       11.3311
 
  0.2500000E+00  0.1666667E+00  0.0000000E+00  0.1388889E-01
   1       -4.6053
   2       -1.2548
   3       -1.0041
   4       -0.9039
   5       -0.6558
   6       -0.6505
   7       -0.6429
   8        0.1278
   9        0.4878
  10        0.5074
  11        0.6857
  12        0.7564
  13        0.8305
  14        0.9176
  15        1.1503
  16        1.2711
  17        1.3482
  18        1.4179
  19        1.4396
  20        1.5723
  21        1.5868
  22        2.7885
  23        4.4210
  24        6.7094
  25        9.9127
  26       10.3005
 
  0.3333333E+00  0.1666667E+00  0.0000000E+00  0.1388889E-01
   1       -4.0823
   2       -1.5140
   3       -0.8042
   4       -0.7393
   5       -0.5421
   6       -0.5322
   7       -0.5018
   8        0.0150
   9        0.3416
  10        0.4572
  11        0.5215
  12        0.5927
  13        0.6179
  14        0.8703
  15        1.1542
  16        1.2155
  17        1.2296
  18        1.2758
  19        1.3304
  20        1.5710
  21        1.5749
  22        2.0611
  23        5.1149
  24        7.5260
  25        8.7690
  26       10.5295
 
  0.4166667E+00  0.1666667E+00  0.0000000E+00  0.1388889E-01
   1       -3.4425
   2       -2.0368
   3       -0.6241
   4       -0.5833
   5       -0.4086
   6       -0.3998
   7       -0.3188
   8       -0.1196
   9        0.0369
  10        0.1670
  11        0.4546
  12        0.5005
  13        0.7587
  14        0.9034
  15        1.0558
  16        1.0924
  17        1.0984
  18        1.1882
  19        1.3304
  20        1.5699
  21        1.5704
  22        1.6622
  23        5.8853
  24        7.6982
  25        8.4653
  26       10.6403
 
  0.5000000E+00  0.1666667E+00  0.0000000E+00  0.6944444E-02
   1       -2.7301
   2       -2.7301
   3       -0.5304
   4       -0.5304
   5       -0.2644
   6       -0.2644
   7       -0.2170
   8       -0.2170
   9       -0.0947
  10       -0.0947
  11        0.4489
  12        0.4489
  13        0.9220
  14        0.9220
  15        1.0254
  16        1.0254
  17        1.0277
  18        1.0277
  19        1.4599
  20        1.4599
  21        1.5693
  22        1.5693
  23        6.7413
  24        6.7413
  25        9.5076
  26        9.5076
 
  0.2500000E+00  0.2500000E+00  0.0000000E+00  0.6944444E-02
   1       -4.2306
   2       -1.0589
   3       -1.0589
   4       -0.7855
   5       -0.5779
   6       -0.5663
   7       -0.5663
   8        0.0828
   9        0.4875
  10        0.4875
  11        0.4896
  12        0.5557
  13        0.5827
  14        0.8865
  15        1.1895
  16        1.2182
  17        1.3155
  18        1.3155
  19        1.4380
  20        1.4380
  21        1.5192
  22        3.3414
  23        3.3414
  24        7.3166
  25        8.6150
  26       10.4553
 
  0.3333333E+00  0.2500000E+00  0.0000000E+00  0.1388889E-01
   1       -3.7226
   2       -1.2869
   3       -0.8266
   4       -0.6455
   5       -0.4879
   6       -0.4663
   7       -0.4405
   8        0.0021
   9        0.1826
  10        0.3223
  11        0.3644
  12        0.4782
  13        0.6461
  14        0.8512
  15        1.0909
  16        1.1894
  17        1.2345
  18        1.2749
  19        1.3325
  20        1.4368
  21        1.4754
  22        2.5178
  23        3.9571
  24        7.4118
  25        8.0877
  26       10.7647
 
  0.4166667E+00  0.2500000E+00  0.0000000E+00  0.1388889E-01
   1       -3.1052
   2       -1.7715
   3       -0.6053
   4       -0.4874
   5       -0.4253
   6       -0.3501
   7       -0.2793
   8       -0.1051
   9       -0.0801
  10        0.1335
  11        0.2773
  12        0.4219
  13        0.7737
  14        0.8753
  15        1.0098
  16        1.0681
  17        1.1000
  18        1.1091
  19        1.4371
  20        1.4520
  21        1.4825
  22        1.9924
  23        4.6493
  24        6.3556
  25        8.9911
  26       11.1203
 
  0.5000000E+00  0.2500000E+00  0.0000000E+00  0.6944444E-02
   1       -2.4249
   2       -2.4249
   3       -0.4570
   4       -0.4570
   5       -0.3015
   6       -0.3015
   7       -0.2263
   8       -0.2263
   9       -0.0856
  10       -0.0856
  11        0.3345
  12        0.3345
  13        0.9286
  14        0.9286
  15        0.9730
  16        0.9730
  17        0.9962
  18        0.9962
  19        1.4410
  20        1.4410
  21        1.6832
  22        1.6832
  23        5.4408
  24        5.4408
  25       10.0065
  26       10.0065
 
  0.3333333E+00  0.3333333E+00  0.0000000E+00  0.6944444E-02
   1       -3.2389
   2       -1.0160
   3       -1.0160
   4       -0.5742
   5       -0.3999
   6       -0.3617
   7       -0.3617
   8       -0.0350
   9        0.0966
  10        0.0966
  11        0.2344
  12        0.4364
  13        0.7090
  14        0.8081
  15        1.0093
  16        1.1160
  17        1.1160
  18        1.2762
  19        1.2762
  20        1.3911
  21        1.4901
  22        3.0302
  23        3.0302
  24        6.2144
  25        8.8160
  26       11.1132
 
  0.4166667E+00  0.3333333E+00  0.0000000E+00  0.1388889E-01
   1       -2.6590
   2       -1.4456
   3       -0.7577
   4       -0.5415
   5       -0.2996
   6       -0.2724
   7       -0.2310
   8       -0.0985
   9       -0.0803
  10        0.0801
  11        0.1381
  12        0.3626
  13        0.8085
  14        0.8115
  15        0.9392
  16        1.0006
  17        1.0015
  18        1.1078
  19        1.2829
  20        1.3334
  21        1.6940
  22        2.3830
  23        3.6238
  24        5.1892
  25        9.6831
  26       11.5867
 
  0.5000000E+00  0.3333333E+00  0.0000000E+00  0.6944444E-02
   1       -2.0328
   2       -2.0328
   3       -0.5862
   4       -0.5862
   5       -0.2061
   6       -0.2061
   7       -0.1812
   8       -0.1812
   9       -0.0802
  10       -0.0802
  11        0.2491
  12        0.2491
  13        0.8825
  14        0.8825
  15        0.9301
  16        0.9301
  17        0.9482
  18        0.9482
  19        1.2998
  20        1.2998
  21        1.9691
  22        1.9691
  23        4.3325
  24        4.3325
  25       10.6696
  26       10.6696
 
  0.4166667E+00  0.4166667E+00  0.0000000E+00  0.6944444E-02
   1       -2.1380
   2       -1.1131
   3       -1.1131
   4       -0.6536
   5       -0.1810
   6       -0.1810
   7       -0.1598
   8       -0.1085
   9        0.0057
  10        0.0359
  11        0.0359
  12        0.2924
  13        0.7670
  14        0.8665
  15        0.8826
  16        0.8980
  17        0.8980
  18        1.1280
  19        1.1280
  20        1.2360
  21        1.9631
  22        2.8554
  23        2.8554
  24        4.2214
  25       10.5174
  26       12.1086
 
  0.5000000E+00  0.4166667E+00  0.0000000E+00  0.6944444E-02
   1       -1.5980
   2       -1.5980
   3       -0.8378
   4       -0.8378
   5       -0.1375
   6       -0.1375
   7       -0.0846
   8       -0.0846
   9       -0.0509
  10       -0.0509
  11        0.1783
  12        0.1783
  13        0.8017
  14        0.8017
  15        0.8429
  16        0.8429
  17        0.9901
  18        0.9901
  19        1.1682
  20        1.1682
  21        2.3262
  22        2.3262
  23        3.4526
  24        3.4526
  25       11.4765
  26       11.4765
 
  0.5000000E+00  0.5000000E+00  0.0000000E+00  0.1736111E-02
   1       -1.1814
   2       -1.1814
   3       -1.1814
   4       -1.1814
   5       -0.1036
   6       -0.1036
   7       -0.1036
   8       -0.1036
   9        0.0855
  10        0.0855
  11        0.0855
  12        0.0855
  13        0.7836
  14        0.7836
  15        0.7836
  16        0.7836
  17        1.0627
  18        1.0627
  19        1.0627
  20        1.0627
  21        2.7994
  22        2.7994
  23        2.7994
  24        2.7994
  25       12.4113
  26       12.4113
 
  0.8333333E-01  0.8333333E-01  0.8333333E-01  0.4629630E-02
   1       -5.3820
   2       -1.2350
   3       -1.2350
   4       -1.2350
   5       -0.8396
   6       -0.8396
   7       -0.8396
   8        0.2872
   9        0.3737
  10        0.3737
  11        1.0519
  12        1.0519
  13        1.4312
  14        1.4312
  15        1.4312
  16        1.4824
  17        1.4824
  18        1.4824
  19        1.6580
  20        1.6580
  21        1.6580
  22        4.5713
  23        4.5713
  24        4.5713
  25       10.5233
  26       10.5233
 
  0.1666667E+00  0.8333333E-01  0.8333333E-01  0.1388889E-01
   1       -5.1457
   2       -1.2516
   3       -1.1327
   4       -1.1327
   5       -0.7827
   6       -0.7787
   7       -0.7787
   8        0.2349
   9        0.4146
  10        0.4184
  11        0.9996
  12        1.0823
  13        1.1519
  14        1.1519
  15        1.3025
  16        1.4147
  17        1.4177
  18        1.4177
  19        1.6193
  20        1.6486
  21        1.6486
  22        3.5078
  23        5.0372
  24        5.0372
  25       10.6582
  26       10.6582
 
  0.2500000E+00  0.8333333E-01  0.8333333E-01  0.1388889E-01
   1       -4.7579
   2       -1.3410
   3       -0.9793
   4       -0.9793
   5       -0.6917
   6       -0.6771
   7       -0.6771
   8        0.1413
   9        0.4875
  10        0.4920
  11        0.8073
  12        0.8073
  13        0.9261
  14        1.0808
  15        1.1306
  16        1.3058
  17        1.3160
  18        1.3160
  19        1.5641
  20        1.6407
  21        1.6407
  22        2.4895
  23        5.6845
  24        5.6845
  25       10.8904
  26       10.8904
 
  0.3333333E+00  0.8333333E-01  0.8333333E-01  0.1388889E-01
   1       -4.2295
   2       -1.6139
   3       -0.8019
   4       -0.8019
   5       -0.5721
   6       -0.5369
   7       -0.5369
   8        0.0175
   9        0.4634
  10        0.4634
  11        0.5614
  12        0.5928
  13        0.7913
  14        0.8705
  15        1.1674
  16        1.1901
  17        1.1901
  18        1.1932
  19        1.4974
  20        1.6362
  21        1.6362
  22        1.7754
  23        6.4479
  24        6.4479
  25       10.3685
  26       10.3685
 
  0.4166667E+00  0.8333333E-01  0.8333333E-01  0.1388889E-01
   1       -3.5818
   2       -2.1512
   3       -0.6450
   4       -0.6450
   5       -0.4317
   6       -0.3635
   7       -0.3635
   8       -0.1264
   9        0.1518
  10        0.1518
  11        0.5665
  12        0.5824
  13        0.7175
  14        0.9238
  15        1.0144
  16        1.0771
  17        1.0771
  18        1.2660
  19        1.3605
  20        1.4228
  21        1.6341
  22        1.6341
  23        7.2936
  24        7.2936
  25        9.2781
  26        9.2781
 
  0.5000000E+00  0.8333333E-01  0.8333333E-01  0.6944444E-02
   1       -2.8585
   2       -2.8585
   3       -0.5784
   4       -0.5784
   5       -0.2797
   6       -0.2797
   7       -0.2034
   8       -0.2034
   9       -0.0590
  10       -0.0590
  11        0.5343
  12        0.5343
  13        0.8608
  14        0.8608
  15        1.0295
  16        1.0295
  17        1.0973
  18        1.0973
  19        1.3442
  20        1.3442
  21        1.6334
  22        1.6334
  23        8.0547
  24        8.0547
  25        8.4366
  26        8.4366
 
  0.1666667E+00  0.1666667E+00  0.8333333E-01  0.1388889E-01
   1       -4.9127
   2       -1.1424
   3       -1.1424
   4       -1.0397
   5       -0.7248
   6       -0.7248
   7       -0.7239
   8        0.2027
   9        0.4401
  10        0.4449
  11        0.9783
  12        0.9926
  13        1.0047
  14        1.0047
  15        1.0849
  16        1.3313
  17        1.3579
  18        1.3579
  19        1.6140
  20        1.6140
  21        1.6214
  22        3.9459
  23        3.9459
  24        5.4450
  25       10.7927
  26       11.4278
 
  0.2500000E+00  0.1666667E+00  0.8333333E-01  0.2777778E-01
   1       -4.5306
   2       -1.2194
   3       -0.9781
   4       -0.9006
   5       -0.6382
   6       -0.6339
   7       -0.6283
   8        0.1291
   9        0.4862
  10        0.5004
  11        0.6642
  12        0.7127
  13        0.7855
  14        0.9440
  15        1.1395
  16        1.2376
  17        1.2494
  18        1.2792
  19        1.5619
  20        1.5921
  21        1.5941
  22        2.9040
  23        4.5273
  24        6.0350
  25       10.0859
  26       11.0617
 
  0.3333333E+00  0.1666667E+00  0.8333333E-01  0.2777778E-01
   1       -4.0111
   2       -1.4743
   3       -0.7859
   4       -0.7350
   5       -0.5246
   6       -0.5196
   7       -0.4974
   8        0.0211
   9        0.3422
  10        0.4242
  11        0.5163
  12        0.5553
  13        0.5874
  14        0.9194
  15        1.1106
  16        1.1315
  17        1.1705
  18        1.2215
  19        1.4852
  20        1.5746
  21        1.5748
  22        2.1291
  23        5.2013
  24        6.7422
  25        8.9066
  26       10.6515
 
  0.4166667E+00  0.1666667E+00  0.8333333E-01  0.2777778E-01
   1       -3.3767
   2       -1.9884
   3       -0.6043
   4       -0.5694
   5       -0.4100
   6       -0.3922
   7       -0.3546
   8       -0.1091
   9        0.0728
  10        0.1595
  11        0.4297
  12        0.4888
  13        0.6943
  14        0.9624
  15        0.9946
  16        1.0377
  17        1.0623
  18        1.3208
  19        1.3611
  20        1.5645
  21        1.5649
  22        1.6642
  23        5.9543
  24        7.3861
  25        8.0150
  26        9.5599
 
  0.5000000E+00  0.1666667E+00  0.8333333E-01  0.1388889E-01
   1       -2.6721
   2       -2.6721
   3       -0.5011
   4       -0.5011
   5       -0.3109
   6       -0.3109
   7       -0.2504
   8       -0.2504
   9       -0.0202
  10       -0.0202
  11        0.4322
  12        0.4322
  13        0.8205
  14        0.8205
  15        1.0064
  16        1.0064
  17        1.1673
  18        1.1673
  19        1.4446
  20        1.4446
  21        1.5616
  22        1.5616
  23        6.7795
  24        6.7795
  25        8.5813
  26        8.5813
 
  0.2500000E+00  0.2500000E+00  0.8333333E-01  0.1388889E-01
   1       -4.1590
   2       -1.0370
   3       -1.0370
   4       -0.7881
   5       -0.5599
   6       -0.5486
   7       -0.5486
   8        0.0892
   9        0.4750
  10        0.4750
  11        0.4873
  12        0.5351
  13        0.5519
  14        0.9269
  15        1.1421
  16        1.1919
  17        1.1919
  18        1.2051
  19        1.5246
  20        1.5246
  21        1.5430
  22        3.4247
  23        3.4247
  24        6.5498
  25        8.7609
  26       11.3258
 
  0.3333333E+00  0.2500000E+00  0.8333333E-01  0.2777778E-01
   1       -3.6560
   2       -1.2650
   3       -0.8251
   4       -0.6601
   5       -0.4682
   6       -0.4442
   7       -0.4270
   8        0.0149
   9        0.1996
  10        0.3186
  11        0.3530
  12        0.4758
  13        0.5976
  14        0.9182
  15        1.0469
  16        1.0641
  17        1.1078
  18        1.3188
  19        1.4327
  20        1.4881
  21        1.4999
  22        2.5643
  23        4.0220
  24        7.0155
  25        7.7680
  26       11.0945
 
  0.4166667E+00  0.2500000E+00  0.8333333E-01  0.2777778E-01
   1       -3.0464
   2       -1.7388
   3       -0.6248
   4       -0.5286
   5       -0.4026
   6       -0.3255
   7       -0.3102
   8       -0.0862
   9       -0.0008
  10        0.1583
  11        0.2766
  12        0.4195
  13        0.6816
  14        0.9224
  15        0.9708
  16        0.9886
  17        1.0132
  18        1.3009
  19        1.4665
  20        1.4666
  21        1.4721
  22        1.9977
  23        4.7009
  24        6.3545
  25        8.1643
  26       10.0024
 
  0.5000000E+00  0.2500000E+00  0.8333333E-01  0.1388889E-01
   1       -2.3776
   2       -2.3776
   3       -0.4886
   4       -0.4886
   5       -0.3422
   6       -0.3422
   7       -0.2031
   8       -0.2031
   9        0.0062
  10        0.0062
  11        0.3331
  12        0.3331
  13        0.7904
  14        0.7904
  15        0.9543
  16        0.9543
  17        1.1355
  18        1.1355
  19        1.4612
  20        1.4612
  21        1.6684
  22        1.6684
  23        5.4774
  24        5.4774
  25        9.0206
  26        9.0206
 
  0.3333333E+00  0.3333333E+00  0.8333333E-01  0.1388889E-01
   1       -3.1799
   2       -1.0243
   3       -1.0243
   4       -0.6160
   5       -0.3715
   6       -0.3314
   7       -0.3314
   8       -0.0128
   9        0.1198
  10        0.1198
  11        0.2528
  12        0.4367
  13        0.6228
  14        0.9095
  15        0.9565
  16        1.0001
  17        1.0001
  18        1.3800
  19        1.3800
  20        1.4291
  21        1.4739
  22        3.0655
  23        3.0655
  24        6.1978
  25        8.0253
  26       11.6899
 
  0.4166667E+00  0.3333333E+00  0.8333333E-01  0.2777778E-01
   1       -2.6119
   2       -1.4390
   3       -0.8065
   4       -0.6092
   5       -0.2713
   6       -0.2315
   7       -0.2074
   8       -0.0664
   9       -0.0133
  10        0.1381
  11        0.1523
  12        0.3654
  13        0.6689
  14        0.8716
  15        0.8857
  16        0.9232
  17        0.9652
  18        1.2437
  19        1.3488
  20        1.3751
  21        1.6761
  22        2.3869
  23        3.6526
  24        5.2052
  25        8.7518
  26       10.5950
 
  0.5000000E+00  0.3333333E+00  0.8333333E-01  0.1388889E-01
   1       -2.0037
   2       -2.0037
   3       -0.6628
   4       -0.6628
   5       -0.1974
   6       -0.1974
   7       -0.1414
   8       -0.1414
   9        0.0200
  10        0.0200
  11        0.2556
  12        0.2556
  13        0.7533
  14        0.7533
  15        0.8714
  16        0.8714
  17        1.0913
  18        1.0913
  19        1.3471
  20        1.3471
  21        1.9548
  22        1.9548
  23        4.3567
  24        4.3567
  25        9.6152
  26        9.6152
 
  0.4166667E+00  0.4166667E+00  0.8333333E-01  0.1388889E-01
   1       -2.1096
   2       -1.1430
   3       -1.1430
   4       -0.7299
   5       -0.1354
   6       -0.1164
   7       -0.1164
   8       -0.0601
   9        0.0606
  10        0.0606
  11        0.0917
  12        0.2996
  13        0.6664
  14        0.8075
  15        0.8113
  16        0.8113
  17        0.9923
  18        1.2159
  19        1.2159
  20        1.2889
  21        1.9447
  22        2.8595
  23        2.8595
  24        4.2348
  25        9.4866
  26       11.3255
 
  0.5000000E+00  0.4166667E+00  0.8333333E-01  0.1388889E-01
   1       -1.5966
   2       -1.5966
   3       -0.9017
   4       -0.9017
   5       -0.0744
   6       -0.0744
   7       -0.0412
   8       -0.0412
   9        0.0192
  10        0.0192
  11        0.1899
  12        0.1899
  13        0.7135
  14        0.7135
  15        0.7770
  16        0.7770
  17        1.0852
  18        1.0852
  19        1.2315
  20        1.2315
  21        2.3134
  22        2.3134
  23        3.4603
  24        3.4603
  25       10.3460
  26       10.3460
 
  0.5000000E+00  0.5000000E+00  0.8333333E-01  0.3472222E-02
   1       -1.2148
   2       -1.2148
   3       -1.2148
   4       -1.2148
   5       -0.0195
   6       -0.0195
   7       -0.0195
   8       -0.0195
   9        0.1022
  10        0.1022
  11        0.1022
  12        0.1022
  13        0.7127
  14        0.7127
  15        0.7127
  16        0.7127
  17        1.1356
  18        1.1356
  19        1.1356
  20        1.1356
  21        2.7933
  22        2.7933
  23        2.7933
  24        2.7933
  25       11.2040
  26       11.2040
 
  0.1666667E+00  0.1666667E+00  0.1666667E+00  0.4629630E-02
   1       -4.6836
   2       -1.0476
   3       -1.0476
   4       -1.0476
   5       -0.6709
   6       -0.6709
   7       -0.6709
   8        0.1818
   9        0.4564
  10        0.4564
  11        0.8418
  12        0.8418
  13        0.8418
  14        1.0451
  15        1.0451
  16        1.2363
  17        1.2363
  18        1.2363
  19        1.6257
  20        1.6257
  21        1.6257
  22        4.3083
  23        4.3083
  24        4.3083
  25       11.6981
  26       11.6981
 
  0.2500000E+00  0.1666667E+00  0.1666667E+00  0.1388889E-01
   1       -4.3087
   2       -1.1210
   3       -0.9083
   4       -0.9083
   5       -0.5840
   6       -0.5815
   7       -0.5815
   8        0.1265
   9        0.4847
  10        0.4898
  11        0.5930
  12        0.5930
  13        0.6405
  14        1.0019
  15        1.1127
  16        1.1230
  17        1.1498
  18        1.1498
  19        1.6028
  20        1.6028
  21        1.6083
  22        3.2159
  23        4.8237
  24        4.8237
  25       10.3771
  26       10.3771
 
  0.3333333E+00  0.1666667E+00  0.1666667E+00  0.1388889E-01
   1       -3.8006
   2       -1.3641
   3       -0.7470
   4       -0.7470
   5       -0.4709
   6       -0.4709
   7       -0.4700
   8        0.0367
   9        0.3399
  10        0.3399
  11        0.4477
  12        0.4975
  13        0.5448
  14        0.9783
  15        1.0074
  16        1.0643
  17        1.0643
  18        1.2165
  19        1.5648
  20        1.5707
  21        1.5707
  22        2.3549
  23        5.4406
  24        5.4406
  25        9.1941
  26        9.1941
 
  0.4166667E+00  0.1666667E+00  0.1666667E+00  0.1388889E-01
   1       -3.1833
   2       -1.8514
   3       -0.5832
   4       -0.5832
   5       -0.3934
   6       -0.3934
   7       -0.3404
   8       -0.0777
   9        0.1455
  10        0.1455
  11        0.3614
  12        0.4547
  13        0.6237
  14        0.8459
  15        0.9824
  16        0.9824
  17        1.1244
  18        1.3159
  19        1.4976
  20        1.5470
  21        1.5470
  22        1.7588
  23        6.1139
  24        6.1139
  25        8.1835
  26        8.1835
 
  0.5000000E+00  0.1666667E+00  0.1666667E+00  0.6944444E-02
   1       -2.5036
   2       -2.5036
   3       -0.4636
   4       -0.4636
   5       -0.4159
   6       -0.4159
   7       -0.2065
   8       -0.2065
   9        0.0747
  10        0.0747
  11        0.3862
  12        0.3862