 vasp.4.6.28 25Jul05 complex 
 executed on             LinuxIFC date 2016.12.21  11:39:10
 running on    2 nodes
 distr:  one band on    1 nodes,    2 groups


--------------------------------------------------------------------------------------------------------


 INCAR:
 POTCAR:   PAW_PBE Cu 05Jan2001                   
 POTCAR:   PAW_PBE Cu 05Jan2001                   
   VRHFIN =Cu: d10 p1                                                           
   LEXCH  = PE                                                                  
   EATOM  =  1390.9800 eV,  102.2341 Ry                                         
                                                                                
   TITEL  = PAW_PBE Cu 05Jan2001                                                
   LULTRA =        F    use ultrasoft PP ?                                      
   IUNSCR =        1    unscreen: 0-lin 1-nonlin 2-no                           
   RPACOR =    2.000    partial core radius                                     
   POMASS =   63.546; ZVAL   =   11.000    mass and valenz                      
   RCORE  =    2.300    outmost cutoff radius                                   
   RWIGS  =    2.480; RWIGS  =    1.312    wigner-seitz radius (au A)           
   ENMAX  =  273.214; ENMIN  =  204.910 eV                                      
   RCLOC  =    1.712    cutoff for local pot                                    
   LCOR   =        T    correct aug charges                                     
   LPAW   =        T    paw PP                                                  
   EAUG   =  516.456                                                            
   DEXC   =    -.008                                                            
   RMAX   =    2.789    core radius for proj-oper                               
   RAUG   =    1.300    factor for augmentation sphere                          
   RDEP   =    2.302    radius for radial grids                                 
   QCUT   =   -4.481; QGAM   =    8.962    optimization parameters              
                                                                                
   Description                                                                  
     l     E      TYP  RCUT    TYP  RCUT                                        
     2   .000     23  2.300                                                     
     2   .000     23  2.300                                                     
     0   .000     23  2.300                                                     
     0   .000     23  2.300                                                     
     1  -.200     23  2.300                                                     
     1   .000     23  2.300                                                     
     3   .000      7   .000                                                     
  local pseudopotential read in
  partial core-charges read in
  atomic valenz-charges read in
  non local Contribution for L=           2  read in
    real space projection operators read in
  non local Contribution for L=           2  read in
    real space projection operators read in
  non local Contribution for L=           0  read in
    real space projection operators read in
  non local Contribution for L=           0  read in
    real space projection operators read in
  non local Contribution for L=           1  read in
    real space projection operators read in
  non local Contribution for L=           1  read in
    real space projection operators read in
    PAW grid and wavefunctions read in
 
   number of l-projection  operators is LMAX  =           6
   number of lm-projection operators is LMMAX =          18
 
 PAW_PBE Cu 05Jan2001                   :
 energy of atom  1       EATOM=-1390.9800
 kinetic energy error for atom=    0.0006 (will be added to EATOM!!)
 
 EXHCAR: internal setup
 exchange correlation table for  LEXCH =        8
   RHO(1)=    0.500       N(1)  =     2000
   RHO(2)=  100.500       N(2)  =     4000
 
 POSCAR: Cu                                      
  positions in direct lattice
  velocities in cartesian coordinates
 


--------------------------------------------------------------------------------------------------------


 ion  position               nearest neighbor table
   1  0.000  0.000  0.000-   2 2.62   3 2.62   4 2.62   3 2.62   4 2.62   2 2.62   4 2.62   4 2.62
                             2 2.62   3 2.62   3 2.62   2 2.62
   2  0.500  0.500  0.000-   1 2.62   3 2.62   4 2.62   3 2.62   4 2.62   1 2.62   3 2.62   3 2.62
                             1 2.62   4 2.62   4 2.62   1 2.62
   3  0.500  0.000  0.500-   1 2.62   2 2.62   4 2.62   1 2.62   2 2.62   2 2.62   4 2.62   2 2.62
                             1 2.62   4 2.62   1 2.62   4 2.62
   4  0.000  0.500  0.500-   1 2.62   2 2.62   3 2.62   1 2.62   2 2.62   1 2.62   3 2.62   1 2.62
                             2 2.62   3 2.62   2 2.62   3 2.62
 
  LATTYP: Found a simple cubic cell.
 ALAT       =     3.7091441280
  
  Lattice vectors:
  
 A1 = (   3.7091441280,   0.0000000000,   0.0000000000)
 A2 = (   0.0000000000,   3.7091441280,   0.0000000000)
 A3 = (   0.0000000000,   0.0000000000,   3.7091441280)
 Subroutine PRICEL returns following result:
 
  LATTYP: Found a face centered cubic cell.
 ALAT       =     3.7091441280
  
  Lattice vectors:
  
 A1 = (   1.8545720640,   1.8545720640,   0.0000000000)
 A2 = (   1.8545720640,   0.0000000000,  -1.8545720640)
 A3 = (   0.0000000000,   1.8545720640,  -1.8545720640)
 
   4 primitive cells build up your supercell.
 

Analysis of symmetry for initial positions (statically):

 Routine SETGRP: Setting up the symmetry group for a 
 simple cubic supercell.


 Subroutine GETGRP returns: Found 48 space group operations
 (whereof 48 operations were pure point group operations)
 out of a pool of 48 trial point group operations.


The static configuration has the point symmetry O_h .

Analysis of symmetry for dynamics (positions and initial velocities):

 Subroutine DYNSYM returns: Found 48 space group operations
 (whereof 48 operations were pure point group operations)
 out of a pool of 48 trial space group operations
 (whereof 48 operations were pure point group operations)
 and found also     4 'primitive' translations


The dynamic configuration has the point symmetry O_h .
 
 
 KPOINTS: Automatic mesh                          

Automatic generation of k-mesh.
 
 Subroutine IBZKPT returns following result:
 ===========================================
 
 Found     84 irreducible k-points:
 
 Following reciprocal coordinates:
            Coordinates               Weight
  0.000000  0.000000  0.000000      1.000000
  0.083333  0.000000  0.000000      6.000000
  0.166667  0.000000  0.000000      6.000000
  0.250000  0.000000  0.000000      6.000000
  0.333333  0.000000  0.000000      6.000000
  0.416667  0.000000  0.000000      6.000000
  0.500000  0.000000  0.000000      3.000000
  0.083333  0.083333  0.000000     12.000000
  0.166667  0.083333  0.000000     24.000000
  0.250000  0.083333  0.000000     24.000000
  0.333333  0.083333  0.000000     24.000000
  0.416667  0.083333  0.000000     24.000000
  0.500000  0.083333  0.000000     12.000000
  0.166667  0.166667  0.000000     12.000000
  0.250000  0.166667  0.000000     24.000000
  0.333333  0.166667  0.000000     24.000000
  0.416667  0.166667  0.000000     24.000000
  0.500000  0.166667  0.000000     12.000000
  0.250000  0.250000  0.000000     12.000000
  0.333333  0.250000  0.000000     24.000000
  0.416667  0.250000  0.000000     24.000000
  0.500000  0.250000  0.000000     12.000000
  0.333333  0.333333  0.000000     12.000000
  0.416667  0.333333  0.000000     24.000000
  0.500000  0.333333  0.000000     12.000000
  0.416667  0.416667  0.000000     12.000000
  0.500000  0.416667  0.000000     12.000000
  0.500000  0.500000  0.000000      3.000000
  0.083333  0.083333  0.083333      8.000000
  0.166667  0.083333  0.083333     24.000000
  0.250000  0.083333  0.083333     24.000000
  0.333333  0.083333  0.083333     24.000000
  0.416667  0.083333  0.083333     24.000000
  0.500000  0.083333  0.083333     12.000000
  0.166667  0.166667  0.083333     24.000000
  0.250000  0.166667  0.083333     48.000000
  0.333333  0.166667  0.083333     48.000000
  0.416667  0.166667  0.083333     48.000000
  0.500000  0.166667  0.083333     24.000000
  0.250000  0.250000  0.083333     24.000000
  0.333333  0.250000  0.083333     48.000000
  0.416667  0.250000  0.083333     48.000000
  0.500000  0.250000  0.083333     24.000000
  0.333333  0.333333  0.083333     24.000000
  0.416667  0.333333  0.083333     48.000000
  0.500000  0.333333  0.083333     24.000000
  0.416667  0.416667  0.083333     24.000000
  0.500000  0.416667  0.083333     24.000000
  0.500000  0.500000  0.083333      6.000000
  0.166667  0.166667  0.166667      8.000000
  0.250000  0.166667  0.166667     24.000000
  0.333333  0.166667  0.166667     24.000000
  0.416667  0.166667  0.166667     24.000000
  0.500000  0.166667  0.166667     12.000000
  0.250000  0.250000  0.166667     24.000000
  0.333333  0.250000  0.166667     48.000000
  0.416667  0.250000  0.166667     48.000000
  0.500000  0.250000  0.166667     24.000000
  0.333333  0.333333  0.166667     24.000000
  0.416667  0.333333  0.166667     48.000000
  0.500000  0.333333  0.166667     24.000000
  0.416667  0.416667  0.166667     24.000000
  0.500000  0.416667  0.166667     24.000000
  0.500000  0.500000  0.166667      6.000000
  0.250000  0.250000  0.250000      8.000000
  0.333333  0.250000  0.250000     24.000000
  0.416667  0.250000  0.250000     24.000000
  0.500000  0.250000  0.250000     12.000000
  0.333333  0.333333  0.250000     24.000000
  0.416667  0.333333  0.250000     48.000000
  0.500000  0.333333  0.250000     24.000000
  0.416667  0.416667  0.250000     24.000000
  0.500000  0.416667  0.250000     24.000000
  0.500000  0.500000  0.250000      6.000000
  0.333333  0.333333  0.333333      8.000000
  0.416667  0.333333  0.333333     24.000000
  0.500000  0.333333  0.333333     12.000000
  0.416667  0.416667  0.333333     24.000000
  0.500000  0.416667  0.333333     24.000000
  0.500000  0.500000  0.333333      6.000000
  0.416667  0.416667  0.416667      8.000000
  0.500000  0.416667  0.416667     12.000000
  0.500000  0.500000  0.416667      6.000000
  0.500000  0.500000  0.500000      1.000000
 
 Following cartesian coordinates:
            Coordinates               Weight
  0.000000  0.000000  0.000000      1.000000
  0.022916  0.000000  0.000000      6.000000
  0.045833  0.000000  0.000000      6.000000
  0.068749  0.000000  0.000000      6.000000
  0.091665  0.000000  0.000000      6.000000
  0.114582  0.000000  0.000000      6.000000
  0.137498  0.000000  0.000000      3.000000
  0.022916  0.022916  0.000000     12.000000
  0.045833  0.022916  0.000000     24.000000
  0.068749  0.022916  0.000000     24.000000
  0.091665  0.022916  0.000000     24.000000
  0.114582  0.022916  0.000000     24.000000
  0.137498  0.022916  0.000000     12.000000
  0.045833  0.045833  0.000000     12.000000
  0.068749  0.045833  0.000000     24.000000
  0.091665  0.045833  0.000000     24.000000
  0.114582  0.045833  0.000000     24.000000
  0.137498  0.045833  0.000000     12.000000
  0.068749  0.068749  0.000000     12.000000
  0.091665  0.068749  0.000000     24.000000
  0.114582  0.068749  0.000000     24.000000
  0.137498  0.068749  0.000000     12.000000
  0.091665  0.091665  0.000000     12.000000
  0.114582  0.091665  0.000000     24.000000
  0.137498  0.091665  0.000000     12.000000
  0.114582  0.114582  0.000000     12.000000
  0.137498  0.114582  0.000000     12.000000
  0.137498  0.137498  0.000000      3.000000
  0.022916  0.022916  0.022916      8.000000
  0.045833  0.022916  0.022916     24.000000
  0.068749  0.022916  0.022916     24.000000
  0.091665  0.022916  0.022916     24.000000
  0.114582  0.022916  0.022916     24.000000
  0.137498  0.022916  0.022916     12.000000
  0.045833  0.045833  0.022916     24.000000
  0.068749  0.045833  0.022916     48.000000
  0.091665  0.045833  0.022916     48.000000
  0.114582  0.045833  0.022916     48.000000
  0.137498  0.045833  0.022916     24.000000
  0.068749  0.068749  0.022916     24.000000
  0.091665  0.068749  0.022916     48.000000
  0.114582  0.068749  0.022916     48.000000
  0.137498  0.068749  0.022916     24.000000
  0.091665  0.091665  0.022916     24.000000
  0.114582  0.091665  0.022916     48.000000
  0.137498  0.091665  0.022916     24.000000
  0.114582  0.114582  0.022916     24.000000
  0.137498  0.114582  0.022916     24.000000
  0.137498  0.137498  0.022916      6.000000
  0.045833  0.045833  0.045833      8.000000
  0.068749  0.045833  0.045833     24.000000
  0.091665  0.045833  0.045833     24.000000
  0.114582  0.045833  0.045833     24.000000
  0.137498  0.045833  0.045833     12.000000
  0.068749  0.068749  0.045833     24.000000
  0.091665  0.068749  0.045833     48.000000
  0.114582  0.068749  0.045833     48.000000
  0.137498  0.068749  0.045833     24.000000
  0.091665  0.091665  0.045833     24.000000
  0.114582  0.091665  0.045833     48.000000
  0.137498  0.091665  0.045833     24.000000
  0.114582  0.114582  0.045833     24.000000
  0.137498  0.114582  0.045833     24.000000
  0.137498  0.137498  0.045833      6.000000
  0.068749  0.068749  0.068749      8.000000
  0.091665  0.068749  0.068749     24.000000
  0.114582  0.068749  0.068749     24.000000
  0.137498  0.068749  0.068749     12.000000
  0.091665  0.091665  0.068749     24.000000
  0.114582  0.091665  0.068749     48.000000
  0.137498  0.091665  0.068749     24.000000
  0.114582  0.114582  0.068749     24.000000
  0.137498  0.114582  0.068749     24.000000
  0.137498  0.137498  0.068749      6.000000
  0.091665  0.091665  0.091665      8.000000
  0.114582  0.091665  0.091665     24.000000
  0.137498  0.091665  0.091665     12.000000
  0.114582  0.114582  0.091665     24.000000
  0.137498  0.114582  0.091665     24.000000
  0.137498  0.137498  0.091665      6.000000
  0.114582  0.114582  0.114582      8.000000
  0.137498  0.114582  0.114582     12.000000
  0.137498  0.137498  0.114582      6.000000
  0.137498  0.137498  0.137498      1.000000
 


--------------------------------------------------------------------------------------------------------




 Dimension of arrays:
   k-Points           NKPTS =     84   number of bands    NBANDS=     26
   number of dos      NEDOS =    301   number of ions     NIONS =      4
   non local maximal  LDIM  =      6   non local SUM 2l+1 LMDIM =     18
   total plane-waves  NPLWV =  46656
   max r-space proj   IRMAX =      1   max aug-charges    IRDMAX= 256881
   dimension x,y,z NGX =    36 NGY =   36 NGZ =   36
   dimension x,y,z NGXF=    72 NGYF=   72 NGZF=   72
   support grid    NGXF=   144 NGYF=  144 NGZF=  144
   ions per type =               4
 NGX,Y,Z   is equivalent  to a cutoff of  16.14, 16.14, 16.14 a.u.
 NGXF,Y,Z  is equivalent  to a cutoff of  32.27, 32.27, 32.27 a.u.


 I would recommend the setting:
   dimension x,y,z NGX =    33 NGY =   33 NGZ =   33
 SYSTEM =  unknown system                          
 POSCAR =  Cu                                      

 Startparameter for this run:
   NWRITE =      2    write-flag & timer
   PREC   = accura    medium, high low
   ISTART =      0    job   : 0-new  1-cont  2-samecut
   ICHARG =      2    charge: 1-file 2-atom 10-const
   ISPIN  =      1    spin polarized calculation?
   LNONCOLLINEAR =      F non collinear calculations
   LSORBIT =      F    spin-orbit coupling
   INIWAV =      1    electr: 0-lowe 1-rand  2-diag
   LASPH  =      F    aspherical Exc in radial PAW
   METAGGA=      F    non-selfconsistent MetaGGA calc.

 Electronic Relaxation 1
   ENCUT  =  750.0 eV  55.12 Ry    7.42 a.u.   8.28  8.28  8.28*2*pi/ulx,y,z
   ENINI  =  750.0     initial cutoff
   ENAUG  =  516.5 eV  augmentation charge cutoff
   NELM   =     60;   NELMIN=  2; NELMDL= -5     # of ELM steps 
   EDIFF  = 0.1E-07   stopping-criterion for ELM
   LREAL  =      F    real-space projection
   LCOMPAT=      F    compatible to vasp.4.4
   LREAL_COMPAT= F    compatible to vasp.4.5.1-3
   GGA_COMPAT  = T    GGA compatible to vasp.4.4-vasp.4.6
   LMAXPAW     = -100 max onsite density
   LMAXMIX     =    2 max onsite mixed and CHGCAR
   VOSKOWN=      0    Vosko Wilk Nusair interpolation
   ROPT   =    0.00000
 Ionic relaxation
   EDIFFG = 0.1E-06   stopping-criterion for IOM
   NSW    =      0    number of steps for IOM
   NBLOCK =      1;   KBLOCK =      1    inner block; outer block 
   IBRION =     -1    ionic relax: 0-MD 1-quasi-New 2-CG
   NFREE  =      0    steps in history (QN), initial steepest desc. (CG)
   ISIF   =      2    stress and relaxation
   IWAVPR =     10    prediction:  0-non 1-charg 2-wave 3-comb
   ISYM   =      2    0-nonsym 1-usesym 2-fastsym
   LCORR  =      T    Harris-Foulkes like correction to forces

   POTIM  =   0.50    time-step for ionic-motion
   TEIN   =    0.0    initial temperature
   TEBEG  =    0.0;   TEEND  =   0.0 temperature during run
   SMASS  =  -3.00    Nose mass-parameter (am)
   estimated Nose-frequenzy (Omega)   =  0.10E-29 period in steps =****** mass=  -0.314E-27a.u.
   NPACO  =    256;   APACO  = 16.0  distance and # of slots for P.C.
   PSTRESS=    0.0 pullay stress

  Mass of Ions in am
   POMASS =  63.55
  Ionic Valenz
   ZVAL   =  11.00
  Atomic Wigner-Seitz radii
   RWIGS  =  -1.00
   NELECT =      44.0000    total number of electrons
   NUPDOWN=      -1.0000    fix difference up-down

 DOS related values:
   EMIN   =  10.00;   EMAX   =-10.00  energy-range for DOS
   ISMEAR =     0;   SIGMA  =   0.01  broadening in eV -4-tet -1-fermi 0-gaus

 Electronic relaxation 2 (details)
   IALGO  =     38    algorithm
   LDIAG  =      T    sub-space diagonalisation
   IMIX   =      4    mixing-type and parameters
     AMIX     =   0.40;   BMIX     =  1.00
     AMIX_MAG =   1.60;   BMIX_MAG =  1.00
     AMIN     =   0.10
     WC   =   100.;   INIMIX=   1;  MIXPRE=   1

 Intra band minimization:
   WEIMIN = 0.0000     energy-eigenvalue tresh-hold
   EBREAK =  0.96E-10  absolut break condition
   DEPER  =   0.30     relativ break condition  

   TIME   =   0.10     timestep for ELM

  volume/ion in A,a.u.               =      12.76        86.09
  Fermi-wavevector in a.u.,eV,Ry     =   1.558184 33.034084  2.427937

 Second variation
   LSECVAR=     F    do a second variation
 
 Write flags
   LWAVE  =      F    write WAVECAR
   LCHARG =      F    write CHGCAR
   LVTOT  =      F    write LOCPOT, local potential
   LELF   =      F    write electronic localiz. function (ELF)
   LORBIT =      0    0 simple, 1 ext, 2 COOP (PROOUT)


 Dipole corrections
   IDIPOL =      0    1-x, 2-y, 3-z
   LDIPOL =      F    correct potential



--------------------------------------------------------------------------------------------------------


 Static calculation
 charge density will be updated during run
 non-spin polarized calculation
 Variant of blocked Davidson
 Davidson routine will perform the subspace rotation
 performe sub-space diagonalisation
    after iterative eigenvector-optimisation
 modified Broyden-mixing scheme, WC =      100.0
 initial mixing is a Kerker type mixing with AMIX =  0.4000 and BMIX =      1.0000
 Hartree-type preconditioning will be used
 using additional bands            4
 reciprocal scheme for non local part
 use partial core corrections
 calculate Harris-corrections to forces 
   (improved forces if not selfconsistent)
 use gradient corrections 
 use of overlap-Matrix (Vanderbilt PP)
 Gauss-broadening in eV      SIGMA  =   0.01


--------------------------------------------------------------------------------------------------------


  energy-cutoff  :      750.00
  volume of cell :       51.03
      direct lattice vectors                 reciprocal lattice vectors
     3.709144128  0.000000000  0.000000000     0.269603975  0.000000000  0.000000000
     0.000000000  3.709144128  0.000000000     0.000000000  0.269603975  0.000000000
     0.000000000  0.000000000  3.709144128     0.000000000  0.000000000  0.269603975

  length of vectors
     3.709144128  3.709144128  3.709144128     0.269603975  0.269603975  0.269603975


 
 k-points in units of 2pi/SCALE and weight: Automatic mesh                          
   0.00000000  0.00000000  0.00000000       0.001
   0.02291634  0.00000000  0.00000000       0.003
   0.04583268  0.00000000  0.00000000       0.003
   0.06874901  0.00000000  0.00000000       0.003
   0.09166535  0.00000000  0.00000000       0.003
   0.11458169  0.00000000  0.00000000       0.003
   0.13749803  0.00000000  0.00000000       0.002
   0.02291634  0.02291634  0.00000000       0.007
   0.04583268  0.02291634  0.00000000       0.014
   0.06874901  0.02291634  0.00000000       0.014
   0.09166535  0.02291634  0.00000000       0.014
   0.11458169  0.02291634  0.00000000       0.014
   0.13749803  0.02291634  0.00000000       0.007
   0.04583268  0.04583268  0.00000000       0.007
   0.06874901  0.04583268  0.00000000       0.014
   0.09166535  0.04583268  0.00000000       0.014
   0.11458169  0.04583268  0.00000000       0.014
   0.13749803  0.04583268  0.00000000       0.007
   0.06874901  0.06874901  0.00000000       0.007
   0.09166535  0.06874901  0.00000000       0.014
   0.11458169  0.06874901  0.00000000       0.014
   0.13749803  0.06874901  0.00000000       0.007
   0.09166535  0.09166535  0.00000000       0.007
   0.11458169  0.09166535  0.00000000       0.014
   0.13749803  0.09166535  0.00000000       0.007
   0.11458169  0.11458169  0.00000000       0.007
   0.13749803  0.11458169  0.00000000       0.007
   0.13749803  0.13749803  0.00000000       0.002
   0.02291634  0.02291634  0.02291634       0.005
   0.04583268  0.02291634  0.02291634       0.014
   0.06874901  0.02291634  0.02291634       0.014
   0.09166535  0.02291634  0.02291634       0.014
   0.11458169  0.02291634  0.02291634       0.014
   0.13749803  0.02291634  0.02291634       0.007
   0.04583268  0.04583268  0.02291634       0.014
   0.06874901  0.04583268  0.02291634       0.028
   0.09166535  0.04583268  0.02291634       0.028
   0.11458169  0.04583268  0.02291634       0.028
   0.13749803  0.04583268  0.02291634       0.014
   0.06874901  0.06874901  0.02291634       0.014
   0.09166535  0.06874901  0.02291634       0.028
   0.11458169  0.06874901  0.02291634       0.028
   0.13749803  0.06874901  0.02291634       0.014
   0.09166535  0.09166535  0.02291634       0.014
   0.11458169  0.09166535  0.02291634       0.028
   0.13749803  0.09166535  0.02291634       0.014
   0.11458169  0.11458169  0.02291634       0.014
   0.13749803  0.11458169  0.02291634       0.014
   0.13749803  0.13749803  0.02291634       0.003
   0.04583268  0.04583268  0.04583268       0.005
   0.06874901  0.04583268  0.04583268       0.014
   0.09166535  0.04583268  0.04583268       0.014
   0.11458169  0.04583268  0.04583268       0.014
   0.13749803  0.04583268  0.04583268       0.007
   0.06874901  0.06874901  0.04583268       0.014
   0.09166535  0.06874901  0.04583268       0.028
   0.11458169  0.06874901  0.04583268       0.028
   0.13749803  0.06874901  0.04583268       0.014
   0.09166535  0.09166535  0.04583268       0.014
   0.11458169  0.09166535  0.04583268       0.028
   0.13749803  0.09166535  0.04583268       0.014
   0.11458169  0.11458169  0.04583268       0.014
   0.13749803  0.11458169  0.04583268       0.014
   0.13749803  0.13749803  0.04583268       0.003
   0.06874901  0.06874901  0.06874901       0.005
   0.09166535  0.06874901  0.06874901       0.014
   0.11458169  0.06874901  0.06874901       0.014
   0.13749803  0.06874901  0.06874901       0.007
   0.09166535  0.09166535  0.06874901       0.014
   0.11458169  0.09166535  0.06874901       0.028
   0.13749803  0.09166535  0.06874901       0.014
   0.11458169  0.11458169  0.06874901       0.014
   0.13749803  0.11458169  0.06874901       0.014
   0.13749803  0.13749803  0.06874901       0.003
   0.09166535  0.09166535  0.09166535       0.005
   0.11458169  0.09166535  0.09166535       0.014
   0.13749803  0.09166535  0.09166535       0.007
   0.11458169  0.11458169  0.09166535       0.014
   0.13749803  0.11458169  0.09166535       0.014
   0.13749803  0.13749803  0.09166535       0.003
   0.11458169  0.11458169  0.11458169       0.005
   0.13749803  0.11458169  0.11458169       0.007
   0.13749803  0.13749803  0.11458169       0.003
   0.13749803  0.13749803  0.13749803       0.001
 
 k-points in reciprocal lattice and weights: Automatic mesh                          
   0.00000000  0.00000000  0.00000000       0.001
   0.08333333  0.00000000  0.00000000       0.003
   0.16666667  0.00000000  0.00000000       0.003
   0.25000000  0.00000000  0.00000000       0.003
   0.33333333  0.00000000  0.00000000       0.003
   0.41666667  0.00000000  0.00000000       0.003
   0.50000000  0.00000000  0.00000000       0.002
   0.08333333  0.08333333  0.00000000       0.007
   0.16666667  0.08333333  0.00000000       0.014
   0.25000000  0.08333333  0.00000000       0.014
   0.33333333  0.08333333  0.00000000       0.014
   0.41666667  0.08333333  0.00000000       0.014
   0.50000000  0.08333333  0.00000000       0.007
   0.16666667  0.16666667  0.00000000       0.007
   0.25000000  0.16666667  0.00000000       0.014
   0.33333333  0.16666667  0.00000000       0.014
   0.41666667  0.16666667  0.00000000       0.014
   0.50000000  0.16666667  0.00000000       0.007
   0.25000000  0.25000000  0.00000000       0.007
   0.33333333  0.25000000  0.00000000       0.014
   0.41666667  0.25000000  0.00000000       0.014
   0.50000000  0.25000000  0.00000000       0.007
   0.33333333  0.33333333  0.00000000       0.007
   0.41666667  0.33333333  0.00000000       0.014
   0.50000000  0.33333333  0.00000000       0.007
   0.41666667  0.41666667  0.00000000       0.007
   0.50000000  0.41666667  0.00000000       0.007
   0.50000000  0.50000000  0.00000000       0.002
   0.08333333  0.08333333  0.08333333       0.005
   0.16666667  0.08333333  0.08333333       0.014
   0.25000000  0.08333333  0.08333333       0.014
   0.33333333  0.08333333  0.08333333       0.014
   0.41666667  0.08333333  0.08333333       0.014
   0.50000000  0.08333333  0.08333333       0.007
   0.16666667  0.16666667  0.08333333       0.014
   0.25000000  0.16666667  0.08333333       0.028
   0.33333333  0.16666667  0.08333333       0.028
   0.41666667  0.16666667  0.08333333       0.028
   0.50000000  0.16666667  0.08333333       0.014
   0.25000000  0.25000000  0.08333333       0.014
   0.33333333  0.25000000  0.08333333       0.028
   0.41666667  0.25000000  0.08333333       0.028
   0.50000000  0.25000000  0.08333333       0.014
   0.33333333  0.33333333  0.08333333       0.014
   0.41666667  0.33333333  0.08333333       0.028
   0.50000000  0.33333333  0.08333333       0.014
   0.41666667  0.41666667  0.08333333       0.014
   0.50000000  0.41666667  0.08333333       0.014
   0.50000000  0.50000000  0.08333333       0.003
   0.16666667  0.16666667  0.16666667       0.005
   0.25000000  0.16666667  0.16666667       0.014
   0.33333333  0.16666667  0.16666667       0.014
   0.41666667  0.16666667  0.16666667       0.014
   0.50000000  0.16666667  0.16666667       0.007
   0.25000000  0.25000000  0.16666667       0.014
   0.33333333  0.25000000  0.16666667       0.028
   0.41666667  0.25000000  0.16666667       0.028
   0.50000000  0.25000000  0.16666667       0.014
   0.33333333  0.33333333  0.16666667       0.014
   0.41666667  0.33333333  0.16666667       0.028
   0.50000000  0.33333333  0.16666667       0.014
   0.41666667  0.41666667  0.16666667       0.014
   0.50000000  0.41666667  0.16666667       0.014
   0.50000000  0.50000000  0.16666667       0.003
   0.25000000  0.25000000  0.25000000       0.005
   0.33333333  0.25000000  0.25000000       0.014
   0.41666667  0.25000000  0.25000000       0.014
   0.50000000  0.25000000  0.25000000       0.007
   0.33333333  0.33333333  0.25000000       0.014
   0.41666667  0.33333333  0.25000000       0.028
   0.50000000  0.33333333  0.25000000       0.014
   0.41666667  0.41666667  0.25000000       0.014
   0.50000000  0.41666667  0.25000000       0.014
   0.50000000  0.50000000  0.25000000       0.003
   0.33333333  0.33333333  0.33333333       0.005
   0.41666667  0.33333333  0.33333333       0.014
   0.50000000  0.33333333  0.33333333       0.007
   0.41666667  0.41666667  0.33333333       0.014
   0.50000000  0.41666667  0.33333333       0.014
   0.50000000  0.50000000  0.33333333       0.003
   0.41666667  0.41666667  0.41666667       0.005
   0.50000000  0.41666667  0.41666667       0.007
   0.50000000  0.50000000  0.41666667       0.003
   0.50000000  0.50000000  0.50000000       0.001
 
 position of ions in fractional coordinates (direct lattice) 
   0.00000000  0.00000000  0.00000000
   0.50000000  0.50000000  0.00000000
   0.50000000  0.00000000  0.50000000
   0.00000000  0.50000000  0.50000000
 
 position of ions in cartesian coordinates  (Angst):
   0.00000000  0.00000000  0.00000000
   1.85457206  1.85457206  0.00000000
   1.85457206  0.00000000  1.85457206
   0.00000000  1.85457206  1.85457206
 


--------------------------------------------------------------------------------------------------------


 k-point  1 :  0.00000.00000.0000  plane waves:   2373
 k-point  2 :  0.08330.00000.0000  plane waves:   2381
 k-point  3 :  0.16670.00000.0000  plane waves:   2401
 k-point  4 :  0.25000.00000.0000  plane waves:   2409
 k-point  5 :  0.33330.00000.0000  plane waves:   2376
 k-point  6 :  0.41670.00000.0000  plane waves:   2396
 k-point  7 :  0.50000.00000.0000  plane waves:   2392
 k-point  8 :  0.08330.08330.0000  plane waves:   2403
 k-point  9 :  0.16670.08330.0000  plane waves:   2399
 k-point 10 :  0.25000.08330.0000  plane waves:   2383
 k-point 11 :  0.33330.08330.0000  plane waves:   2371
 k-point 12 :  0.41670.08330.0000  plane waves:   2385
 k-point 13 :  0.50000.08330.0000  plane waves:   2386
 k-point 14 :  0.16670.16670.0000  plane waves:   2378
 k-point 15 :  0.25000.16670.0000  plane waves:   2375
 k-point 16 :  0.33330.16670.0000  plane waves:   2383
 k-point 17 :  0.41670.16670.0000  plane waves:   2380
 k-point 18 :  0.50000.16670.0000  plane waves:   2368
 k-point 19 :  0.25000.25000.0000  plane waves:   2352
 k-point 20 :  0.33330.25000.0000  plane waves:   2376
 k-point 21 :  0.41670.25000.0000  plane waves:   2377
 k-point 22 :  0.50000.25000.0000  plane waves:   2366
 k-point 23 :  0.33330.33330.0000  plane waves:   2390
 k-point 24 :  0.41670.33330.0000  plane waves:   2370
 k-point 25 :  0.50000.33330.0000  plane waves:   2380
 k-point 26 :  0.41670.41670.0000  plane waves:   2384
 k-point 27 :  0.50000.41670.0000  plane waves:   2392
 k-point 28 :  0.50000.50000.0000  plane waves:   2408
 k-point 29 :  0.08330.08330.0833  plane waves:   2397
 k-point 30 :  0.16670.08330.0833  plane waves:   2388
 k-point 31 :  0.25000.08330.0833  plane waves:   2385
 k-point 32 :  0.33330.08330.0833  plane waves:   2377
 k-point 33 :  0.41670.08330.0833  plane waves:   2379
 k-point 34 :  0.50000.08330.0833  plane waves:   2382
 k-point 35 :  0.16670.16670.0833  plane waves:   2387
 k-point 36 :  0.25000.16670.0833  plane waves:   2374
 k-point 37 :  0.33330.16670.0833  plane waves:   2379
 k-point 38 :  0.41670.16670.0833  plane waves:   2383
 k-point 39 :  0.50000.16670.0833  plane waves:   2380
 k-point 40 :  0.25000.25000.0833  plane waves:   2374
 k-point 41 :  0.33330.25000.0833  plane waves:   2378
 k-point 42 :  0.41670.25000.0833  plane waves:   2385
 k-point 43 :  0.50000.25000.0833  plane waves:   2382
 k-point 44 :  0.33330.33330.0833  plane waves:   2379
 k-point 45 :  0.41670.33330.0833  plane waves:   2374
 k-point 46 :  0.50000.33330.0833  plane waves:   2386
 k-point 47 :  0.41670.41670.0833  plane waves:   2380
 k-point 48 :  0.50000.41670.0833  plane waves:   2390
 k-point 49 :  0.50000.50000.0833  plane waves:   2388
 k-point 50 :  0.16670.16670.1667  plane waves:   2364
 k-point 51 :  0.25000.16670.1667  plane waves:   2367
 k-point 52 :  0.33330.16670.1667  plane waves:   2386
 k-point 53 :  0.41670.16670.1667  plane waves:   2392
 k-point 54 :  0.50000.16670.1667  plane waves:   2388
 k-point 55 :  0.25000.25000.1667  plane waves:   2378
 k-point 56 :  0.33330.25000.1667  plane waves:   2385
 k-point 57 :  0.41670.25000.1667  plane waves:   2385
 k-point 58 :  0.50000.25000.1667  plane waves:   2380
 k-point 59 :  0.33330.33330.1667  plane waves:   2386
 k-point 60 :  0.41670.33330.1667  plane waves:   2375
 k-point 61 :  0.50000.33330.1667  plane waves:   2370
 k-point 62 :  0.41670.41670.1667  plane waves:   2376
 k-point 63 :  0.50000.41670.1667  plane waves:   2374
 k-point 64 :  0.50000.50000.1667  plane waves:   2384
 k-point 65 :  0.25000.25000.2500  plane waves:   2383
 k-point 66 :  0.33330.25000.2500  plane waves:   2383
 k-point 67 :  0.41670.25000.2500  plane waves:   2377
 k-point 68 :  0.50000.25000.2500  plane waves:   2386
 k-point 69 :  0.33330.33330.2500  plane waves:   2380
 k-point 70 :  0.41670.33330.2500  plane waves:   2385
 k-point 71 :  0.50000.33330.2500  plane waves:   2382
 k-point 72 :  0.41670.41670.2500  plane waves:   2387
 k-point 73 :  0.50000.41670.2500  plane waves:   2370
 k-point 74 :  0.50000.50000.2500  plane waves:   2392
 k-point 75 :  0.33330.33330.3333  plane waves:   2365
 k-point 76 :  0.41670.33330.3333  plane waves:   2383
 k-point 77 :  0.50000.33330.3333  plane waves:   2380
 k-point 78 :  0.41670.41670.3333  plane waves:   2373
 k-point 79 :  0.50000.41670.3333  plane waves:   2382
 k-point 80 :  0.50000.50000.3333  plane waves:   2368
 k-point 81 :  0.41670.41670.4167  plane waves:   2371
 k-point 82 :  0.50000.41670.4167  plane waves:   2378
 k-point 83 :  0.50000.50000.4167  plane waves:   2372
 k-point 84 :  0.50000.50000.5000  plane waves:   2320

 maximum and minimum number of plane-waves per node :   2409  2320

 maximum number of plane-waves:   2409
 maximal index in each direction: 
   IXMAX=  8   IYMAX=  8   IZMAX=  8
   IXMIN= -8   IYMIN= -8   IZMIN= -8

 NGX is ok and might be reduce to  34
 NGY is ok and might be reduce to  34
 NGZ is ok and might be reduce to  34

 parallel 3dFFT wavefunction:
    minimum data exchange during FFTs selected (reduces bandwidth)
 parallel 3dFFT charge:
    minimum data exchange during FFTs selected (reduces bandwidth)

 For storing wavefunctions   83.19 MBYTES are necessary
 For predicting wavefunctions    3.76 MBYTES are necessary
Broyden mixing: mesh for mixing (old mesh)
   NGX = 17   NGY = 17   NGZ = 17
  (NGX  = 72   NGY  = 72   NGZ  = 72)
 gives a total of   4913 points
 initial charge density was supplied:
 charge density of overlapping atoms calculated
 number of electron   44.0000000 magnetization 
 keeping initial charge density in first step


--------------------------------------------------------------------------------------------------------


 Maximum index for augmentation-charges       124439 (set IRDMAX)


--------------------------------------------------------------------------------------------------------


 First call to EWALD:  gamma=   0.478
 Maximum number of real-space cells 3x 3x 3
 Maximum number of reciprocal cells 3x 3x 3

    FEWALD:  VPU time    0.00: CPU time    0.04


----------------------------------------- Iteration    1(   1)  ---------------------------------------


    POTLOK:  VPU time    0.38: CPU time    3.02
    SETDIJ:  VPU time    0.20: CPU time    1.64
    EDDAV :  VPU time   31.89: CPU time  314.87
    DOS   :  VPU time    0.00: CPU time   -0.00
    ------------------------------------------
      LOOP:  VPU time   32.52: CPU time  319.97

 eigenvalue-minimisations  :  4400
 total energy-change (2. order) : 0.3167112E+03  (-0.2719373E+04)
 number of electron   44.0000000 magnetization 
 augmentation part    44.0000000 magnetization 

 Free energy of the ion-electron system (eV)
  ---------------------------------------------------
  alpha Z        PSCENC =       400.59199486
  Ewald energy   TEWEN  =     -4307.48734156
  -1/2 Hartree   DENC   =     -1364.56925193
  -V(xc)+E(xc)   XCENC  =       174.77611994
  PAW double counting   =      4328.20916945    -4904.30802700
  entropy T*S    EENTRO =        -0.00007319
  eigenvalues    EBANDS =       425.58107120
  atomic energy  EATOM  =      5563.91755062
  ---------------------------------------------------
  free energy    TOTEN  =       316.71121239 eV

  energy without entropy =      316.71128558  energy(sigma->0) =      316.71124898


--------------------------------------------------------------------------------------------------------




----------------------------------------- Iteration    1(   2)  ---------------------------------------


    EDDAV :  VPU time   33.69: CPU time  336.84
    DOS   :  VPU time    0.00: CPU time   -0.00
    ------------------------------------------
      LOOP:  VPU time   33.70: CPU time  336.98

 eigenvalue-minimisations  :  4368
 total energy-change (2. order) :-0.3156716E+03  (-0.3094353E+03)
 number of electron   44.0000000 magnetization 
 augmentation part    44.0000000 magnetization 

 Free energy of the ion-electron system (eV)
  ---------------------------------------------------
  alpha Z        PSCENC =       400.59199486
  Ewald energy   TEWEN  =     -4307.48734156
  -1/2 Hartree   DENC   =     -1364.56925193
  -V(xc)+E(xc)   XCENC  =       174.77611994
  PAW double counting   =      4328.20916945    -4904.30802700
  entropy T*S    EENTRO =        -0.00025765
  eigenvalues    EBANDS =       109.90968176
  atomic energy  EATOM  =      5563.91755062
  ---------------------------------------------------
  free energy    TOTEN  =         1.03963849 eV

  energy without entropy =        1.03989614  energy(sigma->0) =        1.03976732


--------------------------------------------------------------------------------------------------------




----------------------------------------- Iteration    1(   3)  ---------------------------------------


    EDDAV :  VPU time   31.87: CPU time  318.65
    DOS   :  VPU time    0.00: CPU time   -0.00
    ------------------------------------------
      LOOP:  VPU time   31.99: CPU time  319.88

 eigenvalue-minimisations  :  4516
 total energy-change (2. order) :-0.1896678E+02  (-0.1837306E+02)
 number of electron   44.0000000 magnetization 
 augmentation part    44.0000000 magnetization 

 Free energy of the ion-electron system (eV)
  ---------------------------------------------------
  alpha Z        PSCENC =       400.59199486
  Ewald energy   TEWEN  =     -4307.48734156
  -1/2 Hartree   DENC   =     -1364.56925193
  -V(xc)+E(xc)   XCENC  =       174.77611994
  PAW double counting   =      4328.20916945    -4904.30802700
  entropy T*S    EENTRO =        -0.00009733
  eigenvalues    EBANDS =        90.94274519
  atomic energy  EATOM  =      5563.91755062
  ---------------------------------------------------
  free energy    TOTEN  =       -17.92713776 eV

  energy without entropy =      -17.92704043  energy(sigma->0) =      -17.92708909


--------------------------------------------------------------------------------------------------------




----------------------------------------- Iteration    1(   4)  ---------------------------------------


    EDDAV :  VPU time   32.46: CPU time  324.54
    DOS   :  VPU time    0.00: CPU time   -0.00
    ------------------------------------------
      LOOP:  VPU time   32.48: CPU time  324.68

 eigenvalue-minimisations  :  4618
 total energy-change (2. order) :-0.2455195E+00  (-0.2450500E+00)
 number of electron   44.0000000 magnetization 
 augmentation part    44.0000000 magnetization 

 Free energy of the ion-electron system (eV)
  ---------------------------------------------------
  alpha Z        PSCENC =       400.59199486
  Ewald energy   TEWEN  =     -4307.48734156
  -1/2 Hartree   DENC   =     -1364.56925193
  -V(xc)+E(xc)   XCENC  =       174.77611994
  PAW double counting   =      4328.20916945    -4904.30802700
  entropy T*S    EENTRO =        -0.00010989
  eigenvalues    EBANDS =        90.69723825
  atomic energy  EATOM  =      5563.91755062
  ---------------------------------------------------
  free energy    TOTEN  =       -18.17265726 eV

  energy without entropy =      -18.17254737  energy(sigma->0) =      -18.17260231


--------------------------------------------------------------------------------------------------------




----------------------------------------- Iteration    1(   5)  ---------------------------------------


    EDDAV :  VPU time   33.86: CPU time  338.64
    DOS   :  VPU time    0.00: CPU time   -0.00
    CHARGE:  VPU time    0.78: CPU time    7.73
    MIXING:  VPU time    0.03: CPU time    0.35
    ------------------------------------------
      LOOP:  VPU time   34.77: CPU time  347.81

 eigenvalue-minimisations  :  4506
 total energy-change (2. order) :-0.9936977E-03  (-0.9936322E-03)
 number of electron   44.0000002 magnetization 
 augmentation part    26.8162432 magnetization 

 Broyden mixing:
  rms(total) = 0.13754E+01    rms(broyden)= 0.13754E+01
  rms(prec ) = 0.32714E+01
  weight for this iteration     100.00

 Free energy of the ion-electron system (eV)
  ---------------------------------------------------
  alpha Z        PSCENC =       400.59199486
  Ewald energy   TEWEN  =     -4307.48734156
  -1/2 Hartree   DENC   =     -1364.56925193
  -V(xc)+E(xc)   XCENC  =       174.77611994
  PAW double counting   =      4328.20916945    -4904.30802700
  entropy T*S    EENTRO =        -0.00010990
  eigenvalues    EBANDS =        90.69624457
  atomic energy  EATOM  =      5563.91755062
  ---------------------------------------------------
  free energy    TOTEN  =       -18.17365095 eV

  energy without entropy =      -18.17354105  energy(sigma->0) =      -18.17359600


--------------------------------------------------------------------------------------------------------




----------------------------------------- Iteration    1(   6)  ---------------------------------------


    POTLOK:  VPU time    0.31: CPU time    3.01
    SETDIJ:  VPU time    0.36: CPU time    3.65
    EDDAV :  VPU time   34.71: CPU time  347.12
    DOS   :  VPU time    0.00: CPU time   -0.00
    CHARGE:  VPU time    0.73: CPU time    7.31
    MIXING:  VPU time    0.03: CPU time    0.37
    ------------------------------------------
      LOOP:  VPU time   36.16: CPU time  361.62

 eigenvalue-minimisations  :  4480
 total energy-change (2. order) : 0.1895536E+01  (-0.3901461E+01)
 number of electron   44.0000002 magnetization 
 augmentation part    29.9759523 magnetization 

 Broyden mixing:
  rms(total) = 0.69164E+00    rms(broyden)= 0.69164E+00
  rms(prec ) = 0.14986E+01
  weight for this iteration     100.00

 eigenvalues of (default mixing * dielectric matrix)
  average eigenvalue GAMMA=   0.6666
  0.6666

 Free energy of the ion-electron system (eV)
  ---------------------------------------------------
  alpha Z        PSCENC =       400.59199486
  Ewald energy   TEWEN  =     -4307.48734156
  -1/2 Hartree   DENC   =     -1263.69165255
  -V(xc)+E(xc)   XCENC  =       169.70594621
  PAW double counting   =      4212.05746948    -4755.05784335
  entropy T*S    EENTRO =        -0.00005872
  eigenvalues    EBANDS =       -36.31417946
  atomic energy  EATOM  =      5563.91755062
  ---------------------------------------------------
  free energy    TOTEN  =       -16.27811447 eV

  energy without entropy =      -16.27805575  energy(sigma->0) =      -16.27808511


--------------------------------------------------------------------------------------------------------




----------------------------------------- Iteration    1(   7)  ---------------------------------------


    POTLOK:  VPU time    0.40: CPU time    3.93
    SETDIJ:  VPU time    0.50: CPU time    5.02
    EDDAV :  VPU time   34.43: CPU time  344.23
    DOS   :  VPU time    0.00: CPU time   -0.00
    CHARGE:  VPU time    0.81: CPU time    8.04
    MIXING:  VPU time    0.02: CPU time    0.22
    ------------------------------------------
      LOOP:  VPU time   36.16: CPU time  361.56

 eigenvalue-minimisations  :  4696
 total energy-change (2. order) : 0.1430285E+01  (-0.7019127E+00)
 number of electron   44.0000002 magnetization 
 augmentation part    28.7895443 magnetization 

 Broyden mixing:
  rms(total) = 0.95632E-01    rms(broyden)= 0.95630E-01
  rms(prec ) = 0.23980E+00
  weight for this iteration     100.00

 eigenvalues of (default mixing * dielectric matrix)
  average eigenvalue GAMMA=   1.2839
  1.9257  0.6421

 Free energy of the ion-electron system (eV)
  ---------------------------------------------------
  alpha Z        PSCENC =       400.59199486
  Ewald energy   TEWEN  =     -4307.48734156
  -1/2 Hartree   DENC   =     -1294.05604047
  -V(xc)+E(xc)   XCENC  =       171.29776311
  PAW double counting   =      4294.81700655    -4862.03550419
  entropy T*S    EENTRO =        -0.00013907
  eigenvalues    EBANDS =        18.10688069
  atomic energy  EATOM  =      5563.91755062
  ---------------------------------------------------
  free energy    TOTEN  =       -14.84782947 eV

  energy without entropy =      -14.84769039  energy(sigma->0) =      -14.84775993


--------------------------------------------------------------------------------------------------------




----------------------------------------- Iteration    1(   8)  ---------------------------------------


    POTLOK:  VPU time    0.25: CPU time    2.50
    SETDIJ:  VPU time    0.24: CPU time    2.41
    EDDAV :  VPU time   33.84: CPU time  338.35
    DOS   :  VPU time    0.00: CPU time   -0.00
    CHARGE:  VPU time    0.70: CPU time    6.98
    MIXING:  VPU time    0.03: CPU time    0.28
    ------------------------------------------
      LOOP:  VPU time   35.07: CPU time  350.68

 eigenvalue-minimisations  :  4492
 total energy-change (2. order) : 0.2237047E-01  (-0.9597298E-02)
 number of electron   44.0000002 magnetization 
 augmentation part    28.7203709 magnetization 

 Broyden mixing:
  rms(total) = 0.79971E-01    rms(broyden)= 0.79971E-01
  rms(prec ) = 0.19309E+00
  weight for this iteration     100.00

 eigenvalues of (default mixing * dielectric matrix)
  average eigenvalue GAMMA=   1.4148
  0.6728  0.9860  2.5858

 Free energy of the ion-electron system (eV)
  ---------------------------------------------------
  alpha Z        PSCENC =       400.59199486
  Ewald energy   TEWEN  =     -4307.48734156
  -1/2 Hartree   DENC   =     -1285.07908781
  -V(xc)+E(xc)   XCENC  =       170.90420378
  PAW double counting   =      4340.86507529    -4917.63306612
  entropy T*S    EENTRO =        -0.00013907
  eigenvalues    EBANDS =        19.09535102
  atomic energy  EATOM  =      5563.91755062
  ---------------------------------------------------
  free energy    TOTEN  =       -14.82545899 eV

  energy without entropy =      -14.82531992  energy(sigma->0) =      -14.82538946


--------------------------------------------------------------------------------------------------------




----------------------------------------- Iteration    1(   9)  ---------------------------------------


    POTLOK:  VPU time    0.41: CPU time    4.04
    SETDIJ:  VPU time    0.40: CPU time    4.03
    EDDAV :  VPU time   33.19: CPU time  315.67
    DOS   :  VPU time    0.00: CPU time   -0.00
    CHARGE:  VPU time    0.77: CPU time    6.93
    MIXING:  VPU time    0.01: CPU time    0.13
    ------------------------------------------
      LOOP:  VPU time   34.88: CPU time  331.73

 eigenvalue-minimisations  :  4576
 total energy-change (2. order) : 0.1254163E-01  (-0.4498167E-02)
 number of electron   44.0000002 magnetization 
 augmentation part    28.8317295 magnetization 

 Broyden mixing:
  rms(total) = 0.42408E-02    rms(broyden)= 0.42406E-02
  rms(prec ) = 0.93993E-02
  weight for this iteration     100.00

 eigenvalues of (default mixing * dielectric matrix)
  average eigenvalue GAMMA=   1.5773
  2.7348  0.6796  0.8951  1.9996

 Free energy of the ion-electron system (eV)
  ---------------------------------------------------
  alpha Z        PSCENC =       400.59199486
  Ewald energy   TEWEN  =     -4307.48734156
  -1/2 Hartree   DENC   =     -1278.61710185
  -V(xc)+E(xc)   XCENC  =       170.59523308
  PAW double counting   =      4349.64528278    -4927.53703024
  entropy T*S    EENTRO =        -0.00013907
  eigenvalues    EBANDS =        14.07863403
  atomic energy  EATOM  =      5563.91755062
  ---------------------------------------------------
  free energy    TOTEN  =       -14.81291736 eV

  energy without entropy =      -14.81277829  energy(sigma->0) =      -14.81284782


--------------------------------------------------------------------------------------------------------




----------------------------------------- Iteration    1(  10)  ---------------------------------------


    POTLOK:  VPU time    0.34: CPU time    2.99
    SETDIJ:  VPU time    0.26: CPU time    2.31
    EDDAV :  VPU time   30.99: CPU time  278.88
    DOS   :  VPU time    0.00: CPU time   -0.00
    CHARGE:  VPU time    0.60: CPU time    5.34
    MIXING:  VPU time    0.05: CPU time    0.49
    ------------------------------------------
      LOOP:  VPU time   32.24: CPU time  290.14

 eigenvalue-minimisations  :  4438
 total energy-change (2. order) :-0.8953135E-04  (-0.1043676E-03)
 number of electron   44.0000002 magnetization 
 augmentation part    28.8282313 magnetization 

 Broyden mixing:
  rms(total) = 0.11984E-02    rms(broyden)= 0.11984E-02
  rms(prec ) = 0.22854E-02
  weight for this iteration     100.00

 eigenvalues of (default mixing * dielectric matrix)
  average eigenvalue GAMMA=   1.5654
  2.5951  2.5951  0.6770  0.9800  0.9800

 Free energy of the ion-electron system (eV)
  ---------------------------------------------------
  alpha Z        PSCENC =       400.59199486
  Ewald energy   TEWEN  =     -4307.48734156
  -1/2 Hartree   DENC   =     -1278.89427705
  -V(xc)+E(xc)   XCENC  =       170.60882257
  PAW double counting   =      4350.45556965    -4928.27929067
  entropy T*S    EENTRO =        -0.00013907
  eigenvalues    EBANDS =        14.27410376
  atomic energy  EATOM  =      5563.91755062
  ---------------------------------------------------
  free energy    TOTEN  =       -14.81300689 eV

  energy without entropy =      -14.81286782  energy(sigma->0) =      -14.81293736


--------------------------------------------------------------------------------------------------------




----------------------------------------- Iteration    1(  11)  ---------------------------------------


    POTLOK:  VPU time    0.33: CPU time    2.92
    SETDIJ:  VPU time    0.43: CPU time    3.86
    EDDAV :  VPU time   33.02: CPU time  291.44
    DOS   :  VPU time    0.00: CPU time   -0.00
    CHARGE:  VPU time    0.72: CPU time    5.79
    MIXING:  VPU time    0.05: CPU time    0.41
    ------------------------------------------
      LOOP:  VPU time   34.57: CPU time  304.64

 eigenvalue-minimisations  :  4642
 total energy-change (2. order) : 0.5924283E-05  (-0.1392390E-05)
 number of electron   44.0000002 magnetization 
 augmentation part    28.8270665 magnetization 

 Broyden mixing:
  rms(total) = 0.53667E-03    rms(broyden)= 0.53667E-03
  rms(prec ) = 0.12909E-02
  weight for this iteration     100.00

 eigenvalues of (default mixing * dielectric matrix)
  average eigenvalue GAMMA=   1.5035
  2.6375  2.4384  0.6772  0.9330  1.1675  1.1675

 Free energy of the ion-electron system (eV)
  ---------------------------------------------------
  alpha Z        PSCENC =       400.59199486
  Ewald energy   TEWEN  =     -4307.48734156
  -1/2 Hartree   DENC   =     -1279.05243592
  -V(xc)+E(xc)   XCENC  =       170.61618170
  PAW double counting   =      4351.27058257    -4928.99226069
  entropy T*S    EENTRO =        -0.00013907
  eigenvalues    EBANDS =        14.32286653
  atomic energy  EATOM  =      5563.91755062
  ---------------------------------------------------
  free energy    TOTEN  =       -14.81300097 eV

  energy without entropy =      -14.81286189  energy(sigma->0) =      -14.81293143


--------------------------------------------------------------------------------------------------------




----------------------------------------- Iteration    1(  12)  ---------------------------------------


    POTLOK:  VPU time    0.57: CPU time    4.53
    SETDIJ:  VPU time    0.24: CPU time    1.91
    EDDAV :  VPU time   27.44: CPU time  204.66
    DOS   :  VPU time    0.00: CPU time   -0.00
    CHARGE:  VPU time    0.73: CPU time    5.13
    MIXING:  VPU time    0.03: CPU time    0.25
    ------------------------------------------
      LOOP:  VPU time   29.13: CPU time  217.28

 eigenvalue-minimisations  :  4530
 total energy-change (2. order) :-0.4998225E-05  (-0.1306895E-06)
 number of electron   44.0000002 magnetization 
 augmentation part    28.8276106 magnetization 

 Broyden mixing:
  rms(total) = 0.59282E-04    rms(broyden)= 0.59280E-04
  rms(prec ) = 0.14556E-03
  weight for this iteration     100.00

 eigenvalues of (default mixing * dielectric matrix)
  average eigenvalue GAMMA=   1.6352
  2.6333  2.6333  2.5647  0.6771  0.9537  0.9920  0.9920

 Free energy of the ion-electron system (eV)
  ---------------------------------------------------
  alpha Z        PSCENC =       400.59199486
  Ewald energy   TEWEN  =     -4307.48734156
  -1/2 Hartree   DENC   =     -1278.98629802
  -V(xc)+E(xc)   XCENC  =       170.61307838
  PAW double counting   =      4351.42982797    -4929.18815897
  entropy T*S    EENTRO =        -0.00013907
  eigenvalues    EBANDS =        14.29647983
  atomic energy  EATOM  =      5563.91755062
  ---------------------------------------------------
  free energy    TOTEN  =       -14.81300597 eV

  energy without entropy =      -14.81286689  energy(sigma->0) =      -14.81293643


--------------------------------------------------------------------------------------------------------




----------------------------------------- Iteration    1(  13)  ---------------------------------------


    POTLOK:  VPU time    0.27: CPU time    1.83
    SETDIJ:  VPU time    0.13: CPU time    0.89
    EDDAV :  VPU time   15.77: CPU time   79.44
    DOS   :  VPU time    0.00: CPU time   -0.00
    CHARGE:  VPU time    0.68: CPU time    2.72
    MIXING:  VPU time    0.00: CPU time    0.00
    ------------------------------------------
      LOOP:  VPU time   16.86: CPU time   84.93

 eigenvalue-minimisations  :  4252
 total energy-change (2. order) :-0.7282442E-06  (-0.3983656E-08)
 number of electron   44.0000002 magnetization 
 augmentation part    28.8275200 magnetization 

 Broyden mixing:
  rms(total) = 0.18229E-04    rms(broyden)= 0.18228E-04
  rms(prec ) = 0.34442E-04
  weight for this iteration     100.00

 eigenvalues of (default mixing * dielectric matrix)
  average eigenvalue GAMMA=   1.5990
  2.8595  2.6114  2.5389  0.6771  1.1867  1.0465  0.9359  0.9359

 Free energy of the ion-electron system (eV)
  ---------------------------------------------------
  alpha Z        PSCENC =       400.59199486
  Ewald energy   TEWEN  =     -4307.48734156
  -1/2 Hartree   DENC   =     -1278.99122560
  -V(xc)+E(xc)   XCENC  =       170.61326981
  PAW double counting   =      4351.45990952    -4929.21862199
  entropy T*S    EENTRO =        -0.00013907
  eigenvalues    EBANDS =        14.30159672
  atomic energy  EATOM  =      5563.91755062
  ---------------------------------------------------
  free energy    TOTEN  =       -14.81300669 eV

  energy without entropy =      -14.81286762  energy(sigma->0) =      -14.81293716


--------------------------------------------------------------------------------------------------------




----------------------------------------- Iteration    1(  14)  ---------------------------------------


    POTLOK:  VPU time    0.58: CPU time    2.33
    SETDIJ:  VPU time    0.66: CPU time    2.66
    EDDAV :  VPU time    9.38: CPU time   37.52
    DOS   :  VPU time    0.00: CPU time   -0.00
    CHARGE:  VPU time    0.59: CPU time    2.35
    MIXING:  VPU time    0.01: CPU time    0.04
    ------------------------------------------
      LOOP:  VPU time   11.23: CPU time   44.92

 eigenvalue-minimisations  :  2266
 total energy-change (2. order) :-0.7173458E-07  (-0.4362424E-09)
 number of electron   44.0000002 magnetization 
 augmentation part    28.8275423 magnetization 

 Broyden mixing:
  rms(total) = 0.39638E-05    rms(broyden)= 0.39637E-05
  rms(prec ) = 0.92983E-05
  weight for this iteration     100.00

 eigenvalues of (default mixing * dielectric matrix)
  average eigenvalue GAMMA=   1.6594
  2.8290  2.5714  2.5714  2.3645  0.6771  1.0088  1.0088  0.9519  0.9519

 Free energy of the ion-electron system (eV)
  ---------------------------------------------------
  alpha Z        PSCENC =       400.59199486
  Ewald energy   TEWEN  =     -4307.48734156
  -1/2 Hartree   DENC   =     -1278.99179508
  -V(xc)+E(xc)   XCENC  =       170.61328093
  PAW double counting   =      4351.46475188    -4929.22224894
  entropy T*S    EENTRO =        -0.00013907
  eigenvalues    EBANDS =        14.30093960
  atomic energy  EATOM  =      5563.91755062
  ---------------------------------------------------
  free energy    TOTEN  =       -14.81300677 eV

  energy without entropy =      -14.81286769  energy(sigma->0) =      -14.81293723


--------------------------------------------------------------------------------------------------------




----------------------------------------- Iteration    1(  15)  ---------------------------------------


    POTLOK:  VPU time    0.24: CPU time    0.93
    SETDIJ:  VPU time    0.13: CPU time    0.52
    EDDAV :  VPU time   11.27: CPU time   45.07
    DOS   :  VPU time    0.00: CPU time   -0.00
    CHARGE:  VPU time    0.91: CPU time    3.64
    MIXING:  VPU time    0.00: CPU time    0.00
    ------------------------------------------
      LOOP:  VPU time   12.55: CPU time   50.21

 eigenvalue-minimisations  :  2224
 total energy-change (2. order) : 0.1879653E-07  (-0.2809245E-10)
 number of electron   44.0000002 magnetization 
 augmentation part    28.8275431 magnetization 

 Broyden mixing:
  rms(total) = 0.24659E-05    rms(broyden)= 0.24659E-05
  rms(prec ) = 0.58761E-05
  weight for this iteration     100.00

 eigenvalues of (default mixing * dielectric matrix)
  average eigenvalue GAMMA=   1.5830
  2.8822  2.6389  2.5370  2.5370  0.6771  1.0230  1.0230  0.9442  0.9442  0.6231

 Free energy of the ion-electron system (eV)
  ---------------------------------------------------
  alpha Z        PSCENC =       400.59199486
  Ewald energy   TEWEN  =     -4307.48734156
  -1/2 Hartree   DENC   =     -1278.99165350
  -V(xc)+E(xc)   XCENC  =       170.61327446
  PAW double counting   =      4351.46317646    -4929.22074392
  entropy T*S    EENTRO =        -0.00013907
  eigenvalues    EBANDS =        14.30087491
  atomic energy  EATOM  =      5563.91755062
  ---------------------------------------------------
  free energy    TOTEN  =       -14.81300675 eV

  energy without entropy =      -14.81286767  energy(sigma->0) =      -14.81293721


--------------------------------------------------------------------------------------------------------




----------------------------------------- Iteration    1(  16)  ---------------------------------------


    POTLOK:  VPU time    0.32: CPU time    1.27
    SETDIJ:  VPU time    0.14: CPU time    0.58
    EDDAV :  VPU time   15.70: CPU time   54.86
    DOS   :  VPU time   -0.00: CPU time   -0.00
    CHARGE:  VPU time    0.57: CPU time    1.72
    MIXING:  VPU time    0.00: CPU time    0.02
    ------------------------------------------
      LOOP:  VPU time   16.76: CPU time   58.50

 eigenvalue-minimisations  :  2214
 total energy-change (2. order) : 0.1182434E-07  (-0.7279856E-11)
 number of electron   44.0000002 magnetization 
 augmentation part    28.8275472 magnetization 

 Broyden mixing:
  rms(total) = 0.10078E-05    rms(broyden)= 0.10078E-05
  rms(prec ) = 0.18892E-05
  weight for this iteration     100.00

 eigenvalues of (default mixing * dielectric matrix)
  average eigenvalue GAMMA=   1.5653
  2.8030  2.5328  2.5328  2.4773  0.6771  1.1778  1.1778  1.0225  0.9461  0.9461
  0.9253

 Free energy of the ion-electron system (eV)
  ---------------------------------------------------
  alpha Z        PSCENC =       400.59199486
  Ewald energy   TEWEN  =     -4307.48734156
  -1/2 Hartree   DENC   =     -1278.99143823
  -V(xc)+E(xc)   XCENC  =       170.61326394
  PAW double counting   =      4351.46202175    -4929.21961583
  entropy T*S    EENTRO =        -0.00013907
  eigenvalues    EBANDS =        14.30069678
  atomic energy  EATOM  =      5563.91755062
  ---------------------------------------------------
  free energy    TOTEN  =       -14.81300674 eV

  energy without entropy =      -14.81286766  energy(sigma->0) =      -14.81293720


--------------------------------------------------------------------------------------------------------




----------------------------------------- Iteration    1(  17)  ---------------------------------------


    POTLOK:  VPU time    0.11: CPU time    0.32
    SETDIJ:  VPU time    0.13: CPU time    0.41
    EDDAV :  VPU time    8.47: CPU time   24.39
    DOS   :  VPU time    0.00: CPU time   -0.00
    ------------------------------------------
      LOOP:  VPU time    8.72: CPU time   25.14

 eigenvalue-minimisations  :  2208
 total energy-change (2. order) :-0.3547029E-10  (-0.1049554E-11)
 number of electron   44.0000002 magnetization 
 augmentation part    28.8275472 magnetization 

 Free energy of the ion-electron system (eV)
  ---------------------------------------------------
  alpha Z        PSCENC =       400.59199486
  Ewald energy   TEWEN  =     -4307.48734156
  -1/2 Hartree   DENC   =     -1278.99143200
  -V(xc)+E(xc)   XCENC  =       170.61326370
  PAW double counting   =      4351.46205095    -4929.21965231
  entropy T*S    EENTRO =        -0.00013907
  eigenvalues    EBANDS =        14.30069809
  atomic energy  EATOM  =      5563.91755062
  ---------------------------------------------------
  free energy    TOTEN  =       -14.81300674 eV

  energy without entropy =      -14.81286766  energy(sigma->0) =      -14.81293720


--------------------------------------------------------------------------------------------------------




 average (electrostatic) potential at core
  the test charge radii are     1.0053
  (the norm of the test charge is              1.0000)
       1 -40.3942       2 -40.3942       3 -40.3942       4 -40.3942
 
 
 
 E-fermi :   3.1712     XC(G=0): -12.3545     alpha+bet : -8.9158
   add alpha+bet to get absolut eigen values

 k-point   1 :       0.0000    0.0000    0.0000
  band No.  band energies     occupation 
      1      -5.6209      2.00000
      2      -1.3055      2.00000
      3      -1.3055      2.00000
      4      -1.3055      2.00000
      5      -0.9007      2.00000
      6      -0.9007      2.00000
      7      -0.9007      2.00000
      8       0.3324      2.00000
      9       0.3324      2.00000
     10       0.3324      2.00000
     11       1.0668      2.00000
     12       1.0668      2.00000
     13       1.5553      2.00000
     14       1.5553      2.00000
     15       1.5553      2.00000
     16       1.6920      2.00000
     17       1.6920      2.00000
     18       1.6920      2.00000
     19       1.6920      2.00000
     20       1.6920      2.00000
     21       1.6920      2.00000
     22       4.7233      0.00000
     23       4.7233      0.00000
     24       4.7233      0.00000
     25       9.7495      0.00000
     26       9.7496      0.00000

 k-point   2 :       0.0833    0.0000    0.0000
  band No.  band energies     occupation 
      1      -5.5410      2.00000
      2      -1.3075      2.00000
      3      -1.2696      2.00000
      4      -1.2696      2.00000
      5      -0.8806      2.00000
      6      -0.8795      2.00000
      7      -0.8795      2.00000
      8       0.3105      2.00000
      9       0.3503      2.00000
     10       0.3503      2.00000
     11       1.0469      2.00000
     12       1.0750      2.00000
     13       1.5296      2.00000
     14       1.5296      2.00000
     15       1.5468      2.00000
     16       1.5665      2.00000
     17       1.5665      2.00000
     18       1.6615      2.00000
     19       1.6615      2.00000
     20       1.6921      2.00000
     21       1.6921      2.00000
     22       4.1999      0.00000
     23       4.9214      0.00000
     24       4.9214      0.00000
     25       9.7819      0.00000
     26       9.7819      0.00000

 k-point   3 :       0.1667    0.0000    0.0000
  band No.  band energies     occupation 
      1      -5.3027      2.00000
      2      -1.3295      2.00000
      3      -1.1669      2.00000
      4      -1.1669      2.00000
      5      -0.8216      2.00000
      6      -0.8154      2.00000
      7      -0.8154      2.00000
      8       0.2462      2.00000
      9       0.4035      2.00000
     10       0.4035      2.00000
     11       0.9895      2.00000
     12       1.0990      2.00000
     13       1.2632      2.00000
     14       1.2632      2.00000
     15       1.4547      2.00000
     16       1.4547      2.00000
     17       1.5220      2.00000
     18       1.5742      2.00000
     19       1.5742      2.00000
     20       1.6922      2.00000
     21       1.6922      2.00000
     22       3.1247      2.00000
     23       5.4421      0.00000
     24       5.4421      0.00000
     25       9.8819      0.00000
     26       9.8819      0.00000

 k-point   4 :       0.2500    0.0000    0.0000
  band No.  band energies     occupation 
      1      -4.9113      2.00000
      2      -1.4282      2.00000
      3      -1.0136      2.00000
      4      -1.0136      2.00000
      5      -0.7271      2.00000
      6      -0.7074      2.00000
      7      -0.7074      2.00000
      8       0.1447      2.00000
      9       0.4907      2.00000
     10       0.4907      2.00000
     11       0.8949      2.00000
     12       0.8949      2.00000
     13       0.9019      2.00000
     14       1.1372      2.00000
     15       1.3394      2.00000
     16       1.3394      2.00000
     17       1.4412      2.00000
     18       1.4412      2.00000
     19       1.4825      2.00000
     20       1.6924      2.00000
     21       1.6924      2.00000
     22       2.0392      2.00000
     23       6.1713      0.00000
     24       6.1713      0.00000
     25      10.0581      0.00000
     26      10.0581      0.00000

 k-point   5 :       0.3333    0.0000    0.0000
  band No.  band energies     occupation 
      1      -4.3774      2.00000
      2      -1.7140      2.00000
      3      -0.8398      2.00000
      4      -0.8398      2.00000
      5      -0.6030      2.00000
      6      -0.5539      2.00000
      7      -0.5539      2.00000
      8       0.0135      2.00000
      9       0.5274      2.00000
     10       0.5274      2.00000
     11       0.6092      2.00000
     12       0.6092      2.00000
     13       0.7984      2.00000
     14       1.1872      2.00000
     15       1.2034      2.00000
     16       1.2034      2.00000
     17       1.2175      2.00000
     18       1.2776      2.00000
     19       1.2776      2.00000
     20       1.4314      2.00000
     21       1.6925      2.00000
     22       1.6925      2.00000
     23       7.0411      0.00000
     24       7.0411      0.00000
     25      10.3240      0.00000
     26      10.3240      0.00000

 k-point   6 :       0.4167    0.0000    0.0000
  band No.  band energies     occupation 
      1      -3.7218      2.00000
      2      -2.2662      2.00000
      3      -0.6931      2.00000
      4      -0.6931      2.00000
      5      -0.4569      2.00000
      6      -0.3535      2.00000
      7      -0.3535      2.00000
      8      -0.1378      2.00000
      9       0.1899      2.00000
     10       0.1899      2.00000
     11       0.7048      2.00000
     12       0.7548      2.00000
     13       0.7548      2.00000
     14       0.7888      2.00000
     15       1.0844      2.00000
     16       1.0844      2.00000
     17       1.0994      2.00000
     18       1.0994      2.00000
     19       1.2456      2.00000
     20       1.3720      2.00000
     21       1.6926      2.00000
     22       1.6926      2.00000
     23       8.0192      0.00000
     24       8.0192      0.00000
     25      10.2405      0.00000
     26      10.2405      0.00000

 k-point   7 :       0.5000    0.0000    0.0000
  band No.  band energies     occupation 
      1      -2.9875      2.00000
      2      -2.9875      2.00000
      3      -0.6337      2.00000
      4      -0.6337      2.00000
      5      -0.2983      2.00000
      6      -0.2983      2.00000
      7      -0.1053      2.00000
      8      -0.1053      2.00000
      9      -0.1053      2.00000
     10      -0.1053      2.00000
     11       0.6697      2.00000
     12       0.6697      2.00000
     13       0.9212      2.00000
     14       0.9212      2.00000
     15       0.9212      2.00000
     16       0.9212      2.00000
     17       1.0350      2.00000
     18       1.0350      2.00000
     19       1.3087      2.00000
     20       1.3087      2.00000
     21       1.6927      2.00000
     22       1.6927      2.00000
     23       9.0892      0.00000
     24       9.0892      0.00000
     25       9.0892      0.00000
     26       9.0892      0.00000

 k-point   8 :       0.0833    0.0833    0.0000
  band No.  band energies     occupation 
      1      -5.4613      2.00000
      2      -1.2707      2.00000
      3      -1.2707      2.00000
      4      -1.2346      2.00000
      5      -0.8598      2.00000
      6      -0.8598      2.00000
      7      -0.8589      2.00000
      8       0.2983      2.00000
      9       0.3587      2.00000
     10       0.3664      2.00000
     11       1.0415      2.00000
     12       1.0704      2.00000
     13       1.4735      2.00000
     14       1.4914      2.00000
     15       1.4914      2.00000
     16       1.5049      2.00000
     17       1.5594      2.00000
     18       1.5594      2.00000
     19       1.6615      2.00000
     20       1.6615      2.00000
     21       1.6724      2.00000
     22       4.3935      0.00000
     23       4.3935      0.00000
     24       5.1068      0.00000
     25       9.8148      0.00000
     26      10.4794      0.00000

 k-point   9 :       0.1667    0.0833    0.0000
  band No.  band energies     occupation 
      1      -5.2240      2.00000
      2      -1.2898      2.00000
      3      -1.1653      2.00000
      4      -1.1346      2.00000
      5      -0.8019      2.00000
      6      -0.7970      2.00000
      7      -0.7969      2.00000
      8       0.2406      2.00000
      9       0.4068      2.00000
     10       0.4139      2.00000
     11       0.9919      2.00000
     12       1.0924      2.00000
     13       1.2031      2.00000
     14       1.2053      2.00000
     15       1.3824      2.00000
     16       1.4331      2.00000
     17       1.4629      2.00000
     18       1.5317      2.00000
     19       1.5740      2.00000
     20       1.6614      2.00000
     21       1.6619      2.00000
     22       3.3309      0.00000
     23       4.8879      0.00000
     24       5.6034      0.00000
     25       9.9160      0.00000
     26      10.6125      0.00000

 k-point  10 :       0.2500    0.0833    0.0000
  band No.  band energies     occupation 
      1      -4.8343      2.00000
      2      -1.3835      2.00000
      3      -1.0076      2.00000
      4      -0.9849      2.00000
      5      -0.7094      2.00000
      6      -0.6934      2.00000
      7      -0.6910      2.00000
      8       0.1427      2.00000
      9       0.4890      2.00000
     10       0.4924      2.00000
     11       0.8368      2.00000
     12       0.8613      2.00000
     13       0.9118      2.00000
     14       1.1351      2.00000
     15       1.1923      2.00000
     16       1.3222      2.00000
     17       1.3468      2.00000
     18       1.4407      2.00000
     19       1.4811      2.00000
     20       1.6594      2.00000
     21       1.6612      2.00000
     22       2.3072      2.00000
     23       5.5593      0.00000
     24       6.3115      0.00000
     25      10.0916      0.00000
     26      10.8453      0.00000

 k-point  11 :       0.3333    0.0833    0.0000
  band No.  band energies     occupation 
      1      -4.3030      2.00000
      2      -1.6626      2.00000
      3      -0.8274      2.00000
      4      -0.8128      2.00000
      5      -0.5877      2.00000
      6      -0.5494      2.00000
      7      -0.5406      2.00000
      8       0.0149      2.00000
      9       0.4755      2.00000
     10       0.5104      2.00000
     11       0.5756      2.00000
     12       0.6101      2.00000
     13       0.8334      2.00000
     14       0.9031      2.00000
     15       1.1914      2.00000
     16       1.1920      2.00000
     17       1.2107      2.00000
     18       1.2770      2.00000
     19       1.3887      2.00000
     20       1.6479      2.00000
     21       1.6591      2.00000
     22       1.6608      2.00000
     23       6.3416      0.00000
     24       7.1660      0.00000
     25      10.1951      0.00000
     26      10.4522      0.00000

 k-point  12 :       0.4167    0.0833    0.0000
  band No.  band energies     occupation 
      1      -3.6512      2.00000
      2      -2.2075      2.00000
      3      -0.6729      2.00000
      4      -0.6645      2.00000
      5      -0.4447      2.00000
      6      -0.3659      2.00000
      7      -0.3446      2.00000
      8      -0.1327      2.00000
      9       0.1473      2.00000
     10       0.1845      2.00000
     11       0.6043      2.00000
     12       0.6551      2.00000
     13       0.7551      2.00000
     14       0.8481      2.00000
     15       1.0782      2.00000
     16       1.0896      2.00000
     17       1.0990      2.00000
     18       1.1884      2.00000
     19       1.2596      2.00000
     20       1.4268      2.00000
     21       1.6594      2.00000
     22       1.6604      2.00000
     23       7.2067      0.00000
     24       8.1332      0.00000
     25       9.1601      0.00000
     26      10.3419      0.00000

 k-point  13 :       0.5000    0.0833    0.0000
  band No.  band energies     occupation 
      1      -2.9221      2.00000
      2      -2.9221      2.00000
      3      -0.6063      2.00000
      4      -0.6063      2.00000
      5      -0.2896      2.00000
      6      -0.2896      2.00000
      7      -0.1351      2.00000
      8      -0.1351      2.00000
      9      -0.1024      2.00000
     10      -0.1024      2.00000
     11       0.5830      2.00000
     12       0.5830      2.00000
     13       0.9210      2.00000
     14       0.9210      2.00000
     15       0.9889      2.00000
     16       0.9889      2.00000
     17       1.0351      2.00000
     18       1.0351      2.00000
     19       1.3355      2.00000
     20       1.3355      2.00000
     21       1.6599      2.00000
     22       1.6599      2.00000
     23       8.1459      0.00000
     24       8.1459      0.00000
     25       9.1956      0.00000
     26       9.1956      0.00000

 k-point  14 :       0.1667    0.1667    0.0000
  band No.  band energies     occupation 
      1      -4.9897      2.00000
      2      -1.1759      2.00000
      3      -1.1759      2.00000
      4      -1.0424      2.00000
      5      -0.7426      2.00000
      6      -0.7426      2.00000
      7      -0.7416      2.00000
      8       0.2061      2.00000
      9       0.4354      2.00000
     10       0.4439      2.00000
     11       0.9740      2.00000
     12       1.0255      2.00000
     13       1.0508      2.00000
     14       1.0508      2.00000
     15       1.0999      2.00000
     16       1.3698      2.00000
     17       1.4585      2.00000
     18       1.4585      2.00000
     19       1.5733      2.00000
     20       1.5733      2.00000
     21       1.6142      2.00000
     22       3.8108      0.00000
     23       3.8108      0.00000
     24       6.0497      0.00000
     25      10.0169      0.00000
     26      11.3311      0.00000

 k-point  15 :       0.2500    0.1667    0.0000
  band No.  band energies     occupation 
      1      -4.6053      2.00000
      2      -1.2548      2.00000
      3      -1.0041      2.00000
      4      -0.9039      2.00000
      5      -0.6558      2.00000
      6      -0.6505      2.00000
      7      -0.6429      2.00000
      8       0.1278      2.00000
      9       0.4878      2.00000
     10       0.5074      2.00000
     11       0.6857      2.00000
     12       0.7564      2.00000
     13       0.8305      2.00000
     14       0.9176      2.00000
     15       1.1503      2.00000
     16       1.2711      2.00000
     17       1.3482      2.00000
     18       1.4179      2.00000
     19       1.4396      2.00000
     20       1.5723      2.00000
     21       1.5868      2.00000
     22       2.7885      2.00000
     23       4.4210      0.00000
     24       6.7094      0.00000
     25       9.9127      0.00000
     26      10.3005      0.00000

 k-point  16 :       0.3333    0.1667    0.0000
  band No.  band energies     occupation 
      1      -4.0823      2.00000
      2      -1.5140      2.00000
      3      -0.8042      2.00000
      4      -0.7393      2.00000
      5      -0.5421      2.00000
      6      -0.5322      2.00000
      7      -0.5018      2.00000
      8       0.0150      2.00000
      9       0.3416      2.00000
     10       0.4572      2.00000
     11       0.5215      2.00000
     12       0.5927      2.00000
     13       0.6179      2.00000
     14       0.8703      2.00000
     15       1.1542      2.00000
     16       1.2155      2.00000
     17       1.2296      2.00000
     18       1.2758      2.00000
     19       1.3304      2.00000
     20       1.5710      2.00000
     21       1.5749      2.00000
     22       2.0611      2.00000
     23       5.1149      0.00000
     24       7.5260      0.00000
     25       8.7690      0.00000
     26      10.5295      0.00000

 k-point  17 :       0.4167    0.1667    0.0000
  band No.  band energies     occupation 
      1      -3.4425      2.00000
      2      -2.0368      2.00000
      3      -0.6241      2.00000
      4      -0.5833      2.00000
      5      -0.4086      2.00000
      6      -0.3998      2.00000
      7      -0.3188      2.00000
      8      -0.1196      2.00000
      9       0.0369      2.00000
     10       0.1670      2.00000
     11       0.4546      2.00000
     12       0.5005      2.00000
     13       0.7587      2.00000
     14       0.9034      2.00000
     15       1.0558      2.00000
     16       1.0924      2.00000
     17       1.0984      2.00000
     18       1.1882      2.00000
     19       1.3304      2.00000
     20       1.5699      2.00000
     21       1.5704      2.00000
     22       1.6622      2.00000
     23       5.8853      0.00000
     24       7.6982      0.00000
     25       8.4653      0.00000
     26      10.6403      0.00000

 k-point  18 :       0.5000    0.1667    0.0000
  band No.  band energies     occupation 
      1      -2.7301      2.00000
      2      -2.7301      2.00000
      3      -0.5304      2.00000
      4      -0.5304      2.00000
      5      -0.2644      2.00000
      6      -0.2644      2.00000
      7      -0.2170      2.00000
      8      -0.2170      2.00000
      9      -0.0947      2.00000
[...]
     21       2.2092      2.00000
     22       2.2092      2.00000
     23       3.4554      0.00000
     24       3.4554      0.00000
     25       7.7364      0.00000
     26       7.7364      0.00000

 k-point  74 :       0.5000    0.5000    0.2500
  band No.  band energies     occupation 
      1      -1.3805      2.00000
      2      -1.3805      2.00000
      3      -1.3805      2.00000
      4      -1.3805      2.00000
      5       0.2023      2.00000
      6       0.2023      2.00000
      7       0.2023      2.00000
      8       0.2023      2.00000
      9       0.4746      2.00000
     10       0.4746      2.00000
     11       0.4746      2.00000
     12       0.4746      2.00000
     13       0.5534      2.00000
     14       0.5534      2.00000
     15       0.5534      2.00000
     16       0.5534      2.00000
     17       1.3867      2.00000
     18       1.3867      2.00000
     19       1.3867      2.00000
     20       1.3867      2.00000
     21       2.7235      2.00000
     22       2.7235      2.00000
     23       2.7235      2.00000
     24       2.7235      2.00000
     25       8.4774      0.00000
     26       8.4774      0.00000

 k-point  75 :       0.3333    0.3333    0.3333
  band No.  band energies     occupation 
      1      -2.4052      2.00000
      2      -1.1283      2.00000
      3      -1.1283      2.00000
      4      -1.1283      2.00000
      5      -0.0008      2.00000
      6      -0.0008      2.00000
      7      -0.0008      2.00000
      8       0.3641      2.00000
      9       0.4082      2.00000
     10       0.4082      2.00000
     11       0.4267      2.00000
     12       0.4267      2.00000
     13       0.4267      2.00000
     14       0.5967      2.00000
     15       0.5967      2.00000
     16       0.5967      2.00000
     17       1.3310      2.00000
     18       1.3310      2.00000
     19       1.5851      2.00000
     20       1.5851      2.00000
     21       1.5851      2.00000
     22       3.6116      0.00000
     23       3.6116      0.00000
     24       3.6116      0.00000
     25       7.8193      0.00000
     26       7.8193      0.00000

 k-point  76 :       0.4167    0.3333    0.3333
  band No.  band energies     occupation 
      1      -2.0444      2.00000
      2      -1.3910      2.00000
      3      -1.1570      2.00000
      4      -1.1570      2.00000
      5       0.0657      2.00000
      6       0.0657      2.00000
      7       0.1560      2.00000
      8       0.3639      2.00000
      9       0.4032      2.00000
     10       0.4946      2.00000
     11       0.5008      2.00000
     12       0.5228      2.00000
     13       0.5285      2.00000
     14       0.5285      2.00000
     15       0.5768      2.00000
     16       0.5768      2.00000
     17       1.4431      2.00000
     18       1.4478      2.00000
     19       1.5590      2.00000
     20       1.5590      2.00000
     21       1.5747      2.00000
     22       2.6350      2.00000
     23       3.8696      0.00000
     24       3.8696      0.00000
     25       7.0405      0.00000
     26       7.0405      0.00000

 k-point  77 :       0.5000    0.3333    0.3333
  band No.  band energies     occupation 
      1      -1.6981      2.00000
      2      -1.6981      2.00000
      3      -1.1674      2.00000
      4      -1.1674      2.00000
      5       0.0856      2.00000
      6       0.0856      2.00000
      7       0.2826      2.00000
      8       0.2826      2.00000
      9       0.4347      2.00000
     10       0.4347      2.00000
     11       0.5126      2.00000
     12       0.5126      2.00000
     13       0.5491      2.00000
     14       0.5491      2.00000
     15       0.6376      2.00000
     16       0.6376      2.00000
     17       1.5263      2.00000
     18       1.5263      2.00000
     19       1.5398      2.00000
     20       1.5398      2.00000
     21       1.8874      2.00000
     22       1.8874      2.00000
     23       3.9933      0.00000
     24       3.9933      0.00000
     25       6.7394      0.00000
     26       6.7394      0.00000

 k-point  78 :       0.4167    0.4167    0.3333
  band No.  band energies     occupation 
      1      -1.8058      2.00000
      2      -1.3640      2.00000
      3      -1.3640      2.00000
      4      -1.2505      2.00000
      5       0.1433      2.00000
      6       0.1901      2.00000
      7       0.1901      2.00000
      8       0.3461      2.00000
      9       0.3706      2.00000
     10       0.4450      2.00000
     11       0.4450      2.00000
     12       0.4608      2.00000
     13       0.7291      2.00000
     14       0.7291      2.00000
     15       0.7601      2.00000
     16       0.8187      2.00000
     17       1.4087      2.00000
     18       1.5462      2.00000
     19       1.5526      2.00000
     20       1.5526      2.00000
     21       1.6567      2.00000
     22       2.9235      2.00000
     23       2.9235      2.00000
     24       3.6986      0.00000
     25       6.6840      0.00000
     26       7.5419      0.00000

 k-point  79 :       0.5000    0.4167    0.3333
  band No.  band energies     occupation 
      1      -1.5787      2.00000
      2      -1.5787      2.00000
      3      -1.3191      2.00000
      4      -1.3191      2.00000
      5       0.1859      2.00000
      6       0.1859      2.00000
      7       0.2857      2.00000
      8       0.2857      2.00000
      9       0.3890      2.00000
     10       0.3890      2.00000
     11       0.4298      2.00000
     12       0.4298      2.00000
     13       0.8389      2.00000
     14       0.8389      2.00000
     15       0.8563      2.00000
     16       0.8563      2.00000
     17       1.4939      2.00000
     18       1.4939      2.00000
     19       1.5280      2.00000
     20       1.5280      2.00000
     21       2.1333      2.00000
     22       2.1333      2.00000
     23       3.3196      0.00000
     24       3.3196      0.00000
     25       6.9044      0.00000
     26       6.9044      0.00000

 k-point  80 :       0.5000    0.5000    0.3333
  band No.  band energies     occupation 
      1      -1.4546      2.00000
      2      -1.4546      2.00000
      3      -1.4546      2.00000
      4      -1.4546      2.00000
      5       0.2566      2.00000
      6       0.2566      2.00000
      7       0.2566      2.00000
      8       0.2566      2.00000
      9       0.3846      2.00000
     10       0.3846      2.00000
     11       0.3846      2.00000
     12       0.3846      2.00000
     13       0.9615      2.00000
     14       0.9615      2.00000
     15       0.9615      2.00000
     16       0.9615      2.00000
     17       1.4842      2.00000
     18       1.4842      2.00000
     19       1.4842      2.00000
     20       1.4842      2.00000
     21       2.6309      2.00000
     22       2.6309      2.00000
     23       2.6309      2.00000
     24       2.6309      2.00000
     25       7.4567      0.00000
     26       7.4567      0.00000

 k-point  81 :       0.4167    0.4167    0.4167
  band No.  band energies     occupation 
      1      -1.6825      2.00000
      2      -1.4098      2.00000
      3      -1.4098      2.00000
      4      -1.4098      2.00000
      5       0.2352      2.00000
      6       0.2352      2.00000
      7       0.2352      2.00000
      8       0.3368      2.00000
      9       0.3368      2.00000
     10       0.3838      2.00000
     11       0.3838      2.00000
     12       0.3838      2.00000
     13       1.0132      2.00000
     14       1.0132      2.00000
     15       1.0132      2.00000
     16       1.3886      2.00000
     17       1.5014      2.00000
     18       1.5014      2.00000
     19       1.5725      2.00000
     20       1.5725      2.00000
     21       1.5725      2.00000
     22       2.9564      2.00000
     23       2.9564      2.00000
     24       2.9564      2.00000
     25       6.8376      0.00000
     26       6.8376      0.00000

 k-point  82 :       0.5000    0.4167    0.4167
  band No.  band energies     occupation 
      1      -1.5525      2.00000
      2      -1.5525      2.00000
      3      -1.4257      2.00000
      4      -1.4257      2.00000
      5       0.2526      2.00000
      6       0.2526      2.00000
      7       0.3008      2.00000
      8       0.3008      2.00000
      9       0.3414      2.00000
     10       0.3414      2.00000
     11       0.3608      2.00000
     12       0.3608      2.00000
     13       1.1431      2.00000
     14       1.1431      2.00000
     15       1.2547      2.00000
     16       1.2547      2.00000
     17       1.5574      2.00000
     18       1.5574      2.00000
     19       1.5604      2.00000
     20       1.5604      2.00000
     21       2.1492      2.00000
     22       2.1492      2.00000
     23       2.9724      2.00000
     24       2.9724      2.00000
     25       6.5824      0.00000
     26       6.5824      0.00000

 k-point  83 :       0.5000    0.5000    0.4167
  band No.  band energies     occupation 
      1      -1.5031      2.00000
      2      -1.5031      2.00000
      3      -1.5031      2.00000
      4      -1.5031      2.00000
      5       0.2947      2.00000
      6       0.2947      2.00000
      7       0.2947      2.00000
      8       0.2947      2.00000
      9       0.3277      2.00000
     10       0.3277      2.00000
     11       0.3277      2.00000
     12       0.3277      2.00000
     13       1.3628      2.00000
     14       1.3628      2.00000
     15       1.3628      2.00000
     16       1.3628      2.00000
     17       1.5466      2.00000
     18       1.5466      2.00000
     19       1.5466      2.00000
     20       1.5466      2.00000
     21       2.4846      2.00000
     22       2.4846      2.00000
     23       2.4846      2.00000
     24       2.4846      2.00000
     25       6.7773      0.00000
     26       6.7773      0.00000

 k-point  84 :       0.5000    0.5000    0.5000
  band No.  band energies     occupation 
      1      -1.5199      2.00000
      2      -1.5199      2.00000
      3      -1.5199      2.00000
      4      -1.5199      2.00000
      5       0.3083      2.00000
      6       0.3083      2.00000
      7       0.3083      2.00000
      8       0.3083      2.00000
      9       0.3083      2.00000
     10       0.3083      2.00000
     11       0.3083      2.00000
     12       0.3083      2.00000
     13       1.5680      2.00000
     14       1.5680      2.00000
     15       1.5680      2.00000
     16       1.5680      2.00000
     17       1.5680      2.00000
     18       1.5680      2.00000
     19       1.5680      2.00000
     20       1.5680      2.00000
     21       2.3793      2.00000
     22       2.3793      2.00000
     23       2.3793      2.00000
     24       2.3793      2.00000
     25       6.5356      0.00000
     26       6.5356      0.00000


--------------------------------------------------------------------------------------------------------


 soft charge-density along one line, spin component           1
         0         1         2         3         4         5         6         7         8         9
 total charge-density along one line
 
 pseudopotential strength for first ion, spin component:           1
 -6.768   0.000   0.000   0.000   0.000  -0.108  -0.000  -0.000
  0.000  -6.768  -0.000  -0.000  -0.000  -0.000  -0.108   0.000
  0.000  -0.000  -6.751  -0.000   0.000  -0.000   0.000  -0.115
  0.000  -0.000  -0.000  -6.768   0.000  -0.000   0.000   0.000
  0.000  -0.000   0.000   0.000  -6.751  -0.000   0.000  -0.000
 -0.108  -0.000  -0.000  -0.000  -0.000   1.616   0.000   0.000
 -0.000  -0.108   0.000   0.000   0.000   0.000   1.616  -0.000
 -0.000   0.000  -0.115   0.000  -0.000   0.000  -0.000   1.620
 -0.000   0.000   0.000  -0.108  -0.000   0.000  -0.000  -0.000
 -0.000   0.000  -0.000  -0.000  -0.115   0.000  -0.000   0.000
  0.000  -0.000  -0.000  -0.000   0.000   0.000  -0.000  -0.000
 -0.000   0.000   0.000   0.000  -0.000   0.000  -0.000  -0.000
  0.000   0.000  -0.000   0.000  -0.000  -0.000  -0.000   0.000
  0.000   0.000   0.000   0.000   0.000   0.000  -0.000  -0.000
  0.000   0.000  -0.000   0.000   0.000  -0.000   0.000   0.000
 -0.000  -0.000   0.000  -0.000   0.000   0.000   0.000  -0.000
 -0.000  -0.000  -0.000  -0.000  -0.000   0.000   0.000   0.000
 -0.000  -0.000   0.000  -0.000  -0.000   0.000   0.000  -0.000
 total augmentation occupancy for first ion, spin component:           1
  1.859  -0.008  -0.013  -0.005  -0.009   0.002   0.006  -0.002   0.000   0.009   0.033  -0.004  -0.000  -0.000   0.000  -0.000
 -0.008   1.930  -0.001  -0.007  -0.005   0.006  -0.057   0.002   0.008  -0.002   0.048   0.006  -0.000  -0.000   0.000   0.000
 -0.013  -0.001   1.898   0.004  -0.014  -0.002   0.002  -0.030  -0.003   0.027  -0.009  -0.049   0.000   0.000   0.000   0.000
 -0.005  -0.007   0.004   1.918   0.002   0.000   0.008  -0.003  -0.027   0.004   0.024   0.001  -0.000  -0.000   0.000   0.000
 -0.009  -0.005  -0.014   0.002   1.928   0.009  -0.002   0.027   0.004  -0.098   0.057   0.033   0.000  -0.000   0.000  -0.000
  0.002   0.006  -0.002   0.000   0.009   0.082  -0.003   0.016   0.000  -0.007   0.018   0.014  -0.000  -0.000   0.000  -0.000
  0.006  -0.057   0.002   0.008  -0.002  -0.003   0.065  -0.004  -0.005   0.008  -0.015   0.010  -0.000   0.000   0.000   0.000
 -0.002   0.002  -0.030  -0.003   0.027   0.016  -0.004   0.068   0.000  -0.003   0.106  -0.013   0.000   0.000  -0.000   0.000
  0.000   0.008  -0.003  -0.027   0.004   0.000  -0.005   0.000   0.051  -0.008   0.000   0.007  -0.000  -0.000   0.000   0.000
  0.009  -0.002   0.027   0.004  -0.098  -0.007   0.008  -0.003  -0.008   0.055  -0.075   0.015  -0.000   0.000  -0.000   0.000
  0.033   0.048  -0.009   0.024   0.057   0.018  -0.015   0.106   0.000  -0.075   1.155  -0.321   0.000  -0.000  -0.000  -0.000
 -0.004   0.006  -0.049   0.001   0.033   0.014   0.010  -0.013   0.007   0.015  -0.321   0.130   0.000  -0.000   0.000   0.000
 -0.000  -0.000   0.000  -0.000   0.000  -0.000  -0.000   0.000  -0.000  -0.000   0.000   0.000   0.157   0.016  -0.014  -0.011
 -0.000  -0.000   0.000  -0.000  -0.000  -0.000   0.000   0.000  -0.000   0.000  -0.000  -0.000   0.016   0.110  -0.002  -0.001
  0.000   0.000   0.000   0.000   0.000   0.000   0.000  -0.000   0.000  -0.000  -0.000   0.000  -0.014  -0.002   0.237  -0.001
 -0.000   0.000   0.000   0.000  -0.000  -0.000   0.000   0.000   0.000   0.000  -0.000   0.000  -0.011  -0.001  -0.001   0.001
 -0.000  -0.000   0.000   0.000   0.000   0.000  -0.000   0.000   0.000   0.000  -0.000   0.000  -0.001  -0.007  -0.001   0.000
  0.000  -0.000   0.000   0.000   0.000  -0.000  -0.000  -0.000  -0.000   0.000   0.000  -0.000  -0.001  -0.001  -0.017   0.000


------------------------ aborting loop because EDIFF is reached ----------------------------------------




--------------------------------------------------------------------------------------------------------


    CHARGE:  VPU time    2.02: CPU time    4.04
    FORLOC:  VPU time    0.01: CPU time    0.03
    FORNL :  VPU time    4.22: CPU time    8.43
    STRESS:  VPU time    4.59: CPU time    9.18
    FORCOR:  VPU time    0.73: CPU time    1.46
    FORHAR:  VPU time    0.15: CPU time    0.30
    MIXING:  VPU time    0.00: CPU time    0.00


--------------------------------------------------------------------------------------------------------



  FREE ENERGIE OF THE ION-ELECTRON SYSTEM (eV)
  ---------------------------------------------------
  free  energy   TOTEN  =       -14.813007 eV

  energy  without entropy=      -14.812868  energy(sigma->0) =      -14.812937
 

  FORCE on cell =-STRESS in cart. coord.  units (eV/reduce length):
  Direction    X        Y        Z        XY       YZ       ZX
  --------------------------------------------------------------------------------------
  Alpha Z    400.59    400.59    400.59
  Ewald    -1435.83  -1435.83  -1435.83      0.00      0.00      0.00
  Hartree    426.33    426.33    426.33     -0.00     -0.00     -0.00
  E(xc)     -250.11   -250.11   -250.11     -0.00     -0.00      0.00
  Local      467.16    467.16    467.16      0.00      0.00      0.00
  n-local   -144.74   -150.34   -151.55      0.35      1.78      0.66
  augment    225.74    225.74    225.74     -0.00     -0.00     -0.00
  Kinetic    320.12    311.97    306.22     -2.91      0.03     -1.17
  -------------------------------------------------------------------------------------
  Total       -2.23     -2.23     -2.23      0.00      0.00      0.00
  in kB      -69.88    -69.88    -69.88      0.00      0.00      0.00
  external pressure =      -69.88 kB  Pullay stress =        0.00 kB


 VOLUME and BASIS-vectors are now :
 -----------------------------------------------------------------------------
  energy-cutoff  :      750.00
  volume of cell :       51.03
      direct lattice vectors                 reciprocal lattice vectors
     3.709144128  0.000000000  0.000000000     0.269603975  0.000000000  0.000000000
     0.000000000  3.709144128  0.000000000     0.000000000  0.269603975  0.000000000
     0.000000000  0.000000000  3.709144128     0.000000000  0.000000000  0.269603975

  length of vectors
     3.709144128  3.709144128  3.709144128     0.269603975  0.269603975  0.269603975


 FORCES acting on ions
    electron-ion (+dipol)            ewald-force                    non-local-force                 convergence-correction
 -----------------------------------------------------------------------------------------------
   -.476E-13 -.511E-13 -.964E-13   0.267E-13 0.243E-14 -.966E-14   -.646E-25 0.620E-24 -.129E-24   -.767E-13 -.299E-13 -.278E-13
   0.513E-12 0.362E-11 0.220E-11   0.322E-14 0.229E-13 -.966E-14   -.775E-25 -.207E-24 0.517E-25   0.400E-13 -.271E-16 -.400E-13
   0.513E-12 -.516E-13 0.757E-11   0.841E-14 -.219E-13 0.962E-14   0.284E-24 0.000E+00 -.116E-24   0.515E-13 -.286E-13 0.158E-13
   -.478E-13 0.505E-12 0.451E-12   -.365E-13 -.149E-14 0.962E-14   -.452E-25 0.000E+00 -.116E-24   -.709E-13 -.796E-14 0.213E-13
 -----------------------------------------------------------------------------------------------
   0.930E-12 0.402E-11 0.101E-10   0.186E-14 0.189E-14 -.861E-16   0.969E-25 0.414E-24 -.310E-24   -.561E-13 -.665E-13 -.306E-13
 
 
 POSITION                                       TOTAL-FORCE (eV/Angst)
 -----------------------------------------------------------------------------------
      0.00000      0.00000      0.00000         0.000000     -0.000000     -0.000000
      1.85457      1.85457      0.00000         0.000000     -0.000000     -0.000000
      1.85457      0.00000      1.85457        -0.000000     -0.000000      0.000000
      0.00000      1.85457      1.85457        -0.000000     -0.000000      0.000000
 -----------------------------------------------------------------------------------
    total drift:                                0.000000      0.000000      0.000000


--------------------------------------------------------------------------------------------------------



 mean value of Nose-termostat <S>:     1.000 mean value of <T> :     0.000
 mean temperature <T/S>/<1/S>  :     0.000

     LOOP+:  VPU time  481.57: CPU time 4154.26
  
  
 General timing and accounting informations for this job:
 ========================================================
  
                  Total CPU time used (sec):      485.911
                            User time (sec):      272.628
                          System time (sec):      213.284
                         Elapsed time (sec):     4188.836
  
                   Maximum memory used (kb):      345224.
                   Average memory used (kb):           0.
  
                          Minor page faults:       160385
                          Major page faults:            0
                 Voluntary context switches:         1156
