   4   4   0   0
  0.1063949E+02  0.3491351E-09  0.3491351E-09  0.3491351E-09  0.5000000E-15
  1.000000000000000E-004
  CAR 
 unknown system                          
     28.78175962     -7.06181021  301      4.78491982      1.00000000
     -7.062  0.0000E+00  0.0000E+00
     -6.942  0.0000E+00  0.0000E+00
     -6.823  0.0000E+00  0.0000E+00
     -6.703  0.0000E+00  0.0000E+00
     -6.584  0.0000E+00  0.0000E+00
     -6.464  0.0000E+00  0.0000E+00
     -6.345  0.0000E+00  0.0000E+00
     -6.225  0.0000E+00  0.0000E+00
     -6.106  0.0000E+00  0.0000E+00
     -5.987  0.0000E+00  0.0000E+00
     -5.867  0.0000E+00  0.0000E+00
     -5.748  0.0000E+00  0.0000E+00
     -5.628  0.0000E+00  0.0000E+00
     -5.509  0.0000E+00  0.0000E+00
     -5.389  0.1400E-01  0.1672E-02
     -5.270  0.6544E-01  0.1172E-01
     -5.150  0.1046E+00  0.2595E-01
     -5.031  0.7510E-01  0.4529E-01
     -4.911  0.1163E+00  0.6671E-01
     -4.792  0.1683E+00  0.9028E-01
     -4.672  0.9878E-01  0.1187E+00
     -4.553  0.1534E+00  0.1478E+00
     -4.433  0.1526E+00  0.1833E+00
     -4.314  0.1722E+00  0.2169E+00
     -4.194  0.2395E+00  0.2565E+00
     -4.075  0.2233E+00  0.2927E+00
     -3.955  0.2704E+00  0.3366E+00
     -3.836  0.1374E+00  0.3736E+00
     -3.716  0.2033E+00  0.4261E+00
     -3.597  0.2809E+00  0.4700E+00
     -3.477  0.3541E+00  0.5352E+00
     -3.358  0.2347E+00  0.5696E+00
     -3.238  0.3555E+00  0.6343E+00
     -3.119  0.3715E+00  0.6962E+00
     -3.000  0.3235E+00  0.7541E+00
     -2.880  0.3794E+00  0.8198E+00
     -2.761  0.3402E+00  0.8785E+00
     -2.641  0.4868E+00  0.9602E+00
     -2.522  0.4511E+00  0.1029E+01
     -2.402  0.5195E+00  0.1098E+01
     -2.283  0.4861E+00  0.1188E+01
     -2.163  0.5266E+00  0.1269E+01
     -2.044  0.5460E+00  0.1353E+01
     -1.924  0.4317E+00  0.1451E+01
     -1.805  0.6258E+00  0.1558E+01
     -1.685  0.6835E+00  0.1663E+01
     -1.566  0.6413E+00  0.1780E+01
     -1.446  0.9045E+00  0.1921E+01
     -1.327  0.7754E+00  0.2061E+01
     -1.207  0.9607E+00  0.2218E+01
     -1.088  0.1214E+01  0.2430E+01
     -0.968  0.1751E+01  0.2683E+01
     -0.849  0.1941E+01  0.3008E+01
     -0.729  0.2976E+01  0.3471E+01
     -0.610  0.3105E+01  0.4005E+01
     -0.490  0.3085E+01  0.4524E+01
     -0.371  0.3159E+01  0.5073E+01
     -0.252  0.3423E+01  0.5649E+01
     -0.132  0.4334E+01  0.6433E+01
     -0.013  0.5229E+01  0.7351E+01
      0.107  0.6039E+01  0.8374E+01
      0.226  0.5581E+01  0.9339E+01
      0.346  0.5124E+01  0.1020E+02
      0.465  0.5020E+01  0.1110E+02
      0.585  0.4781E+01  0.1197E+02
      0.704  0.4693E+01  0.1274E+02
      0.824  0.6029E+01  0.1381E+02
      0.943  0.6909E+01  0.1501E+02
      1.063  0.6761E+01  0.1617E+02
      1.182  0.7041E+01  0.1752E+02
      1.302  0.8825E+01  0.1905E+02
      1.421  0.8505E+01  0.2064E+02
      1.541  0.1105E+02  0.2245E+02
      1.660  0.7876E+01  0.2410E+02
      1.780  0.6713E+01  0.2530E+02
      1.899  0.5615E+01  0.2635E+02
      2.019  0.6107E+01  0.2741E+02
      2.138  0.7863E+01  0.2878E+02
      2.258  0.8854E+01  0.3029E+02
      2.377  0.7806E+01  0.3178E+02
      2.496  0.7226E+01  0.3311E+02
      2.616  0.7212E+01  0.3440E+02
      2.735  0.8043E+01  0.3574E+02
      2.855  0.9166E+01  0.3730E+02
      2.974  0.1502E+02  0.3970E+02
      3.094  0.7821E+01  0.4144E+02
      3.213  0.1591E+01  0.4197E+02
      3.333  0.1439E+01  0.4219E+02
      3.452  0.9573E+00  0.4233E+02
      3.572  0.9483E+00  0.4252E+02
      3.691  0.1120E+01  0.4269E+02
      3.811  0.8033E+00  0.4283E+02
      3.930  0.9886E+00  0.4300E+02
      4.050  0.8670E+00  0.4315E+02
      4.169  0.7648E+00  0.4329E+02
      4.289  0.8859E+00  0.4344E+02
      4.408  0.6740E+00  0.4357E+02
      4.528  0.9020E+00  0.4373E+02
      4.647  0.5575E+00  0.4385E+02
      4.767  0.6425E+00  0.4398E+02
      4.886  0.8301E+00  0.4413E+02
      5.006  0.7615E+00  0.4427E+02
      5.125  0.6158E+00  0.4437E+02
      5.244  0.1043E+01  0.4453E+02
      5.364  0.5879E+00  0.4464E+02
      5.483  0.5259E+00  0.4475E+02
      5.603  0.6431E+00  0.4488E+02
      5.722  0.6066E+00  0.4501E+02
      5.842  0.1013E+01  0.4515E+02
      5.961  0.6308E+00  0.4524E+02
      6.081  0.6775E+00  0.4536E+02
      6.200  0.6937E+00  0.4550E+02
      6.320  0.3889E+00  0.4558E+02
      6.439  0.7660E+00  0.4572E+02
      6.559  0.6642E+00  0.4583E+02
      6.678  0.7412E+00  0.4596E+02
      6.798  0.6597E+00  0.4607E+02
      6.917  0.2498E+00  0.4613E+02
      7.037  0.8678E+00  0.4627E+02
      7.156  0.7952E+00  0.4639E+02
      7.276  0.6527E+00  0.4648E+02
      7.395  0.6330E+00  0.4657E+02
      7.515  0.3578E+00  0.4665E+02
      7.634  0.3590E+00  0.4672E+02
      7.754  0.8753E+00  0.4686E+02
      7.873  0.4146E+00  0.4693E+02
      7.992  0.2684E+00  0.4701E+02
      8.112  0.3393E+00  0.4707E+02
      8.231  0.3162E+00  0.4715E+02
      8.351  0.4485E+00  0.4723E+02
      8.470  0.5072E+00  0.4733E+02
      8.590  0.2392E+00  0.4737E+02
      8.709  0.2956E+00  0.4743E+02
      8.829  0.4187E+00  0.4749E+02
      8.948  0.2244E+00  0.4755E+02
      9.068  0.2743E+00  0.4762E+02
      9.187  0.9204E+00  0.4774E+02
      9.307  0.4830E+00  0.4782E+02
      9.426  0.8367E+00  0.4797E+02
      9.546  0.5777E+00  0.4809E+02
      9.665  0.9046E+00  0.4824E+02
      9.785  0.6844E+00  0.4835E+02
      9.904  0.7532E+00  0.4849E+02
     10.024  0.4941E+00  0.4861E+02
     10.143  0.7571E+00  0.4876E+02
     10.263  0.9151E+00  0.4890E+02
     10.382  0.8583E+00  0.4903E+02
     10.502  0.7036E+00  0.4916E+02
     10.621  0.6643E+00  0.4930E+02
     10.740  0.4878E+00  0.4940E+02
     10.860  0.8810E+00  0.4954E+02
     10.979  0.7008E+00  0.4966E+02
     11.099  0.7390E+00  0.4978E+02
     11.218  0.6605E+00  0.4990E+02
     11.338  0.8637E+00  0.5002E+02
     11.457  0.4380E+00  0.5011E+02
     11.577  0.5757E+00  0.5023E+02
     11.696  0.4745E+00  0.5033E+02
     11.816  0.7158E+00  0.5046E+02
     11.935  0.6790E+00  0.5057E+02
     12.055  0.4659E+00  0.5064E+02
     12.174  0.4667E+00  0.5076E+02
     12.294  0.6077E+00  0.5085E+02
     12.413  0.5003E+00  0.5096E+02
     12.533  0.6545E+00  0.5107E+02
     12.652  0.2927E+00  0.5114E+02
     12.772  0.8224E+00  0.5130E+02
     12.891  0.1034E+01  0.5145E+02
     13.011  0.7397E+00  0.5159E+02
     13.130  0.6527E+00  0.5172E+02
     13.250  0.5331E+00  0.5183E+02
     13.369  0.4304E+00  0.5193E+02
     13.489  0.1011E+01  0.5209E+02
     13.608  0.8676E+00  0.5227E+02
     13.727  0.1064E+01  0.5246E+02
     13.847  0.1043E+01  0.5262E+02
     13.966  0.5265E+00  0.5271E+02
     14.086  0.8764E+00  0.5286E+02
     14.205  0.1219E+01  0.5306E+02
     14.325  0.1274E+01  0.5327E+02
     14.444  0.8437E+00  0.5341E+02
     14.564  0.6841E+00  0.5356E+02
     14.683  0.6849E+00  0.5368E+02
     14.803  0.9215E+00  0.5383E+02
     14.922  0.1056E+01  0.5401E+02
     15.042  0.1212E+01  0.5421E+02
     15.161  0.1187E+01  0.5437E+02
     15.281  0.8525E+00  0.5452E+02
     15.400  0.7557E+00  0.5467E+02
     15.520  0.8289E+00  0.5482E+02
     15.639  0.9291E+00  0.5499E+02
     15.759  0.1146E+01  0.5518E+02
     15.878  0.8137E+00  0.5534E+02
     15.998  0.9439E+00  0.5550E+02
     16.117  0.1116E+01  0.5567E+02
     16.237  0.1108E+01  0.5586E+02
     16.356  0.9786E+00  0.5601E+02
     16.475  0.7678E+00  0.5618E+02
     16.595  0.7451E+00  0.5634E+02
     16.714  0.1022E+01  0.5653E+02
     16.834  0.1085E+01  0.5671E+02
     16.953  0.7473E+00  0.5683E+02
     17.073  0.1094E+01  0.5702E+02
     17.192  0.1193E+01  0.5724E+02
     17.312  0.8954E+00  0.5740E+02
     17.431  0.7656E+00  0.5755E+02
     17.551  0.1226E+01  0.5774E+02
     17.670  0.1142E+01  0.5794E+02
     17.790  0.1220E+01  0.5814E+02
     17.909  0.6859E+00  0.5827E+02
     18.029  0.7888E+00  0.5842E+02
     18.148  0.1113E+01  0.5864E+02
     18.268  0.1078E+01  0.5885E+02
     18.387  0.8410E+00  0.5900E+02
     18.507  0.9888E+00  0.5918E+02
     18.626  0.1516E+01  0.5943E+02
     18.746  0.8442E+00  0.5960E+02
     18.865  0.1307E+01  0.5980E+02
     18.985  0.9810E+00  0.5998E+02
     19.104  0.1045E+01  0.6016E+02
     19.223  0.1169E+01  0.6038E+02
     19.343  0.1046E+01  0.6055E+02
     19.462  0.1012E+01  0.6072E+02
     19.582  0.8931E+00  0.6088E+02
     19.701  0.1115E+01  0.6106E+02
     19.821  0.8393E+00  0.6123E+02
     19.940  0.1050E+01  0.6139E+02
     20.060  0.6603E+00  0.6152E+02
     20.179  0.7698E+00  0.6169E+02
     20.299  0.7714E+00  0.6183E+02
     20.418  0.6405E+00  0.6195E+02
     20.538  0.6479E+00  0.6205E+02
     20.657  0.5808E+00  0.6214E+02
     20.777  0.7890E+00  0.6227E+02
     20.896  0.3941E+00  0.6237E+02
     21.016  0.3403E+00  0.6243E+02
     21.135  0.5694E+00  0.6252E+02
     21.255  0.5613E+00  0.6263E+02
     21.374  0.4508E+00  0.6270E+02
     21.494  0.3405E+00  0.6276E+02
     21.613  0.2886E+00  0.6280E+02
     21.733  0.4570E+00  0.6290E+02
     21.852  0.3742E+00  0.6297E+02
     21.971  0.3418E+00  0.6302E+02
     22.091  0.1395E+00  0.6304E+02
     22.210  0.4872E+00  0.6312E+02
     22.330  0.3713E+00  0.6320E+02
     22.449  0.1162E+00  0.6323E+02
     22.569  0.2372E+00  0.6326E+02
     22.688  0.1891E+00  0.6331E+02
     22.808  0.3633E+00  0.6336E+02
     22.927  0.8721E-01  0.6339E+02
     23.047  0.1692E+00  0.6342E+02
     23.166  0.2049E+00  0.6346E+02
     23.286  0.2018E+00  0.6349E+02
     23.405  0.1407E+00  0.6353E+02
     23.525  0.8718E-01  0.6356E+02
     23.644  0.9098E-01  0.6357E+02
     23.764  0.3390E+00  0.6362E+02
     23.883  0.1792E+00  0.6365E+02
     24.003  0.1350E-10  0.6366E+02
     24.122  0.2287E+00  0.6369E+02
     24.242  0.4619E-01  0.6369E+02
     24.361  0.2060E+00  0.6373E+02
     24.481  0.1453E+00  0.6375E+02
     24.600  0.1529E+00  0.6377E+02
     24.719  0.2078E-09  0.6378E+02
     24.839  0.1613E+00  0.6380E+02
     24.958  0.1769E+00  0.6383E+02
     25.078  0.0000E+00  0.6384E+02
     25.197  0.4669E-01  0.6385E+02
     25.317  0.2906E-01  0.6386E+02
     25.436  0.9498E-01  0.6388E+02
     25.556  0.1242E+00  0.6390E+02
     25.675  0.8718E-01  0.6391E+02
     25.795  0.5812E-01  0.6391E+02
     25.914  0.2906E-01  0.6392E+02
     26.034  0.1162E+00  0.6393E+02
     26.153  0.1218E+00  0.6395E+02
     26.273  0.5761E-01  0.6396E+02
     26.392  0.4282E-02  0.6396E+02
     26.512  0.2906E-01  0.6397E+02
     26.631  0.2892E-01  0.6397E+02
     26.751  0.8958E-01  0.6398E+02
     26.870  0.3875E-01  0.6399E+02
     26.990  0.2814E-01  0.6399E+02
     27.109  0.4531E-02  0.6400E+02
     27.229  0.9687E-02  0.6400E+02
     27.348  0.0000E+00  0.6400E+02
     27.467  0.0000E+00  0.6400E+02
     27.587  0.0000E+00  0.6400E+02
     27.706  0.0000E+00  0.6400E+02
     27.826  0.0000E+00  0.6400E+02
     27.945  0.0000E+00  0.6400E+02
     28.065  0.0000E+00  0.6400E+02
     28.184  0.0000E+00  0.6400E+02
     28.304  0.0000E+00  0.6400E+02
     28.423  0.0000E+00  0.6400E+02
     28.543  0.0000E+00  0.6400E+02
     28.662  0.0000E+00  0.6400E+02
     28.782  0.0000E+00  0.6400E+02
