    4    4    1    1
  0.1063949E+02  0.3491351E-09  0.3491351E-09  0.3491351E-09  0.5000000E-15
  1.000000000000000E-004
  CAR 
 unknown system                          
   44  455   32
 
  0.0000000E+00  0.0000000E+00  0.0000000E+00  0.7233796E-04
   1       -5.4326
   2       -0.8142
   3       -0.8142
   4       -0.8142
   5       -0.2902
   6       -0.2902
   7       -0.2902
   8        1.3459
   9        1.3459
  10        1.3459
  11        2.3195
  12        2.3195
  13        2.9648
  14        2.9648
  15        2.9648
  16        3.1463
  17        3.1463
  18        3.1463
  19        3.1463
  20        3.1463
  21        3.1463
  22        6.1810
  23        6.1810
  24        6.1810
  25       12.6250
  26       12.6250
  27       12.6250
  28       18.7809
  29       18.7809
  30       18.7809
  31       18.7809
  32       18.7809
 
  0.4166667E-01  0.0000000E+00  0.0000000E+00  0.4340278E-03
   1       -5.4098
   2       -0.8134
   3       -0.8029
   4       -0.8029
   5       -0.2837
   6       -0.2833
   7       -0.2833
   8        1.3385
   9        1.3518
  10        1.3518
  11        2.3127
  12        2.3222
  13        2.9560
  14        2.9560
  15        2.9619
  16        3.0975
  17        3.0975
  18        3.1359
  19        3.1359
  20        3.1463
  21        3.1463
  22        6.0403
  23        6.2495
  24        6.2495
  25       12.6320
  26       12.6320
  27       12.8086
  28       18.6140
  29       18.6140
  30       18.6856
  31       18.6856
  32       18.8152
 
  0.8333333E-01  0.0000000E+00  0.0000000E+00  0.4340278E-03
   1       -5.3414
   2       -0.8119
   3       -0.7694
   4       -0.7694
   5       -0.2641
   6       -0.2624
   7       -0.2624
   8        1.3162
   9        1.3693
  10        1.3693
  11        2.2925
  12        2.3302
  13        2.9298
  14        2.9298
  15        2.9535
  16        2.9630
  17        2.9630
  18        3.1052
  19        3.1052
  20        3.1463
  21        3.1463
  22        5.6616
  23        6.4434
  24        6.4434
  25       12.6533
  26       12.6533
  27       13.3169
  28       18.1766
  29       18.1766
  30       18.4201
  31       18.4201
  32       18.9174
 
  0.1250000E+00  0.0000000E+00  0.0000000E+00  0.4340278E-03
   1       -5.2280
   2       -0.8129
   3       -0.7148
   4       -0.7148
   5       -0.2317
   6       -0.2275
   7       -0.2275
   8        1.2797
   9        1.3985
  10        1.3985
  11        2.2594
  12        2.3435
  13        2.7688
  14        2.7688
  15        2.8869
  16        2.8869
  17        2.9396
  18        3.0553
  19        3.0553
  20        3.1464
  21        3.1464
  22        5.1345
  23        6.7364
  24        6.7364
  25       12.6893
  26       12.6893
  27       14.0627
  28       17.5812
  29       17.5812
  30       18.0320
  31       18.0320
  32       19.0865
 
  0.1666667E+00  0.0000000E+00  0.0000000E+00  0.4340278E-03
   1       -5.0702
   2       -0.8220
   3       -0.6412
   4       -0.6412
   5       -0.1870
   6       -0.1784
   7       -0.1784
   8        1.2295
   9        1.4390
  10        1.4390
  11        2.2146
  12        2.3617
  13        2.5403
  14        2.5403
  15        2.8284
  16        2.8284
  17        2.9205
  18        2.9878
  19        2.9878
  20        3.1465
  21        3.1465
  22        4.5397
  23        7.1030
  24        7.1030
  25       12.7408
  26       12.7408
  27       14.9693
  28       16.9084
  29       16.9084
  30       17.5725
  31       17.5725
  32       19.3204
 
  0.2083333E+00  0.0000000E+00  0.0000000E+00  0.4340278E-03
   1       -4.8691
   2       -0.8483
   3       -0.5515
   4       -0.5515
   5       -0.1307
   6       -0.1151
   7       -0.1151
   8        1.1668
   9        1.4907
  10        1.4907
  11        2.1594
  12        2.2960
  13        2.2960
  14        2.3847
  15        2.7561
  16        2.7561
  17        2.8966
  18        2.9051
  19        2.9051
  20        3.1466
  21        3.1466
  22        3.9347
  23        7.5246
  24        7.5246
  25       12.8090
  26       12.8090
  27       15.9859
  28       16.2018
  29       16.2018
  30       17.0825
  31       17.0825
  32       19.6166
 
  0.2500000E+00  0.0000000E+00  0.0000000E+00  0.4340278E-03
   1       -4.6262
   2       -0.9046
   3       -0.4496
   4       -0.4496
   5       -0.0635
   6       -0.0372
   7       -0.0372
   8        1.0928
   9        1.5532
  10        1.5532
  11        2.0476
  12        2.0476
  13        2.0960
  14        2.4121
  15        2.6727
  16        2.6727
  17        2.8097
  18        2.8097
  19        2.8683
  20        3.1467
  21        3.1467
  22        3.3615
  23        7.9890
  24        7.9890
  25       12.8948
  26       12.8948
  27       15.4844
  28       15.4844
  29       16.5911
  30       16.5911
  31       17.0805
  32       19.9721
 
  0.2916667E+00  0.0000000E+00  0.0000000E+00  0.4340278E-03
   1       -4.3437
   2       -1.0075
   3       -0.3408
   4       -0.3408
   5        0.0136
   6        0.0554
   7        0.0554
   8        1.0089
   9        1.6261
  10        1.6261
  11        1.8027
  12        1.8027
  13        2.0270
  14        2.4433
  15        2.5824
  16        2.5824
  17        2.7042
  18        2.7042
  19        2.8361
  20        2.8533
  21        3.1468
  22        3.1468
  23        8.4885
  24        8.4885
  25       12.9993
  26       12.9993
  27       14.7686
  28       14.7686
  29       16.1185
  30       16.1185
  31       18.2319
  32       20.3836
 
  0.3333333E+00  0.0000000E+00  0.0000000E+00  0.4340278E-03
   1       -4.0244
   2       -1.1743
   3       -0.2320
   4       -0.2320
   5        0.0993
   6        0.1629
   7        0.1629
   8        0.9167
   9        1.5660
  10        1.5660
  11        1.7087
  12        1.7087
  13        1.9561
  14        2.4370
  15        2.4779
  16        2.4905
  17        2.4905
  18        2.5915
  19        2.5915
  20        2.8005
  21        3.1469
  22        3.1469
  23        9.0180
  24        9.0180
  25       13.1224
  26       13.1224
  27       14.0612
  28       14.0612
  29       15.6791
  30       15.6791
  31       19.4243
  32       20.8478
 
  0.3750000E+00  0.0000000E+00  0.0000000E+00  0.4340278E-03
   1       -3.6724
   2       -1.4156
   3       -0.1313
   4       -0.1313
   5        0.1925
   6        0.2855
   7        0.2855
   8        0.8181
   9        1.3404
  10        1.3404
  11        1.8004
  12        1.8004
  13        1.8882
  14        2.1290
  15        2.4043
  16        2.4043
  17        2.4743
  18        2.4743
  19        2.5153
  20        2.7622
  21        3.1471
  22        3.1471
  23        9.5741
  24        9.5741
  25       13.2621
  26       13.2621
  27       13.3665
  28       13.3665
  29       15.2848
  30       15.2848
  31       20.6435
  32       21.3612
 
  0.4166667E+00  0.0000000E+00  0.0000000E+00  0.4340278E-03
   1       -3.2933
   2       -1.7279
   3       -0.0486
   4       -0.0486
   5        0.2917
   6        0.4234
   7        0.4234
   8        0.7147
   9        1.1277
  10        1.1277
  11        1.8300
  12        1.9001
  13        1.9001
  14        1.9287
  15        2.3325
  16        2.3325
  17        2.3551
  18        2.3551
  19        2.5550
  20        2.7220
  21        3.1471
  22        3.1471
  23       10.1545
  24       10.1545
  25       12.6870
  26       12.6870
  27       13.4098
  28       13.4098
  29       14.9510
  30       14.9510
  31       21.8743
  32       21.9205
 
  0.4583333E+00  0.0000000E+00  0.0000000E+00  0.4340278E-03
   1       -2.8952
   2       -2.0937
   3        0.0064
   4        0.0064
   5        0.3952
   6        0.5767
   7        0.5767
   8        0.6085
   9        0.9291
  10        0.9291
  11        1.7902
  12        1.8204
  13        2.0069
  14        2.0069
  15        2.2361
  16        2.2361
  17        2.2844
  18        2.2844
  19        2.5962
  20        2.6804
  21        3.1472
  22        3.1472
  23       10.7572
  24       10.7572
  25       12.0248
  26       12.0248
  27       13.5407
  28       13.5407
  29       14.7068
  30       14.7068
  31       22.5226
  32       22.5226
 
  0.5000000E+00  0.0000000E+00  0.0000000E+00  0.2170139E-03
   1       -2.4899
   2       -2.4899
   3        0.0257
   4        0.0257
   5        0.5014
   6        0.5014
   7        0.7453
   8        0.7453
   9        0.7453
  10        0.7453
  11        1.7814
  12        1.7814
  13        2.1194
  14        2.1194
  15        2.1194
  16        2.1194
  17        2.2674
  18        2.2674
  19        2.6382
  20        2.6382
  21        3.1472
  22        3.1472
  23       11.3811
  24       11.3811
  25       11.3811
  26       11.3811
  27       13.5987
  28       13.5987
  29       14.6107
  30       14.6107
  31       23.1643
  32       23.1643
 
  0.4166667E-01  0.4166667E-01  0.0000000E+00  0.8680556E-03
   1       -5.3870
   2       -0.8020
   3       -0.8020
   4       -0.7917
   5       -0.2767
   6       -0.2767
   7       -0.2764
   8        1.3341
   9        1.3546
  10        1.3575
  11        2.3107
  12        2.3202
  13        2.9473
  14        2.9521
  15        2.9521
  16        3.0572
  17        3.0874
  18        3.0874
  19        3.1359
  20        3.1359
  21        3.1397
  22        6.1087
  23        6.1087
  24        6.3162
  25       12.6390
  26       12.8165
  27       12.8165
  28       18.2318
  29       18.6475
  30       18.6475
  31       18.7194
  32       18.7194
 
  0.8333333E-01  0.4166667E-01  0.0000000E+00  0.1736111E-02
   1       -5.3187
   2       -0.8003
   3       -0.7683
   4       -0.7584
   5       -0.2572
   6       -0.2559
   7       -0.2557
   8        1.3135
   9        1.3705
  10        1.3746
  11        2.2925
  12        2.3267
  13        2.9130
  14        2.9214
  15        2.9310
  16        2.9400
  17        2.9643
  18        3.0580
  19        3.1052
  20        3.1359
  21        3.1361
  22        5.7305
  23        6.3015
  24        6.5054
  25       12.6601
  26       12.8404
  27       13.3268
  28       17.6717
  29       18.2085
  30       18.4527
  31       18.7474
  32       18.7902
 
  0.1250000E+00  0.4166667E-01  0.0000000E+00  0.1736111E-02
   1       -5.2054
   2       -0.8010
   3       -0.7135
   4       -0.7041
   5       -0.2250
   6       -0.2212
   7       -0.2211
   8        1.2776
   9        1.3992
  10        1.4030
  11        2.2601
  12        2.3401
  13        2.7435
  14        2.7468
  15        2.8790
  16        2.8921
  17        2.9168
  18        3.0128
  19        3.0552
  20        3.1352
  21        3.1360
  22        5.2061
  23        6.5914
  24        6.7928
  25       12.6957
  26       12.8809
  27       14.0744
  28       17.0321
  29       17.6117
  30       18.0632
  31       18.5187
  32       18.9124
 
  0.1666667E+00  0.4166667E-01  0.0000000E+00  0.1736111E-02
   1       -5.0478
   2       -0.8097
   3       -0.6394
   4       -0.6309
   5       -0.1806
   6       -0.1725
   7       -0.1724
   8        1.2279
   9        1.4396
  10        1.4424
  11        2.2159
  12        2.3589
  13        2.5198
  14        2.5207
  15        2.8210
  16        2.8315
  17        2.8731
  18        2.9617
  19        2.9878
  20        3.1349
  21        3.1360
  22        4.6182
  23        6.9522
  24        7.1542
  25       12.7465
  26       12.9390
  27       14.9825
  28       16.3568
  29       16.9379
  30       17.6021
  31       18.1084
  32       19.1404
 
  0.2083333E+00  0.4166667E-01  0.0000000E+00  0.1736111E-02
   1       -4.8470
   2       -0.8354
   3       -0.5491
   4       -0.5416
   5       -0.1245
   6       -0.1097
   7       -0.1093
   8        1.1657
   9        1.4912
  10        1.4924
  11        2.1616
  12        2.2761
  13        2.2810
  14        2.3826
  15        2.7495
  16        2.7587
  17        2.7950
  18        2.9050
  19        2.9174
  20        3.1349
  21        3.1361
  22        4.0279
  23        7.3652
  24        7.5713
  25       12.8127
  26       13.0157
  27       15.6710
  28       15.9998
  29       16.2307
  30       17.1106
  31       17.6260
  32       19.4286
 
  0.2500000E+00  0.4166667E-01  0.0000000E+00  0.1736111E-02
   1       -4.6044
   2       -0.8910
   3       -0.4466
   4       -0.4402
   5       -0.0577
   6       -0.0328
   7       -0.0318
   8        1.0921
   9        1.5524
  10        1.5536
  11        2.0285
  12        2.0364
  13        2.0998
  14        2.4108
  15        2.6669
  16        2.6753
  17        2.6788
  18        2.8095
  19        2.8775
  20        3.1350
  21        3.1361
  22        3.4863
  23        7.8179
  24        8.0321
  25       12.8940
  26       13.1123
  27       14.9904
  28       15.5131
  29       16.6181
  30       17.0942
  31       17.1178
  32       19.7736
 
  0.2916667E+00  0.4166667E-01  0.0000000E+00  0.1736111E-02
   1       -4.3223
   2       -0.9932
   3       -0.3370
   4       -0.3317
   5        0.0190
   6        0.0585
   7        0.0603
   8        1.0088
   9        1.6211
  10        1.6264
  11        1.7847
  12        1.7946
  13        2.0339
  14        2.4431
  15        2.5118
  16        2.5775
  17        2.5849
  18        2.7041
  19        2.8298
  20        3.0546
  21        3.1352
  22        3.1362
  23        8.3026
  24        8.5286
  25       12.9856
  26       13.2298
  27       14.3280
  28       14.7972
  29       16.1448
  30       16.6136
  31       18.2437
  32       20.1716
 
  0.3333333E+00  0.4166667E-01  0.0000000E+00  0.1736111E-02
   1       -4.0035
   2       -1.1592
   3       -0.2272
   4       -0.2229
   5        0.1043
   6        0.1642
   7        0.1672
   8        0.9172
   9        1.5493
  10        1.5605
  11        1.6951
  12        1.7089
  13        1.9706
  14        2.2804
  15        2.4789
  16        2.4865
  17        2.4930
  18        2.5914
  19        2.7104
  20        2.8407
  21        3.1353
  22        3.1362
  23        8.8140
  24        9.0556
  25       13.0531
  26       13.3682
  27       13.7228
  28       14.0900
  29       15.7057
  30       16.1331
  31       19.4293
  32       20.6186
 
  0.3750000E+00  0.4166667E-01  0.0000000E+00  0.1736111E-02
   1       -3.6520
   2       -1.3997
   3       -0.1255
   4       -0.1221
   5        0.1970
   6        0.2844
   7        0.2892
   8        0.8191
   9        1.3252
  10        1.3369
  11        1.7603
  12        1.8005
  13        1.9278
  14        2.0455
  15        2.4012
  16        2.4065
  17        2.4742
  18        2.5176
  19        2.5412
  20        2.7810
  21        3.1355
  22        3.1362
  23        9.3483
  24        9.6097
  25       12.8307
  26       13.3956
  27       13.4420
  28       13.5237
  29       15.3148
  30       15.6908
  31       20.6178
  32       21.1101
 
  0.4166667E+00  0.4166667E-01  0.0000000E+00  0.1736111E-02
   1       -3.2735
   2       -1.7111
   3       -0.0416
   4       -0.0391
   5        0.2957
   6        0.4196
   7        0.4263
   8        0.7164
   9        1.1142
  10        1.1260
  11        1.7746
  12        1.8750
  13        1.9002
  14        1.9536
  15        2.3304
  16        2.3342
  17        2.3549
  18        2.3981
  19        2.5588
  20        2.7349
  21        3.1357
  22        3.1361
  23        9.9028
  24       10.1883
  25       12.2680
  26       12.7167
  27       13.5329
  28       13.6827
  29       14.9929
  30       15.3001
  31       21.6204
  32       21.6414
 
  0.4583333E+00  0.4166667E-01  0.0000000E+00  0.1736111E-02
   1       -2.8761
   2       -2.0762
   3        0.0145
   4        0.0158
   5        0.3986
   6        0.5701
   7        0.5787
   8        0.6108
   9        0.9176
  10        0.9288
  11        1.7528
  12        1.7800
  13        2.0069
  14        2.0408
  15        2.2360
  16        2.2689
  17        2.2834
  18        2.2854
  19        2.6016
  20        2.6900
  21        3.1359
  22        3.1361
  23       10.4752
  24       10.7897
  25       11.6634
  26       12.0552
  27       13.6829
  28       13.8020
  29       14.7881
  30       14.9817
  31       22.2072
  32       22.2938
 
  0.5000000E+00  0.4166667E-01  0.0000000E+00  0.8680556E-03
   1       -2.4716
   2       -2.4716
   3        0.0347
   4        0.0347
   5        0.5043
   6        0.5043
   7        0.7361
   8        0.7361
   9        0.7462
  10        0.7462
  11        1.7461
  12        1.7461
  13        2.1194
  14        2.1194
  15        2.1494
  16        2.1494
  17        2.2674
  18        2.2674
  19        2.6455
  20        2.6455
  21        3.1360
  22        3.1360
  23       11.0631
  24       11.0631
  25       11.4124
  26       11.4124
  27       13.8019
  28       13.8019
  29       14.7837
  30       14.7837
  31       22.8019
  32       22.8083
 
  0.8333333E-01  0.8333333E-01  0.0000000E+00  0.8680556E-03
   1       -5.2507
   2       -0.7661
   3       -0.7661
   4       -0.7256
   5       -0.2367
   6       -0.2367
   7       -0.2355
   8        1.2994
   9        1.3805
  10        1.3904
  11        2.2850
  12        2.3238
  13        2.8290
  14        2.8704
  15        2.8704
  16        2.8964
  17        2.9605
  18        2.9605
  19        3.1052
  20        3.1052
  21        3.1201
  22        5.9226
  23        5.9226
  24        6.6829
  25       12.6806
  26       13.3565
  27       13.3565
  28       16.9956
  29       18.3036
  30       18.3036
  31       18.5502
  32       18.5502
 
  0.1250000E+00  0.8333333E-01  0.0000000E+00  0.1736111E-02
   1       -5.1378
   2       -0.7658
   3       -0.7103
   4       -0.6723
   5       -0.2050
   6       -0.2025
   7       -0.2018
   8        1.2681
   9        1.4051
  10        1.4164
  11        2.2586
  12        2.3335
  13        2.6646
  14        2.6900
  15        2.8053
  16        2.8553
  17        2.8985
  18        2.9481
  19        3.0551
  20        3.1051
  21        3.1106
  22        5.4016
  23        6.2069
  24        6.9559
  25       12.7148
  26       13.4068
  27       14.1099
  28       16.2883
  29       17.7026
  30       18.1563
  31       18.4606
  32       18.7116
 
  0.1666667E+00  0.8333333E-01  0.0000000E+00  0.1736111E-02
   1       -4.9808
   2       -0.7732
   3       -0.6350
   4       -0.6003
   5       -0.1612
   6       -0.1546
   7       -0.1543
   8        1.2212
   9        1.4435
  10        1.4524
  11        2.2176
  12        2.3526
  13        2.4603
  14        2.4624
  15        2.7163
  16        2.7991
  17        2.8368
  18        2.9272
  19        2.9875
  20        3.1050
  21        3.1059
  22        4.8242
  23        6.5558
  24        7.3034
  25       12.7622
  26       13.4785
  27       15.0222
  28       15.5789
  29       17.0258
  30       17.6907
  31       18.6771
  32       18.8231
 
  0.2083333E+00  0.8333333E-01  0.0000000E+00  0.1736111E-02
   1       -4.7807
   2       -0.7972
   3       -0.5430
   4       -0.5124
   5       -0.1060
   6       -0.0938
   7       -0.0922
   8        1.1611
   9        1.4939
  10        1.4976
  11        2.1665
  12        2.2192
  13        2.2353
  14        2.3781
  15        2.6004
  16        2.7297
  17        2.7640
  18        2.8981
  19        2.9047
  20        3.1037
  21        3.1049
  22        4.2535
  23        6.9503
  24        7.7084
  25       12.8201
  26       13.5728
  27       14.8859
  28       16.0415
  29       16.3170
  30       17.1951
  31       18.4445
  32       18.9501
 
  0.2500000E+00  0.8333333E-01  0.0000000E+00  0.1736111E-02
   1       -4.5391
   2       -0.8508
   3       -0.4384
   4       -0.4123
   5       -0.0402
   6       -0.0195
   7       -0.0158
   8        1.0895
   9        1.5506
  10        1.5556
  11        1.9736
  12        2.0024
  13        2.1091
  14        2.4089
  15        2.4529
  16        2.6496
  17        2.6808
  18        2.8091
  19        2.8597
  20        3.1026
  21        3.1048
  22        3.7396
  23        7.3787
  24        8.1589
  25       12.8777
  26       13.6906
  27       14.2298
  28       15.5985
  29       16.6994
  30       17.1348
  31       17.9860
  32       19.2759
 
  0.2916667E+00  0.8333333E-01  0.0000000E+00  0.1736111E-02
   1       -4.2582
   2       -0.9507
   3       -0.3264
   4       -0.3048
   5        0.0353
   6        0.0680
   7        0.0749
   8        1.0079
   9        1.6082
  10        1.6279
  11        1.7329
  12        1.7701
  13        2.0510
  14        2.2715
  15        2.4444
  16        2.5626
  17        2.5907
  18        2.7036
  19        2.8079
  20        3.1021
  21        3.1046
  22        3.3251
  23        7.8336
  24        8.6469
  25       12.8783
  26       13.6731
  27       13.8319
  28       14.8825
  29       16.2250
  30       17.4964
  31       18.2766
  32       19.6505
 
  0.3333333E+00  0.8333333E-01  0.0000000E+00  0.1736111E-02
   1       -3.9407
   2       -1.1143
   3       -0.2137
   4       -0.1963
   5        0.1193
   6        0.1683
   7        0.1802
   8        0.9182
   9        1.5012
  10        1.5436
  11        1.6631
  12        1.7100
  13        2.0031
  14        2.0712
  15        2.4743
  16        2.4839
  17        2.4987
  18        2.5909
  19        2.7293
  20        3.0384
  21        3.1021
  22        3.1044
  23        8.3103
  24        9.1669
  25       12.6082
  26       13.4332
  27       13.9935
  28       14.1759
  29       15.7896
  30       17.0063
  31       19.4311
  32       20.0695
 
  0.3750000E+00  0.8333333E-01  0.0000000E+00  0.1736111E-02
   1       -3.5909
   2       -1.3524
   3       -0.1088
   4       -0.0949
   5        0.2105
   6        0.2815
   7        0.3002
   8        0.8220
   9        1.2814
  10        1.3264
  11        1.6980
  12        1.8012
  13        1.8893
  14        1.9864
  15        2.3917
  16        2.4117
  17        2.4737
  18        2.5270
  19        2.6073
  20        2.8782
  21        3.1022
  22        3.1041
  23        8.8057
  24        9.7152
  25       12.0854
  26       13.4826
  27       13.4936
  28       14.1615
  29       15.4173
  30       16.5353
  31       20.4737
  32       20.5282
 
  0.4166667E+00  0.8333333E-01  0.0000000E+00  0.1736111E-02
   1       -3.2143
   2       -1.6614
   3       -0.0213
   4       -0.0111
   5        0.3076
   6        0.4085
   7        0.4350
   8        0.7211
   9        1.0754
  10        1.1207
  11        1.6977
  12        1.7592
  13        1.9006
  14        2.0220
  15        2.3238
  16        2.3382
  17        2.3545
  18        2.4644
  19        2.5731
  20        2.7911
  21        3.1024
  22        3.1038
  23        9.3179
  24       10.2890
  25       11.5147
  26       12.8053
  27       13.6491
  28       14.2832
  29       15.1672
  30       16.0971
  31       21.0219
  32       21.2050
 
  0.4583333E+00  0.8333333E-01  0.0000000E+00  0.1736111E-02
   1       -2.8190
   2       -2.0239
   3        0.0382
   4        0.0439
   5        0.4088
   6        0.5506
   7        0.5847
   8        0.6174
   9        0.8843
  10        0.9280
  11        1.6781
  12        1.6889
  13        2.0071
  14        2.1013
  15        2.2357
  16        2.2798
  17        2.2873
  18        2.3284
  19        2.6218
  20        2.7281
  21        3.1028
  22        3.1035
  23        9.8458
  24       10.8864
  25       10.9458
  26       12.1459
  27       13.8460
  28       14.2448
  29       15.1571
  30       15.7038
  31       21.5456
  32       21.8170
 
  0.5000000E+00  0.8333333E-01  0.0000000E+00  0.8680556E-03
   1       -2.4169
   2       -2.4169
   3        0.0613
   4        0.0613
   5        0.5127
   6        0.5127
   7        0.7092
   8        0.7092
   9        0.7491
  10        0.7491
  11        1.6678
  12        1.6678
  13        2.1193
  14        2.1193
  15        2.2063
  16        2.2063
  17        2.2667
  18        2.2667
  19        2.6731
  20        2.6731
  21        3.1031
  22        3.1031
  23       10.3887
  24       10.3887
  25       11.5059
  26       11.5059
  27       14.0610
  28       14.0610
  29       15.3740
  30       15.3740
  31       22.0945
  32       22.0945
 
  0.1250000E+00  0.1250000E+00  0.0000000E+00  0.8680556E-03
   1       -5.0256
   2       -0.7085
   3       -0.7085
   4       -0.6204
   5       -0.1715
   6       -0.1715
   7       -0.1697
   8        1.2446
   9        1.4230
  10        1.4386
  11        2.2446
  12        2.3348
  13        2.5322
  14        2.6070
  15        2.6070
  16        2.8163
  17        2.8969
  18        2.8969
  19        3.0549
  20        3.0549
  21        3.0877
  22        5.6834
  23        5.6834
  24        7.2105
  25       12.7453
  26       14.1696
  27       14.1696
  28       15.5383
  29       17.8525
  30       17.8525
  31       18.3106
  32       18.3106
 
  0.1666667E+00  0.1250000E+00  0.0000000E+00  0.1736111E-02
   1       -4.8696
   2       -0.7137
   3       -0.6310
   4       -0.5504
   5       -0.1289
   6       -0.1247
   7       -0.1246
   8        1.2046
   9        1.4557
  10        1.4689
  11        2.2127
  12        2.3505
  13        2.3580
  14        2.3748
  15        2.4999
  16        2.7631
  17        2.8374
  18        2.8845
  19        2.9872
  20        3.0546
  21        3.0720
  22        5.1085
  23        6.0217
  24        7.5393
  25       12.7827
  26       14.2541
  27       14.8096
  28       15.0884
  29       17.1709
  30       17.8379
  31       18.0591
  32       18.5251
 
  0.2083333E+00  0.1250000E+00  0.0000000E+00  0.1736111E-02
   1       -4.6708
   2       -0.7349
   3       -0.5363
   4       -0.4648
   5       -0.0751
   6       -0.0671
   7       -0.0639
   8        1.1498
   9        1.5025
  10        1.5063
  11        2.1316
  12        2.1578
  13        2.1681
  14        2.3682
  15        2.3772
  16        2.6971
  17        2.7660
  18        2.8604
  19        2.9042
  20        3.0543
  21        3.0624
  22        4.5437
  23        6.3982
  24        7.9272
  25       12.8107
  26       14.1302
  27       14.3639
  28       16.1102
  29       16.4591
  30       17.3364
  31       18.3194
  32       18.7994
 
  0.2500000E+00  0.1250000E+00  0.0000000E+00  0.1736111E-02
   1       -4.4308
   2       -0.7851
   3       -0.4282
   4       -0.3670
   5       -0.0110
   6        0.0028
   7        0.0106
   8        1.0825
   9        1.5486
  10        1.5618
  11        1.8889
  12        1.9448
  13        2.1175
  14        2.2124
  15        2.4119
  16        2.6207
  17        2.6841
  18        2.8085
  19        2.8235
  20        3.0539
  21        3.0566
  22        4.0332
  23        6.8025
  24        8.3630
  25       12.7523
  26       13.5839
  27       14.4983
  28       15.7394
  29       16.8373
  30       17.1992
  31       18.6298
  32       18.8939
 
  0.2916667E+00  0.1250000E+00  0.0000000E+00  0.1736111E-02
   1       -4.1519
   2       -0.8811
   3       -0.3120
   4       -0.2614
   5        0.0625
   6        0.0841
   7        0.0990
   8        1.0048
   9        1.5914
  10        1.6323
  11        1.6528
  12        1.7285
  13        2.0392
  14        2.0690
  15        2.4529
  16        2.5378
  17        2.5949
  18        2.7029
  19        2.7716
  20        3.0533
  21        3.0534
  22        3.6084
  23        7.2288
  24        8.8385
  25       12.4086
  26       13.3742
  27       14.6532
  28       15.0232
  29       16.3656
  30       18.3170
  31       18.4595
  32       18.9865
 
  0.3333333E+00  0.1250000E+00  0.0000000E+00  0.1736111E-02
   1       -3.8368
   2       -1.0408
   3       -0.1945
   4       -0.1534
   5        0.1442
   6        0.1758
   7        0.2015
   8        0.9186
   9        1.4270
  10        1.5150
  11        1.6256
  12        1.7132
  13        1.8672
  14        2.0350
  15        2.4536
  16        2.4992
  17        2.5034
  18        2.5902
  19        2.7000
  20        3.0515
  21        3.0528
  22        3.2851
  23        7.6737
  24        9.3480
  25       11.8612
  26       13.4227
  27       14.3174
  28       14.8109
  29       15.9529
  30       17.9924
  31       19.3592
  32       19.3853
 
  0.3750000E+00  0.1250000E+00  0.0000000E+00  0.1736111E-02
   1       -3.4897
   2       -1.2749
   3       -0.0839
   4       -0.0509
   5        0.2330
   6        0.2774
   7        0.3183
   8        0.8259
   9        1.2139
  10        1.3084
  11        1.6382
  12        1.7234
  13        1.8035
  14        2.0328
  15        2.3753
  16        2.4161
  17        2.4731
  18        2.5503
  19        2.6034
  20        3.0505
  21        3.0523
  22        3.0606
  23        8.1358
  24        9.8874
  25       11.2808
  26       13.5606
  27       13.6259
  28       14.8972
  29       15.6825
  30       17.5237
  31       19.8221
  32       20.1052
 
  0.4166667E+00  0.1250000E+00  0.0000000E+00  0.1736111E-02
   1       -3.1163
   2       -1.5798
   3        0.0098
   4        0.0347
   5        0.3273
   6        0.3906
   7        0.4493
   8        0.7284
   9        1.0151
  10        1.1115
  11        1.6245
  12        1.6276
  13        1.9021
  14        2.0724
  15        2.3118
  16        2.3412
  17        2.3541
  18        2.4858
  19        2.6059
  20        2.9134
  21        3.0502
  22        3.0517
  23        8.6144
  24       10.4539
  25       10.7096
  26       12.9512
  27       13.7460
  28       14.7691
  29       15.7028
  30       17.0720
  31       20.2929
  32       20.6784
 
  0.4583333E+00  0.1250000E+00  0.0000000E+00  0.1736111E-02
   1       -2.7248
   2       -1.9380
   3        0.0757
   4        0.0897
   5        0.4257
   6        0.5192
   7        0.5945
   8        0.6280
   9        0.8321
  10        0.9262
  11        1.5826