  32  32   0   0
  0.1030698E+02  0.6909190E-09  0.6909190E-09  0.6909190E-09  0.5000000E-15
  1.000000000000000E-004
  CAR 
 unknown system                          
     17.22288838     -6.46137210  301      5.10740717      1.00000000
     -6.461  0.0000E+00  0.0000E+00
     -6.382  0.0000E+00  0.0000E+00
     -6.303  0.0000E+00  0.0000E+00
     -6.225  0.0000E+00  0.0000E+00
     -6.146  0.0000E+00  0.0000E+00
     -6.067  0.0000E+00  0.0000E+00
     -5.988  0.0000E+00  0.0000E+00
     -5.909  0.0000E+00  0.0000E+00
     -5.830  0.0000E+00  0.0000E+00
     -5.751  0.0000E+00  0.0000E+00
     -5.672  0.0000E+00  0.0000E+00
     -5.593  0.0000E+00  0.0000E+00
     -5.514  0.0000E+00  0.0000E+00
     -5.435  0.4446E-13  0.3510E-14
     -5.356  0.7386E-01  0.5831E-02
     -5.277  0.4432E+00  0.4082E-01
     -5.198  0.8891E+00  0.1110E+00
     -5.119  0.6524E+00  0.1625E+00
     -5.040  0.1634E+01  0.2915E+00
     -4.961  0.1748E+01  0.4703E+00
     -4.882  0.8858E-08  0.4723E+00
     -4.803  0.8864E+00  0.5423E+00
     -4.725  0.2242E+01  0.7193E+00
     -4.646  0.2401E+01  0.9088E+00
     -4.567  0.1682E+01  0.1042E+01
     -4.488  0.1772E+01  0.1184E+01
     -4.409  0.3545E+01  0.1464E+01
     -4.330  0.8209E-02  0.1464E+01
     -4.251  0.2492E+01  0.1661E+01
     -4.172  0.3523E+01  0.1985E+01
     -4.093  0.1773E+01  0.2128E+01
     -4.014  0.1795E+01  0.2270E+01
     -3.935  0.4693E+01  0.2641E+01
     -3.856  0.1417E-09  0.2688E+01
     -3.777  0.1773E+01  0.2828E+01
     -3.698  0.2339E+01  0.3013E+01
     -3.619  0.6819E+01  0.3551E+01
     -3.540  0.7594E-05  0.3609E+01
     -3.461  0.5321E+01  0.4029E+01
     -3.382  0.3542E+01  0.4309E+01
     -3.303  0.8609E+00  0.4377E+01
     -3.225  0.3998E+01  0.4695E+01
     -3.146  0.4248E+01  0.5030E+01
     -3.067  0.4605E+01  0.5393E+01
     -2.988  0.2162E+01  0.5564E+01
     -2.909  0.4929E+01  0.5953E+01
     -2.830  0.2964E+01  0.6187E+01
     -2.751  0.5698E+01  0.6683E+01
     -2.672  0.4938E+01  0.7073E+01
     -2.593  0.4328E+01  0.7415E+01
     -2.514  0.4860E+01  0.7877E+01
     -2.435  0.5909E+00  0.7959E+01
     -2.356  0.7284E+01  0.8534E+01
     -2.277  0.3495E+01  0.8830E+01
     -2.198  0.3188E+01  0.9082E+01
     -2.119  0.1185E+02  0.1002E+02
     -2.040  0.4312E+01  0.1036E+02
     -1.961  0.4909E+01  0.1075E+02
     -1.882  0.3235E+01  0.1101E+02
     -1.803  0.7048E+01  0.1156E+02
     -1.725  0.6664E+01  0.1209E+02
     -1.646  0.5614E+01  0.1259E+02
     -1.567  0.8031E+01  0.1322E+02
     -1.488  0.1143E+02  0.1413E+02
     -1.409  0.7570E+01  0.1472E+02
     -1.330  0.6549E+01  0.1524E+02
     -1.251  0.5596E+01  0.1568E+02
     -1.172  0.1127E+02  0.1657E+02
     -1.093  0.1829E+02  0.1804E+02
     -1.014  0.9679E+01  0.1882E+02
     -0.935  0.1368E+02  0.1991E+02
     -0.856  0.1506E+02  0.2110E+02
     -0.777  0.2146E+02  0.2285E+02
     -0.698  0.2619E+02  0.2501E+02
     -0.619  0.3742E+02  0.2799E+02
     -0.540  0.2744E+02  0.3016E+02
     -0.461  0.3095E+02  0.3269E+02
     -0.382  0.4298E+02  0.3620E+02
     -0.303  0.2788E+02  0.3846E+02
     -0.225  0.3180E+02  0.4114E+02
     -0.146  0.4101E+02  0.4455E+02
     -0.067  0.3715E+02  0.4751E+02
      0.012  0.6358E+02  0.5258E+02
      0.091  0.5243E+02  0.5701E+02
      0.170  0.5350E+02  0.6137E+02
      0.249  0.7206E+02  0.6729E+02
      0.328  0.5553E+02  0.7187E+02
      0.407  0.6281E+02  0.7702E+02
      0.486  0.5024E+02  0.8109E+02
      0.565  0.5471E+02  0.8566E+02
      0.644  0.5586E+02  0.9027E+02
      0.723  0.5850E+02  0.9492E+02
      0.802  0.4174E+02  0.9843E+02
      0.881  0.4408E+02  0.1021E+03
      0.960  0.7891E+02  0.1085E+03
      1.039  0.5240E+02  0.1128E+03
      1.118  0.7635E+02  0.1190E+03
      1.197  0.7596E+02  0.1252E+03
      1.275  0.9116E+02  0.1329E+03
      1.354  0.6494E+02  0.1383E+03
      1.433  0.8628E+02  0.1453E+03
      1.512  0.1038E+03  0.1538E+03
      1.591  0.1007E+03  0.1618E+03
      1.670  0.1029E+03  0.1702E+03
      1.749  0.1129E+03  0.1793E+03
      1.828  0.1132E+03  0.1885E+03
      1.907  0.8129E+02  0.1952E+03
      1.986  0.8267E+02  0.2017E+03
      2.065  0.6306E+02  0.2070E+03
      2.144  0.5928E+02  0.2119E+03
      2.223  0.5983E+02  0.2168E+03
      2.302  0.8406E+02  0.2235E+03
      2.381  0.8650E+02  0.2305E+03
      2.460  0.9530E+02  0.2383E+03
      2.539  0.8616E+02  0.2455E+03
      2.618  0.9169E+02  0.2528E+03
      2.697  0.9288E+02  0.2603E+03
      2.775  0.6115E+02  0.2654E+03
      2.854  0.9138E+02  0.2727E+03
      2.933  0.8933E+02  0.2800E+03
      3.012  0.7009E+02  0.2857E+03
      3.091  0.1002E+03  0.2937E+03
      3.170  0.1057E+03  0.3021E+03
      3.249  0.1709E+03  0.3162E+03
      3.328  0.1496E+03  0.3282E+03
      3.407  0.5758E+02  0.3328E+03
      3.486  0.2574E+02  0.3349E+03
      3.565  0.2709E+02  0.3371E+03
      3.644  0.7658E+01  0.3378E+03
      3.723  0.8613E+01  0.3385E+03
      3.802  0.7153E+01  0.3391E+03
      3.881  0.1097E+02  0.3399E+03
      3.960  0.1952E+02  0.3415E+03
      4.039  0.8854E+01  0.3422E+03
      4.118  0.5840E+01  0.3427E+03
      4.197  0.6700E+01  0.3433E+03
      4.275  0.5347E+01  0.3438E+03
      4.354  0.2109E+02  0.3455E+03
      4.433  0.6316E+01  0.3460E+03
      4.512  0.1058E+02  0.3469E+03
      4.591  0.8152E+01  0.3475E+03
      4.670  0.3678E+01  0.3479E+03
      4.749  0.1176E+02  0.3488E+03
      4.828  0.9591E+01  0.3496E+03
      4.907  0.1321E+02  0.3506E+03
      4.986  0.2811E+01  0.3510E+03
      5.065  0.1038E+02  0.3518E+03
      5.144  0.3664E+01  0.3521E+03
      5.223  0.1213E+02  0.3531E+03
      5.302  0.3555E+01  0.3534E+03
      5.381  0.5717E+01  0.3539E+03
      5.460  0.1976E+02  0.3554E+03
      5.539  0.2852E+01  0.3556E+03
      5.618  0.2071E+02  0.3573E+03
      5.697  0.3804E+01  0.3576E+03
      5.775  0.1350E+01  0.3577E+03
      5.854  0.2759E+01  0.3580E+03
      5.933  0.1237E+02  0.3589E+03
      6.012  0.5124E+01  0.3594E+03
      6.091  0.4112E+01  0.3597E+03
      6.170  0.1096E+02  0.3606E+03
      6.249  0.1224E+02  0.3617E+03
      6.328  0.1158E+02  0.3627E+03
      6.407  0.1935E-02  0.3627E+03
      6.486  0.7327E+01  0.3633E+03
      6.565  0.1069E+02  0.3642E+03
      6.644  0.7298E+01  0.3647E+03
      6.723  0.5867E+01  0.3652E+03
      6.802  0.7748E+01  0.3658E+03
      6.881  0.3733E+01  0.3661E+03
      6.960  0.5550E+01  0.3666E+03
      7.039  0.9119E+01  0.3673E+03
      7.118  0.1309E+02  0.3683E+03
      7.197  0.3110E-01  0.3684E+03
      7.275  0.1660E+02  0.3697E+03
      7.354  0.2402E+01  0.3699E+03
      7.433  0.1087E+02  0.3708E+03
      7.512  0.1730E+01  0.3711E+03
      7.591  0.1094E+00  0.3711E+03
      7.670  0.1230E+02  0.3721E+03
      7.749  0.6746E+01  0.3726E+03
      7.828  0.2575E+01  0.3728E+03
      7.907  0.4363E-05  0.3728E+03
      7.986  0.1289E+02  0.3739E+03
      8.065  0.4806E+01  0.3742E+03
      8.144  0.1056E+02  0.3751E+03
      8.223  0.0000E+00  0.3751E+03
      8.302  0.4400E+01  0.3754E+03
      8.381  0.3235E+01  0.3758E+03
      8.460  0.1463E+02  0.3769E+03
      8.539  0.6917E+01  0.3775E+03
      8.618  0.0000E+00  0.3775E+03
      8.697  0.4182E-01  0.3775E+03
      8.776  0.5354E+01  0.3779E+03
      8.854  0.4028E+01  0.3782E+03
      8.933  0.5314E+01  0.3786E+03
      9.012  0.7090E+01  0.3792E+03
      9.091  0.2639E+01  0.3794E+03
      9.170  0.4599E+01  0.3798E+03
      9.249  0.2366E+01  0.3800E+03
      9.328  0.8249E+01  0.3807E+03
      9.407  0.1645E+01  0.3808E+03
      9.486  0.3646E-01  0.3808E+03
      9.565  0.5599E+01  0.3813E+03
      9.644  0.2554E+01  0.3815E+03
      9.723  0.1170E+02  0.3824E+03
      9.802  0.9742E+01  0.3832E+03
      9.881  0.6219E+01  0.3838E+03
      9.960  0.1833E+01  0.3841E+03
     10.039  0.5403E+01  0.3846E+03
     10.118  0.8237E+01  0.3852E+03
     10.197  0.1732E+02  0.3866E+03
     10.276  0.4747E+01  0.3870E+03
     10.354  0.1120E+02  0.3878E+03
     10.433  0.7139E+01  0.3884E+03
     10.512  0.9190E+01  0.3891E+03
     10.591  0.9352E+01  0.3899E+03
     10.670  0.6801E+01  0.3904E+03
     10.749  0.8930E+01  0.3911E+03
     10.828  0.1165E+02  0.3921E+03
     10.907  0.8856E+01  0.3928E+03
     10.986  0.7090E+01  0.3933E+03
     11.065  0.1448E+02  0.3945E+03
     11.144  0.4081E+01  0.3949E+03
     11.223  0.4099E+01  0.3952E+03
     11.302  0.5778E+01  0.3957E+03
     11.381  0.1252E+02  0.3967E+03
     11.460  0.4837E+01  0.3971E+03
     11.539  0.7091E+01  0.3977E+03
     11.618  0.1166E+02  0.3986E+03
     11.697  0.3645E+01  0.3989E+03
     11.776  0.5217E+01  0.3994E+03
     11.854  0.1506E+02  0.4005E+03
     11.933  0.8417E+01  0.4012E+03
     12.012  0.3545E+01  0.4015E+03
     12.091  0.6629E+01  0.4021E+03
     12.170  0.7109E+01  0.4027E+03
     12.249  0.1055E+02  0.4036E+03
     12.328  0.3589E+01  0.4038E+03
     12.407  0.2543E+01  0.4040E+03
     12.486  0.9786E+01  0.4048E+03
     12.565  0.7975E+01  0.4054E+03
     12.644  0.2187E+01  0.4056E+03
     12.723  0.8675E+01  0.4063E+03
     12.802  0.5090E+01  0.4067E+03
     12.881  0.1032E+02  0.4075E+03
     12.960  0.2371E+01  0.4077E+03
     13.039  0.7846E+01  0.4084E+03
     13.118  0.1086E+02  0.4093E+03
     13.197  0.6034E+01  0.4098E+03
     13.276  0.9540E+01  0.4105E+03
     13.354  0.7407E+01  0.4111E+03
     13.433  0.9515E+01  0.4119E+03
     13.512  0.9966E+01  0.4127E+03
     13.591  0.1452E+01  0.4129E+03
     13.670  0.6102E+01  0.4133E+03
     13.749  0.7360E+01  0.4140E+03
     13.828  0.9109E+01  0.4147E+03
     13.907  0.1366E+02  0.4158E+03
     13.986  0.1790E+02  0.4172E+03
     14.065  0.1077E+02  0.4181E+03
     14.144  0.2749E+01  0.4183E+03
     14.223  0.9106E+01  0.4190E+03
     14.302  0.9529E+01  0.4198E+03
     14.381  0.7085E+01  0.4203E+03
     14.460  0.1246E+02  0.4213E+03
     14.539  0.9849E+01  0.4221E+03
     14.618  0.8294E+01  0.4228E+03
     14.697  0.1705E+02  0.4241E+03
     14.776  0.4259E+01  0.4245E+03
     14.854  0.1469E+02  0.4256E+03
     14.933  0.6567E+01  0.4261E+03
     15.012  0.7571E+01  0.4268E+03
     15.091  0.1350E+02  0.4278E+03
     15.170  0.7592E+01  0.4284E+03
     15.249  0.9043E+01  0.4292E+03
     15.328  0.9804E+01  0.4299E+03
     15.407  0.4369E+01  0.4304E+03
     15.486  0.7972E+01  0.4310E+03
     15.565  0.1511E+01  0.4312E+03
     15.644  0.4818E+01  0.4316E+03
     15.723  0.0000E+00  0.4316E+03
     15.802  0.0000E+00  0.4316E+03
     15.881  0.5258E-01  0.4316E+03
     15.960  0.2902E+01  0.4319E+03
     16.039  0.0000E+00  0.4319E+03
     16.118  0.5354E-04  0.4319E+03
     16.197  0.1773E+01  0.4320E+03
     16.276  0.0000E+00  0.4320E+03
     16.354  0.0000E+00  0.4320E+03
     16.433  0.0000E+00  0.4320E+03
     16.512  0.0000E+00  0.4320E+03
     16.591  0.0000E+00  0.4320E+03
     16.670  0.0000E+00  0.4320E+03
     16.749  0.0000E+00  0.4320E+03
     16.828  0.0000E+00  0.4320E+03
     16.907  0.0000E+00  0.4320E+03
     16.986  0.0000E+00  0.4320E+03
     17.065  0.0000E+00  0.4320E+03
     17.144  0.0000E+00  0.4320E+03
     17.223  0.0000E+00  0.4320E+03
