 vasp.4.6.28 25Jul05 complex 
 executed on             LinuxIFC date 2017.01.16  16:15:46
 running on    4 nodes
 distr:  one band on    1 nodes,    4 groups


--------------------------------------------------------------------------------------------------------


 INCAR:
 POTCAR:   PAW_PBE Ag 06Sep2000                   
 POTCAR:   PAW_PBE Ag 06Sep2000                   
   VRHFIN =Ag : s1 d10                                                          
   LEXCH  = PE                                                                  
   EATOM  =  1037.4134 eV,   76.2477 Ry                                         
                                                                                
   TITEL  = PAW_PBE Ag 06Sep2000                                                
   LULTRA =        F    use ultrasoft PP ?                                      
   IUNSCR =        1    unscreen: 0-lin 1-nonlin 2-no                           
   RPACOR =    2.000    partial core radius                                     
   POMASS =  107.868; ZVAL   =   11.000    mass and valenz                      
   RCORE  =    2.400    outmost cutoff radius                                   
   RWIGS  =    2.840; RWIGS  =    1.503    wigner-seitz radius (au A)           
   ENMAX  =  249.846; ENMIN  =  187.385 eV                                      
   RCLOC  =    1.962    cutoff for local pot                                    
   LCOR   =        T    correct aug charges                                     
   LPAW   =        T    paw PP                                                  
   EAUG   =  412.496                                                            
   DEXC   =    -.047                                                            
   RMAX   =    2.917    core radius for proj-oper                               
   RAUG   =    1.300    factor for augmentation sphere                          
   RDEP   =    2.416    radius for radial grids                                 
   QCUT   =   -4.285; QGAM   =    8.570    optimization parameters              
                                                                                
   Description                                                                  
     l     E      TYP  RCUT    TYP  RCUT                                        
     2   .000     23  2.400                                                     
     2   .000     23  2.400                                                     
     0   .000     23  2.400                                                     
     0   .000     23  2.400                                                     
     1  -.200     23  2.400                                                     
     1  1.500     23  2.400                                                     
     3   .000      7   .000                                                     
  local pseudopotential read in
  partial core-charges read in
  atomic valenz-charges read in
  non local Contribution for L=           2  read in
    real space projection operators read in
  non local Contribution for L=           2  read in
    real space projection operators read in
  non local Contribution for L=           0  read in
    real space projection operators read in
  non local Contribution for L=           0  read in
    real space projection operators read in
  non local Contribution for L=           1  read in
    real space projection operators read in
  non local Contribution for L=           1  read in
    real space projection operators read in
    PAW grid and wavefunctions read in
 
   number of l-projection  operators is LMAX  =           6
   number of lm-projection operators is LMMAX =          18
 

 ----------------------------------------------------------------------------- 
|                                                                             |
|  ADVICE TO THIS USER RUNNING 'VASP/VAMP'   (HEAR YOUR MASTER'S VOICE ...):  |
|                                                                             |
|      You have a (more or less) 'large supercell' and for larger cells       |
|      it might be more efficient to use real space projection operators      |
|      So try LREAL= Auto  in the INCAR   file.                               |
|      Mind: If you want to do an extremely accurate calculations keep the    |
|      reciprocal projection scheme          (i.e. LREAL=.FALSE.)             |
|                                                                             |
 ----------------------------------------------------------------------------- 

 PAW_PBE Ag 06Sep2000                   :
 energy of atom  1       EATOM=-1037.4134
 kinetic energy error for atom=    0.0019 (will be added to EATOM!!)
 
 EXHCAR: internal setup
 exchange correlation table for  LEXCH =        8
   RHO(1)=    0.500       N(1)  =     2000
   RHO(2)=  100.500       N(2)  =     4000
 
 POSCAR: No title                                
  positions in direct lattice
  No initial velocities read in
 


--------------------------------------------------------------------------------------------------------


 ion  position               nearest neighbor table
   1  0.750  0.750  0.500-   3 2.94  14 2.94  19 2.94  20 2.94   5 2.94  26 2.94   6 2.94  29 2.94
                            11 2.94  18 2.94  10 2.94   8 2.94
   2  0.750  0.750  0.000-  12 2.93  10 2.94   8 2.94  22 2.94  27 2.94  11 2.94  18 2.94  32 2.94
                             5 2.94  26 2.94   3 2.94  20 2.94
   3  0.750  0.000  0.250-  12 2.93   5 2.94   9 2.94   1 2.94  28 2.94  19 2.94  13 2.94  18 2.94
                            27 2.94   6 2.94   4 2.94   2 2.94
   4  0.750  0.250  0.500-   6 2.94   8 2.94  10 2.94  29 2.94  13 2.94  31 2.94  14 2.94  19 2.94
                            21 2.94  28 2.94   3 2.94  20 2.94
   5  0.000  0.750  0.250-   3 2.94  14 2.94  25 2.94  15 2.94   1 2.94  16 2.94  10 2.94   7 2.94
                             2 2.94  22 2.94   6 2.94  12 2.94
   6  0.000  0.000  0.500-   4 2.94   7 2.94  11 2.94  13 2.94   8 2.94  16 2.94   1 2.94  17 2.94
                             3 2.94  23 2.94  21 2.94   5 2.94
   7  0.250  0.750  0.500-   6 2.94  16 2.94  29 2.94  30 2.94  11 2.94  18 2.94  14 2.94  19 2.94
                             5 2.94  26 2.94  25 2.94  23 2.94
   8  0.750  0.000  0.750-  12 2.93   4 2.94  11 2.94   2 2.94  31 2.94  27 2.94   6 2.94  21 2.94
                            26 2.94  19 2.94   9 2.94   1 2.94
   9  0.750  0.250  0.000-  12 2.93   3 2.94  20 2.94  32 2.94  28 2.94  21 2.94  22 2.94  27 2.94
                            31 2.94  13 2.94  10 2.94   8 2.94
  10  0.750  0.500  0.250-   2 2.94   4 2.94  13 2.94  18 2.94  22 2.94  29 2.94  28 2.94   5 2.94
                            14 2.94  32 2.94   9 2.94   1 2.94
  11  0.000  0.750  0.750-   6 2.94   8 2.94  22 2.94  30 2.94   7 2.94   2 2.94  23 2.94  20 2.94
                             1 2.94  15 2.94  14 2.94  12 2.94
  12  0.998  0.000  0.000-   3 2.93   9 2.93   8 2.93   2 2.93   5 2.94  21 2.94  11 2.94  13 2.94
                            15 2.96  23 2.96  16 2.96  24 2.96
  13  0.000  0.250  0.250-   6 2.94  10 2.94  16 2.94  22 2.94   4 2.94  24 2.94   3 2.94  25 2.94
                            17 2.94   9 2.94  14 2.94  12 2.94
  14  0.000  0.500  0.500-   1 2.94   5 2.94  17 2.94  21 2.94  20 2.94  25 2.94   4 2.94   7 2.94
                            10 2.94  30 2.94  13 2.94  11 2.94
  15  0.250  0.750  0.000-  23 2.94  25 2.94  32 2.94  26 2.94   5 2.94  27 2.94  22 2.94  11 2.94
                            18 2.94  30 2.94  16 2.94  12 2.96
  16  0.250  0.000  0.250-   7 2.94  13 2.94  18 2.94  24 2.94   6 2.94  27 2.94   5 2.94  28 2.94
                            19 2.94  17 2.94  15 2.94  12 2.96
  17  0.250  0.250  0.500-  14 2.94  19 2.94  23 2.94  25 2.94  21 2.94  28 2.94   6 2.94  29 2.94
                            13 2.94  31 2.94  30 2.94  16 2.94
  18  0.500  0.750  0.250-  10 2.94  16 2.94  27 2.94  29 2.94   2 2.94   7 2.94   3 2.94  25 2.94
                             1 2.94  15 2.94  19 2.94  32 2.94
  19  0.500  0.000  0.500-   1 2.94  17 2.94  26 2.94  28 2.94   3 2.94  23 2.94   4 2.94   7 2.94
                             8 2.94  16 2.94  18 2.94  31 2.94
  20  0.750  0.500  0.750-   1 2.94   9 2.94  21 2.94  26 2.94  14 2.94  32 2.94  31 2.94  11 2.94
                            22 2.94  29 2.94   4 2.94   2 2.94
  21  0.000  0.250  0.750-  14 2.94  20 2.94  23 2.94   9 2.94  17 2.94   8 2.94  30 2.94  24 2.94
                             4 2.94  22 2.94   6 2.94  12 2.94
  22  0.000  0.500  0.000-   2 2.94  11 2.94  13 2.94  24 2.94  10 2.94  30 2.94   9 2.94  15 2.94
                            25 2.94  20 2.94  21 2.94   5 2.94
  23  0.250  0.000  0.750-  15 2.94  17 2.94  21 2.94  26 2.94  19 2.94  11 2.94  31 2.94  27 2.94
                             6 2.94  24 2.94   7 2.94  12 2.96
  24  0.250  0.250  0.000-  16 2.94  22 2.94  27 2.94  30 2.94  13 2.94  31 2.94  32 2.94  28 2.94
                            21 2.94  25 2.94  23 2.94  12 2.96
  25  0.250  0.500  0.250-   5 2.94  15 2.94  17 2.94  28 2.94  14 2.94  32 2.94  13 2.94  18 2.94
                            29 2.94  22 2.94  24 2.94   7 2.94
  26  0.500  0.750  0.750-  19 2.94  20 2.94  23 2.94  32 2.94   1 2.94  15 2.94  30 2.94   8 2.94
                             7 2.94   2 2.94  27 2.94  29 2.94
  27  0.500  0.000  0.000-   2 2.94  18 2.94  24 2.94  31 2.94  16 2.94   8 2.94   9 2.94  15 2.94
                             3 2.94  23 2.94  28 2.94  26 2.94
  28  0.500  0.250  0.250-   3 2.94  19 2.94  25 2.94  32 2.94  17 2.94   9 2.94  10 2.94  16 2.94
                             4 2.94  24 2.94  29 2.94  27 2.94
  29  0.500  0.500  0.500-   4 2.94   7 2.94  18 2.94  31 2.94  30 2.94  10 2.94  17 2.94   1 2.94
                            20 2.94  25 2.94  26 2.94  28 2.94
  30  0.250  0.500  0.750-   7 2.94  11 2.94  24 2.94  31 2.94  29 2.94  22 2.94  21 2.94  26 2.94
                            14 2.94  32 2.94  17 2.94  15 2.94
  31  0.500  0.250  0.750-   8 2.94  27 2.94  29 2.94  30 2.94  24 2.94   4 2.94  20 2.94  23 2.94
                             9 2.94  17 2.94  19 2.94  32 2.94
  32  0.500  0.500  0.000-   9 2.94  15 2.94  26 2.94  28 2.94  20 2.94  25 2.94  24 2.94   2 2.94
                            10 2.94  30 2.94  18 2.94  31 2.94
 
  LATTYP: Found a simple cubic cell.
 ALAT       =     8.3275382500
  
  Lattice vectors:
  
 A1 = (   8.3275382500,   0.0000000000,   0.0000000000)
 A2 = (   0.0000001500,   8.3275382500,   0.0000000000)
 A3 = (   0.0000001500,   0.0000001500,   8.3275382500)
 Subroutine PRICEL returns:
 Original cell was already a primitive cell.
 

Analysis of symmetry for initial positions (statically):

 Routine SETGRP: Setting up the symmetry group for a 
 simple cubic supercell.


 Subroutine GETGRP returns: Found  8 space group operations
 (whereof  8 operations were pure point group operations)
 out of a pool of 48 trial point group operations.


The static configuration has the point symmetry C_4v.

Analysis of symmetry for dynamics (positions and initial velocities):

 Subroutine DYNSYM returns: Found  8 space group operations
 (whereof  8 operations were pure point group operations)
 out of a pool of  8 trial space group operations
 (whereof  8 operations were pure point group operations)
 and found also     1 'primitive' translations


The dynamic configuration has the point symmetry C_4v.
 
 
 KPOINTS: Automatic mesh                          

Automatic generation of k-mesh.
 
 Subroutine IBZKPT returns following result:
 ===========================================
 
 Found     40 irreducible k-points:
 
 Following reciprocal coordinates:
            Coordinates               Weight
  0.062500  0.062500  0.062500      8.000000
  0.187500  0.062500  0.062500      8.000000
  0.312500  0.062500  0.062500      8.000000
  0.437500  0.062500  0.062500      8.000000
  0.062500  0.187500  0.062500     16.000000
  0.187500  0.187500  0.062500     16.000000
  0.312500  0.187500  0.062500     16.000000
  0.437500  0.187500  0.062500     16.000000
  0.062500  0.312500  0.062500     16.000000
  0.187500  0.312500  0.062500     16.000000
  0.312500  0.312500  0.062500     16.000000
  0.437500  0.312500  0.062500     16.000000
  0.062500  0.437500  0.062500     16.000000
  0.187500  0.437500  0.062500     16.000000
  0.312500  0.437500  0.062500     16.000000
  0.437500  0.437500  0.062500     16.000000
  0.062500  0.187500  0.187500      8.000000
  0.187500  0.187500  0.187500      8.000000
  0.312500  0.187500  0.187500      8.000000
  0.437500  0.187500  0.187500      8.000000
  0.062500  0.312500  0.187500     16.000000
  0.187500  0.312500  0.187500     16.000000
  0.312500  0.312500  0.187500     16.000000
  0.437500  0.312500  0.187500     16.000000
  0.062500  0.437500  0.187500     16.000000
  0.187500  0.437500  0.187500     16.000000
  0.312500  0.437500  0.187500     16.000000
  0.437500  0.437500  0.187500     16.000000
  0.062500  0.312500  0.312500      8.000000
  0.187500  0.312500  0.312500      8.000000
  0.312500  0.312500  0.312500      8.000000
  0.437500  0.312500  0.312500      8.000000
  0.062500  0.437500  0.312500     16.000000
  0.187500  0.437500  0.312500     16.000000
  0.312500  0.437500  0.312500     16.000000
  0.437500  0.437500  0.312500     16.000000
  0.062500  0.437500  0.437500      8.000000
  0.187500  0.437500  0.437500      8.000000
  0.312500  0.437500  0.437500      8.000000
  0.437500  0.437500  0.437500      8.000000
 
 Following cartesian coordinates:
            Coordinates               Weight
  0.007505  0.007505  0.007505      8.000000
  0.022516  0.007505  0.007505      8.000000
  0.037526  0.007505  0.007505      8.000000
  0.052537  0.007505  0.007505      8.000000
  0.007505  0.022516  0.007505     16.000000
  0.022516  0.022516  0.007505     16.000000
  0.037526  0.022516  0.007505     16.000000
  0.052537  0.022516  0.007505     16.000000
  0.007505  0.037526  0.007505     16.000000
  0.022516  0.037526  0.007505     16.000000
  0.037526  0.037526  0.007505     16.000000
  0.052537  0.037526  0.007505     16.000000
  0.007505  0.052537  0.007505     16.000000
  0.022516  0.052537  0.007505     16.000000
  0.037526  0.052537  0.007505     16.000000
  0.052537  0.052537  0.007505     16.000000
  0.007505  0.022516  0.022516      8.000000
  0.022516  0.022516  0.022516      8.000000
  0.037526  0.022516  0.022516      8.000000
  0.052537  0.022516  0.022516      8.000000
  0.007505  0.037526  0.022516     16.000000
  0.022516  0.037526  0.022516     16.000000
  0.037526  0.037526  0.022516     16.000000
  0.052537  0.037526  0.022516     16.000000
  0.007505  0.052537  0.022516     16.000000
  0.022516  0.052537  0.022516     16.000000
  0.037526  0.052537  0.022516     16.000000
  0.052537  0.052537  0.022516     16.000000
  0.007505  0.037526  0.037526      8.000000
  0.022516  0.037526  0.037526      8.000000
  0.037526  0.037526  0.037526      8.000000
  0.052537  0.037526  0.037526      8.000000
  0.007505  0.052537  0.037526     16.000000
  0.022516  0.052537  0.037526     16.000000
  0.037526  0.052537  0.037526     16.000000
  0.052537  0.052537  0.037526     16.000000
  0.007505  0.052537  0.052537      8.000000
  0.022516  0.052537  0.052537      8.000000
  0.037526  0.052537  0.052537      8.000000
  0.052537  0.052537  0.052537      8.000000
 


--------------------------------------------------------------------------------------------------------




 Dimension of arrays:
   k-Points           NKPTS =     40   number of bands    NBANDS=    212
   number of dos      NEDOS =    301   number of ions     NIONS =     32
   non local maximal  LDIM  =      6   non local SUM 2l+1 LMDIM =     18
   total plane-waves  NPLWV = 343000
   max r-space proj   IRMAX =      1   max aug-charges    IRDMAX= 233799
   dimension x,y,z NGX =    70 NGY =   70 NGZ =   70
   dimension x,y,z NGXF=   140 NGYF=  140 NGZF=  140
   support grid    NGXF=   280 NGYF=  280 NGZF=  280
   ions per type =              32
 NGX,Y,Z   is equivalent  to a cutoff of  13.97, 13.97, 13.97 a.u.
 NGXF,Y,Z  is equivalent  to a cutoff of  27.95, 27.95, 27.95 a.u.


 I would recommend the setting:
   dimension x,y,z NGX =    67 NGY =   67 NGZ =   67
 SYSTEM =  No title                                
 POSCAR =  No title                                

 Startparameter for this run:
   NWRITE =      2    write-flag & timer
   PREC   = accura    medium, high low
   ISTART =      1    job   : 0-new  1-cont  2-samecut
   ICHARG =      0    charge: 1-file 2-atom 10-const
   ISPIN  =      1    spin polarized calculation?
   LNONCOLLINEAR =      F non collinear calculations
   LSORBIT =      F    spin-orbit coupling
   INIWAV =      1    electr: 0-lowe 1-rand  2-diag
   LASPH  =      F    aspherical Exc in radial PAW
   METAGGA=      F    non-selfconsistent MetaGGA calc.

 Electronic Relaxation 1
   ENCUT  =  600.0 eV  44.10 Ry    6.64 a.u.  16.63 16.63 16.63*2*pi/ulx,y,z
   ENINI  =  600.0     initial cutoff
   ENAUG  =  412.5 eV  augmentation charge cutoff
   NELM   =     60;   NELMIN=  2; NELMDL=  0     # of ELM steps 
   EDIFF  = 0.1E-04   stopping-criterion for ELM
   LREAL  =      F    real-space projection
   LCOMPAT=      F    compatible to vasp.4.4
   LREAL_COMPAT= F    compatible to vasp.4.5.1-3
   GGA_COMPAT  = T    GGA compatible to vasp.4.4-vasp.4.6
   LMAXPAW     = -100 max onsite density
   LMAXMIX     =    2 max onsite mixed and CHGCAR
   VOSKOWN=      1    Vosko Wilk Nusair interpolation
   ROPT   =    0.00000
 Ionic relaxation
   EDIFFG = -.2E-01   stopping-criterion for IOM
   NSW    =      0    number of steps for IOM
   NBLOCK =      1;   KBLOCK =      1    inner block; outer block 
   IBRION =     -1    ionic relax: 0-MD 1-quasi-New 2-CG
   NFREE  =      0    steps in history (QN), initial steepest desc. (CG)
   ISIF   =      2    stress and relaxation
   IWAVPR =     10    prediction:  0-non 1-charg 2-wave 3-comb
   ISYM   =      2    0-nonsym 1-usesym 2-fastsym
   LCORR  =      T    Harris-Foulkes like correction to forces

   POTIM  =   0.50    time-step for ionic-motion
   TEIN   =    0.0    initial temperature
   TEBEG  =    0.0;   TEEND  =   0.0 temperature during run
   SMASS  =  -3.00    Nose mass-parameter (am)
   estimated Nose-frequenzy (Omega)   =  0.10E-29 period in steps =****** mass=  -0.158E-26a.u.
   NPACO  =    256;   APACO  = 16.0  distance and # of slots for P.C.
   PSTRESS=    0.0 pullay stress

  Mass of Ions in am
   POMASS = 107.87
  Ionic Valenz
   ZVAL   =  11.00
  Atomic Wigner-Seitz radii
   RWIGS  =   1.34
   NELECT =     352.0000    total number of electrons
   NUPDOWN=      -1.0000    fix difference up-down

 DOS related values:
   EMIN   =  10.00;   EMAX   =-10.00  energy-range for DOS
   ISMEAR =     1;   SIGMA  =   0.20  broadening in eV -4-tet -1-fermi 0-gaus

 Electronic relaxation 2 (details)
   IALGO  =     48    algorithm
   LDIAG  =      T    sub-space diagonalisation
   IMIX   =      4    mixing-type and parameters
     AMIX     =   0.40;   BMIX     =  1.00
     AMIX_MAG =   1.60;   BMIX_MAG =  1.00
     AMIN     =   0.10
     WC   =   100.;   INIMIX=   1;  MIXPRE=   1

 Intra band minimization:
   WEIMIN = 0.0000     energy-eigenvalue tresh-hold
   EBREAK =  0.12E-07  absolut break condition
   DEPER  =   0.30     relativ break condition  

   TIME   =   0.10     timestep for ELM

  volume/ion in A,a.u.               =      18.05       121.79
  Fermi-wavevector in a.u.,eV,Ry     =   1.388052 26.214188  1.926688

 Second variation
   LSECVAR=     F    do a second variation
 
 Write flags
   LWAVE  =      F    write WAVECAR
   LCHARG =      F    write CHGCAR
   LVTOT  =      F    write LOCPOT, local potential
   LELF   =      F    write electronic localiz. function (ELF)
   LORBIT =      0    0 simple, 1 ext, 2 COOP (PROOUT)


 Dipole corrections
   IDIPOL =      0    1-x, 2-y, 3-z
   LDIPOL =      F    correct potential



--------------------------------------------------------------------------------------------------------


 Static calculation
 charge density will be updated during run
 non-spin polarized calculation
 RMM-DIIS sequential band-by-band
 performe sub-space diagonalisation
    before iterative eigenvector-optimisation
 modified Broyden-mixing scheme, WC =      100.0
 initial mixing is a Kerker type mixing with AMIX =  0.4000 and BMIX =      1.0000
 Hartree-type preconditioning will be used
 using additional bands           36
 reciprocal scheme for non local part
 use partial core corrections
 calculate Harris-corrections to forces 
   (improved forces if not selfconsistent)
 use gradient corrections 
 use of overlap-Matrix (Vanderbilt PP)
 Methfessel and Paxton  Order N= 1 SIGMA  =   0.20


--------------------------------------------------------------------------------------------------------


  energy-cutoff  :      600.00
  volume of cell :      577.50
      direct lattice vectors                 reciprocal lattice vectors
     8.327538250  0.000000000  0.000000000     0.120083507 -0.000000002 -0.000000002
     0.000000150  8.327538250  0.000000000     0.000000000  0.120083507 -0.000000002
     0.000000150  0.000000150  8.327538250     0.000000000  0.000000000  0.120083507

  length of vectors
     8.327538250  8.327538250  8.327538250     0.120083507  0.120083507  0.120083507


 
 old parameters found on file WAVECAR:
  energy-cutoff  :      600.00
  volume of cell :      577.50
      direct lattice vectors                 reciprocal lattice vectors
     8.327538250  0.000000000  0.000000000     0.120083507 -0.000000002 -0.000000002
     0.000000150  8.327538250  0.000000000     0.000000000  0.120083507 -0.000000002
     0.000000150  0.000000150  8.327538250     0.000000000  0.000000000  0.120083507

  length of vectors

 
 k-points in units of 2pi/SCALE and weight: Automatic mesh                          
   0.00750522  0.00750522  0.00750522       0.016
   0.02251566  0.00750522  0.00750522       0.016
   0.03752610  0.00750522  0.00750522       0.016
   0.05253653  0.00750522  0.00750522       0.016
   0.00750522  0.02251566  0.00750522       0.031
   0.02251566  0.02251566  0.00750522       0.031
   0.03752610  0.02251566  0.00750522       0.031
   0.05253653  0.02251566  0.00750522       0.031
   0.00750522  0.03752610  0.00750522       0.031
   0.02251566  0.03752610  0.00750522       0.031
   0.03752610  0.03752610  0.00750522       0.031
   0.05253653  0.03752610  0.00750522       0.031
   0.00750522  0.05253653  0.00750522       0.031
   0.02251566  0.05253653  0.00750522       0.031
   0.03752610  0.05253653  0.00750522       0.031
   0.05253653  0.05253653  0.00750522       0.031
   0.00750522  0.02251566  0.02251566       0.016
   0.02251566  0.02251566  0.02251566       0.016
   0.03752610  0.02251566  0.02251566       0.016
   0.05253653  0.02251566  0.02251566       0.016
   0.00750522  0.03752610  0.02251566       0.031
   0.02251566  0.03752610  0.02251566       0.031
   0.03752610  0.03752610  0.02251566       0.031
   0.05253653  0.03752610  0.02251566       0.031
   0.00750522  0.05253653  0.02251566       0.031
   0.02251566  0.05253653  0.02251566       0.031
   0.03752610  0.05253653  0.02251566       0.031
   0.05253653  0.05253653  0.02251566       0.031
   0.00750522  0.03752610  0.03752610       0.016
   0.02251566  0.03752610  0.03752609       0.016
   0.03752610  0.03752610  0.03752609       0.016
   0.05253653  0.03752610  0.03752609       0.016
   0.00750522  0.05253653  0.03752609       0.031
   0.02251566  0.05253653  0.03752609       0.031
   0.03752610  0.05253653  0.03752609       0.031
   0.05253653  0.05253653  0.03752609       0.031
   0.00750522  0.05253653  0.05253653       0.016
   0.02251566  0.05253653  0.05253653       0.016
   0.03752610  0.05253653  0.05253653       0.016
   0.05253653  0.05253653  0.05253653       0.016
 
 k-points in reciprocal lattice and weights: Automatic mesh                          
   0.06250000  0.06250000  0.06250000       0.016
   0.18750000  0.06250000  0.06250000       0.016
   0.31250000  0.06250000  0.06250000       0.016
   0.43750000  0.06250000  0.06250000       0.016
   0.06250000  0.18750000  0.06250000       0.031
   0.18750000  0.18750000  0.06250000       0.031
   0.31250000  0.18750000  0.06250000       0.031
   0.43750000  0.18750000  0.06250000       0.031
   0.06250000  0.31250000  0.06250000       0.031
   0.18750000  0.31250000  0.06250000       0.031
   0.31250000  0.31250000  0.06250000       0.031
   0.43750000  0.31250000  0.06250000       0.031
   0.06250000  0.43750000  0.06250000       0.031
   0.18750000  0.43750000  0.06250000       0.031
   0.31250000  0.43750000  0.06250000       0.031
   0.43750000  0.43750000  0.06250000       0.031
   0.06250000  0.18750000  0.18750000       0.016
   0.18750000  0.18750000  0.18750000       0.016
   0.31250000  0.18750000  0.18750000       0.016
   0.43750000  0.18750000  0.18750000       0.016
   0.06250000  0.31250000  0.18750000       0.031
   0.18750000  0.31250000  0.18750000       0.031
   0.31250000  0.31250000  0.18750000       0.031
   0.43750000  0.31250000  0.18750000       0.031
   0.06250000  0.43750000  0.18750000       0.031
   0.18750000  0.43750000  0.18750000       0.031
   0.31250000  0.43750000  0.18750000       0.031
   0.43750000  0.43750000  0.18750000       0.031
   0.06250000  0.31250000  0.31250000       0.016
   0.18750000  0.31250000  0.31250000       0.016
   0.31250000  0.31250000  0.31250000       0.016
   0.43750000  0.31250000  0.31250000       0.016
   0.06250000  0.43750000  0.31250000       0.031
   0.18750000  0.43750000  0.31250000       0.031
   0.31250000  0.43750000  0.31250000       0.031
   0.43750000  0.43750000  0.31250000       0.031
   0.06250000  0.43750000  0.43750000       0.016
   0.18750000  0.43750000  0.43750000       0.016
   0.31250000  0.43750000  0.43750000       0.016
   0.43750000  0.43750000  0.43750000       0.016
 
 position of ions in fractional coordinates (direct lattice) 
   0.75000000  0.75000000  0.50000000
   0.75000000  0.75000000  0.00000000
   0.75000000  0.00000000  0.25000000
   0.75000000  0.25000000  0.50000000
   0.00000000  0.75000000  0.25000000
   0.00000000  0.00000000  0.50000000
   0.25000000  0.75000000  0.50000000
   0.75000000  0.00000000  0.75000000
   0.75000000  0.25000000  0.00000000
   0.75000000  0.50000000  0.25000000
   0.00000000  0.75000000  0.75000000
   0.99759800  0.00000000  0.00000000
   0.00000000  0.25000000  0.25000000
   0.00000000  0.50000000  0.50000000
   0.25000000  0.75000000  0.00000000
   0.25000000  0.00000000  0.25000000
   0.25000000  0.25000000  0.50000000
   0.50000000  0.75000000  0.25000000
   0.50000000  0.00000000  0.50000000
   0.75000000  0.50000000  0.75000000
   0.00000000  0.25000000  0.75000000
   0.00000000  0.50000000  0.00000000
   0.25000000  0.00000000  0.75000000
   0.25000000  0.25000000  0.00000000
   0.25000000  0.50000000  0.25000000
   0.50000000  0.75000000  0.75000000
   0.50000000  0.00000000  0.00000000
   0.50000000  0.25000000  0.25000000
   0.50000000  0.50000000  0.50000000
   0.25000000  0.50000000  0.75000000
   0.50000000  0.25000000  0.75000000
   0.50000000  0.50000000  0.00000000
 
 position of ions in cartesian coordinates  (Angst):
   6.24565388  6.24565376  4.16376912
   6.24565380  6.24565369  0.00000000
   6.24565373  0.00000004  2.08188456
   6.24565380  2.08188464  4.16376912
   0.00000015  6.24565373  2.08188456
   0.00000007  0.00000007  4.16376912
   2.08188475  6.24565376  4.16376912
   6.24565380  0.00000011  6.24565369
   6.24565373  2.08188456  0.00000000
   6.24565380  4.16376916  2.08188456
   0.00000022  6.24565380  6.24565369
   8.30753550  0.00000000  0.00000000
   0.00000007  2.08188460  2.08188456
   0.00000015  4.16376920  4.16376912
   2.08188467  6.24565369  0.00000000
   2.08188460  0.00000004  2.08188456
   2.08188467  2.08188464  4.16376912
   4.16376928  6.24565373  2.08188456
   4.16376920  0.00000007  4.16376912
   6.24565388  4.16376924  6.24565369
   0.00000015  2.08188467  6.24565369
   0.00000007  4.16376912  0.00000000
   2.08188467  0.00000011  6.24565369
   2.08188460  2.08188456  0.00000000
   2.08188467  4.16376916  2.08188456
   4.16376935  6.24565380  6.24565369
   4.16376912  0.00000000  0.00000000
   4.16376920  2.08188460  2.08188456
   4.16376927  4.16376920  4.16376912
   2.08188475  4.16376924  6.24565369
   4.16376928  2.08188467  6.24565369
   4.16376920  4.16376912  0.00000000
 


--------------------------------------------------------------------------------------------------------


 k-point  1 :  0.06250.06250.0625  plane waves:  19297
 k-point  2 :  0.18750.06250.0625  plane waves:  19308
 k-point  3 :  0.31250.06250.0625  plane waves:  19302
 k-point  4 :  0.43750.06250.0625  plane waves:  19266
 k-point  5 :  0.06250.18750.0625  plane waves:  19308
 k-point  6 :  0.18750.18750.0625  plane waves:  19292
 k-point  7 :  0.31250.18750.0625  plane waves:  19271
 k-point  8 :  0.43750.18750.0625  plane waves:  19271
 k-point  9 :  0.06250.31250.0625  plane waves:  19302
 k-point 10 :  0.18750.31250.0625  plane waves:  19271
 k-point 11 :  0.31250.31250.0625  plane waves:  19269
 k-point 12 :  0.43750.31250.0625  plane waves:  19255
 k-point 13 :  0.06250.43750.0625  plane waves:  19266
 k-point 14 :  0.18750.43750.0625  plane waves:  19271
 k-point 15 :  0.31250.43750.0625  plane waves:  19255
 k-point 16 :  0.43750.43750.0625  plane waves:  19253
 k-point 17 :  0.06250.18750.1875  plane waves:  19292
 k-point 18 :  0.18750.18750.1875  plane waves:  19291
 k-point 19 :  0.31250.18750.1875  plane waves:  19261
 k-point 20 :  0.43750.18750.1875  plane waves:  19273
 k-point 21 :  0.06250.31250.1875  plane waves:  19271
 k-point 22 :  0.18750.31250.1875  plane waves:  19261
 k-point 23 :  0.31250.31250.1875  plane waves:  19268
 k-point 24 :  0.43750.31250.1875  plane waves:  19274
 k-point 25 :  0.06250.43750.1875  plane waves:  19271
 k-point 26 :  0.18750.43750.1875  plane waves:  19273
 k-point 27 :  0.31250.43750.1875  plane waves:  19274
 k-point 28 :  0.43750.43750.1875  plane waves:  19247
 k-point 29 :  0.06250.31250.3125  plane waves:  19269
 k-point 30 :  0.18750.31250.3125  plane waves:  19268
 k-point 31 :  0.31250.31250.3125  plane waves:  19282
 k-point 32 :  0.43750.31250.3125  plane waves:  19253
 k-point 33 :  0.06250.43750.3125  plane waves:  19255
 k-point 34 :  0.18750.43750.3125  plane waves:  19274
 k-point 35 :  0.31250.43750.3125  plane waves:  19253
 k-point 36 :  0.43750.43750.3125  plane waves:  19276
 k-point 37 :  0.06250.43750.4375  plane waves:  19253
 k-point 38 :  0.18750.43750.4375  plane waves:  19247
 k-point 39 :  0.31250.43750.4375  plane waves:  19276
 k-point 40 :  0.43750.43750.4375  plane waves:  19316

 maximum and minimum number of plane-waves per node :  19316 19247

 maximum number of plane-waves:  19316
 maximal index in each direction: 
   IXMAX= 16   IYMAX= 16   IZMAX= 16
   IXMIN=-17   IYMIN=-17   IZMIN=-17

 NGX is ok and might be reduce to  68
 NGY is ok and might be reduce to  68
 NGZ is ok and might be reduce to  68

 parallel 3dFFT wavefunction:
    minimum data exchange during FFTs selected (reduces bandwidth)
 parallel 3dFFT charge:
    minimum data exchange during FFTs selected (reduces bandwidth)

 For storing wavefunctions 2615.01 MBYTES are necessary
 For predicting wavefunctions  141.80 MBYTES are necessary
Broyden mixing: mesh for mixing (old mesh)
   NGX = 33   NGY = 33   NGZ = 33
  (NGX  =140   NGY  =140   NGZ  =140)
 gives a total of  35937 points
 charge density for first step will be calculated from the start-wavefunctions


--------------------------------------------------------------------------------------------------------


 Maximum index for augmentation-charges        56775 (set IRDMAX)


--------------------------------------------------------------------------------------------------------


 initial charge from wavefunction
 First call to EWALD:  gamma=   0.213
 Maximum number of real-space cells 3x 3x 3
 Maximum number of reciprocal cells 3x 3x 3

    FEWALD:  VPU time    0.00: CPU time    0.00


----------------------------------------- Iteration    1(   1)  ---------------------------------------


    POTLOK:  VPU time    0.53: CPU time    0.53
    SETDIJ:  VPU time    0.66: CPU time    0.66
    EDDIAG:  VPU time   36.81: CPU time   36.80
  RMM-DIIS:  VPU time  190.99: CPU time  190.92
    ORTHCH:  VPU time    4.74: CPU time    4.74
    DOS   :  VPU time    0.00: CPU time   -0.00
    CHARGE:  VPU time   21.46: CPU time   21.46
    MIXING:  VPU time    0.01: CPU time    0.01
    ------------------------------------------
      LOOP:  VPU time  255.28: CPU time  255.18

 eigenvalue-minimisations  : 17403
 total energy-change (2. order) :-0.9227099E+02  (-0.6145366E+02)
 number of electron  352.0000004 magnetization 
 augmentation part   171.8436170 magnetization 

 Broyden mixing:
  rms(total) = 0.77260E+00    rms(broyden)= 0.70353E+00
  rms(prec ) = 0.10298E+01
  weight for this iteration     100.00

 Free energy of the ion-electron system (eV)
  ---------------------------------------------------
  alpha Z        PSCENC =      3148.75227566
  Ewald energy   TEWEN  =    -30697.28762313
  -1/2 Hartree   DENC   =     -6280.27254518
  -V(xc)+E(xc)   XCENC  =      -391.20133231
  PAW double counting   =     26872.25024958   -25447.31377765
  entropy T*S    EENTRO =        -0.01593698
  eigenvalues    EBANDS =      -494.35018204
  atomic energy  EATOM  =     33197.16788402
  ---------------------------------------------------
  free energy    TOTEN  =       -92.27098804 eV

  energy without entropy =      -92.25505106  energy(sigma->0) =      -92.26567571


--------------------------------------------------------------------------------------------------------




----------------------------------------- Iteration    1(   2)  ---------------------------------------


    POTLOK:  VPU time    0.58: CPU time    0.58
    SETDIJ:  VPU time    0.75: CPU time    0.75
    EDDIAG:  VPU time   41.90: CPU time   41.89
  RMM-DIIS:  VPU time  235.37: CPU time  237.24
    ORTHCH:  VPU time    6.65: CPU time    6.65
    DOS   :  VPU time    0.00: CPU time   -0.00
    CHARGE:  VPU time   25.93: CPU time   25.92
    MIXING:  VPU time    0.02: CPU time    0.02
    ------------------------------------------
      LOOP:  VPU time  311.27: CPU time  313.14

 eigenvalue-minimisations  : 17788
 total energy-change (2. order) : 0.1800541E+01  (-0.1300672E+01)
 number of electron  352.0000004 magnetization 
 augmentation part   168.7377340 magnetization 

 Broyden mixing:
  rms(total) = 0.11392E+00    rms(broyden)= 0.11391E+00
  rms(prec ) = 0.13797E+00
  weight for this iteration     100.00

 eigenvalues of (default mixing * dielectric matrix)
  average eigenvalue GAMMA=   0.8940
  0.8940

 Free energy of the ion-electron system (eV)
  ---------------------------------------------------
  alpha Z        PSCENC =      3148.75227566
  Ewald energy   TEWEN  =    -30697.28762313
  -1/2 Hartree   DENC   =     -6399.80976794
  -V(xc)+E(xc)   XCENC  =      -360.61934728
  PAW double counting   =     27374.15474127   -25955.91267050
  entropy T*S    EENTRO =        -0.01393900
  eigenvalues    EBANDS =      -396.90199988
  atomic energy  EATOM  =     33197.16788402
  ---------------------------------------------------
  free energy    TOTEN  =       -90.47044679 eV

  energy without entropy =      -90.45650779  energy(sigma->0) =      -90.46580045


--------------------------------------------------------------------------------------------------------




----------------------------------------- Iteration    1(   3)  ---------------------------------------


    POTLOK:  VPU time    1.30: CPU time    1.30
    SETDIJ:  VPU time    1.20: CPU time    1.20
    EDDIAG:  VPU time   55.86: CPU time   55.84
  RMM-DIIS:  VPU time  281.96: CPU time  281.89
    ORTHCH:  VPU time    6.74: CPU time    6.73
    DOS   :  VPU time    0.00: CPU time   -0.00
    CHARGE:  VPU time   24.53: CPU time   24.52
    MIXING:  VPU time    0.04: CPU time    0.04
    ------------------------------------------
      LOOP:  VPU time  371.71: CPU time  371.62

 eigenvalue-minimisations  : 18234
 total energy-change (2. order) : 0.5059970E-04  (-0.1396419E-01)
 number of electron  352.0000004 magnetization 
 augmentation part   168.8208736 magnetization 

 Broyden mixing:
  rms(total) = 0.64238E-01    rms(broyden)= 0.64238E-01
  rms(prec ) = 0.73200E-01
  weight for this iteration     100.00

 eigenvalues of (default mixing * dielectric matrix)
  average eigenvalue GAMMA=   1.6330
  0.9809  2.2851

 Free energy of the ion-electron system (eV)
  ---------------------------------------------------
  alpha Z        PSCENC =      3148.75227566
  Ewald energy   TEWEN  =    -30697.28762313
  -1/2 Hartree   DENC   =     -6391.31593372
  -V(xc)+E(xc)   XCENC  =      -360.90792448
  PAW double counting   =     27499.31857331   -26081.31707499
  entropy T*S    EENTRO =        -0.01380353
  eigenvalues    EBANDS =      -404.86676932
  atomic energy  EATOM  =     33197.16788402
  ---------------------------------------------------
  free energy    TOTEN  =       -90.47039619 eV

  energy without entropy =      -90.45659266  energy(sigma->0) =      -90.46579501


--------------------------------------------------------------------------------------------------------




----------------------------------------- Iteration    1(   4)  ---------------------------------------


    POTLOK:  VPU time    0.71: CPU time    0.71
    SETDIJ:  VPU time    0.89: CPU time    0.89
    EDDIAG:  VPU time   53.18: CPU time   53.17
  RMM-DIIS:  VPU time  282.74: CPU time  282.67
    ORTHCH:  VPU time    7.23: CPU time    7.23
    DOS   :  VPU time    0.00: CPU time   -0.00
    CHARGE:  VPU time   22.20: CPU time   22.19
    MIXING:  VPU time    0.02: CPU time    0.02
    ------------------------------------------
      LOOP:  VPU time  367.04: CPU time  366.95

 eigenvalue-minimisations  : 18165
 total energy-change (2. order) :-0.4391782E-03  (-0.2653229E-02)
 number of electron  352.0000004 magnetization 
 augmentation part   168.9730711 magnetization 

 Broyden mixing:
  rms(total) = 0.18255E-01    rms(broyden)= 0.18255E-01
  rms(prec ) = 0.25755E-01
  weight for this iteration     100.00

 eigenvalues of (default mixing * dielectric matrix)
  average eigenvalue GAMMA=   1.5469
  2.4924  1.0742  1.0742

 Free energy of the ion-electron system (eV)
  ---------------------------------------------------
  alpha Z        PSCENC =      3148.75227566
  Ewald energy   TEWEN  =    -30697.28762313
  -1/2 Hartree   DENC   =     -6384.14352881
  -V(xc)+E(xc)   XCENC  =      -361.14632797
  PAW double counting   =     27667.99149438   -26250.32633935
  entropy T*S    EENTRO =        -0.01368263
  eigenvalues    EBANDS =      -411.46498754
  atomic energy  EATOM  =     33197.16788402
  ---------------------------------------------------
  free energy    TOTEN  =       -90.47083537 eV

  energy without entropy =      -90.45715274  energy(sigma->0) =      -90.46627449


--------------------------------------------------------------------------------------------------------




----------------------------------------- Iteration    1(   5)  ---------------------------------------


    POTLOK:  VPU time    0.79: CPU time    0.79
    SETDIJ:  VPU time    0.82: CPU time    0.82
    EDDIAG:  VPU time   48.02: CPU time   48.01
  RMM-DIIS:  VPU time  260.97: CPU time  260.93
    ORTHCH:  VPU time    4.48: CPU time    4.48
    DOS   :  VPU time    0.00: CPU time   -0.00
    CHARGE:  VPU time   17.81: CPU time   17.81
    MIXING:  VPU time    0.01: CPU time    0.01
    ------------------------------------------
      LOOP:  VPU time  332.96: CPU time  332.91

 eigenvalue-minimisations  : 18123
 total energy-change (2. order) : 0.3575650E-03  (-0.6199795E-03)
 number of electron  352.0000004 magnetization 
 augmentation part   168.8984022 magnetization 

 Broyden mixing:
  rms(total) = 0.43409E-02    rms(broyden)= 0.43408E-02
  rms(prec ) = 0.63654E-02
  weight for this iteration     100.00

 eigenvalues of (default mixing * dielectric matrix)
  average eigenvalue GAMMA=   1.3999
  2.5333  1.1426  1.0088  0.9151

 Free energy of the ion-electron system (eV)
  ---------------------------------------------------
  alpha Z        PSCENC =      3148.75227566
  Ewald energy   TEWEN  =    -30697.28762313
  -1/2 Hartree   DENC   =     -6387.80599286
  -V(xc)+E(xc)   XCENC  =      -361.01291125
  PAW double counting   =     27739.52815813   -26322.16904182
  entropy T*S    EENTRO =        -0.01374646
  eigenvalues    EBANDS =      -407.62948010
  atomic energy  EATOM  =     33197.16788402
  ---------------------------------------------------
  free energy    TOTEN  =       -90.47047780 eV

  energy without entropy =      -90.45673134  energy(sigma->0) =      -90.46589565


--------------------------------------------------------------------------------------------------------




----------------------------------------- Iteration    1(   6)  ---------------------------------------


    POTLOK:  VPU time    0.51: CPU time    0.51
    SETDIJ:  VPU time    0.66: CPU time    0.66
    EDDIAG:  VPU time   37.40: CPU time   37.39
  RMM-DIIS:  VPU time  171.80: CPU time  171.73
    ORTHCH:  VPU time    4.23: CPU time    4.23
    DOS   :  VPU time    0.00: CPU time   -0.00
    CHARGE:  VPU time   15.18: CPU time   15.17
    MIXING:  VPU time    0.01: CPU time    0.02
    ------------------------------------------
      LOOP:  VPU time  229.86: CPU time  229.78

 eigenvalue-minimisations  : 16396
 total energy-change (2. order) : 0.2304723E-04  (-0.6317193E-05)
 number of electron  352.0000004 magnetization 
 augmentation part   168.9023967 magnetization 

 Broyden mixing:
  rms(total) = 0.25795E-02    rms(broyden)= 0.25795E-02
  rms(prec ) = 0.35639E-02
  weight for this iteration     100.00

 eigenvalues of (default mixing * dielectric matrix)
  average eigenvalue GAMMA=   1.4392
  2.5556  1.7683  1.0093  1.0093  0.8535

 Free energy of the ion-electron system (eV)
  ---------------------------------------------------
  alpha Z        PSCENC =      3148.75227566
  Ewald energy   TEWEN  =    -30697.28762313
  -1/2 Hartree   DENC   =     -6387.61340963
  -V(xc)+E(xc)   XCENC  =      -361.01904948
  PAW double counting   =     27741.40458892   -26324.01717509
  entropy T*S    EENTRO =        -0.01374223
  eigenvalues    EBANDS =      -407.84420379
  atomic energy  EATOM  =     33197.16788402
  ---------------------------------------------------
  free energy    TOTEN  =       -90.47045475 eV

  energy without entropy =      -90.45671252  energy(sigma->0) =      -90.46587401


--------------------------------------------------------------------------------------------------------




----------------------------------------- Iteration    1(   7)  ---------------------------------------


    POTLOK:  VPU time    0.49: CPU time    0.49
    SETDIJ:  VPU time    0.62: CPU time    0.62
    EDDIAG:  VPU time   33.64: CPU time   33.63
  RMM-DIIS:  VPU time  167.64: CPU time  167.57
    ORTHCH:  VPU time    4.07: CPU time    4.07
    DOS   :  VPU time    0.00: CPU time   -0.00
    CHARGE:  VPU time   13.83: CPU time   13.82
    MIXING:  VPU time    0.02: CPU time    0.02
    ------------------------------------------
      LOOP:  VPU time  220.37: CPU time  220.29

 eigenvalue-minimisations  : 17931
 total energy-change (2. order) : 0.1365048E-04  (-0.7308522E-05)
 number of electron  352.0000004 magnetization 
 augmentation part   168.9101680 magnetization 

 Broyden mixing:
  rms(total) = 0.33442E-03    rms(broyden)= 0.33441E-03
  rms(prec ) = 0.49200E-03
  weight for this iteration     100.00

 eigenvalues of (default mixing * dielectric matrix)
  average eigenvalue GAMMA=   1.4862
  2.6170  1.9629  1.5163  0.9677  0.9677  0.8854

 Free energy of the ion-electron system (eV)
  ---------------------------------------------------
  alpha Z        PSCENC =      3148.75227566
  Ewald energy   TEWEN  =    -30697.28762313
  -1/2 Hartree   DENC   =     -6387.27864772
  -V(xc)+E(xc)   XCENC  =      -361.03026161
  PAW double counting   =     27741.68775187   -26324.26391908
  entropy T*S    EENTRO =        -0.01373533
  eigenvalues    EBANDS =      -408.20416578
  atomic energy  EATOM  =     33197.16788402
  ---------------------------------------------------
  free energy    TOTEN  =       -90.47044110 eV

  energy without entropy =      -90.45670578  energy(sigma->0) =      -90.46586266


--------------------------------------------------------------------------------------------------------




----------------------------------------- Iteration    1(   8)  ---------------------------------------


    POTLOK:  VPU time    0.46: CPU time    0.46
    SETDIJ:  VPU time    0.55: CPU time    0.55
    EDDIAG:  VPU time   31.92: CPU time   31.91
  RMM-DIIS:  VPU time  115.36: CPU time  115.32
    ORTHCH:  VPU time    4.31: CPU time    4.31
    DOS   :  VPU time    0.00: CPU time   -0.00
    ------------------------------------------
      LOOP:  VPU time  152.66: CPU time  152.61

 eigenvalue-minimisations  :  9985
 total energy-change (2. order) : 0.3531437E-05  (-0.5246129E-06)
 number of electron  352.0000004 magnetization 
 augmentation part   168.9101680 magnetization 

 Free energy of the ion-electron system (eV)
  ---------------------------------------------------
  alpha Z        PSCENC =      3148.75227566
  Ewald energy   TEWEN  =    -30697.28762313
  -1/2 Hartree   DENC   =     -6387.22388872
  -V(xc)+E(xc)   XCENC  =      -361.03193343
  PAW double counting   =     27741.26281929   -26323.82106893
  entropy T*S    EENTRO =        -0.01373360
  eigenvalues    EBANDS =      -408.27516873
  atomic energy  EATOM  =     33197.16788402
  ---------------------------------------------------
  free energy    TOTEN  =       -90.47043757 eV

  energy without entropy =      -90.45670397  energy(sigma->0) =      -90.46585970


--------------------------------------------------------------------------------------------------------




 average (electrostatic) potential at core
  the test charge radii are     1.1249
  (the norm of the test charge is              1.0000)
       1 -41.6333       2 -41.6355       3 -41.6355       4 -41.6333       5 -41.6332
       6 -41.6332       7 -41.6330       8 -41.6355       9 -41.6355      10 -41.6333
      11 -41.6332      12 -41.6334      13 -41.6332      14 -41.6332      15 -41.6309
      16 -41.6309      17 -41.6330      18 -41.6332      19 -41.6332      20 -41.6333
      21 -41.6332      22 -41.6332      23 -41.6309      24 -41.6309      25 -41.6330
      26 -41.6332      27 -41.6332      28 -41.6332      29 -41.6332      30 -41.6330
      31 -41.6332      32 -41.6332
 
 
 
 E-fermi :   3.0791     XC(G=0): -11.8741     alpha+bet : -8.0684
   add alpha+bet to get absolut eigen values

 k-point   1 :       0.0625    0.0625    0.0625
  band No.  band energies     occupation 
      1      -4.3023      2.00000
      2      -3.0677      2.00000
      3      -3.0676      2.00000
      4      -3.0676      2.00000
      5      -3.0408      2.00000
      6      -3.0300      2.00000
      7      -3.0300      2.00000
      8      -3.0299      2.00000
      9      -2.9517      2.00000
     10      -2.9516      2.00000
     11      -2.9515      2.00000
     12      -2.6981      2.00000
     13      -2.6961      2.00000
     14      -2.6942      2.00000
     15      -2.5977      2.00000
     16      -2.5961      2.00000
     17      -2.5945      2.00000
     18      -2.3970      2.00000
     19      -2.3939      2.00000
     20      -2.3938      2.00000
     21      -2.3938      2.00000
     22      -2.3936      2.00000
     23      -2.3906      2.00000
     24      -2.3820      2.00000
     25      -2.3806      2.00000
     26      -2.3794      2.00000
     27      -2.2506      2.00000
     28      -2.2492      2.00000
     29      -2.2479      2.00000
     30      -2.1579      2.00000
     31      -2.1563      2.00000
     32      -2.1548      2.00000
     33      -2.1422      2.00000
     34      -2.1410      2.00000
     35      -2.1397      2.00000
     36      -2.1207      2.00000
     37      -2.1198      2.00000
     38      -2.1185      2.00000
     39      -2.1184      2.00000
     40      -2.1173      2.00000
     41      -2.1164      2.00000
     42      -1.9728      2.00000
     43      -1.9726      2.00000
     44      -1.9714      2.00000
     45      -1.9712      2.00000
     46      -1.9699      2.00000
     47      -1.9699      2.00000
     48      -1.8891      2.00000
     49      -1.8871      2.00000
     50      -1.8865      2.00000
     51      -1.8848      2.00000
     52      -1.8844      2.00000
     53      -1.8833      2.00000
     54      -1.8825      2.00000
     55      -1.8820      2.00000
     56      -1.8809      2.00000
     57      -1.8393      2.00000
     58      -1.8380      2.00000
     59      -1.8364      2.00000
     60      -1.7046      2.00000
     61      -1.7045      2.00000
     62      -1.7031      2.00000
     63      -1.7030      2.00000
     64      -1.7017      2.00000
     65      -1.7015      2.00000
     66      -1.6338      2.00000
     67      -1.6338      2.00000
     68      -1.6336      2.00000
     69      -1.6192      2.00000
     70      -1.6191      2.00000
     71      -1.6130      2.00000
     72      -1.6102      2.00000
     73      -1.6102      2.00000
     74      -1.6101      2.00000
     75      -1.5985      2.00000
     76      -1.5985      2.00000
     77      -1.5371      2.00000
     78      -1.5353      2.00000
     79      -1.5346      2.00000
     80      -1.5346      2.00000
     81      -1.5339      2.00000
     82      -1.5323      2.00000
     83      -1.5126      2.00000
     84      -1.5118      2.00000
     85      -1.5108      2.00000
     86      -1.4682      2.00000
     87      -1.4670      2.00000
     88      -1.4655      2.00000
     89      -1.0478      2.00000
     90      -1.0472      2.00000
     91      -1.0466      2.00000
     92      -0.9953      2.00000
     93      -0.9945      2.00000
     94      -0.9934      2.00000
     95      -0.9893      2.00000
     96      -0.9877      2.00000
     97      -0.9865      2.00000
     98      -0.9808      2.00000
     99      -0.9806      2.00000
    100      -0.9793      2.00000
    101      -0.9791      2.00000
    102      -0.9777      2.00000
    103      -0.9774      2.00000
    104      -0.9099      2.00000
    105      -0.9086      2.00000
    106      -0.9073      2.00000
    107      -0.8085      2.00000
    108      -0.8066      2.00000
    109      -0.8047      2.00000
    110      -0.7396      2.00000
    111      -0.7376      2.00000
    112      -0.7360      2.00000
    113      -0.7265      2.00000
    114      -0.7249      2.00000
    115      -0.7231      2.00000
    116      -0.6805      2.00000
    117      -0.6785      2.00000
    118      -0.6766      2.00000
    119      -0.6736      2.00000
    120      -0.6734      2.00000
    121      -0.6448      2.00000
    122      -0.6428      2.00000
    123      -0.6426      2.00000
    124      -0.6426      2.00000
    125      -0.6424      2.00000
    126      -0.6404      2.00000
    127      -0.6227      2.00000
    128      -0.6214      2.00000
    129      -0.6202      2.00000
    130      -0.6199      2.00000
    131      -0.6189      2.00000
    132      -0.6173      2.00000
    133      -0.5499      2.00000
    134      -0.5489      2.00000
    135      -0.5480      2.00000
    136      -0.3608      2.00000
    137      -0.3599      2.00000
    138      -0.3590      2.00000
    139      -0.3228      2.00000
    140      -0.3214      2.00000
    141      -0.3200      2.00000
    142      -0.2891      2.00000
    143      -0.2885      2.00000
    144      -0.2882      2.00000
    145      -0.0105      2.00000
    146      -0.0101      2.00000
    147      -0.0098      2.00000
    148       0.0080      2.00000
    149       0.0081      2.00000
    150       0.0082      2.00000
    151       0.0356      2.00000
    152       0.0357      2.00000
    153       0.0503      2.00000
    154       0.0503      2.00000
    155       0.0504      2.00000
    156       0.2000      2.00000
    157       0.2000      2.00000
    158       0.2001      2.00000
    159       0.2244      2.00000
    160       0.2244      2.00000
    161       0.2247      2.00000
    162       0.2247      2.00000
    163       0.2247      2.00000
    164       0.2249      2.00000
    165       0.2272      2.00000
    166       0.2272      2.00000
    167       0.2274      2.00000
    168       1.8795      2.00000
    169       1.8809      2.00000
    170       1.8824      2.00000
    171       2.4466      2.00007
    172       2.4470      2.00007
    173       2.4487      2.00008
    174       2.4487      2.00008
    175       2.4504      2.00008
    176       2.4507      2.00008
    177       2.5522      2.00124
    178       2.8283      2.07066
    179       2.8284      2.07067
    180       2.8285      2.07067
    181       3.0339      1.37178
    182       3.0354      1.36064
    183       3.0368      1.34944
    184       4.6719     -0.00000
    185       4.6721     -0.00000
    186       4.6725     -0.00000
    187       6.3736     -0.00000
    188       6.3738     -0.00000
    189       6.3740     -0.00000
    190       6.6089     -0.00000
    191       8.2453     -0.00000
    192       8.2457     -0.00000
    193       8.2475     -0.00000
    194       8.2475     -0.00000
    195       8.2493     -0.00000
    196       8.2497     -0.00000
    197       8.9331      0.00000
    198       8.9334      0.00000
    199       8.9359      0.00000
    200       8.9359      0.00000
    201       8.9384      0.00000
    202       8.9386      0.00000
    203       9.4434      0.00000
    204       9.4437      0.00000
    205       9.4438      0.00000
    206       9.9891      0.00000
    207       9.9894      0.00000
    208       9.9901      0.00000
    209       9.9903      0.00000
    210       9.9910      0.00000
    211       9.9910      0.00000
    212      10.8897      0.00000

 k-point   2 :       0.1875    0.0625    0.0625
  band No.  band energies     occupation 
      1      -4.2244      2.00000
      2      -3.0366      2.00000
      3      -3.0286      2.00000
      4      -3.0285      2.00000
      5      -3.0143      2.00000
      6      -2.9928      2.00000
      7      -2.9928      2.00000
      8      -2.9824      2.00000
      9      -2.9312      2.00000
     10      -2.9283      2.00000
     11      -2.9148      2.00000
     12      -2.9148      2.00000
     13      -2.6482      2.00000
     14      -2.6481      2.00000
     15      -2.6133      2.00000
     16      -2.5505      2.00000
     17      -2.5505      2.00000
     18      -2.5070      2.00000
     19      -2.4653      2.00000
     20      -2.4652      2.00000
     21      -2.3700      2.00000
     22      -2.3700      2.00000
     23      -2.3605      2.00000
     24      -2.3604      2.00000
     25      -2.3550      2.00000
     26      -2.3546      2.00000
     27      -2.3451      2.00000
     28      -2.3052      2.00000
     29      -2.3051      2.00000
     30      -2.2938      2.00000
     31      -2.2282      2.00000
     32      -2.2281      2.00000
     33      -2.2084      2.00000
     34      -2.2084      2.00000
     35      -2.1929      2.00000
     36      -2.1928      2.00000
     37      -2.1730      2.00000
     38      -2.1730      2.00000
     39      -2.1175      2.00000
     40      -2.1164      2.00000
     41      -2.1164      2.00000
     42      -2.0968      2.00000
     43      -2.0967      2.00000
     44      -1.9724      2.00000
     45      -1.9724      2.00000
     46      -1.9690      2.00000
     47      -1.9688      2.00000
     48      -1.9089      2.00000
     49      -1.9082      2.00000
     50      -1.9034      2.00000
     51      -1.9032      2.00000
     52      -1.9005      2.00000
     53      -1.9000      2.00000
     54      -1.8362      2.00000
     55      -1.8135      2.00000
     56      -1.8135      2.00000
     57      -1.8054      2.00000
     58      -1.8054      2.00000
     59      -1.7677      2.00000
     60      -1.7231      2.00000
     61      -1.7231      2.00000
     62      -1.6992      2.00000
     63      -1.6992      2.00000
     64      -1.6602      2.00000
     65      -1.6481      2.00000
     66      -1.6480      2.00000
     67      -1.6477      2.00000
     68      -1.6477      2.00000
     69      -1.6422      2.00000
     70      -1.6421      2.00000
     71      -1.6390      2.00000
     72      -1.6169      2.00000
     73      -1.6004      2.00000
     74      -1.5808      2.00000
     75      -1.5806      2.00000
     76      -1.5799      2.00000
     77      -1.5796      2.00000
     78      -1.5740      2.00000
     79      -1.5737      2.00000
     80      -1.5718      2.00000
     81      -1.5032      2.00000
     82      -1.5032      2.00000
     83      -1.4104      2.00000
     84      -1.4104      2.00000
     85      -1.3710      2.00000
     86      -1.3710      2.00000
     87      -1.3281      2.00000
     88      -1.3161      2.00000
     89      -1.1603      2.00000
     90      -1.1602      2.00000
     91      -1.1537      2.00000
     92      -1.1208      2.00000
     93      -1.0801      2.00000
     94      -1.0762      2.00000
     95      -1.0761      2.00000
     96      -1.0686      2.00000
     97      -1.0138      2.00000
     98      -1.0137      2.00000
     99      -1.0097      2.00000
    100      -1.0095      2.00000
    101      -0.9187      2.00000
    102      -0.9186      2.00000
    103      -0.9168      2.00000
    104      -0.9166      2.00000
    105      -0.8961      2.00000
    106      -0.8960      2.00000
    107      -0.8777      2.00000
    108      -0.8709      2.00000
    109      -0.8708      2.00000
    110      -0.7888      2.00000
    111      -0.7888      2.00000
    112      -0.7497      2.00000
    113      -0.7497      2.00000
    114      -0.7019      2.00000
    115      -0.6606      2.00000
    116      -0.6542      2.00000
    117      -0.6541      2.00000
    118      -0.6488      2.00000
    119      -0.6487      2.00000
    120      -0.6405      2.00000
    121      -0.6404      2.00000
    122      -0.6076      2.00000
    123      -0.6026      2.00000
    124      -0.5737      2.00000
    125      -0.5736      2.00000
    126      -0.5616      2.00000
    127      -0.5453      2.00000
    128      -0.5453      2.00000
    129      -0.5092      2.00000
    130      -0.5091      2.00000
    131      -0.4880      2.00000
    132      -0.4880      2.00000
    133      -0.4549      2.00000
    134      -0.4462      2.00000
    135      -0.4462      2.00000
    136      -0.4284      2.00000
    137      -0.3243      2.00000
    138      -0.3243      2.00000
    139      -0.2945      2.00000
    140      -0.2945      2.00000
    141      -0.2170      2.00000
    142      -0.1414      2.00000
    143      -0.1230      2.00000
    144      -0.1229      2.00000
    145      -0.0524      2.00000
    146      -0.0523      2.00000
    147      -0.0330      2.00000
    148      -0.0329      2.00000
    149      -0.0251      2.00000
    150      -0.0125      2.00000
    151      -0.0094      2.00000
    152       0.0309      2.00000
    153       0.0328      2.00000
    154       0.0329      2.00000
    155       0.0743      2.00000
    156       0.0743      2.00000
    157       0.1523      2.00000
    158       0.1745      2.00000
    159       0.1745      2.00000
    160       0.1753      2.00000
    161       0.1753      2.00000
    162       0.1844      2.00000
    163       0.2166      2.00000
    164       0.2235      2.00000
    165       0.2245      2.00000
    166       0.2247      2.00000
    167       0.2258      2.00000
    168       1.3848      2.00000
    169       1.3848      2.00000
    170       1.8866      2.00000
    171       1.9243      2.00000
    172       1.9243      2.00000
    173       2.2960      2.00000
    174       2.4650      2.00013
    175       2.4650      2.00013
    176       2.7758      2.05380
    177       2.7758      2.05381
    178       3.0490      1.25190
    179       3.0573      1.18315
    180       3.0948      0.86748
    181       3.0948      0.86736
    182       3.6916     -0.00013
    183       3.6916     -0.00013
    184       4.1527     -0.00000
    185       4.8671     -0.00000
    186       4.8671     -0.00000
    187       6.3935     -0.00000
    188       6.6357     -0.00000
    189       6.6357     -0.00000
    190       7.0433     -0.00000
    191       7.3956     -0.00000
    192       7.3956     -0.00000
    193       7.5609     -0.00000
    194       7.5609     -0.00000
    195       8.0104     -0.00000
    196       8.0104     -0.00000
    197       8.3664     -0.00000
    198       8.3664     -0.00000
    199       9.0529      0.00000
    200       9.0529      0.00000
    201       9.4592      0.00000
    202       9.4592      0.00000
    203       9.5350      0.00000
    204       9.5351      0.00000
    205       9.8391      0.00000
    206      10.0079      0.00000
    207      10.0132      0.00000
    208      10.0949      0.00000
    209      10.2824      0.00000
    210      10.3036      0.00000
    211      10.3200      0.00000
    212      10.3886      0.00000

 k-point   3 :       0.3125    0.0625    0.0625
  band No.  band energies     occupation 
      1      -4.0710      2.00000
      2      -3.2447      2.00000
      3      -2.9769      2.00000
      4      -2.9533      2.00000
      5      -2.9532      2.00000
      6      -2.9502      2.00000
      7      -2.9192      2.00000
      8      -2.9192      2.00000
      9      -2.8993      2.00000
     10      -2.8822      2.00000
     11      -2.8414      2.00000
     12      -2.8414      2.00000
     13      -2.6929      2.00000
     14      -2.6240      2.00000
     15      -2.5842      2.00000
     16      -2.5840      2.00000
     17      -2.5585      2.00000
     18      -2.5584      2.00000
     19      -2.5427      2.00000
     20      -2.4975      2.00000
     21      -2.4974      2.00000
     22      -2.4696      2.00000
     23      -2.4666      2.00000
     24      -2.4665      2.00000
     25      -2.4145      2.00000
     26      -2.4145      2.00000
     27      -2.3293      2.00000
     28      -2.3292      2.00000
     29      -2.3000      2.00000
     30      -2.3000      2.00000
     31      -2.2966      2.00000
     32      -2.2965      2.00000
     33      -2.2310      2.00000
     34      -2.2310      2.00000
     35      -2.2217      2.00000
     36      -2.2216      2.00000
     37      -2.1859      2.00000
     38      -2.1859      2.00000
     39      -2.1746      2.00000
     40      -2.1745      2.00000
     41      -2.0823      2.00000
     42      -2.0823      2.00000
     43      -1.9911      2.00000
     44      -1.9675      2.00000
     45      -1.9671      2.00000
     46      -1.9659      2.00000
     47      -1.9659      2.00000
     48      -1.9582      2.00000
     49      -1.9582      2.00000
     50      -1.9450      2.00000
     51      -1.9444      2.00000
     52      -1.9418      2.00000
     53      -1.9417      2.00000
     54      -1.8174      2.00000
     55      -1.8171      2.00000
     56      -1.8134      2.00000
     57      -1.7718      2.00000
     58      -1.7718      2.00000
     59      -1.7537      2.00000
     60      -1.7536      2.00000
     61      -1.7384      2.00000
     62      -1.7384      2.00000
     63      -1.7085      2.00000
     64      -1.6963      2.00000
     65      -1.6950      2.00000
     66      -1.6943      2.00000
     67      -1.6937      2.00000
     68      -1.6929      2.00000
     69      -1.6925      2.00000
     70      -1.6709      2.00000
     71      -1.6709      2.00000
     72      -1.6524      2.00000
     73      -1.6523      2.00000
     74      -1.6265      2.00000
     75      -1.5590      2.00000
     76      -1.5589      2.00000
     77      -1.5546      2.00000
     78      -1.5255      2.00000
     79      -1.5255      2.00000
     80      -1.5199      2.00000
     81      -1.5188      2.00000
     82      -1.5118      2.00000
     83      -1.3254      2.00000
     84      -1.3254      2.00000
     85      -1.2764      2.00000
     86      -1.2495      2.00000
     87      -1.2495      2.00000
     88      -1.2316      2.00000
     89      -1.2316      2.00000
     90      -1.2252      2.00000
     91      -1.2129      2.00000
     92      -1.2011      2.00000
     93      -1.0979      2.00000
     94      -1.0978      2.00000
     95      -1.0831      2.00000
     96      -1.0697      2.00000
     97      -1.0697      2.00000
     98      -1.0536      2.00000
     99      -0.9501      2.00000
    100      -0.9501      2.00000
    101      -0.9373      2.00000
    102      -0.9239      2.00000
    103      -0.9238      2.00000
    104      -0.8270      2.00000
    105      -0.8269      2.00000
    106      -0.8135      2.00000
    107      -0.8134      2.00000
    108      -0.7867      2.00000
    109      -0.7867      2.00000
    110      -0.7728      2.00000
    111      -0.7728      2.00000
    112      -0.7562      2.00000
    113      -0.7562      2.00000
    114      -0.7554      2.00000
    115      -0.6651      2.00000
    116      -0.6651      2.00000
    117      -0.6429      2.00000
    118      -0.6429      2.00000
    119      -0.6352      2.00000
    120      -0.6351      2.00000
    121      -0.6348      2.00000
    122      -0.5465      2.00000
    123      -0.5465      2.00000
    124      -0.4926      2.00000
    125      -0.4648      2.00000
    126      -0.4592      2.00000
    127      -0.4591      2.00000
    128      -0.4076      2.00000
    129      -0.3895      2.00000
    130      -0.3811      2.00000
    131      -0.3810      2.00000
    132      -0.3710      2.00000
    133      -0.3710      2.00000
    134      -0.3404      2.00000
    135      -0.3404      2.00000
    136      -0.3343      2.00000
    137      -0.3309      2.00000
    138      -0.3198      2.00000
    139      -0.3198      2.00000
    140      -0.3084      2.00000
    141      -0.3084      2.00000
    142      -0.1954      2.00000
    143      -0.1727      2.00000
    144      -0.1727      2.00000
    145      -0.1460      2.00000
    146      -0.0917      2.00000
    147      -0.0909      2.00000
    148      -0.0909      2.00000
    149      -0.0728      2.00000
    150      -0.0728      2.00000
    151      -0.0472      2.00000
    152      -0.0261      2.00000
    153      -0.0261      2.00000
    154      -0.0214      2.00000
    155       0.0604      2.00000
    156       0.0815      2.00000
    157       0.0815      2.00000
    158       0.0826      2.00000
    159       0.0826      2.00000
    160       0.1060      2.00000
    161       0.2232      2.00000
    162       0.2243      2.00000
    163       0.2245      2.00000
    164       0.2256      2.00000
    165       0.2734      2.00000
    166       0.2734      2.00000
    167       0.8995      2.00000
    168       0.9502      2.00000
    169       0.9502      2.00000
    170       1.4528      2.00000
    171       1.4528      2.00000
    172       1.9012      2.00000
    173       2.1083      2.00000
    174       2.4980      2.00031
    175       2.4980      2.00031
    176       2.6962      2.02087
    177       2.6963      2.02088
    178       3.0972      0.84797
    179       3.1623      0.35910
    180       3.3740     -0.05757
    181       3.8213     -0.00000
    182       3.8213     -0.00000
    183       4.4216     -0.00000
    184       4.4216     -0.00000
    185       5.2253     -0.00000
    186       5.2253     -0.00000
    187       6.4350     -0.00000
    188       6.4350     -0.00000
    189       6.6964     -0.00000
    190       6.8959     -0.00000
    191       6.8960     -0.00000
    192       7.0353     -0.00000
    193       7.0353     -0.00000
    194       7.1195     -0.00000
    195       7.1195     -0.00000
    196       7.6309     -0.00000
    197       8.5936      0.00000
    198       8.5936      0.00000
    199       8.8661      0.00000
    200       9.2705      0.00000
    201       9.2705      0.00000
    202       9.4536      0.00000
    203       9.4536      0.00000
    204       9.4911      0.00000
    205       9.4912      0.00000
    206       9.6708      0.00000
    207       9.6714      0.00000
    208       9.7955      0.00000
    209       9.8048      0.00000
    210      10.0683      0.00000
    211      10.4283      0.00000
    212      10.4501      0.00000

 k-point   4 :       0.4375    0.0625    0.0625
  band No.  band energies     occupation 
      1      -3.8474      2.00000
      2      -3.5647      2.00000
      3      -2.8932      2.00000
      4      -2.8492      2.00000
      5      -2.8472      2.00000
      6      -2.8472      2.00000
      7      -2.8147      2.00000
      8      -2.8104      2.00000
      9      -2.8103      2.00000
     10      -2.7939      2.00000
     11      -2.7833      2.00000
     12      -2.7324      2.00000
     13      -2.7323      2.00000
     14      -2.7276      2.00000
     15      -2.7192      2.00000
     16      -2.7192      2.00000
     17      -2.7123      2.00000
     18      -2.6684      2.00000
     19      -2.6684      2.00000
     20      -2.6377      2.00000
     21      -2.5892      2.00000
     22      -2.5892      2.00000
     23      -2.4420      2.00000
     24      -2.4420      2.00000
     25      -2.3627      2.00000
     26      -2.3627      2.00000
     27      -2.3238      2.00000
     28      -2.3237      2.00000
     29      -2.2849      2.00000
     30      -2.2847      2.00000
     31      -2.2621      2.00000
     32      -2.2620      2.00000
     33      -2.2492      2.00000
     34      -2.2491      2.00000
     35      -2.2096      2.00000
     36      -2.2093      2.00000
     37      -2.2085      2.00000
     38      -2.2083      2.00000
     39      -2.1228      2.00000
     40      -2.1226      2.00000
     41      -2.1194      2.00000
     42      -2.1192      2.00000
     43      -2.0764      2.00000
     44      -2.0764      2.00000
     45      -2.0404      2.00000
     46      -2.0403      2.00000
     47      -1.9758      2.00000
     48      -1.9757      2.00000
     49      -1.9703      2.00000
     50      -1.9702      2.00000
     51      -1.9376      2.00000
     52      -1.9376      2.00000
     53      -1.8795      2.00000
     54      -1.8794      2.00000
     55      -1.8747      2.00000
     56      -1.7791      2.00000
     57      -1.7782      2.00000
     58      -1.7782      2.00000
     59      -1.7779      2.00000
     60      -1.7771      2.00000
     61      -1.7743      2.00000
     62      -1.7370      2.00000
     63      -1.7357      2.00000
     64      -1.7356      2.00000
     65      -1.7014      2.00000
     66      -1.7014      2.00000
     67      -1.6870      2.00000
     68      -1.6867      2.00000
     69      -1.6787      2.00000
     70      -1.6784      2.00000
     71      -1.6726      2.00000
     72      -1.6457      2.00000
     73      -1.5956      2.00000
     74      -1.5954      2.00000
     75      -1.5440      2.00000
     76      -1.5439      2.00000
     77      -1.4834      2.00000
     78      -1.4589      2.00000
     79      -1.4588      2.00000
     80      -1.4462      2.00000
     81      -1.4461      2.00000
     82      -1.4405      2.00000
     83      -1.4404      2.00000
     84      -1.4310      2.00000
     85      -1.4309      2.00000
     86      -1.4259      2.00000
     87      -1.3889      2.00000
     88      -1.3471      2.00000
     89      -1.3471      2.00000
     90      -1.3387      2.00000
     91      -1.3376      2.00000
     92      -1.3202      2.00000
     93      -0.9317      2.00000
     94      -0.9317      2.00000
     95      -0.9281      2.00000
     96      -0.9280      2.00000
     97      -0.8979      2.00000
     98      -0.8261      2.00000
     99      -0.8227      2.00000
    100      -0.8143      2.00000
    101      -0.8142      2.00000
    102      -0.7781      2.00000
    103      -0.7780      2.00000
    104      -0.7749      2.00000
    105      -0.7748      2.00000
    106      -0.7644      2.00000
    107      -0.7644      2.00000
    108      -0.7510      2.00000
    109      -0.7508      2.00000
    110      -0.7499      2.00000
    111      -0.7084      2.00000
    112      -0.7084      2.00000
    113      -0.7017      2.00000
    114      -0.7016      2.00000
    115      -0.6972      2.00000
    116      -0.6971      2.00000
    117      -0.6601      2.00000
    118      -0.6600      2.00000
    119      -0.6157      2.00000
    120      -0.6157      2.00000
    121      -0.5974      2.00000
    122      -0.5675      2.00000
    123      -0.5564      2.00000
    124      -0.5564      2.00000
    125      -0.5493      2.00000
    126      -0.5472      2.00000
    127      -0.5471      2.00000
    128      -0.4619      2.00000
    129      -0.4618      2.00000
    130      -0.4577      2.00000
    131      -0.4577      2.00000
    132      -0.4506      2.00000
    133      -0.3277      2.00000
    134      -0.3277      2.00000
    135      -0.3245      2.00000
    136      -0.2367      2.00000
    137      -0.2366      2.00000
    138      -0.2337      2.00000
    139      -0.2276      2.00000
    140      -0.2092      2.00000
    141      -0.2014      2.00000
    142      -0.2013      2.00000
    143      -0.1977      2.00000
    144      -0.1883      2.00000
    145      -0.1881      2.00000
    146      -0.1806      2.00000
    147      -0.1805      2.00000
    148      -0.1187      2.00000
    149      -0.1186      2.00000
    150      -0.1159      2.00000
    151      -0.1031      2.00000
    152      -0.0735      2.00000
    153      -0.0688      2.00000
    154      -0.0430      2.00000
    155      -0.0429      2.00000
    156      -0.0418      2.00000
    157      -0.0418      2.00000
    158       0.0106      2.00000
    159       0.2232      2.00000
    160       0.2242      2.00000
    161       0.2244      2.00000
    162       0.2255      2.00000
    163       0.2256      2.00000
    164       0.2256      2.00000
    165       0.5665      2.00000
    166       0.5665      2.00000
    167       0.6332      2.00000
    168       0.6332      2.00000
    169       1.0250      2.00000
    170       1.0250      2.00000
    171       1.6807      2.00000
    172       1.9321      2.00000
    173       1.9938      2.00000
    174       2.5208      2.00057
    175       2.5484      2.00113
    176       2.5486      2.00114
    177       2.6159      2.00506
    178       2.6160      2.00507
    179       3.1449      0.47530
    180       3.1792      0.25928
    181       4.6257     -0.00000
    182       4.6258     -0.00000
    183       5.2255     -0.00000
    184       5.2255     -0.00000
    185       5.5013     -0.00000
    186       5.5013     -0.00000
    187       5.7050     -0.00000
    188       5.7050     -0.00000
    189       6.0997     -0.00000
    190       6.0997     -0.00000
    191       6.2707     -0.00000
    192       6.2707     -0.00000
    193       7.2501     -0.00000
    194       7.7750     -0.00000
    195       7.7750     -0.00000
    196       7.9912     -0.00000
    197       8.3409     -0.00000
    198       8.5624      0.00000
    199       8.5624      0.00000
    200       8.9184      0.00000
    201       8.9185      0.00000
    202       9.1526      0.00000
    203       9.3246      0.00000
    204       9.3247      0.00000
    205       9.5407      0.00000
    206       9.5418      0.00000
    207       9.5804      0.00000
    208       9.5811      0.00000
    209       9.6067      0.00000
    210       9.6075      0.00000
    211       9.9688      0.00000
    212      10.6906      0.00000

 k-point   5 :       0.0625    0.1875    0.0625
  band No.  band energies     occupation 
      1      -4.2244      2.00000
      2      -3.0366      2.00000
      3      -3.0286      2.00000
      4      -3.0285      2.00000
      5      -3.0143      2.00000
      6      -2.9929      2.00000
      7      -2.9927      2.00000
      8      -2.9824      2.00000
      9      -2.9313      2.00000
     10      -2.9282      2.00000
     11      -2.9149      2.00000
     12      -2.9147      2.00000
     13      -2.6495      2.00000
     14      -2.6468      2.00000
     15      -2.6133      2.00000
     16      -2.5517      2.00000
     17      -2.5494      2.00000
     18      -2.5070      2.00000
     19      -2.4654      2.00000
     20      -2.4651      2.00000
     21      -2.3712      2.00000
     22      -2.3691      2.00000
     23      -2.3615      2.00000
     24      -2.3591      2.00000
     25      -2.3556      2.00000
     26      -2.3538      2.00000
     27      -2.3454      2.00000
     28      -2.3054      2.00000
     29      -2.3049      2.00000
     30      -2.2937      2.00000
     31      -2.2291      2.00000
     32      -2.2272      2.00000
     33      -2.2087      2.00000
     34      -2.2084      2.00000
     35      -2.1938      2.00000
     36      -2.1918      2.00000
     37      -2.1739      2.00000
     38      -2.1722      2.00000
     39      -2.1185      2.00000
     40      -2.1171      2.00000
     41      -2.1148      2.00000
     42      -2.0975      2.00000
     43      -2.0958      2.00000
     44      -1.9728      2.00000
     45      -1.9720      2.00000
[...]
    108      -0.8833      2.00000
    109      -0.8829      2.00000
    110      -0.8811      2.00000
    111      -0.8810      2.00000
    112      -0.8799      2.00000
    113      -0.8793      2.00000
    114      -0.8790      2.00000
    115      -0.8774      2.00000
    116      -0.8751      2.00000
    117      -0.8083      2.00000
    118      -0.8062      2.00000
    119      -0.8041      2.00000
    120      -0.7579      2.00000
    121      -0.7576      2.00000
    122      -0.7563      2.00000
    123      -0.7563      2.00000
    124      -0.7549      2.00000
    125      -0.7548      2.00000
    126      -0.6757      2.00000
    127      -0.6756      2.00000
    128      -0.6755      2.00000
    129      -0.6267      2.00000
    130      -0.6266      2.00000
    131      -0.6179      2.00000
    132      -0.6166      2.00000
    133      -0.6152      2.00000
    134      -0.5974      2.00000
    135      -0.5956      2.00000
    136      -0.5940      2.00000
    137      -0.5142      2.00000
    138      -0.5127      2.00000
    139      -0.5111      2.00000
    140      -0.4599      2.00000
    141      -0.4599      2.00000
    142      -0.4109      2.00000
    143      -0.4098      2.00000
    144      -0.4086      2.00000
    145       0.0687      2.00000
    146       0.0689      2.00000
    147       0.0694      2.00000
    148       0.0860      2.00000
    149       0.0869      2.00000
    150       0.0870      2.00000
    151       0.0870      2.00000
    152       0.0871      2.00000
    153       0.0872      2.00000
    154       0.0874      2.00000
    155       0.0875      2.00000
    156       0.0876      2.00000
    157       0.0877      2.00000
    158       0.0879      2.00000
    159       0.0886      2.00000
    160       0.0900      2.00000
    161       0.0901      2.00000
    162       0.0905      2.00000
    163       0.1029      2.00000
    164       0.1031      2.00000
    165       0.1035      2.00000
    166       0.1125      2.00000
    167       0.1127      2.00000
    168       0.1129      2.00000
    169       3.1978      0.16605
    170       3.1995      0.15825
    171       3.2012      0.15075
    172       3.5488     -0.00444
    173       3.5501     -0.00432
    174       3.5517     -0.00418
    175       3.5517     -0.00418
    176       3.5533     -0.00404
    177       3.5547     -0.00393
    178       3.8490     -0.00000
    179       3.8494     -0.00000
    180       3.8499     -0.00000
    181       4.0890     -0.00000
    182       4.0895     -0.00000
    183       4.0901     -0.00000
    184       4.4601     -0.00000
    185       4.4618     -0.00000
    186       4.4632     -0.00000
    187       4.4633     -0.00000
    188       4.4647     -0.00000
    189       4.4664     -0.00000
    190       4.7812     -0.00000
    191       4.7830     -0.00000
    192       4.7848     -0.00000
    193       7.9544     -0.00000
    194       7.9548     -0.00000
    195       7.9552     -0.00000
    196       8.3220     -0.00000
    197       8.3228     -0.00000
    198       8.3236     -0.00000
    199       8.7455      0.00000
    200       8.7462      0.00000
    201       8.7487      0.00000
    202       8.7488      0.00000
    203       8.7512      0.00000
    204       8.7519      0.00000
    205       9.1240      0.00000
    206       9.1247      0.00000
    207       9.1267      0.00000
    208       9.1282      0.00000
    209       9.1293      0.00000
    210       9.1357      0.00000
    211       9.5400      0.00000
    212       9.5443      0.00000


--------------------------------------------------------------------------------------------------------


 soft charge-density along one line, spin component           1
         0         1         2         3         4         5         6         7         8         9
 total charge-density along one line
 
 pseudopotential strength for first ion, spin component:           1
-12.180   0.000   0.000   0.000   0.000   0.133  -0.000  -0.000
  0.000 -12.180   0.000   0.000  -0.000  -0.000   0.133  -0.000
  0.000   0.000 -12.171   0.000  -0.000  -0.000  -0.000   0.131
  0.000   0.000   0.000 -12.180   0.000  -0.000  -0.000  -0.000
  0.000  -0.000  -0.000   0.000 -12.171  -0.000   0.000   0.000
  0.133  -0.000  -0.000  -0.000  -0.000   0.457   0.000   0.000
 -0.000   0.133  -0.000  -0.000   0.000   0.000   0.457   0.000
 -0.000  -0.000   0.131  -0.000   0.000   0.000   0.000   0.457
 -0.000  -0.000  -0.000   0.133  -0.000   0.000   0.000   0.000
 -0.000   0.000   0.000  -0.000   0.131   0.000  -0.000  -0.000
 -0.000  -0.000   0.000  -0.000  -0.000   0.000   0.000  -0.000
 -0.000   0.000  -0.000   0.000   0.000   0.000  -0.000   0.000
  0.000  -0.000   0.000   0.000  -0.000  -0.000   0.000  -0.000
  0.000   0.000  -0.000   0.000   0.000  -0.000  -0.000   0.000
 -0.000   0.000  -0.000  -0.000   0.000   0.000  -0.000   0.000
 -0.000   0.000  -0.000  -0.000  -0.000   0.000  -0.000   0.000
 -0.000  -0.000   0.000  -0.000  -0.000   0.000   0.000  -0.000
  0.000  -0.000   0.000   0.000  -0.000  -0.000   0.000  -0.000
 total augmentation occupancy for first ion, spin component:           1
  1.938   0.000  -0.001  -0.000  -0.001  -0.023  -0.000   0.000   0.000   0.001   0.005  -0.000   0.000  -0.000   0.000   0.000
  0.000   1.940  -0.001  -0.001  -0.001  -0.000  -0.026   0.002   0.000   0.000   0.004  -0.001  -0.000   0.000   0.000   0.000
 -0.001  -0.001   1.966  -0.001  -0.002   0.000   0.002  -0.055   0.001   0.002   0.012   0.001   0.000  -0.000  -0.000   0.000
 -0.000  -0.001  -0.001   1.943  -0.000   0.000   0.000   0.001  -0.029   0.001   0.002  -0.001  -0.000  -0.000   0.000   0.000
 -0.001  -0.001  -0.002  -0.000   1.958   0.001   0.000   0.002   0.001  -0.048   0.007   0.001  -0.000  -0.000   0.000   0.000
 -0.023  -0.000   0.000   0.000   0.001   0.075   0.000   0.001   0.000  -0.000  -0.002   0.001  -0.000   0.000  -0.000  -0.000
 -0.000  -0.026   0.002   0.000   0.000   0.000   0.077  -0.002  -0.000   0.001  -0.001   0.001   0.000  -0.000  -0.000  -0.000
  0.000   0.002  -0.055   0.001   0.002   0.001  -0.002   0.066  -0.002  -0.001  -0.010   0.000  -0.000   0.000  -0.000   0.000
  0.000   0.000   0.001  -0.029   0.001   0.000  -0.000  -0.002   0.079  -0.002   0.001   0.001   0.000   0.000   0.000  -0.000
  0.001   0.000   0.002   0.001  -0.048  -0.000   0.001  -0.001  -0.002   0.063  -0.006   0.000  -0.000   0.000   0.000  -0.000
  0.005   0.004   0.012   0.002   0.007  -0.002  -0.001  -0.010   0.001  -0.006   1.031  -0.346   0.000   0.000  -0.000  -0.000
 -0.000  -0.001   0.001  -0.001   0.001   0.001   0.001   0.000   0.001   0.000  -0.346   0.177  -0.000  -0.000   0.000   0.000
  0.000  -0.000   0.000  -0.000  -0.000  -0.000   0.000  -0.000   0.000  -0.000   0.000  -0.000   0.106   0.000   0.002  -0.006
 -0.000   0.000  -0.000  -0.000  -0.000   0.000  -0.000   0.000   0.000   0.000   0.000  -0.000   0.000   0.110  -0.001  -0.000
  0.000   0.000  -0.000   0.000   0.000  -0.000  -0.000  -0.000   0.000   0.000  -0.000   0.000   0.002  -0.001   0.108  -0.000
  0.000   0.000   0.000   0.000   0.000  -0.000  -0.000   0.000  -0.000  -0.000  -0.000   0.000  -0.006  -0.000  -0.000   0.000
  0.000   0.000   0.000   0.000   0.000  -0.000  -0.000  -0.000  -0.000  -0.000  -0.000  -0.000  -0.000  -0.006  -0.000   0.000
 -0.000  -0.000  -0.000  -0.000   0.000   0.000   0.000   0.000   0.000  -0.000   0.000  -0.000  -0.000  -0.000  -0.006   0.000


------------------------ aborting loop because EDIFF is reached ----------------------------------------




--------------------------------------------------------------------------------------------------------


    CHARGE:  VPU time   17.15: CPU time   17.15
    FORLOC:  VPU time    0.10: CPU time    0.10
    FORNL :  VPU time  124.37: CPU time  124.32
    STRESS:  VPU time  179.86: CPU time  179.78
    FORCOR:  VPU time    0.54: CPU time    0.54
    FORHAR:  VPU time    0.17: CPU time    0.17
    MIXING:  VPU time    0.01: CPU time    0.01


--------------------------------------------------------------------------------------------------------



  FREE ENERGIE OF THE ION-ELECTRON SYSTEM (eV)
  ---------------------------------------------------
  free  energy   TOTEN  =       -90.470438 eV

  energy  without entropy=      -90.456704  energy(sigma->0) =      -90.465860
 

  FORCE on cell =-STRESS in cart. coord.  units (eV/reduce length):
  Direction    X        Y        Z        XY       YZ       ZX
  --------------------------------------------------------------------------------------
  Alpha Z   3148.75   3148.75   3148.75
  Ewald   -10232.57 -10232.42 -10232.42     -0.00     -0.00     -0.00
  Hartree   2129.07   2129.17   2129.17     -0.00     -0.00     -0.00
  E(xc)    -1859.59  -1859.59  -1859.59     -0.00     -0.00     -0.00
  Local     3229.98   3229.73   3229.73      0.00      0.00      0.00
  n-local  -2109.91  -2113.46  -2106.36      2.27      1.26      0.25
  augment   1341.19   1341.19   1341.19     -0.00     -0.00     -0.00
  Kinetic   4352.91   4346.97   4358.84      1.41     -0.43     -2.27
  -------------------------------------------------------------------------------------
  Total       -0.17     -0.18     -0.18     -0.00     -0.00     -0.00
  in kB       -0.47     -0.50     -0.50     -0.00     -0.00     -0.00
  external pressure =       -0.49 kB  Pullay stress =        0.00 kB


 VOLUME and BASIS-vectors are now :
 -----------------------------------------------------------------------------
  energy-cutoff  :      600.00
  volume of cell :      577.50
      direct lattice vectors                 reciprocal lattice vectors
     8.327538250  0.000000000  0.000000000     0.120083507 -0.000000002 -0.000000002
     0.000000150  8.327538250  0.000000000     0.000000000  0.120083507 -0.000000002
     0.000000150  0.000000150  8.327538250     0.000000000  0.000000000  0.120083507

  length of vectors
     8.327538250  8.327538250  8.327538250     0.120083507  0.120083507  0.120083507


 FORCES acting on ions
    electron-ion (+dipol)            ewald-force                    non-local-force                 convergence-correction
 -----------------------------------------------------------------------------------------------
   0.258E-01 0.158E+00 -.145E-07   -.288E-01 -.157E+00 0.157E-07   0.232E-02 -.349E-03 0.284E-20   0.250E-03 -.354E-03 0.152E-09
   0.989E+00 0.191E+01 -.887E-08   -.991E+00 -.192E+01 0.298E-09   -.871E-02 -.577E-02 -.436E-20   -.146E-02 -.189E-02 -.152E-09
   0.989E+00 -.321E-07 -.191E+01   -.991E+00 0.342E-07 0.192E+01   -.871E-02 0.104E-09 0.577E-02   -.146E-02 0.151E-09 0.189E-02
   0.258E-01 -.158E+00 0.865E-08   -.288E-01 0.157E+00 -.917E-08   0.232E-02 0.349E-03 -.304E-20   0.250E-03 0.354E-03 -.106E-09
   -.123E+01 -.938E-02 0.938E-02   0.124E+01 0.933E-02 -.933E-02   -.271E-02 0.512E-04 -.512E-04   0.607E-03 0.425E-04 -.425E-04
   -.652E+00 0.237E-08 0.428E-07   0.655E+00 -.173E-08 -.467E-07   -.284E-02 -.137E-19 -.633E-20   0.280E-03 0.283E-09 -.551E-09
   0.318E-01 -.157E+00 0.829E-08   -.348E-01 0.157E+00 -.879E-08   0.230E-02 0.366E-03 0.158E-20   0.269E-03 0.353E-03 -.104E-09
   0.989E+00 0.256E-07 0.191E+01   -.991E+00 -.342E-07 -.192E+01   -.871E-02 -.104E-09 -.577E-02   -.146E-02 -.186E-09 -.189E-02
   0.989E+00 -.191E+01 0.236E-08   -.991E+00 0.192E+01 -.299E-09   -.871E-02 0.577E-02 -.450E-20   -.146E-02 0.189E-02 0.117E-09
   0.258E-01 0.570E-08 -.158E+00   -.288E-01 -.634E-08 0.157E+00   0.232E-02 0.629E-11 0.349E-03   0.250E-03 -.100E-09 0.354E-03
   -.123E+01 -.938E-02 -.938E-02   0.124E+01 0.933E-02 0.933E-02   -.271E-02 0.512E-04 0.512E-04   0.607E-03 0.425E-04 0.425E-04
   -.780E+01 0.122E-06 -.901E-07   0.784E+01 -.134E-06 -.134E-06   0.500E-01 0.774E-19 -.442E-19   0.709E-02 0.568E-09 0.569E-09
   -.123E+01 0.938E-02 0.938E-02   0.124E+01 -.933E-02 -.933E-02   -.271E-02 -.512E-04 -.512E-04   0.607E-03 -.425E-04 -.425E-04
   -.272E+00 0.120E-07 0.119E-07   0.270E+00 -.124E-07 -.124E-07   0.256E-02 -.236E-20 0.128E-19   -.406E-03 -.259E-09 -.259E-09
   0.100E+01 -.188E+01 0.222E-08   -.100E+01 0.189E+01 -.268E-09   -.878E-02 0.574E-02 -.279E-20   -.147E-02 0.198E-02 0.112E-09
   0.100E+01 0.251E-07 0.188E+01   -.100E+01 -.337E-07 -.189E+01   -.878E-02 -.103E-09 -.574E-02   -.147E-02 -.143E-09 -.198E-02
   0.318E-01 0.157E+00 -.148E-07   -.348E-01 -.157E+00 0.159E-07   0.230E-02 -.366E-03 -.563E-20   0.269E-03 -.353E-03 0.117E-09
   0.690E+00 0.273E-02 -.273E-02   -.695E+00 -.280E-02 0.280E-02   0.311E-02 0.521E-04 -.521E-04   0.635E-04 0.115E-04 -.115E-04
   0.522E+00 -.229E-08 -.289E-07   -.514E+00 0.172E-08 0.295E-07   -.662E-02 0.457E-20 0.190E-19   -.687E-03 -.269E-09 0.466E-09
   0.258E-01 -.118E-07 0.158E+00   -.288E-01 0.128E-07 -.157E+00   0.232E-02 -.629E-11 -.349E-03   0.250E-03 0.145E-09 -.354E-03
   -.123E+01 0.938E-02 -.938E-02   0.124E+01 -.933E-02 0.933E-02   -.271E-02 -.512E-04 0.512E-04   0.607E-03 -.425E-04 0.425E-04
   -.652E+00 0.433E-07 0.232E-08   0.655E+00 -.467E-07 -.173E-08   -.284E-02 -.453E-20 -.589E-20   0.281E-03 -.551E-09 0.283E-09
   0.100E+01 -.317E-07 -.188E+01   -.100E+01 0.337E-07 0.189E+01   -.878E-02 0.103E-09 0.574E-02   -.147E-02 0.147E-09 0.198E-02
   0.100E+01 0.188E+01 -.877E-08   -.100E+01 -.189E+01 0.329E-09   -.878E-02 -.574E-02 -.123E-19   -.147E-02 -.198E-02 -.107E-09
   0.318E-01 -.120E-07 0.157E+00   -.348E-01 0.131E-07 -.157E+00   0.230E-02 -.658E-11 -.366E-03   0.269E-03 0.111E-09 -.353E-03
   0.690E+00 0.273E-02 0.273E-02   -.695E+00 -.280E-02 -.280E-02   0.311E-02 0.521E-04 0.521E-04   0.635E-04 0.115E-04 0.115E-04
   0.205E+01 -.491E-08 0.211E-06   -.207E+01 0.230E-08 0.230E-08   0.153E-01 -.342E-20 -.132E-19   -.454E-03 -.515E-09 -.515E-09
   0.690E+00 -.273E-02 -.273E-02   -.695E+00 0.280E-02 0.280E-02   0.311E-02 -.521E-04 -.521E-04   0.635E-04 -.115E-04 -.115E-04
   0.253E+00 -.106E-07 -.107E-07   -.253E+00 0.109E-07 0.109E-07   0.363E-03 0.117E-19 -.195E-20   0.140E-03 0.267E-09 0.267E-09
   0.318E-01 0.535E-08 -.157E+00   -.348E-01 -.596E-08 0.157E+00   0.230E-02 0.658E-11 0.366E-03   0.269E-03 -.973E-10 0.353E-03
   0.690E+00 -.273E-02 0.273E-02   -.695E+00 0.280E-02 -.280E-02   0.311E-02 -.521E-04 0.521E-04   0.635E-04 -.115E-04 0.115E-04
   0.522E+00 -.283E-07 -.233E-08   -.514E+00 0.295E-07 0.172E-08   -.662E-02 -.524E-19 -.185E-20   -.687E-03 0.466E-09 -.269E-09
 -----------------------------------------------------------------------------------------------
   0.219E-02 -.424E-10 0.206E-08   0.145E-12 0.369E-12 -.162E-12   -.664E-03 -.127E-18 -.222E-19   -.143E-02 0.284E-10 0.279E-10
 
 
 POSITION                                       TOTAL-FORCE (eV/Angst)
 -----------------------------------------------------------------------------------
      6.24565      6.24565      4.16377        -0.000441     -0.000151     -0.000000
      6.24565      6.24565      0.00000        -0.011722     -0.013800      0.000000
      6.24565      0.00000      2.08188        -0.011722      0.000000      0.013800
      6.24565      2.08188      4.16377        -0.000441      0.000151     -0.000000
      0.00000      6.24565      2.08188         0.002169      0.000040     -0.000040
      0.00000      0.00000      4.16377         0.000708     -0.000000     -0.000000
      2.08188      6.24565      4.16377        -0.000440      0.000147      0.000000
      6.24565      0.00000      6.24565        -0.011722     -0.000000     -0.013800
      6.24565      2.08188      0.00000        -0.011722      0.013800     -0.000000
      6.24565      4.16377      2.08188        -0.000441      0.000000      0.000151
      0.00000      6.24565      6.24565         0.002169      0.000040      0.000040
      8.30754      0.00000      0.00000         0.089416     -0.000000      0.000000
      0.00000      2.08188      2.08188         0.002169     -0.000040     -0.000040
      0.00000      4.16377      4.16377         0.000229     -0.000000      0.000000
      2.08188      6.24565      0.00000        -0.010989      0.012790     -0.000000
      2.08188      0.00000      2.08188        -0.010989     -0.000000     -0.012790
      2.08188      2.08188      4.16377        -0.000440     -0.000147     -0.000000
      4.16377      6.24565      2.08188        -0.001205     -0.000006      0.000006
      4.16377      0.00000      4.16377         0.000783     -0.000000     -0.000000
      6.24565      4.16377      6.24565        -0.000441     -0.000000     -0.000151
      0.00000      2.08188      6.24565         0.002169     -0.000040      0.000040
      0.00000      4.16377      0.00000         0.000708      0.000000      0.000000
      2.08188      0.00000      6.24565        -0.010989      0.000000      0.012790
      2.08188      2.08188      0.00000        -0.010989     -0.012790     -0.000000
      2.08188      4.16377      2.08188        -0.000440     -0.000000     -0.000147
      4.16377      6.24565      6.24565        -0.001205     -0.000006     -0.000006
      4.16377      0.00000      0.00000        -0.002332      0.000000     -0.000000
      4.16377      2.08188      2.08188        -0.001205      0.000006      0.000006
      4.16377      4.16377      4.16377         0.000216     -0.000000      0.000000
      2.08188      4.16377      6.24565        -0.000440      0.000000      0.000147
      4.16377      2.08188      6.24565        -0.001205      0.000006     -0.000006
      4.16377      4.16377      0.00000         0.000783      0.000000      0.000000
 -----------------------------------------------------------------------------------
    total drift:                                0.000100     -0.000000      0.000000


--------------------------------------------------------------------------------------------------------



 mean value of Nose-termostat <S>:     1.000 mean value of <T> :     0.000
 mean temperature <T/S>/<1/S>  :     0.000

     LOOP+:  VPU time 2563.45: CPU time 2564.63

 ----------------------------------------------------------------------------- 
|                                                                             |
|           W    W    AA    RRRRR   N    N  II  N    N   GGGG   !!!           |
|           W    W   A  A   R    R  NN   N  II  NN   N  G    G  !!!           |
|           W    W  A    A  R    R  N N  N  II  N N  N  G       !!!           |
|           W WW W  AAAAAA  RRRRR   N  N N  II  N  N N  G  GGG   !            |
|           WW  WW  A    A  R   R   N   NN  II  N   NN  G    G                |
|           W    W  A    A  R    R  N    N  II  N    N   GGGG   !!!           |
|                                                                             |
|      The partial DOS and the PROCAR file are not evaluated for NPAR/=1      |
|      please rerun with NPAR=1                                               |
|                                                                             |
 ----------------------------------------------------------------------------- 

  
  
 General timing and accounting informations for this job:
 ========================================================
  
                  Total CPU time used (sec):     2626.818
                            User time (sec):     2525.696
                          System time (sec):      101.122
                         Elapsed time (sec):     2627.999
  
                   Maximum memory used (kb):     3423752.
                   Average memory used (kb):           0.
  
                          Minor page faults:       636480
                          Major page faults:            0
                 Voluntary context switches:          964
