 vasp.4.6.28 25Jul05 complex 
 executed on             LinuxIFC date 2017.01.16  15:14:52
 running on    4 nodes
 distr:  one band on    1 nodes,    4 groups


--------------------------------------------------------------------------------------------------------


 INCAR:
 POTCAR:   PAW_PBE Ag 06Sep2000                   
 POTCAR:   PAW_PBE Ag 06Sep2000                   
   VRHFIN =Ag : s1 d10                                                          
   LEXCH  = PE                                                                  
   EATOM  =  1037.4134 eV,   76.2477 Ry                                         
                                                                                
   TITEL  = PAW_PBE Ag 06Sep2000                                                
   LULTRA =        F    use ultrasoft PP ?                                      
   IUNSCR =        1    unscreen: 0-lin 1-nonlin 2-no                           
   RPACOR =    2.000    partial core radius                                     
   POMASS =  107.868; ZVAL   =   11.000    mass and valenz                      
   RCORE  =    2.400    outmost cutoff radius                                   
   RWIGS  =    2.840; RWIGS  =    1.503    wigner-seitz radius (au A)           
   ENMAX  =  249.846; ENMIN  =  187.385 eV                                      
   RCLOC  =    1.962    cutoff for local pot                                    
   LCOR   =        T    correct aug charges                                     
   LPAW   =        T    paw PP                                                  
   EAUG   =  412.496                                                            
   DEXC   =    -.047                                                            
   RMAX   =    2.917    core radius for proj-oper                               
   RAUG   =    1.300    factor for augmentation sphere                          
   RDEP   =    2.416    radius for radial grids                                 
   QCUT   =   -4.285; QGAM   =    8.570    optimization parameters              
                                                                                
   Description                                                                  
     l     E      TYP  RCUT    TYP  RCUT                                        
     2   .000     23  2.400                                                     
     2   .000     23  2.400                                                     
     0   .000     23  2.400                                                     
     0   .000     23  2.400                                                     
     1  -.200     23  2.400                                                     
     1  1.500     23  2.400                                                     
     3   .000      7   .000                                                     
  local pseudopotential read in
  partial core-charges read in
  atomic valenz-charges read in
  non local Contribution for L=           2  read in
    real space projection operators read in
  non local Contribution for L=           2  read in
    real space projection operators read in
  non local Contribution for L=           0  read in
    real space projection operators read in
  non local Contribution for L=           0  read in
    real space projection operators read in
  non local Contribution for L=           1  read in
    real space projection operators read in
  non local Contribution for L=           1  read in
    real space projection operators read in
    PAW grid and wavefunctions read in
 
   number of l-projection  operators is LMAX  =           6
   number of lm-projection operators is LMMAX =          18
 

 ----------------------------------------------------------------------------- 
|                                                                             |
|  ADVICE TO THIS USER RUNNING 'VASP/VAMP'   (HEAR YOUR MASTER'S VOICE ...):  |
|                                                                             |
|      You have a (more or less) 'large supercell' and for larger cells       |
|      it might be more efficient to use real space projection operators      |
|      So try LREAL= Auto  in the INCAR   file.                               |
|      Mind: If you want to do an extremely accurate calculations keep the    |
|      reciprocal projection scheme          (i.e. LREAL=.FALSE.)             |
|                                                                             |
 ----------------------------------------------------------------------------- 

 PAW_PBE Ag 06Sep2000                   :
 energy of atom  1       EATOM=-1037.4134
 kinetic energy error for atom=    0.0019 (will be added to EATOM!!)
 
 EXHCAR: internal setup
 exchange correlation table for  LEXCH =        8
   RHO(1)=    0.500       N(1)  =     2000
   RHO(2)=  100.500       N(2)  =     4000
 
 POSCAR: No title                                
  positions in direct lattice
  No initial velocities read in
 


--------------------------------------------------------------------------------------------------------


 ion  position               nearest neighbor table
   1  0.750  0.750  0.500-   3 2.94  14 2.94  19 2.94  20 2.94   5 2.94  26 2.94   6 2.94  29 2.94
                            11 2.94  18 2.94  10 2.94   8 2.94
   2  0.750  0.750  0.000-   8 2.94  10 2.94  22 2.94  27 2.94  11 2.94  18 2.94  12 2.94  32 2.94
                             5 2.94  26 2.94   3 2.94  20 2.94
   3  0.750  0.000  0.250-   1 2.94   5 2.94   9 2.94  28 2.94  19 2.94  12 2.94  13 2.94  18 2.94
                            27 2.94   6 2.94   4 2.94   2 2.94
   4  0.750  0.250  0.500-   6 2.94   8 2.94  10 2.94  29 2.94  13 2.94  31 2.94  14 2.94  19 2.94
                            21 2.94  28 2.94   3 2.94  20 2.94
   5  0.000  0.750  0.250-   3 2.94  12 2.94  14 2.94  25 2.94  15 2.94   1 2.94  16 2.94  10 2.94
                             2 2.94   7 2.94  22 2.94   6 2.94
   6  0.000  0.000  0.500-   4 2.94   7 2.94  11 2.94  13 2.94   8 2.94  16 2.94   1 2.94  17 2.94
                             3 2.94  23 2.94  21 2.94   5 2.94
   7  0.250  0.750  0.500-   6 2.94  16 2.94  29 2.94  30 2.94  11 2.94  18 2.94  14 2.94  19 2.94
                             5 2.94  26 2.94  25 2.94  23 2.94
   8  0.750  0.000  0.750-   2 2.94   4 2.94  11 2.94  31 2.94  27 2.94   6 2.94  21 2.94  26 2.94
                            12 2.94  19 2.94   9 2.94   1 2.94
   9  0.750  0.250  0.000-   3 2.94  12 2.94  20 2.94  32 2.94  28 2.94  21 2.94  22 2.94  27 2.94
                            31 2.94  13 2.94  10 2.94   8 2.94
  10  0.750  0.500  0.250-   2 2.94   4 2.94  13 2.94  18 2.94  22 2.94  29 2.94  28 2.94   5 2.94
                            14 2.94  32 2.94   9 2.94   1 2.94
  11  0.000  0.750  0.750-   6 2.94   8 2.94  22 2.94  30 2.94   7 2.94   2 2.94  23 2.94  20 2.94
                             1 2.94  15 2.94  14 2.94  12 2.94
  12  0.000  0.000  0.000-   5 2.94   9 2.94  15 2.94  21 2.94   3 2.94  23 2.94   2 2.94  24 2.94
                            16 2.94   8 2.94  13 2.94  11 2.94
  13  0.000  0.250  0.250-   6 2.94  10 2.94  16 2.94  22 2.94   4 2.94  24 2.94   3 2.94  25 2.94
                            17 2.94   9 2.94  14 2.94  12 2.94
  14  0.000  0.500  0.500-   1 2.94   5 2.94  17 2.94  21 2.94  20 2.94  25 2.94   4 2.94   7 2.94
                            10 2.94  30 2.94  13 2.94  11 2.94
  15  0.250  0.750  0.000-  12 2.94  23 2.94  25 2.94  32 2.94  26 2.94   5 2.94  27 2.94  22 2.94
                            11 2.94  18 2.94  30 2.94  16 2.94
  16  0.250  0.000  0.250-   7 2.94  13 2.94  18 2.94  24 2.94   6 2.94  27 2.94   5 2.94  28 2.94
                            19 2.94  12 2.94  17 2.94  15 2.94
  17  0.250  0.250  0.500-  14 2.94  19 2.94  23 2.94  25 2.94  21 2.94  28 2.94   6 2.94  29 2.94
                            13 2.94  31 2.94  30 2.94  16 2.94
  18  0.500  0.750  0.250-  10 2.94  16 2.94  27 2.94  29 2.94   2 2.94   7 2.94   3 2.94  25 2.94
                             1 2.94  15 2.94  19 2.94  32 2.94
  19  0.500  0.000  0.500-   1 2.94  17 2.94  26 2.94  28 2.94   3 2.94  23 2.94   4 2.94   7 2.94
                             8 2.94  16 2.94  18 2.94  31 2.94
  20  0.750  0.500  0.750-   1 2.94   9 2.94  21 2.94  26 2.94  14 2.94  32 2.94  31 2.94  11 2.94
                            22 2.94  29 2.94   4 2.94   2 2.94
  21  0.000  0.250  0.750-  12 2.94  14 2.94  20 2.94  23 2.94   9 2.94  17 2.94   8 2.94  30 2.94
                            24 2.94   4 2.94  22 2.94   6 2.94
  22  0.000  0.500  0.000-   2 2.94  11 2.94  13 2.94  24 2.94  10 2.94  30 2.94   9 2.94  15 2.94
                            25 2.94  20 2.94  21 2.94   5 2.94
  23  0.250  0.000  0.750-  15 2.94  17 2.94  21 2.94  26 2.94  12 2.94  19 2.94  11 2.94  31 2.94
                            27 2.94   6 2.94  24 2.94   7 2.94
  24  0.250  0.250  0.000-  16 2.94  22 2.94  27 2.94  30 2.94  13 2.94  31 2.94  12 2.94  32 2.94
                            28 2.94  21 2.94  25 2.94  23 2.94
  25  0.250  0.500  0.250-   5 2.94  15 2.94  17 2.94  28 2.94  14 2.94  32 2.94  13 2.94  18 2.94
                            29 2.94  22 2.94  24 2.94   7 2.94
  26  0.500  0.750  0.750-  19 2.94  20 2.94  23 2.94  32 2.94   1 2.94  15 2.94  30 2.94   8 2.94
                             7 2.94   2 2.94  27 2.94  29 2.94
  27  0.500  0.000  0.000-   2 2.94  18 2.94  24 2.94  31 2.94  16 2.94   8 2.94   9 2.94  15 2.94
                             3 2.94  23 2.94  28 2.94  26 2.94
  28  0.500  0.250  0.250-   3 2.94  19 2.94  25 2.94  32 2.94  17 2.94   9 2.94  10 2.94  16 2.94
                             4 2.94  24 2.94  29 2.94  27 2.94
  29  0.500  0.500  0.500-   4 2.94   7 2.94  18 2.94  31 2.94  30 2.94  10 2.94  17 2.94   1 2.94
                            20 2.94  25 2.94  26 2.94  28 2.94
  30  0.250  0.500  0.750-   7 2.94  11 2.94  24 2.94  31 2.94  29 2.94  22 2.94  21 2.94  26 2.94
                            14 2.94  32 2.94  17 2.94  15 2.94
  31  0.500  0.250  0.750-   8 2.94  27 2.94  29 2.94  30 2.94  24 2.94   4 2.94  20 2.94  23 2.94
                             9 2.94  17 2.94  19 2.94  32 2.94
  32  0.500  0.500  0.000-   9 2.94  15 2.94  26 2.94  28 2.94  20 2.94  25 2.94  24 2.94   2 2.94
                            10 2.94  30 2.94  18 2.94  31 2.94
 
  LATTYP: Found a simple cubic cell.
 ALAT       =     8.3275382500
  
  Lattice vectors:
  
 A1 = (   8.3275382500,   0.0000000000,   0.0000000000)
 A2 = (   0.0000001500,   8.3275382500,   0.0000000000)
 A3 = (   0.0000001500,   0.0000001500,   8.3275382500)
 Subroutine PRICEL returns following result:
 
  LATTYP: Found a face centered cubic cell.
 ALAT       =     4.1637691625
  
  Lattice vectors:
  
 A1 = (   2.0818846000,   2.0818845625,   0.0000000000)
 A2 = (   2.0818845250,  -0.0000000375,  -2.0818845625)
 A3 = (   0.0000000000,   2.0818845250,  -2.0818845625)
 
  32 primitive cells build up your supercell.
 

Analysis of symmetry for initial positions (statically):

 Routine SETGRP: Setting up the symmetry group for a 
 simple cubic supercell.


 Subroutine GETGRP returns: Found 48 space group operations
 (whereof 48 operations were pure point group operations)
 out of a pool of 48 trial point group operations.


The static configuration has the point symmetry O_h .

Analysis of symmetry for dynamics (positions and initial velocities):

 Subroutine DYNSYM returns: Found 48 space group operations
 (whereof 48 operations were pure point group operations)
 out of a pool of 48 trial space group operations
 (whereof 48 operations were pure point group operations)
 and found also    32 'primitive' translations


The dynamic configuration has the point symmetry O_h .
 
 
 KPOINTS: Automatic mesh                          

Automatic generation of k-mesh.
 
 Subroutine IBZKPT returns following result:
 ===========================================
 
 Found     20 irreducible k-points:
 
 Following reciprocal coordinates:
            Coordinates               Weight
  0.062500  0.062500  0.062500      8.000000
  0.187500  0.062500  0.062500     24.000000
  0.312500  0.062500  0.062500     24.000000
  0.437500  0.062500  0.062500     24.000000
  0.187500  0.187500  0.062500     24.000000
  0.312500  0.187500  0.062500     48.000000
  0.437500  0.187500  0.062500     48.000000
  0.312500  0.312500  0.062500     24.000000
  0.437500  0.312500  0.062500     48.000000
  0.437500  0.437500  0.062500     24.000000
  0.187500  0.187500  0.187500      8.000000
  0.312500  0.187500  0.187500     24.000000
  0.437500  0.187500  0.187500     24.000000
  0.312500  0.312500  0.187500     24.000000
  0.437500  0.312500  0.187500     48.000000
  0.437500  0.437500  0.187500     24.000000
  0.312500  0.312500  0.312500      8.000000
  0.437500  0.312500  0.312500     24.000000
  0.437500  0.437500  0.312500     24.000000
  0.437500  0.437500  0.437500      8.000000
 
 Following cartesian coordinates:
            Coordinates               Weight
  0.007505  0.007505  0.007505      8.000000
  0.022516  0.007505  0.007505     24.000000
  0.037526  0.007505  0.007505     24.000000
  0.052537  0.007505  0.007505     24.000000
  0.022516  0.022516  0.007505     24.000000
  0.037526  0.022516  0.007505     48.000000
  0.052537  0.022516  0.007505     48.000000
  0.037526  0.037526  0.007505     24.000000
  0.052537  0.037526  0.007505     48.000000
  0.052537  0.052537  0.007505     24.000000
  0.022516  0.022516  0.022516      8.000000
  0.037526  0.022516  0.022516     24.000000
  0.052537  0.022516  0.022516     24.000000
  0.037526  0.037526  0.022516     24.000000
  0.052537  0.037526  0.022516     48.000000
  0.052537  0.052537  0.022516     24.000000
  0.037526  0.037526  0.037526      8.000000
  0.052537  0.037526  0.037526     24.000000
  0.052537  0.052537  0.037526     24.000000
  0.052537  0.052537  0.052537      8.000000
 


--------------------------------------------------------------------------------------------------------




 Dimension of arrays:
   k-Points           NKPTS =     20   number of bands    NBANDS=    212
   number of dos      NEDOS =    301   number of ions     NIONS =     32
   non local maximal  LDIM  =      6   non local SUM 2l+1 LMDIM =     18
   total plane-waves  NPLWV = 343000
   max r-space proj   IRMAX =      1   max aug-charges    IRDMAX= 233799
   dimension x,y,z NGX =    70 NGY =   70 NGZ =   70
   dimension x,y,z NGXF=   140 NGYF=  140 NGZF=  140
   support grid    NGXF=   280 NGYF=  280 NGZF=  280
   ions per type =              32
 NGX,Y,Z   is equivalent  to a cutoff of  13.97, 13.97, 13.97 a.u.
 NGXF,Y,Z  is equivalent  to a cutoff of  27.95, 27.95, 27.95 a.u.


 I would recommend the setting:
   dimension x,y,z NGX =    67 NGY =   67 NGZ =   67
 SYSTEM =  No title                                
 POSCAR =  No title                                

 Startparameter for this run:
   NWRITE =      2    write-flag & timer
   PREC   = accura    medium, high low
   ISTART =      0    job   : 0-new  1-cont  2-samecut
   ICHARG =      2    charge: 1-file 2-atom 10-const
   ISPIN  =      1    spin polarized calculation?
   LNONCOLLINEAR =      F non collinear calculations
   LSORBIT =      F    spin-orbit coupling
   INIWAV =      1    electr: 0-lowe 1-rand  2-diag
   LASPH  =      F    aspherical Exc in radial PAW
   METAGGA=      F    non-selfconsistent MetaGGA calc.

 Electronic Relaxation 1
   ENCUT  =  600.0 eV  44.10 Ry    6.64 a.u.  16.63 16.63 16.63*2*pi/ulx,y,z
   ENINI  =  600.0     initial cutoff
   ENAUG  =  412.5 eV  augmentation charge cutoff
   NELM   =     60;   NELMIN=  2; NELMDL=-12     # of ELM steps 
   EDIFF  = 0.1E-04   stopping-criterion for ELM
   LREAL  =      F    real-space projection
   LCOMPAT=      F    compatible to vasp.4.4
   LREAL_COMPAT= F    compatible to vasp.4.5.1-3
   GGA_COMPAT  = T    GGA compatible to vasp.4.4-vasp.4.6
   LMAXPAW     = -100 max onsite density
   LMAXMIX     =    2 max onsite mixed and CHGCAR
   VOSKOWN=      1    Vosko Wilk Nusair interpolation
   ROPT   =    0.00000
 Ionic relaxation
   EDIFFG = -.2E-01   stopping-criterion for IOM
   NSW    =    100    number of steps for IOM
   NBLOCK =      1;   KBLOCK =    100    inner block; outer block 
   IBRION =      2    ionic relax: 0-MD 1-quasi-New 2-CG
   NFREE  =      1    steps in history (QN), initial steepest desc. (CG)
   ISIF   =      2    stress and relaxation
   IWAVPR =     11    prediction:  0-non 1-charg 2-wave 3-comb
   ISYM   =      2    0-nonsym 1-usesym 2-fastsym
   LCORR  =      T    Harris-Foulkes like correction to forces

   POTIM  =   0.50    time-step for ionic-motion
   TEIN   =    0.0    initial temperature
   TEBEG  =    0.0;   TEEND  =   0.0 temperature during run
   SMASS  =  -3.00    Nose mass-parameter (am)
   estimated Nose-frequenzy (Omega)   =  0.10E-29 period in steps =****** mass=  -0.158E-26a.u.
   NPACO  =    256;   APACO  = 16.0  distance and # of slots for P.C.
   PSTRESS=    0.0 pullay stress

  Mass of Ions in am
   POMASS = 107.87
  Ionic Valenz
   ZVAL   =  11.00
  Atomic Wigner-Seitz radii
   RWIGS  =   1.34
   NELECT =     352.0000    total number of electrons
   NUPDOWN=      -1.0000    fix difference up-down

 DOS related values:
   EMIN   =  10.00;   EMAX   =-10.00  energy-range for DOS
   ISMEAR =     1;   SIGMA  =   0.20  broadening in eV -4-tet -1-fermi 0-gaus

 Electronic relaxation 2 (details)
   IALGO  =     48    algorithm
   LDIAG  =      T    sub-space diagonalisation
   IMIX   =      4    mixing-type and parameters
     AMIX     =   0.40;   BMIX     =  1.00
     AMIX_MAG =   1.60;   BMIX_MAG =  1.00
     AMIN     =   0.10
     WC   =   100.;   INIMIX=   1;  MIXPRE=   1

 Intra band minimization:
   WEIMIN = 0.0010     energy-eigenvalue tresh-hold
   EBREAK =  0.12E-07  absolut break condition
   DEPER  =   0.30     relativ break condition  

   TIME   =   0.10     timestep for ELM

  volume/ion in A,a.u.               =      18.05       121.79
  Fermi-wavevector in a.u.,eV,Ry     =   1.388052 26.214188  1.926688

 Second variation
   LSECVAR=     F    do a second variation
 
 Write flags
   LWAVE  =      T    write WAVECAR
   LCHARG =      F    write CHGCAR
   LVTOT  =      F    write LOCPOT, local potential
   LELF   =      F    write electronic localiz. function (ELF)
   LORBIT =      0    0 simple, 1 ext, 2 COOP (PROOUT)


 Dipole corrections
   IDIPOL =      0    1-x, 2-y, 3-z
   LDIPOL =      F    correct potential



--------------------------------------------------------------------------------------------------------


 conjugate gradient relaxation of ions
 charge density will be updated during run
 non-spin polarized calculation
 RMM-DIIS sequential band-by-band
 performe sub-space diagonalisation
    before iterative eigenvector-optimisation
 modified Broyden-mixing scheme, WC =      100.0
 initial mixing is a Kerker type mixing with AMIX =  0.4000 and BMIX =      1.0000
 Hartree-type preconditioning will be used
 using additional bands           36
 reciprocal scheme for non local part
 use partial core corrections
 calculate Harris-corrections to forces 
   (improved forces if not selfconsistent)
 use gradient corrections 
 use of overlap-Matrix (Vanderbilt PP)
 Methfessel and Paxton  Order N= 1 SIGMA  =   0.20


--------------------------------------------------------------------------------------------------------


  energy-cutoff  :      600.00
  volume of cell :      577.50
      direct lattice vectors                 reciprocal lattice vectors
     8.327538250  0.000000000  0.000000000     0.120083507 -0.000000002 -0.000000002
     0.000000150  8.327538250  0.000000000     0.000000000  0.120083507 -0.000000002
     0.000000150  0.000000150  8.327538250     0.000000000  0.000000000  0.120083507

  length of vectors
     8.327538250  8.327538250  8.327538250     0.120083507  0.120083507  0.120083507


 
 k-points in units of 2pi/SCALE and weight: Automatic mesh                          
   0.00750522  0.00750522  0.00750522       0.016
   0.02251566  0.00750522  0.00750522       0.047
   0.03752610  0.00750522  0.00750522       0.047
   0.05253653  0.00750522  0.00750522       0.047
   0.02251566  0.02251566  0.00750522       0.047
   0.03752610  0.02251566  0.00750522       0.094
   0.05253653  0.02251566  0.00750522       0.094
   0.03752610  0.03752610  0.00750522       0.047
   0.05253653  0.03752610  0.00750522       0.094
   0.05253653  0.05253653  0.00750522       0.047
   0.02251566  0.02251566  0.02251566       0.016
   0.03752610  0.02251566  0.02251566       0.047
   0.05253653  0.02251566  0.02251566       0.047
   0.03752610  0.03752610  0.02251566       0.047
   0.05253653  0.03752610  0.02251566       0.094
   0.05253653  0.05253653  0.02251566       0.047
   0.03752610  0.03752610  0.03752609       0.016
   0.05253653  0.03752610  0.03752609       0.047
   0.05253653  0.05253653  0.03752609       0.047
   0.05253653  0.05253653  0.05253653       0.016
 
 k-points in reciprocal lattice and weights: Automatic mesh                          
   0.06250000  0.06250000  0.06250000       0.016
   0.18750000  0.06250000  0.06250000       0.047
   0.31250000  0.06250000  0.06250000       0.047
   0.43750000  0.06250000  0.06250000       0.047
   0.18750000  0.18750000  0.06250000       0.047
   0.31250000  0.18750000  0.06250000       0.094
   0.43750000  0.18750000  0.06250000       0.094
   0.31250000  0.31250000  0.06250000       0.047
   0.43750000  0.31250000  0.06250000       0.094
   0.43750000  0.43750000  0.06250000       0.047
   0.18750000  0.18750000  0.18750000       0.016
   0.31250000  0.18750000  0.18750000       0.047
   0.43750000  0.18750000  0.18750000       0.047
   0.31250000  0.31250000  0.18750000       0.047
   0.43750000  0.31250000  0.18750000       0.094
   0.43750000  0.43750000  0.18750000       0.047
   0.31250000  0.31250000  0.31250000       0.016
   0.43750000  0.31250000  0.31250000       0.047
   0.43750000  0.43750000  0.31250000       0.047
   0.43750000  0.43750000  0.43750000       0.016
 
 position of ions in fractional coordinates (direct lattice) 
   0.75000000  0.75000000  0.50000000
   0.75000000  0.75000000  0.00000000
   0.75000000  0.00000000  0.25000000
   0.75000000  0.25000000  0.50000000
   0.00000000  0.75000000  0.25000000
   0.00000000  0.00000000  0.50000000
   0.25000000  0.75000000  0.50000000
   0.75000000  0.00000000  0.75000000
   0.75000000  0.25000000  0.00000000
   0.75000000  0.50000000  0.25000000
   0.00000000  0.75000000  0.75000000
   0.00000000  0.00000000  0.00000000
   0.00000000  0.25000000  0.25000000
   0.00000000  0.50000000  0.50000000
   0.25000000  0.75000000  0.00000000
   0.25000000  0.00000000  0.25000000
   0.25000000  0.25000000  0.50000000
   0.50000000  0.75000000  0.25000000
   0.50000000  0.00000000  0.50000000
   0.75000000  0.50000000  0.75000000
   0.00000000  0.25000000  0.75000000
   0.00000000  0.50000000  0.00000000
   0.25000000  0.00000000  0.75000000
   0.25000000  0.25000000  0.00000000
   0.25000000  0.50000000  0.25000000
   0.50000000  0.75000000  0.75000000
   0.50000000  0.00000000  0.00000000
   0.50000000  0.25000000  0.25000000
   0.50000000  0.50000000  0.50000000
   0.25000000  0.50000000  0.75000000
   0.50000000  0.25000000  0.75000000
   0.50000000  0.50000000  0.00000000
 
 position of ions in cartesian coordinates  (Angst):
   6.24565388  6.24565376  4.16376912
   6.24565380  6.24565369  0.00000000
   6.24565373  0.00000004  2.08188456
   6.24565380  2.08188464  4.16376912
   0.00000015  6.24565373  2.08188456
   0.00000007  0.00000007  4.16376912
   2.08188475  6.24565376  4.16376912
   6.24565380  0.00000011  6.24565369
   6.24565373  2.08188456  0.00000000
   6.24565380  4.16376916  2.08188456
   0.00000022  6.24565380  6.24565369
   0.00000000  0.00000000  0.00000000
   0.00000007  2.08188460  2.08188456
   0.00000015  4.16376920  4.16376912
   2.08188467  6.24565369  0.00000000
   2.08188460  0.00000004  2.08188456
   2.08188467  2.08188464  4.16376912
   4.16376928  6.24565373  2.08188456
   4.16376920  0.00000007  4.16376912
   6.24565388  4.16376924  6.24565369
   0.00000015  2.08188467  6.24565369
   0.00000007  4.16376912  0.00000000
   2.08188467  0.00000011  6.24565369
   2.08188460  2.08188456  0.00000000
   2.08188467  4.16376916  2.08188456
   4.16376935  6.24565380  6.24565369
   4.16376912  0.00000000  0.00000000
   4.16376920  2.08188460  2.08188456
   4.16376927  4.16376920  4.16376912
   2.08188475  4.16376924  6.24565369
   4.16376928  2.08188467  6.24565369
   4.16376920  4.16376912  0.00000000
 


--------------------------------------------------------------------------------------------------------


 k-point  1 :  0.06250.06250.0625  plane waves:  19297
 k-point  2 :  0.18750.06250.0625  plane waves:  19308
 k-point  3 :  0.31250.06250.0625  plane waves:  19302
 k-point  4 :  0.43750.06250.0625  plane waves:  19266
 k-point  5 :  0.18750.18750.0625  plane waves:  19292
 k-point  6 :  0.31250.18750.0625  plane waves:  19271
 k-point  7 :  0.43750.18750.0625  plane waves:  19271
 k-point  8 :  0.31250.31250.0625  plane waves:  19269
 k-point  9 :  0.43750.31250.0625  plane waves:  19255
 k-point 10 :  0.43750.43750.0625  plane waves:  19253
 k-point 11 :  0.18750.18750.1875  plane waves:  19291
 k-point 12 :  0.31250.18750.1875  plane waves:  19261
 k-point 13 :  0.43750.18750.1875  plane waves:  19273
 k-point 14 :  0.31250.31250.1875  plane waves:  19268
 k-point 15 :  0.43750.31250.1875  plane waves:  19274
 k-point 16 :  0.43750.43750.1875  plane waves:  19247
 k-point 17 :  0.31250.31250.3125  plane waves:  19282
 k-point 18 :  0.43750.31250.3125  plane waves:  19253
 k-point 19 :  0.43750.43750.3125  plane waves:  19276
 k-point 20 :  0.43750.43750.4375  plane waves:  19316

 maximum and minimum number of plane-waves per node :  19316 19247

 maximum number of plane-waves:  19316
 maximal index in each direction: 
   IXMAX= 16   IYMAX= 16   IZMAX= 16
   IXMIN=-17   IYMIN=-17   IZMIN=-17

 NGX is ok and might be reduce to  68
 NGY is ok and might be reduce to  68
 NGZ is ok and might be reduce to  68

 parallel 3dFFT wavefunction:
    minimum data exchange during FFTs selected (reduces bandwidth)
 parallel 3dFFT charge:
    minimum data exchange during FFTs selected (reduces bandwidth)

 For storing wavefunctions 1307.70 MBYTES are necessary
 For predicting wavefunctions  141.80 MBYTES are necessary
Broyden mixing: mesh for mixing (old mesh)
   NGX = 33   NGY = 33   NGZ = 33
  (NGX  =140   NGY  =140   NGZ  =140)
 gives a total of  35937 points
 initial charge density was supplied:
 charge density of overlapping atoms calculated
 number of electron  352.0000000 magnetization 
 keeping initial charge density in first step


--------------------------------------------------------------------------------------------------------


 Maximum index for augmentation-charges        56775 (set IRDMAX)


--------------------------------------------------------------------------------------------------------


 First call to EWALD:  gamma=   0.213
 Maximum number of real-space cells 3x 3x 3
 Maximum number of reciprocal cells 3x 3x 3

    FEWALD:  VPU time    0.00: CPU time    0.00


----------------------------------------- Iteration    1(   1)  ---------------------------------------


    POTLOK:  VPU time    0.42: CPU time    0.42
    SETDIJ:  VPU time    0.51: CPU time    0.51
    EDDIAG:  VPU time   13.52: CPU time   13.51
  RMM-DIIS:  VPU time   39.73: CPU time   39.71
    ORTHCH:  VPU time    1.97: CPU time    1.97
    DOS   :  VPU time    0.00: CPU time   -0.00
    ------------------------------------------
      LOOP:  VPU time   56.18: CPU time   56.16

 eigenvalue-minimisations  :  4240
 total energy-change (2. order) : 0.3904912E+04  (-0.1678252E+05)
 number of electron  352.0000000 magnetization 
 augmentation part   352.0000000 magnetization 

 Free energy of the ion-electron system (eV)
  ---------------------------------------------------
  alpha Z        PSCENC =      3148.75227566
  Ewald energy   TEWEN  =    -30697.36599883
  -1/2 Hartree   DENC   =     -6763.29581843
  -V(xc)+E(xc)   XCENC  =      -347.19107072
  PAW double counting   =     27861.41421209   -26376.63839568
  entropy T*S    EENTRO =         0.01135670
  eigenvalues    EBANDS =      3882.05762691
  atomic energy  EATOM  =     33197.16788402
  ---------------------------------------------------
  free energy    TOTEN  =      3904.91207172 eV

  energy without entropy =     3904.90071502  energy(sigma->0) =     3904.90828615


--------------------------------------------------------------------------------------------------------




----------------------------------------- Iteration    1(   2)  ---------------------------------------


    EDDIAG:  VPU time   13.35: CPU time   13.35
  RMM-DIIS:  VPU time   39.37: CPU time   39.35
    ORTHCH:  VPU time    2.01: CPU time    2.01
    DOS   :  VPU time    0.00: CPU time   -0.00
    ------------------------------------------
      LOOP:  VPU time   54.76: CPU time   54.74

 eigenvalue-minimisations  :  4240
 total energy-change (2. order) :-0.3121951E+04  (-0.3523358E+04)
 number of electron  352.0000000 magnetization 
 augmentation part   352.0000000 magnetization 

 Free energy of the ion-electron system (eV)
  ---------------------------------------------------
  alpha Z        PSCENC =      3148.75227566
  Ewald energy   TEWEN  =    -30697.36599883
  -1/2 Hartree   DENC   =     -6763.29581843
  -V(xc)+E(xc)   XCENC  =      -347.19107072
  PAW double counting   =     27861.41421209   -26376.63839568
  entropy T*S    EENTRO =        -0.02232922
  eigenvalues    EBANDS =       760.14042082
  atomic energy  EATOM  =     33197.16788402
  ---------------------------------------------------
  free energy    TOTEN  =       782.96117971 eV

  energy without entropy =      782.98350892  energy(sigma->0) =      782.96862278


--------------------------------------------------------------------------------------------------------




----------------------------------------- Iteration    1(   3)  ---------------------------------------


    EDDIAG:  VPU time   12.36: CPU time   12.35
  RMM-DIIS:  VPU time   37.11: CPU time   37.09
    ORTHCH:  VPU time    1.94: CPU time    1.93
    DOS   :  VPU time    0.00: CPU time   -0.00
    ------------------------------------------
      LOOP:  VPU time   51.44: CPU time   51.81

 eigenvalue-minimisations  :  4240
 total energy-change (2. order) :-0.6319654E+03  (-0.6906236E+03)
 number of electron  352.0000000 magnetization 
 augmentation part   352.0000000 magnetization 

 Free energy of the ion-electron system (eV)
  ---------------------------------------------------
  alpha Z        PSCENC =      3148.75227566
  Ewald energy   TEWEN  =    -30697.36599883
  -1/2 Hartree   DENC   =     -6763.29581843
  -V(xc)+E(xc)   XCENC  =      -347.19107072
  PAW double counting   =     27861.41421209   -26376.63839568
  entropy T*S    EENTRO =         0.01135741
  eigenvalues    EBANDS =       128.14135450
  atomic energy  EATOM  =     33197.16788402
  ---------------------------------------------------
  free energy    TOTEN  =       150.99580002 eV

  energy without entropy =      150.98444261  energy(sigma->0) =      150.99201421


--------------------------------------------------------------------------------------------------------




----------------------------------------- Iteration    1(   4)  ---------------------------------------


    EDDIAG:  VPU time   12.29: CPU time   12.28
  RMM-DIIS:  VPU time   37.24: CPU time   37.23
    ORTHCH:  VPU time    1.94: CPU time    1.94
    DOS   :  VPU time    0.00: CPU time   -0.00
    ------------------------------------------
      LOOP:  VPU time   51.50: CPU time   51.49

 eigenvalue-minimisations  :  4240
 total energy-change (2. order) :-0.1800264E+03  (-0.1312412E+03)
 number of electron  352.0000000 magnetization 
 augmentation part   352.0000000 magnetization 

 Free energy of the ion-electron system (eV)
  ---------------------------------------------------
  alpha Z        PSCENC =      3148.75227566
  Ewald energy   TEWEN  =    -30697.36599883
  -1/2 Hartree   DENC   =     -6763.29581843
  -V(xc)+E(xc)   XCENC  =      -347.19107072
  PAW double counting   =     27861.41421209   -26376.63839568
  entropy T*S    EENTRO =         0.00018822
  eigenvalues    EBANDS =       -51.87383469
  atomic energy  EATOM  =     33197.16788402
  ---------------------------------------------------
  free energy    TOTEN  =       -29.03055836 eV

  energy without entropy =      -29.03074658  energy(sigma->0) =      -29.03062110


--------------------------------------------------------------------------------------------------------




----------------------------------------- Iteration    1(   5)  ---------------------------------------


    EDDIAG:  VPU time   12.28: CPU time   12.27
  RMM-DIIS:  VPU time   36.76: CPU time   36.75
    ORTHCH:  VPU time    1.94: CPU time    1.94
    DOS   :  VPU time    0.00: CPU time   -0.00
    ------------------------------------------
      LOOP:  VPU time   51.00: CPU time   50.99

 eigenvalue-minimisations  :  4240
 total energy-change (2. order) :-0.5614616E+02  (-0.3291124E+02)
 number of electron  352.0000000 magnetization 
 augmentation part   352.0000000 magnetization 

 Free energy of the ion-electron system (eV)
  ---------------------------------------------------
  alpha Z        PSCENC =      3148.75227566
  Ewald energy   TEWEN  =    -30697.36599883
  -1/2 Hartree   DENC   =     -6763.29581843
  -V(xc)+E(xc)   XCENC  =      -347.19107072
  PAW double counting   =     27861.41421209   -26376.63839568
  entropy T*S    EENTRO =         0.01554826
  eigenvalues    EBANDS =      -108.03535831
  atomic energy  EATOM  =     33197.16788402
  ---------------------------------------------------
  free energy    TOTEN  =       -85.17672194 eV

  energy without entropy =      -85.19227020  energy(sigma->0) =      -85.18190470


--------------------------------------------------------------------------------------------------------




----------------------------------------- Iteration    1(   6)  ---------------------------------------


    EDDIAG:  VPU time   12.34: CPU time   12.34
  RMM-DIIS:  VPU time   39.38: CPU time   39.36
    ORTHCH:  VPU time    1.99: CPU time    1.99
    DOS   :  VPU time    0.00: CPU time   -0.00
    ------------------------------------------
      LOOP:  VPU time   53.75: CPU time   53.73

 eigenvalue-minimisations  :  4240
 total energy-change (2. order) :-0.9803098E+01  (-0.7381158E+01)
 number of electron  352.0000000 magnetization 
 augmentation part   352.0000000 magnetization 

 Free energy of the ion-electron system (eV)
  ---------------------------------------------------
  alpha Z        PSCENC =      3148.75227566
  Ewald energy   TEWEN  =    -30697.36599883
  -1/2 Hartree   DENC   =     -6763.29581843
  -V(xc)+E(xc)   XCENC  =      -347.19107072
  PAW double counting   =     27861.41421209   -26376.63839568
  entropy T*S    EENTRO =         0.00050149
  eigenvalues    EBANDS =      -117.82340995
  atomic energy  EATOM  =     33197.16788402
  ---------------------------------------------------
  free energy    TOTEN  =       -94.97982035 eV

  energy without entropy =      -94.98032184  energy(sigma->0) =      -94.97998752


--------------------------------------------------------------------------------------------------------




----------------------------------------- Iteration    1(   7)  ---------------------------------------


    EDDIAG:  VPU time   14.03: CPU time   14.02
  RMM-DIIS:  VPU time   41.15: CPU time   41.14
    ORTHCH:  VPU time    2.02: CPU time    2.02
    DOS   :  VPU time    0.00: CPU time   -0.00
    ------------------------------------------
      LOOP:  VPU time   57.23: CPU time   57.21

 eigenvalue-minimisations  :  4240
 total energy-change (2. order) :-0.2038849E+01  (-0.1716655E+01)
 number of electron  352.0000000 magnetization 
 augmentation part   352.0000000 magnetization 

 Free energy of the ion-electron system (eV)
  ---------------------------------------------------
  alpha Z        PSCENC =      3148.75227566
  Ewald energy   TEWEN  =    -30697.36599883
  -1/2 Hartree   DENC   =     -6763.29581843
  -V(xc)+E(xc)   XCENC  =      -347.19107072
  PAW double counting   =     27861.41421209   -26376.63839568
  entropy T*S    EENTRO =        -0.00156234
  eigenvalues    EBANDS =      -119.86019501
  atomic energy  EATOM  =     33197.16788402
  ---------------------------------------------------
  free energy    TOTEN  =       -97.01866925 eV

  energy without entropy =      -97.01710691  energy(sigma->0) =      -97.01814847


--------------------------------------------------------------------------------------------------------




----------------------------------------- Iteration    1(   8)  ---------------------------------------


    EDDIAG:  VPU time   16.41: CPU time   16.41
  RMM-DIIS:  VPU time   50.28: CPU time   50.28
    ORTHCH:  VPU time    2.11: CPU time    2.11
    DOS   :  VPU time    0.00: CPU time   -0.00
    ------------------------------------------
      LOOP:  VPU time   68.84: CPU time   68.83

 eigenvalue-minimisations  :  4240
 total energy-change (2. order) :-0.4349840E+00  (-0.4031522E+00)
 number of electron  352.0000000 magnetization 
 augmentation part   352.0000000 magnetization 

 Free energy of the ion-electron system (eV)
  ---------------------------------------------------
  alpha Z        PSCENC =      3148.75227566
  Ewald energy   TEWEN  =    -30697.36599883
  -1/2 Hartree   DENC   =     -6763.29581843
  -V(xc)+E(xc)   XCENC  =      -347.19107072
  PAW double counting   =     27861.41421209   -26376.63839568
  entropy T*S    EENTRO =        -0.00193106
  eigenvalues    EBANDS =      -120.29481031
  atomic energy  EATOM  =     33197.16788402
  ---------------------------------------------------
  free energy    TOTEN  =       -97.45365326 eV

  energy without entropy =      -97.45172220  energy(sigma->0) =      -97.45300958


--------------------------------------------------------------------------------------------------------




----------------------------------------- Iteration    1(   9)  ---------------------------------------


    EDDIAG:  VPU time   18.49: CPU time   18.49
  RMM-DIIS:  VPU time   90.15: CPU time   90.12
    ORTHCH:  VPU time    2.19: CPU time    2.19
    DOS   :  VPU time    0.00: CPU time   -0.00
    ------------------------------------------
      LOOP:  VPU time  110.86: CPU time  110.82

 eigenvalue-minimisations  :  8479
 total energy-change (2. order) :-0.1284455E+00  (-0.1207986E+00)
 number of electron  352.0000000 magnetization 
 augmentation part   352.0000000 magnetization 

 Free energy of the ion-electron system (eV)
  ---------------------------------------------------
  alpha Z        PSCENC =      3148.75227566
  Ewald energy   TEWEN  =    -30697.36599883
  -1/2 Hartree   DENC   =     -6763.29581843
  -V(xc)+E(xc)   XCENC  =      -347.19107072
  PAW double counting   =     27861.41421209   -26376.63839568
  entropy T*S    EENTRO =        -0.00205125
  eigenvalues    EBANDS =      -120.42313558
  atomic energy  EATOM  =     33197.16788402
  ---------------------------------------------------
  free energy    TOTEN  =       -97.58209873 eV

  energy without entropy =      -97.58004748  energy(sigma->0) =      -97.58141498


--------------------------------------------------------------------------------------------------------




----------------------------------------- Iteration    1(  10)  ---------------------------------------


    EDDIAG:  VPU time   18.65: CPU time   18.65
  RMM-DIIS:  VPU time   90.35: CPU time   90.31
    ORTHCH:  VPU time    2.19: CPU time    2.19
    DOS   :  VPU time    0.00: CPU time   -0.00
    ------------------------------------------
      LOOP:  VPU time  111.22: CPU time  111.18

 eigenvalue-minimisations  :  8453
 total energy-change (2. order) :-0.1003078E-01  (-0.9328903E-02)
 number of electron  352.0000000 magnetization 
 augmentation part   352.0000000 magnetization 

 Free energy of the ion-electron system (eV)
  ---------------------------------------------------
  alpha Z        PSCENC =      3148.75227566
  Ewald energy   TEWEN  =    -30697.36599883
  -1/2 Hartree   DENC   =     -6763.29581843
  -V(xc)+E(xc)   XCENC  =      -347.19107072
  PAW double counting   =     27861.41421209   -26376.63839568
  entropy T*S    EENTRO =        -0.00206037
  eigenvalues    EBANDS =      -120.43315724
  atomic energy  EATOM  =     33197.16788402
  ---------------------------------------------------
  free energy    TOTEN  =       -97.59212951 eV

  energy without entropy =      -97.59006913  energy(sigma->0) =      -97.59144272


--------------------------------------------------------------------------------------------------------




----------------------------------------- Iteration    1(  11)  ---------------------------------------


    EDDIAG:  VPU time   18.55: CPU time   18.54
  RMM-DIIS:  VPU time   85.49: CPU time   85.48
    ORTHCH:  VPU time    2.16: CPU time    2.16
    DOS   :  VPU time    0.00: CPU time   -0.00
    ------------------------------------------
      LOOP:  VPU time  106.22: CPU time  106.22

 eigenvalue-minimisations  :  7905
 total energy-change (2. order) :-0.3794203E-03  (-0.3416838E-03)
 number of electron  352.0000000 magnetization 
 augmentation part   352.0000000 magnetization 

 Free energy of the ion-electron system (eV)
  ---------------------------------------------------
  alpha Z        PSCENC =      3148.75227566
  Ewald energy   TEWEN  =    -30697.36599883
  -1/2 Hartree   DENC   =     -6763.29581843
  -V(xc)+E(xc)   XCENC  =      -347.19107072
  PAW double counting   =     27861.41421209   -26376.63839568
  entropy T*S    EENTRO =        -0.00206082
  eigenvalues    EBANDS =      -120.43353621
  atomic energy  EATOM  =     33197.16788402
  ---------------------------------------------------
  free energy    TOTEN  =       -97.59250893 eV

  energy without entropy =      -97.59044811  energy(sigma->0) =      -97.59182199


--------------------------------------------------------------------------------------------------------




----------------------------------------- Iteration    1(  12)  ---------------------------------------


    EDDIAG:  VPU time   18.56: CPU time   18.56
  RMM-DIIS:  VPU time   73.20: CPU time   73.17
    ORTHCH:  VPU time    2.18: CPU time    2.18
    DOS   :  VPU time    0.00: CPU time   -0.00
    CHARGE:  VPU time    9.08: CPU time    9.08
    MIXING:  VPU time    0.01: CPU time    0.01
    ------------------------------------------
      LOOP:  VPU time  103.07: CPU time  103.04

 eigenvalue-minimisations  :  6535
 total energy-change (2. order) :-0.3107416E-04  (-0.2990070E-04)
 number of electron  352.0000004 magnetization 
 augmentation part   163.1927099 magnetization 

 Broyden mixing:
  rms(total) = 0.15805E+01    rms(broyden)= 0.15805E+01
  rms(prec ) = 0.23891E+01
  weight for this iteration     100.00

 Free energy of the ion-electron system (eV)
  ---------------------------------------------------
  alpha Z        PSCENC =      3148.75227566
  Ewald energy   TEWEN  =    -30697.36599883
  -1/2 Hartree   DENC   =     -6763.29581843
  -V(xc)+E(xc)   XCENC  =      -347.19107072
  PAW double counting   =     27861.41421209   -26376.63839568
  entropy T*S    EENTRO =        -0.00206086
  eigenvalues    EBANDS =      -120.43356725
  atomic energy  EATOM  =     33197.16788402
  ---------------------------------------------------
  free energy    TOTEN  =       -97.59254000 eV

  energy without entropy =      -97.59047914  energy(sigma->0) =      -97.59185305


--------------------------------------------------------------------------------------------------------




----------------------------------------- Iteration    1(  13)  ---------------------------------------


    POTLOK:  VPU time    0.49: CPU time    0.49
    SETDIJ:  VPU time    0.61: CPU time    0.61
    EDDIAG:  VPU time   18.60: CPU time   18.60
  RMM-DIIS:  VPU time   90.06: CPU time   90.05
    ORTHCH:  VPU time    2.16: CPU time    2.16
    DOS   :  VPU time    0.00: CPU time   -0.00
    CHARGE:  VPU time    8.86: CPU time    8.86
    MIXING:  VPU time    0.02: CPU time    0.02
    ------------------------------------------
      LOOP:  VPU time  120.83: CPU time  120.83

 eigenvalue-minimisations  :  8480
 total energy-change (2. order) : 0.6851898E+01  (-0.2637748E+01)
 number of electron  352.0000004 magnetization 
 augmentation part   168.5183312 magnetization 

 Broyden mixing:
  rms(total) = 0.29115E+00    rms(broyden)= 0.29115E+00
  rms(prec ) = 0.40935E+00
  weight for this iteration     100.00

 eigenvalues of (default mixing * dielectric matrix)
  average eigenvalue GAMMA=   1.0703
  1.0703

 Free energy of the ion-electron system (eV)
  ---------------------------------------------------
  alpha Z        PSCENC =      3148.75227566
  Ewald energy   TEWEN  =    -30697.36599883
  -1/2 Hartree   DENC   =     -6465.40176378
  -V(xc)+E(xc)   XCENC  =      -357.95872707
  PAW double counting   =     27469.66285783   -26009.16407478
  entropy T*S    EENTRO =        -0.01406303
  eigenvalues    EBANDS =      -376.41903181
  atomic energy  EATOM  =     33197.16788402
  ---------------------------------------------------
  free energy    TOTEN  =       -90.74064180 eV

  energy without entropy =      -90.72657877  energy(sigma->0) =      -90.73595412


--------------------------------------------------------------------------------------------------------




----------------------------------------- Iteration    1(  14)  ---------------------------------------


    POTLOK:  VPU time    0.51: CPU time    0.51
    SETDIJ:  VPU time    0.64: CPU time    0.64
    EDDIAG:  VPU time   18.55: CPU time   18.55
  RMM-DIIS:  VPU time   90.03: CPU time   90.00
    ORTHCH:  VPU time    2.10: CPU time    2.10
    DOS   :  VPU time    0.00: CPU time   -0.00
    CHARGE:  VPU time    9.08: CPU time    9.08
    MIXING:  VPU time    0.02: CPU time    0.02
    ------------------------------------------
      LOOP:  VPU time  120.97: CPU time  120.92

 eigenvalue-minimisations  :  8480
 total energy-change (2. order) : 0.1863117E+00  (-0.4425369E-01)
 number of electron  352.0000004 magnetization 
 augmentation part   168.8953796 magnetization 

 Broyden mixing:
  rms(total) = 0.14993E+00    rms(broyden)= 0.14993E+00
  rms(prec ) = 0.19200E+00
  weight for this iteration     100.00

 eigenvalues of (default mixing * dielectric matrix)
  average eigenvalue GAMMA=   1.7066
  1.0626  2.3507

 Free energy of the ion-electron system (eV)
  ---------------------------------------------------
  alpha Z        PSCENC =      3148.75227566
  Ewald energy   TEWEN  =    -30697.36599883
  -1/2 Hartree   DENC   =     -6421.47376030
  -V(xc)+E(xc)   XCENC  =      -359.64777820
  PAW double counting   =     27551.05891827   -26110.33846604
  entropy T*S    EENTRO =        -0.01376926
  eigenvalues    EBANDS =      -398.69363545
  atomic energy  EATOM  =     33197.16788402
  ---------------------------------------------------
  free energy    TOTEN  =       -90.55433014 eV

  energy without entropy =      -90.54056088  energy(sigma->0) =      -90.54974039


--------------------------------------------------------------------------------------------------------




----------------------------------------- Iteration    1(  15)  ---------------------------------------


    POTLOK:  VPU time    0.53: CPU time    0.53
    SETDIJ:  VPU time    0.64: CPU time    0.64
    EDDIAG:  VPU time   18.38: CPU time   18.38
  RMM-DIIS:  VPU time   89.55: CPU time   89.52
    ORTHCH:  VPU time    2.17: CPU time    2.17
    DOS   :  VPU time    0.00: CPU time   -0.00
    CHARGE:  VPU time    8.79: CPU time    8.78
    MIXING:  VPU time    0.01: CPU time    0.01
    ------------------------------------------
      LOOP:  VPU time  120.11: CPU time  120.07

 eigenvalue-minimisations  :  8480
 total energy-change (2. order) : 0.8320985E-01  (-0.3849643E-02)
 number of electron  352.0000004 magnetization 
 augmentation part   168.8503489 magnetization 

 Broyden mixing:
  rms(total) = 0.18706E-01    rms(broyden)= 0.18705E-01
  rms(prec ) = 0.28496E-01
  weight for this iteration     100.00

 eigenvalues of (default mixing * dielectric matrix)
  average eigenvalue GAMMA=   1.7371
  2.7946  1.0967  1.3199

 Free energy of the ion-electron system (eV)
  ---------------------------------------------------
  alpha Z        PSCENC =      3148.75227566
  Ewald energy   TEWEN  =    -30697.36599883
  -1/2 Hartree   DENC   =     -6391.50379842
  -V(xc)+E(xc)   XCENC  =      -360.85575329
  PAW double counting   =     27719.75942214   -26301.99877964
  entropy T*S    EENTRO =        -0.01376242
  eigenvalues    EBANDS =      -404.41260951
  atomic energy  EATOM  =     33197.16788402
  ---------------------------------------------------
  free energy    TOTEN  =       -90.47112029 eV

  energy without entropy =      -90.45735787  energy(sigma->0) =      -90.46653281


--------------------------------------------------------------------------------------------------------




----------------------------------------- Iteration    1(  16)  ---------------------------------------


    POTLOK:  VPU time    0.54: CPU time    0.54
    SETDIJ:  VPU time    0.64: CPU time    0.64
    EDDIAG:  VPU time   18.44: CPU time   18.43
  RMM-DIIS:  VPU time   90.12: CPU time   90.08
    ORTHCH:  VPU time    2.17: CPU time    2.17
    DOS   :  VPU time    0.00: CPU time   -0.00
    CHARGE:  VPU time    8.73: CPU time    8.72
    MIXING:  VPU time    0.02: CPU time    0.02
    ------------------------------------------
      LOOP:  VPU time  120.69: CPU time  120.64

 eigenvalue-minimisations  :  8480
 total energy-change (2. order) :-0.7488603E-03  (-0.6643528E-03)
 number of electron  352.0000004 magnetization 
 augmentation part   168.9311717 magnetization 

 Broyden mixing:
  rms(total) = 0.10582E-01    rms(broyden)= 0.10582E-01
  rms(prec ) = 0.15353E-01
  weight for this iteration     100.00

 eigenvalues of (default mixing * dielectric matrix)
  average eigenvalue GAMMA=   1.8221
  2.7761  2.4816  1.0154  1.0154

 Free energy of the ion-electron system (eV)
  ---------------------------------------------------
  alpha Z        PSCENC =      3148.75227566
  Ewald energy   TEWEN  =    -30697.36599883
  -1/2 Hartree   DENC   =     -6383.90583586
  -V(xc)+E(xc)   XCENC  =      -361.14672259
  PAW double counting   =     27739.73892132   -26324.03229313
  entropy T*S    EENTRO =        -0.01369708
  eigenvalues    EBANDS =      -409.66640265
  atomic energy  EATOM  =     33197.16788402
  ---------------------------------------------------
  free energy    TOTEN  =       -90.47186915 eV

  energy without entropy =      -90.45817206  energy(sigma->0) =      -90.46730345


--------------------------------------------------------------------------------------------------------




----------------------------------------- Iteration    1(  17)  ---------------------------------------


    POTLOK:  VPU time    0.53: CPU time    0.53
    SETDIJ:  VPU time    0.67: CPU time    0.67
    EDDIAG:  VPU time   18.46: CPU time   18.45
  RMM-DIIS:  VPU time   99.23: CPU time   99.19
    ORTHCH:  VPU time    2.27: CPU time    2.27
    DOS   :  VPU time    0.00: CPU time   -0.00
    CHARGE:  VPU time   10.84: CPU time   10.83
    MIXING:  VPU time    0.01: CPU time    0.02
    ------------------------------------------
      LOOP:  VPU time  132.03: CPU time  131.98

 eigenvalue-minimisations  :  8480
 total energy-change (2. order) : 0.5154952E-03  (-0.1563966E-04)
 number of electron  352.0000004 magnetization 
 augmentation part   168.9194564 magnetization 

 Broyden mixing:
  rms(total) = 0.24252E-02    rms(broyden)= 0.24251E-02
  rms(prec ) = 0.35472E-02
  weight for this iteration     100.00

 eigenvalues of (default mixing * dielectric matrix)
  average eigenvalue GAMMA=   1.7660
  2.8489  2.3656  1.0323  1.0323  1.5508

 Free energy of the ion-electron system (eV)
  ---------------------------------------------------
  alpha Z        PSCENC =      3148.75227566
  Ewald energy   TEWEN  =    -30697.36599883
  -1/2 Hartree   DENC   =     -6386.74168880
  -V(xc)+E(xc)   XCENC  =      -361.04645876
  PAW double counting   =     27741.01883233   -26323.60772107
  entropy T*S    EENTRO =        -0.01372489
  eigenvalues    EBANDS =      -408.63475330
  atomic energy  EATOM  =     33197.16788402
  ---------------------------------------------------
  free energy    TOTEN  =       -90.47135365 eV

  energy without entropy =      -90.45762876  energy(sigma->0) =      -90.46677869


--------------------------------------------------------------------------------------------------------




----------------------------------------- Iteration    1(  18)  ---------------------------------------


    POTLOK:  VPU time    0.58: CPU time    0.58
    SETDIJ:  VPU time    0.77: CPU time    0.77
    EDDIAG:  VPU time   21.38: CPU time   21.38
  RMM-DIIS:  VPU time   98.63: CPU time   98.60
    ORTHCH:  VPU time    2.32: CPU time    2.32
    DOS   :  VPU time    0.00: CPU time   -0.00
    CHARGE:  VPU time   10.85: CPU time   10.85
    MIXING:  VPU time    0.02: CPU time    0.02
    ------------------------------------------
      LOOP:  VPU time  134.59: CPU time  134.55

 eigenvalue-minimisations  :  7848
 total energy-change (2. order) : 0.1802691E-04  (-0.7728824E-05)
 number of electron  352.0000004 magnetization 
 augmentation part   168.9107461 magnetization 

 Broyden mixing:
  rms(total) = 0.24053E-03    rms(broyden)= 0.24047E-03
  rms(prec ) = 0.29346E-03
  weight for this iteration     100.00

 eigenvalues of (default mixing * dielectric matrix)
  average eigenvalue GAMMA=   1.8373
  2.8015  2.8015  2.3738  0.9633  1.0418  1.0418

 Free energy of the ion-electron system (eV)
  ---------------------------------------------------
  alpha Z        PSCENC =      3148.75227566
  Ewald energy   TEWEN  =    -30697.36599883
  -1/2 Hartree   DENC   =     -6387.19595034
  -V(xc)+E(xc)   XCENC  =      -361.03069379
  PAW double counting   =     27741.59693539   -26324.17001811
  entropy T*S    EENTRO =        -0.01373265
  eigenvalues    EBANDS =      -408.21203698
  atomic energy  EATOM  =     33197.16788402
  ---------------------------------------------------
  free energy    TOTEN  =       -90.47133563 eV

  energy without entropy =      -90.45760297  energy(sigma->0) =      -90.46675808


--------------------------------------------------------------------------------------------------------




----------------------------------------- Iteration    1(  19)  ---------------------------------------


    POTLOK:  VPU time    0.54: CPU time    0.54
    SETDIJ:  VPU time    0.69: CPU time    0.69
    EDDIAG:  VPU time   21.56: CPU time   21.55
  RMM-DIIS:  VPU time   63.32: CPU time   63.30
    ORTHCH:  VPU time    2.34: CPU time    2.34
    DOS   :  VPU time    0.00: CPU time   -0.00
    ------------------------------------------
      LOOP:  VPU time   88.48: CPU time   88.46

 eigenvalue-minimisations  :  4613
 total energy-change (2. order) : 0.7177790E-05  (-0.8248026E-07)
 number of electron  352.0000004 magnetization 
 augmentation part   168.9107461 magnetization 

 Free energy of the ion-electron system (eV)
  ---------------------------------------------------
  alpha Z        PSCENC =      3148.75227566
  Ewald energy   TEWEN  =    -30697.36599883
  -1/2 Hartree   DENC   =     -6387.23773086
  -V(xc)+E(xc)   XCENC  =      -361.02921772
  PAW double counting   =     27740.89060342   -26323.43501516
  entropy T*S    EENTRO =        -0.01373294
  eigenvalues    EBANDS =      -408.20039603
  atomic energy  EATOM  =     33197.16788402
  ---------------------------------------------------
  free energy    TOTEN  =       -90.47132845 eV

  energy without entropy =      -90.45759550  energy(sigma->0) =      -90.46675080


--------------------------------------------------------------------------------------------------------




 average (electrostatic) potential at core
  the test charge radii are     1.1249
  (the norm of the test charge is              1.0000)
       1 -41.6329       2 -41.6329       3 -41.6329       4 -41.6329       5 -41.6329
       6 -41.6329       7 -41.6329       8 -41.6329       9 -41.6329      10 -41.6329
      11 -41.6329      12 -41.6329      13 -41.6329      14 -41.6329      15 -41.6329
      16 -41.6329      17 -41.6329      18 -41.6329      19 -41.6329      20 -41.6329
      21 -41.6329      22 -41.6329      23 -41.6329      24 -41.6329      25 -41.6329
      26 -41.6329      27 -41.6329      28 -41.6329      29 -41.6329      30 -41.6329
      31 -41.6329      32 -41.6329
 
 
 
 E-fermi :   3.0792     XC(G=0): -11.8741     alpha+bet : -8.0684
   add alpha+bet to get absolut eigen values

 k-point   1 :       0.0625    0.0625    0.0625
  band No.  band energies     occupation 
      1      -4.3023      2.00000
      2      -3.0674      2.00000
      3      -3.0674      2.00000
      4      -3.0674      2.00000
      5      -3.0406      2.00000
      6      -3.0298      2.00000
      7      -3.0298      2.00000
      8      -3.0298      2.00000
      9      -2.9514      2.00000
     10      -2.9514      2.00000
     11      -2.9514      2.00000
     12      -2.6960      2.00000
     13      -2.6960      2.00000
     14      -2.6960      2.00000
     15      -2.5960      2.00000
     16      -2.5960      2.00000
     17      -2.5960      2.00000
     18      -2.3936      2.00000
     19      -2.3936      2.00000
     20      -2.3936      2.00000
     21      -2.3936      2.00000
     22      -2.3936      2.00000
     23      -2.3936      2.00000
     24      -2.3804      2.00000
     25      -2.3804      2.00000
     26      -2.3804      2.00000
     27      -2.2489      2.00000
     28      -2.2489      2.00000
     29      -2.2489      2.00000
     30      -2.1560      2.00000
     31      -2.1560      2.00000
     32      -2.1560      2.00000
     33      -2.1407      2.00000
     34      -2.1407      2.00000
     35      -2.1407      2.00000
     36      -2.1184      2.00000
     37      -2.1184      2.00000
     38      -2.1184      2.00000
     39      -2.1184      2.00000
     40      -2.1184      2.00000
     41      -2.1184      2.00000
     42      -1.9710      2.00000
     43      -1.9710      2.00000
     44      -1.9710      2.00000
     45      -1.9710      2.00000
     46      -1.9710      2.00000
     47      -1.9710      2.00000
     48      -1.8867      2.00000
     49      -1.8867      2.00000
     50      -1.8867      2.00000
     51      -1.8831      2.00000
     52      -1.8831      2.00000
     53      -1.8831      2.00000
     54      -1.8831      2.00000
     55      -1.8831      2.00000
     56      -1.8831      2.00000
     57      -1.8378      2.00000
     58      -1.8378      2.00000
     59      -1.8378      2.00000
     60      -1.7029      2.00000
     61      -1.7029      2.00000
     62      -1.7029      2.00000
     63      -1.7029      2.00000
     64      -1.7029      2.00000
     65      -1.7029      2.00000
     66      -1.6335      2.00000
     67      -1.6335      2.00000
     68      -1.6335      2.00000
     69      -1.6189      2.00000
     70      -1.6189      2.00000
     71      -1.6128      2.00000
     72      -1.6099      2.00000
     73      -1.6099      2.00000
     74      -1.6099      2.00000
     75      -1.5983      2.00000
     76      -1.5983      2.00000
     77      -1.5344      2.00000
     78      -1.5344      2.00000
     79      -1.5344      2.00000
     80      -1.5344      2.00000
     81      -1.5344      2.00000
     82      -1.5344      2.00000
     83      -1.5116      2.00000
     84      -1.5116      2.00000
     85      -1.5116      2.00000
     86      -1.4668      2.00000
     87      -1.4668      2.00000
     88      -1.4668      2.00000
     89      -1.0469      2.00000
     90      -1.0469      2.00000
     91      -1.0469      2.00000
     92      -0.9939      2.00000
     93      -0.9939      2.00000
     94      -0.9939      2.00000
     95      -0.9875      2.00000
     96      -0.9875      2.00000
     97      -0.9875      2.00000
     98      -0.9791      2.00000
     99      -0.9791      2.00000
    100      -0.9791      2.00000
    101      -0.9791      2.00000
    102      -0.9791      2.00000
    103      -0.9791      2.00000
    104      -0.9083      2.00000
    105      -0.9083      2.00000
    106      -0.9083      2.00000
    107      -0.8064      2.00000
    108      -0.8064      2.00000
    109      -0.8064      2.00000
    110      -0.7373      2.00000
    111      -0.7373      2.00000
    112      -0.7373      2.00000
    113      -0.7247      2.00000
    114      -0.7247      2.00000
    115      -0.7247      2.00000
    116      -0.6782      2.00000
    117      -0.6782      2.00000
    118      -0.6782      2.00000
    119      -0.6733      2.00000
    120      -0.6733      2.00000
    121      -0.6423      2.00000
    122      -0.6423      2.00000
    123      -0.6423      2.00000
    124      -0.6423      2.00000
    125      -0.6423      2.00000
    126      -0.6423      2.00000
    127      -0.6200      2.00000
    128      -0.6200      2.00000
    129      -0.6200      2.00000
    130      -0.6200      2.00000
    131      -0.6200      2.00000
    132      -0.6200      2.00000
    133      -0.5488      2.00000
    134      -0.5488      2.00000
    135      -0.5488      2.00000
    136      -0.3596      2.00000
    137      -0.3596      2.00000
    138      -0.3596      2.00000
    139      -0.3213      2.00000
    140      -0.3213      2.00000
    141      -0.3213      2.00000
    142      -0.2884      2.00000
    143      -0.2884      2.00000
    144      -0.2884      2.00000
    145      -0.0099      2.00000
    146      -0.0099      2.00000
    147      -0.0099      2.00000
    148       0.0083      2.00000
    149       0.0083      2.00000
    150       0.0083      2.00000
    151       0.0359      2.00000
    152       0.0359      2.00000
    153       0.0506      2.00000
    154       0.0506      2.00000
    155       0.0506      2.00000
    156       0.2003      2.00000
    157       0.2003      2.00000
    158       0.2003      2.00000
    159       0.2249      2.00000
    160       0.2249      2.00000
    161       0.2249      2.00000
    162       0.2249      2.00000
    163       0.2249      2.00000
    164       0.2249      2.00000
    165       0.2274      2.00000
    166       0.2274      2.00000
    167       0.2274      2.00000
    168       1.8811      2.00000
    169       1.8811      2.00000
    170       1.8811      2.00000
    171       2.4488      2.00008
    172       2.4488      2.00008
    173       2.4488      2.00008
    174       2.4488      2.00008
    175       2.4488      2.00008
    176       2.4488      2.00008
    177       2.5522      2.00124
    178       2.8284      2.07066
    179       2.8284      2.07066
    180       2.8284      2.07066
    181       3.0355      1.36055
    182       3.0355      1.36055
    183       3.0355      1.36055
    184       4.6721     -0.00000
    185       4.6721     -0.00000
    186       4.6721     -0.00000
    187       6.3739     -0.00000
    188       6.3739     -0.00000
    189       6.3739     -0.00000
    190       6.6091     -0.00000
    191       8.2476     -0.00000
    192       8.2476     -0.00000
    193       8.2476     -0.00000
    194       8.2476     -0.00000
    195       8.2476     -0.00000
    196       8.2476     -0.00000
    197       8.9360      0.00000
    198       8.9360      0.00000
    199       8.9360      0.00000
    200       8.9360      0.00000
    201       8.9362      0.00000
    202       8.9371      0.00000
    203       9.4439      0.00000
    204       9.4457      0.00000
    205       9.4528      0.00000
    206       9.9905      0.00000
    207       9.9910      0.00000
    208       9.9923      0.00000
    209       9.9973      0.00000
    210      10.0906      0.00000
    211      10.6501      0.00000
    212      11.0035      0.00000

 k-point   2 :       0.1875    0.0625    0.0625
  band No.  band energies     occupation 
      1      -4.2244      2.00000
      2      -3.0364      2.00000
      3      -3.0283      2.00000
      4      -3.0283      2.00000
      5      -3.0141      2.00000
      6      -2.9926      2.00000
      7      -2.9926      2.00000
      8      -2.9821      2.00000
      9      -2.9312      2.00000
     10      -2.9280      2.00000
     11      -2.9146      2.00000
     12      -2.9146      2.00000
     13      -2.6480      2.00000
     14      -2.6480      2.00000
     15      -2.6131      2.00000
     16      -2.5504      2.00000
     17      -2.5504      2.00000
     18      -2.5068      2.00000
     19      -2.4650      2.00000
     20      -2.4650      2.00000
     21      -2.3698      2.00000
     22      -2.3698      2.00000
     23      -2.3602      2.00000
     24      -2.3602      2.00000
     25      -2.3544      2.00000
     26      -2.3544      2.00000
     27      -2.3453      2.00000
     28      -2.3049      2.00000
     29      -2.3049      2.00000
     30      -2.2935      2.00000
     31      -2.2278      2.00000
     32      -2.2278      2.00000
     33      -2.2082      2.00000
     34      -2.2082      2.00000
     35      -2.1926      2.00000
     36      -2.1926      2.00000
     37      -2.1729      2.00000
     38      -2.1729      2.00000
     39      -2.1173      2.00000
     40      -2.1162      2.00000
     41      -2.1162      2.00000
     42      -2.0966      2.00000
     43      -2.0966      2.00000
     44      -1.9721      2.00000
     45      -1.9721      2.00000
     46      -1.9687      2.00000
     47      -1.9687      2.00000
     48      -1.9079      2.00000
     49      -1.9079      2.00000
     50      -1.9030      2.00000
     51      -1.9030      2.00000
     52      -1.9005      2.00000
     53      -1.9005      2.00000
     54      -1.8360      2.00000
     55      -1.8133      2.00000
     56      -1.8133      2.00000
     57      -1.8052      2.00000
     58      -1.8052      2.00000
     59      -1.7675      2.00000
     60      -1.7229      2.00000
     61      -1.7229      2.00000
     62      -1.6990      2.00000
     63      -1.6990      2.00000
     64      -1.6599      2.00000
     65      -1.6478      2.00000
     66      -1.6478      2.00000
     67      -1.6474      2.00000
     68      -1.6474      2.00000
     69      -1.6420      2.00000
     70      -1.6420      2.00000
     71      -1.6388      2.00000
     72      -1.6168      2.00000
     73      -1.6001      2.00000
     74      -1.5804      2.00000
     75      -1.5804      2.00000
     76      -1.5797      2.00000
     77      -1.5797      2.00000
     78      -1.5737      2.00000
     79      -1.5734      2.00000
     80      -1.5715      2.00000
     81      -1.5030      2.00000
     82      -1.5030      2.00000
     83      -1.4102      2.00000
     84      -1.4102      2.00000
     85      -1.3708      2.00000
     86      -1.3708      2.00000
     87      -1.3279      2.00000
     88      -1.3159      2.00000
     89      -1.1600      2.00000
     90      -1.1600      2.00000
     91      -1.1534      2.00000
     92      -1.1205      2.00000
     93      -1.0798      2.00000
     94      -1.0759      2.00000
     95      -1.0759      2.00000
     96      -1.0684      2.00000
     97      -1.0135      2.00000
     98      -1.0135      2.00000
     99      -1.0094      2.00000
    100      -1.0094      2.00000
    101      -0.9184      2.00000
    102      -0.9184      2.00000
    103      -0.9165      2.00000
    104      -0.9165      2.00000
    105      -0.8958      2.00000
    106      -0.8958      2.00000
    107      -0.8776      2.00000
    108      -0.8707      2.00000
    109      -0.8707      2.00000
    110      -0.7886      2.00000
    111      -0.7886      2.00000
    112      -0.7495      2.00000
    113      -0.7495      2.00000
    114      -0.7017      2.00000
    115      -0.6602      2.00000
    116      -0.6537      2.00000
    117      -0.6537      2.00000
    118      -0.6486      2.00000
    119      -0.6486      2.00000
    120      -0.6402      2.00000
    121      -0.6402      2.00000
    122      -0.6075      2.00000
    123      -0.6024      2.00000
    124      -0.5735      2.00000
    125      -0.5735      2.00000
    126      -0.5614      2.00000
    127      -0.5451      2.00000
    128      -0.5451      2.00000
    129      -0.5090      2.00000
    130      -0.5090      2.00000
    131      -0.4878      2.00000
    132      -0.4878      2.00000
    133      -0.4546      2.00000
    134      -0.4460      2.00000
    135      -0.4460      2.00000
    136      -0.4283      2.00000
    137      -0.3241      2.00000
    138      -0.3241      2.00000
    139      -0.2943      2.00000
    140      -0.2943      2.00000
    141      -0.2168      2.00000
    142      -0.1412      2.00000
    143      -0.1227      2.00000
    144      -0.1227      2.00000
    145      -0.0521      2.00000
    146      -0.0521      2.00000
    147      -0.0327      2.00000
    148      -0.0327      2.00000
    149      -0.0248      2.00000
    150      -0.0123      2.00000
    151      -0.0092      2.00000
    152       0.0311      2.00000
    153       0.0331      2.00000
    154       0.0331      2.00000
    155       0.0746      2.00000
    156       0.0746      2.00000
    157       0.1525      2.00000
    158       0.1748      2.00000
    159       0.1748      2.00000
    160       0.1755      2.00000
    161       0.1755      2.00000
    162       0.1847      2.00000
    163       0.2166      2.00000
    164       0.2249      2.00000
    165       0.2249      2.00000
    166       0.2250      2.00000
    167       0.2250      2.00000
    168       1.3849      2.00000
    169       1.3849      2.00000
    170       1.8868      2.00000
    171       1.9244      2.00000
    172       1.9244      2.00000
    173       2.2960      2.00000
    174       2.4651      2.00013
    175       2.4651      2.00013
    176       2.7758      2.05378
    177       2.7758      2.05378
    178       3.0491      1.25193
    179       3.0574      1.18335
    180       3.0949      0.86734
    181       3.0949      0.86733
    182       3.6917     -0.00013
    183       3.6917     -0.00013
    184       4.1527     -0.00000
    185       4.8671     -0.00000
    186       4.8671     -0.00000
    187       6.3937     -0.00000
    188       6.6358     -0.00000
    189       6.6358     -0.00000
    190       7.0435     -0.00000
    191       7.3957     -0.00000
    192       7.3957     -0.00000
    193       7.5610     -0.00000
    194       7.5610     -0.00000
    195       8.0105     -0.00000
    196       8.0105     -0.00000
    197       8.3665     -0.00000
    198       8.3665     -0.00000
    199       9.0533      0.00000
    200       9.0537      0.00000
    201       9.4607      0.00000
    202       9.4671      0.00000
    203       9.5389      0.00000
    204       9.5470      0.00000
    205       9.8526      0.00000
    206      10.0313      0.00000
    207      10.1443      0.00000
    208      10.2136      0.00000
    209      10.3067      0.00000
    210      10.3304      0.00000
    211      10.4929      0.00000
    212      10.7266      0.00000

 k-point   3 :       0.3125    0.0625    0.0625
  band No.  band energies     occupation 
      1      -4.0710      2.00000
      2      -3.2446      2.00000
      3      -2.9767      2.00000
      4      -2.9530      2.00000
      5      -2.9530      2.00000
      6      -2.9500      2.00000
      7      -2.9190      2.00000
      8      -2.9190      2.00000
      9      -2.8991      2.00000
     10      -2.8819      2.00000
     11      -2.8412      2.00000
     12      -2.8412      2.00000
     13      -2.6927      2.00000
     14      -2.6237      2.00000
     15      -2.5838      2.00000
     16      -2.5838      2.00000
     17      -2.5584      2.00000
     18      -2.5584      2.00000
     19      -2.5425      2.00000
     20      -2.4972      2.00000
     21      -2.4972      2.00000
     22      -2.4693      2.00000
     23      -2.4665      2.00000
     24      -2.4665      2.00000
     25      -2.4142      2.00000
     26      -2.4142      2.00000
     27      -2.3290      2.00000
     28      -2.3290      2.00000
     29      -2.2997      2.00000
     30      -2.2997      2.00000
     31      -2.2963      2.00000
     32      -2.2963      2.00000
     33      -2.2308      2.00000
     34      -2.2308      2.00000
     35      -2.2215      2.00000
     36      -2.2215      2.00000
     37      -2.1856      2.00000
     38      -2.1856      2.00000
     39      -2.1744      2.00000
     40      -2.1744      2.00000
     41      -2.0820      2.00000
     42      -2.0820      2.00000
     43      -1.9907      2.00000
     44      -1.9667      2.00000
     45      -1.9667      2.00000
     46      -1.9658      2.00000
     47      -1.9658      2.00000
     48      -1.9580      2.00000
     49      -1.9580      2.00000
     50      -1.9446      2.00000
     51      -1.9446      2.00000
     52      -1.9418      2.00000
     53      -1.9418      2.00000
     54      -1.8169      2.00000
     55      -1.8169      2.00000
     56      -1.8133      2.00000
     57      -1.7715      2.00000
     58      -1.7715      2.00000
     59      -1.7534      2.00000
     60      -1.7534      2.00000
     61      -1.7382      2.00000
     62      -1.7382      2.00000
     63      -1.7083      2.00000
     64      -1.6957      2.00000
     65      -1.6943      2.00000
     66      -1.6938      2.00000
     67      -1.6938      2.00000
     68      -1.6929      2.00000
     69      -1.6929      2.00000
     70      -1.6707      2.00000
     71      -1.6707      2.00000
     72      -1.6522      2.00000
     73      -1.6522      2.00000
     74      -1.6263      2.00000
     75      -1.5586      2.00000
     76      -1.5586      2.00000
     77      -1.5543      2.00000
     78      -1.5252      2.00000
     79      -1.5252      2.00000
     80      -1.5196      2.00000
     81      -1.5185      2.00000
     82      -1.5115      2.00000
     83      -1.3251      2.00000
     84      -1.3251      2.00000
     85      -1.2762      2.00000
     86      -1.2492      2.00000
     87      -1.2492      2.00000
     88      -1.2314      2.00000
     89      -1.2314      2.00000
     90      -1.2249      2.00000
     91      -1.2126      2.00000
     92      -1.2008      2.00000
     93      -1.0977      2.00000
     94      -1.0977      2.00000
     95      -1.0829      2.00000
     96      -1.0695      2.00000
     97      -1.0695      2.00000
     98      -1.0534      2.00000
     99      -0.9499      2.00000
    100      -0.9499      2.00000
    101      -0.9371      2.00000
    102      -0.9236      2.00000
    103      -0.9236      2.00000
    104      -0.8267      2.00000
    105      -0.8267      2.00000
    106      -0.8132      2.00000
    107      -0.8132      2.00000
    108      -0.7864      2.00000
    109      -0.7864      2.00000
    110      -0.7726      2.00000
    111      -0.7726      2.00000
    112      -0.7560      2.00000
    113      -0.7560      2.00000
    114      -0.7552      2.00000
    115      -0.6648      2.00000
    116      -0.6648      2.00000
    117      -0.6426      2.00000
    118      -0.6426      2.00000
    119      -0.6349      2.00000
    120      -0.6349      2.00000
    121      -0.6345      2.00000
    122      -0.5463      2.00000
    123      -0.5463      2.00000
    124      -0.4921      2.00000
    125      -0.4646      2.00000
    126      -0.4590      2.00000
    127      -0.4590      2.00000
    128      -0.4074      2.00000
    129      -0.3892      2.00000
    130      -0.3808      2.00000
    131      -0.3808      2.00000
    132      -0.3708      2.00000
    133      -0.3708      2.00000
    134      -0.3402      2.00000
    135      -0.3402      2.00000
    136      -0.3340      2.00000
    137      -0.3306      2.00000
    138      -0.3196      2.00000
    139      -0.3196      2.00000
    140      -0.3082      2.00000
    141      -0.3082      2.00000
    142      -0.1952      2.00000
    143      -0.1725      2.00000
    144      -0.1725      2.00000
    145      -0.1458      2.00000
    146      -0.0915      2.00000
    147      -0.0906      2.00000
    148      -0.0906      2.00000
    149      -0.0726      2.00000
    150      -0.0726      2.00000
    151      -0.0469      2.00000
    152      -0.0259      2.00000
    153      -0.0259      2.00000
    154      -0.0212      2.00000
    155       0.0607      2.00000
    156       0.0818      2.00000
    157       0.0818      2.00000
    158       0.0828      2.00000
    159       0.0828      2.00000
    160       0.1062      2.00000
    161       0.2246      2.00000
    162       0.2246      2.00000
    163       0.2248      2.00000
    164       0.2248      2.00000
    165       0.2736      2.00000
    166       0.2736      2.00000
    167       0.8996      2.00000
    168       0.9504      2.00000
    169       0.9504      2.00000
    170       1.4530      2.00000
    171       1.4530      2.00000
    172       1.9013      2.00000
    173       2.1083      2.00000
    174       2.4981      2.00031
    175       2.4981      2.00031
    176       2.6963      2.02087
    177       2.6963      2.02087
    178       3.0973      0.84759
[...]
    111      -0.8809      2.00000
    112      -0.8809      2.00000
    113      -0.8809      2.00000
    114      -0.8772      2.00000
    115      -0.8772      2.00000
    116      -0.8772      2.00000
    117      -0.8060      2.00000
    118      -0.8060      2.00000
    119      -0.8060      2.00000
    120      -0.7561      2.00000
    121      -0.7561      2.00000
    122      -0.7561      2.00000
    123      -0.7561      2.00000
    124      -0.7561      2.00000
    125      -0.7561      2.00000
    126      -0.6753      2.00000
    127      -0.6753      2.00000
    128      -0.6753      2.00000
    129      -0.6264      2.00000
    130      -0.6264      2.00000
    131      -0.6164      2.00000
    132      -0.6164      2.00000
    133      -0.6164      2.00000
    134      -0.5955      2.00000
    135      -0.5955      2.00000
    136      -0.5955      2.00000
    137      -0.5124      2.00000
    138      -0.5124      2.00000
    139      -0.5124      2.00000
    140      -0.4597      2.00000
    141      -0.4597      2.00000
    142      -0.4096      2.00000
    143      -0.4096      2.00000
    144      -0.4096      2.00000
    145       0.0693      2.00000
    146       0.0693      2.00000
    147       0.0693      2.00000
    148       0.0875      2.00000
    149       0.0875      2.00000
    150       0.0875      2.00000
    151       0.0875      2.00000
    152       0.0875      2.00000
    153       0.0875      2.00000
    154       0.0878      2.00000
    155       0.0878      2.00000
    156       0.0878      2.00000
    157       0.0878      2.00000
    158       0.0878      2.00000
    159       0.0878      2.00000
    160       0.0903      2.00000
    161       0.0903      2.00000
    162       0.0903      2.00000
    163       0.1034      2.00000
    164       0.1034      2.00000
    165       0.1034      2.00000
    166       0.1129      2.00000
    167       0.1129      2.00000
    168       0.1129      2.00000
    169       3.1996      0.15818
    170       3.1996      0.15818
    171       3.1996      0.15818
    172       3.5518     -0.00418
    173       3.5518     -0.00418
    174       3.5518     -0.00418
    175       3.5518     -0.00418
    176       3.5518     -0.00418
    177       3.5518     -0.00418
    178       3.8495     -0.00000
    179       3.8495     -0.00000
    180       3.8495     -0.00000
    181       4.0896     -0.00000
    182       4.0896     -0.00000
    183       4.0896     -0.00000
    184       4.4633     -0.00000
    185       4.4633     -0.00000
    186       4.4633     -0.00000
    187       4.4633     -0.00000
    188       4.4633     -0.00000
    189       4.4633     -0.00000
    190       4.7831     -0.00000
    191       4.7831     -0.00000
    192       4.7831     -0.00000
    193       7.9549     -0.00000
    194       7.9549     -0.00000
    195       7.9550     -0.00000
    196       8.3229     -0.00000
    197       8.3235     -0.00000
    198       8.3243     -0.00000
    199       8.7488      0.00000
    200       8.7488      0.00000
    201       8.7490      0.00000
    202       8.7498      0.00000
    203       8.7568      0.00000
    204       8.7945      0.00000
    205       9.1267      0.00000
    206       9.1267      0.00000
    207       9.1275      0.00000
    208       9.1349      0.00000
    209       9.1853      0.00000
    210       9.4401      0.00000
    211       9.5708      0.00000
    212       9.6447      0.00000


--------------------------------------------------------------------------------------------------------


 soft charge-density along one line, spin component           1
         0         1         2         3         4         5         6         7         8         9
 total charge-density along one line
 
 pseudopotential strength for first ion, spin component:           1
-12.180   0.000  -0.000   0.000  -0.000   0.132  -0.000   0.000
  0.000 -12.180   0.000   0.000  -0.000  -0.000   0.132  -0.000
 -0.000   0.000 -12.171   0.000  -0.000   0.000  -0.000   0.131
  0.000   0.000   0.000 -12.180   0.000  -0.000  -0.000  -0.000
 -0.000  -0.000  -0.000   0.000 -12.171   0.000   0.000   0.000
  0.132  -0.000   0.000  -0.000   0.000   0.457   0.000  -0.000
 -0.000   0.132  -0.000  -0.000   0.000   0.000   0.457   0.000
  0.000  -0.000   0.131  -0.000   0.000  -0.000   0.000   0.457
 -0.000  -0.000  -0.000   0.132  -0.000   0.000   0.000   0.000
  0.000   0.000   0.000  -0.000   0.131  -0.000  -0.000  -0.000
 -0.000  -0.000  -0.000  -0.000  -0.000   0.000   0.000   0.000
  0.000   0.000   0.000   0.000   0.000  -0.000  -0.000  -0.000
  0.000  -0.000  -0.000   0.000  -0.000  -0.000   0.000   0.000
  0.000   0.000  -0.000   0.000   0.000  -0.000  -0.000   0.000
  0.000   0.000  -0.000  -0.000   0.000  -0.000  -0.000   0.000
 -0.000   0.000   0.000  -0.000   0.000   0.000  -0.000  -0.000
 -0.000  -0.000   0.000  -0.000  -0.000   0.000   0.000  -0.000
 -0.000  -0.000   0.000   0.000  -0.000   0.000   0.000  -0.000
 total augmentation occupancy for first ion, spin component:           1
  1.936  -0.000  -0.002   0.001   0.001  -0.022   0.000   0.000  -0.001  -0.001   0.006  -0.001   0.000  -0.000  -0.000   0.000
 -0.000   1.944  -0.002  -0.001  -0.000   0.000  -0.031   0.003   0.000  -0.001   0.001  -0.001   0.000  -0.000   0.000   0.000
 -0.002  -0.002   1.968  -0.001   0.003   0.000   0.003  -0.057   0.001  -0.002   0.019   0.001  -0.000   0.000   0.000  -0.000
  0.001  -0.001  -0.001   1.940   0.001  -0.001   0.000   0.001  -0.024  -0.001   0.004  -0.000   0.000  -0.000  -0.000   0.000
  0.001  -0.000   0.003   0.001   1.955  -0.001  -0.001  -0.002  -0.001  -0.046  -0.009  -0.001   0.000   0.000  -0.000   0.000
 -0.022   0.000   0.000  -0.001  -0.001   0.075  -0.000   0.001   0.001   0.001  -0.003   0.001  -0.000   0.000  -0.000  -0.000
  0.000  -0.031   0.003   0.000  -0.001  -0.000   0.082  -0.003  -0.000   0.002   0.002   0.002  -0.000   0.000   0.000  -0.000
  0.000   0.003  -0.057   0.001  -0.002   0.001  -0.003   0.068  -0.002   0.000  -0.014   0.001  -0.000  -0.000   0.000  -0.000
 -0.001   0.000   0.001  -0.024  -0.001   0.001  -0.000  -0.002   0.074  -0.000  -0.002   0.001  -0.000   0.000   0.000  -0.000
 -0.001  -0.001  -0.002  -0.001  -0.046   0.001   0.002   0.000  -0.000   0.061   0.009   0.001  -0.000  -0.000   0.000   0.000
  0.006   0.001   0.019   0.004  -0.009  -0.003   0.002  -0.014  -0.002   0.009   1.031  -0.346  -0.000  -0.000  -0.000   0.000
 -0.001  -0.001   0.001  -0.000  -0.001   0.001   0.002   0.001   0.001   0.001  -0.346   0.177  -0.000   0.000   0.000   0.000
  0.000   0.000  -0.000   0.000   0.000  -0.000  -0.000  -0.000  -0.000  -0.000  -0.000  -0.000   0.107  -0.002   0.003  -0.006
 -0.000  -0.000   0.000  -0.000   0.000   0.000   0.000  -0.000   0.000  -0.000  -0.000   0.000  -0.002   0.112   0.000  -0.000
 -0.000   0.000   0.000  -0.000  -0.000  -0.000   0.000   0.000   0.000   0.000  -0.000   0.000   0.003   0.000   0.105  -0.000
  0.000   0.000  -0.000   0.000   0.000  -0.000  -0.000  -0.000  -0.000   0.000   0.000   0.000  -0.006  -0.000  -0.000   0.000
 -0.000  -0.000  -0.000  -0.000   0.000   0.000   0.000   0.000   0.000  -0.000  -0.000  -0.000  -0.000  -0.006  -0.000   0.000
 -0.000   0.000   0.000  -0.000  -0.000   0.000  -0.000  -0.000   0.000   0.000  -0.000  -0.000  -0.000  -0.000  -0.006   0.000


------------------------ aborting loop because EDIFF is reached ----------------------------------------




--------------------------------------------------------------------------------------------------------


    CHARGE:  VPU time   11.02: CPU time   11.01
    FORLOC:  VPU time    0.11: CPU time    0.11
    FORNL :  VPU time   68.00: CPU time   67.98
    STRESS:  VPU time  108.39: CPU time  108.35
    FORCOR:  VPU time    0.65: CPU time    0.65
    FORHAR:  VPU time    0.21: CPU time    0.21
    MIXING:  VPU time    0.01: CPU time    0.01


--------------------------------------------------------------------------------------------------------



  FREE ENERGIE OF THE ION-ELECTRON SYSTEM (eV)
  ---------------------------------------------------
  free  energy   TOTEN  =       -90.471328 eV

  energy  without entropy=      -90.457596  energy(sigma->0) =      -90.466751
 

  FORCE on cell =-STRESS in cart. coord.  units (eV/reduce length):
  Direction    X        Y        Z        XY       YZ       ZX
  --------------------------------------------------------------------------------------
  Alpha Z   3148.75   3148.75   3148.75
  Ewald   -10232.50 -10232.50 -10232.50     -0.00     -0.00     -0.00
  Hartree   2129.08   2129.08   2129.08     -0.00     -0.00     -0.00
  E(xc)    -1859.60  -1859.60  -1859.60     -0.00     -0.00     -0.00
  Local     3229.83   3229.83   3229.83      0.00      0.00      0.00
  n-local  -2114.95  -2110.47  -2104.31      2.74     -0.30      1.34
  augment   1341.16   1341.16   1341.16     -0.00     -0.00     -0.00
  Kinetic   4344.49   4351.93   4362.29      2.06     -3.45      0.11
  -------------------------------------------------------------------------------------
  Total       -0.28     -0.28     -0.28     -0.00     -0.00     -0.00
  in kB       -0.78     -0.78     -0.78     -0.00     -0.00     -0.00
  external pressure =       -0.78 kB  Pullay stress =        0.00 kB


 VOLUME and BASIS-vectors are now :
 -----------------------------------------------------------------------------
  energy-cutoff  :      600.00
  volume of cell :      577.50
      direct lattice vectors                 reciprocal lattice vectors
     8.327538250  0.000000000  0.000000000     0.120083507 -0.000000002 -0.000000002
     0.000000150  8.327538250  0.000000000     0.000000000  0.120083507 -0.000000002
     0.000000150  0.000000150  8.327538250     0.000000000  0.000000000  0.120083507

  length of vectors
     8.327538250  8.327538250  8.327538250     0.120083507  0.120083507  0.120083507


 FORCES acting on ions
    electron-ion (+dipol)            ewald-force                    non-local-force                 convergence-correction
 -----------------------------------------------------------------------------------------------
   0.672E-12 -.169E-10 0.335E-11   0.121E-12 -.711E-14 0.469E-13   -.225E-23 0.292E-23 0.406E-23   0.639E-13 0.496E-14 -.660E-12
   0.665E-12 -.146E-11 -.363E-12   0.000E+00 -.142E-13 0.139E-13   0.298E-23 -.146E-23 0.175E-23   -.446E-13 -.344E-12 0.961E-12
   0.664E-12 -.499E-13 -.688E-11   0.959E-13 -.747E-14 0.178E-13   0.422E-23 -.211E-23 -.123E-23   -.138E-12 -.270E-12 -.142E-12
   0.662E-12 0.444E-11 0.226E-11   -.355E-14 -.320E-13 0.400E-13   0.129E-23 -.234E-23 0.115E-23   0.108E-13 -.227E-13 -.281E-12
   -.298E-13 0.655E-12 0.157E-12   -.434E-13 -.355E-14 -.533E-13   -.842E-24 0.111E-23 0.348E-23   -.876E-13 -.783E-13 -.250E-12
   -.242E-13 -.313E-13 0.411E-12   -.309E-13 -.573E-13 -.389E-13   -.149E-23 0.764E-24 0.273E-23   0.532E-13 -.113E-12 -.386E-12
   0.180E-12 -.142E-11 0.164E-11   -.128E-12 0.213E-13 -.288E-13   0.509E-23 -.592E-24 0.163E-23   -.886E-13 -.274E-13 -.376E-12
   0.658E-12 0.177E-12 0.251E-11   0.139E-12 0.536E-13 0.746E-13   0.123E-23 -.448E-23 0.718E-24   0.306E-13 0.843E-13 -.232E-12
   0.656E-12 -.108E-10 -.586E-12   -.142E-13 0.142E-13 0.151E-13   -.374E-23 0.217E-23 -.110E-23   -.215E-12 0.337E-12 0.631E-12
   0.672E-12 -.148E-11 0.842E-11   -.284E-13 0.174E-13 0.426E-13   -.148E-23 -.844E-24 0.234E-24   -.539E-13 0.348E-12 -.500E-12
   -.233E-13 0.647E-12 0.660E-12   0.275E-13 0.675E-13 0.320E-13   0.192E-23 -.110E-23 -.358E-23   0.189E-12 -.157E-12 -.960E-13
   -.214E-13 -.441E-13 -.144E-13   0.492E-13 0.235E-13 0.107E-13   0.458E-24 -.114E-23 0.389E-23   0.337E-12 -.199E-13 0.724E-12
   -.441E-13 0.188E-12 0.174E-12   0.737E-13 -.391E-13 -.284E-13   0.813E-23 -.232E-23 -.219E-23   0.218E-12 0.605E-13 -.335E-12
   -.434E-13 0.415E-12 0.416E-12   -.101E-12 -.604E-13 -.375E-13   0.654E-23 -.300E-23 0.109E-24   0.690E-13 0.180E-12 -.317E-12
   0.186E-12 0.280E-11 0.111E-11   0.426E-13 0.711E-13 0.254E-14   -.328E-23 0.512E-23 0.266E-23   0.222E-13 -.879E-13 0.692E-12
   0.189E-12 -.226E-13 -.191E-11   0.391E-13 0.609E-14 -.426E-13   0.212E-23 0.312E-24 0.566E-23   0.122E-12 0.431E-13 -.413E-12
   0.188E-12 0.218E-11 0.159E-11   -.320E-13 -.568E-13 -.975E-14   -.131E-23 -.570E-24 0.164E-23   -.418E-13 -.137E-13 -.296E-12
   0.429E-12 -.399E-11 -.467E-12   0.378E-13 0.142E-13 -.426E-13   0.472E-23 -.223E-23 -.201E-23   0.683E-13 -.220E-13 -.379E-12
   0.421E-12 -.126E-14 -.358E-11   -.875E-13 -.599E-13 -.982E-13   0.310E-23 -.588E-23 -.152E-23   -.563E-13 -.598E-13 -.553E-12
   0.666E-12 -.762E-12 -.127E-10   0.426E-13 0.101E-13 0.568E-13   -.279E-23 -.266E-23 0.235E-24   -.147E-14 -.448E-14 0.116E-12
   -.373E-13 0.192E-12 0.649E-12   0.782E-13 0.746E-13 0.249E-13   -.996E-24 -.263E-23 0.453E-23   0.204E-12 0.137E-12 0.122E-13
   -.424E-13 0.429E-12 -.229E-13   0.657E-13 -.107E-12 0.213E-13   0.577E-23 0.243E-23 0.153E-23   0.624E-13 0.786E-13 0.637E-12
   0.195E-12 -.510E-13 0.271E-11   0.142E-13 0.294E-13 0.000E+00   -.314E-24 0.206E-24 -.408E-23   -.479E-13 0.104E-12 0.714E-13
   0.195E-12 -.187E-11 0.114E-11   0.853E-13 -.284E-13 0.250E-13   0.206E-23 -.149E-23 0.142E-24   0.183E-12 0.463E-13 0.646E-12
   0.181E-12 0.420E-12 0.212E-11   0.000E+00 0.643E-15 -.284E-13   0.104E-23 0.359E-24 0.262E-24   0.304E-13 0.285E-13 -.478E-12
   0.422E-12 0.358E-11 0.631E-11   0.128E-12 0.284E-13 -.284E-13   -.691E-23 0.231E-23 0.943E-24   -.206E-12 -.215E-12 -.477E-14
   0.420E-12 0.107E-12 0.293E-11   -.429E-13 -.361E-14 -.569E-13   0.767E-23 0.930E-24 -.131E-23   -.342E-12 0.155E-12 0.893E-12
   0.443E-12 -.335E-11 -.699E-12   -.179E-13 -.142E-13 -.142E-13   -.795E-24 -.184E-23 0.180E-25   -.231E-12 -.287E-13 -.579E-12
   0.443E-12 -.343E-11 -.326E-11   -.114E-12 -.428E-13 -.447E-13   -.287E-23 -.456E-23 0.288E-23   -.850E-13 0.134E-12 -.381E-12
   0.188E-12 0.442E-12 -.134E-11   0.995E-13 -.633E-13 -.142E-13   0.282E-23 -.213E-24 0.196E-23   -.238E-13 -.332E-13 0.126E-12
   0.437E-12 -.276E-11 -.169E-11   0.991E-15 -.142E-13 -.568E-13   -.269E-23 -.178E-23 -.385E-23   -.215E-12 0.164E-12 0.224E-12
   0.442E-12 -.353E-11 0.226E-11   -.101E-12 0.144E-13 -.141E-13   -.121E-23 -.233E-23 0.507E-24   -.787E-13 -.786E-13 0.677E-12
 -----------------------------------------------------------------------------------------------
   0.100E-10 -.353E-10 0.727E-11   0.395E-12 -.164E-12 -.214E-12   0.282E-22 -.269E-22 0.219E-22   -.294E-12 0.329E-12 -.249E-12
 
 
 POSITION                                       TOTAL-FORCE (eV/Angst)
 -----------------------------------------------------------------------------------
      6.24565      6.24565      4.16377         0.000000      0.000000     -0.000000
      6.24565      6.24565      0.00000        -0.000000     -0.000000     -0.000000
      6.24565      0.00000      2.08188        -0.000000     -0.000000      0.000000
      6.24565      2.08188      4.16377        -0.000000     -0.000000      0.000000
      0.00000      6.24565      2.08188         0.000000      0.000000     -0.000000
      0.00000      0.00000      4.16377         0.000000     -0.000000     -0.000000
      2.08188      6.24565      4.16377        -0.000000     -0.000000     -0.000000
      6.24565      0.00000      6.24565         0.000000      0.000000     -0.000000
      6.24565      2.08188      0.00000         0.000000     -0.000000     -0.000000
      6.24565      4.16377      2.08188        -0.000000      0.000000     -0.000000
      0.00000      6.24565      6.24565         0.000000     -0.000000     -0.000000
      0.00000      0.00000      0.00000        -0.000000     -0.000000      0.000000
      0.00000      2.08188      2.08188        -0.000000     -0.000000     -0.000000
      0.00000      4.16377      4.16377        -0.000000      0.000000      0.000000
      2.08188      6.24565      0.00000         0.000000     -0.000000     -0.000000
      2.08188      0.00000      2.08188         0.000000      0.000000     -0.000000
      2.08188      2.08188      4.16377         0.000000      0.000000      0.000000
      4.16377      6.24565      2.08188         0.000000     -0.000000     -0.000000
      4.16377      0.00000      4.16377        -0.000000      0.000000      0.000000
      6.24565      4.16377      6.24565         0.000000     -0.000000     -0.000000
      0.00000      2.08188      6.24565        -0.000000      0.000000     -0.000000
      0.00000      4.16377      0.00000        -0.000000     -0.000000      0.000000
      2.08188      0.00000      6.24565        -0.000000     -0.000000      0.000000
      2.08188      2.08188      0.00000        -0.000000      0.000000      0.000000
      2.08188      4.16377      2.08188        -0.000000     -0.000000     -0.000000
      4.16377      6.24565      6.24565         0.000000     -0.000000     -0.000000
      4.16377      0.00000      0.00000         0.000000     -0.000000     -0.000000
      4.16377      2.08188      2.08188         0.000000      0.000000      0.000000
      4.16377      4.16377      4.16377        -0.000000      0.000000     -0.000000
      2.08188      4.16377      6.24565         0.000000      0.000000      0.000000
      4.16377      2.08188      6.24565         0.000000     -0.000000     -0.000000
      4.16377      4.16377      0.00000        -0.000000     -0.000000      0.000000
 -----------------------------------------------------------------------------------
    total drift:                                0.000000     -0.000000      0.000000


--------------------------------------------------------------------------------------------------------




--------------------------------------------------------------------------------------------------------


  
 reached required accuracy - stopping structural energy minimisation
 writing wavefunctions
     LOOP+:  VPU time 1907.30: CPU time 1912.57

 ----------------------------------------------------------------------------- 
|                                                                             |
|           W    W    AA    RRRRR   N    N  II  N    N   GGGG   !!!           |
|           W    W   A  A   R    R  NN   N  II  NN   N  G    G  !!!           |
|           W    W  A    A  R    R  N N  N  II  N N  N  G       !!!           |
|           W WW W  AAAAAA  RRRRR   N  N N  II  N  N N  G  GGG   !            |
|           WW  WW  A    A  R   R   N   NN  II  N   NN  G    G                |
|           W    W  A    A  R    R  N    N  II  N    N   GGGG   !!!           |
|                                                                             |
|      The partial DOS and the PROCAR file are not evaluated for NPAR/=1      |
|      please rerun with NPAR=1                                               |
|                                                                             |
 ----------------------------------------------------------------------------- 

  
  
 General timing and accounting informations for this job:
 ========================================================
  
                  Total CPU time used (sec):     1929.860
                            User time (sec):     1868.434
                          System time (sec):       61.426
                         Elapsed time (sec):     1935.139
  
                   Maximum memory used (kb):     1897836.
                   Average memory used (kb):           0.
  
                          Minor page faults:       410305
                          Major page faults:            0
                 Voluntary context switches:        36838
