 running on    4 nodes
 distr:  one band on    1 nodes,    4 groups
 vasp.4.6.28 25Jul05 complex 
 POSCAR found :  1 types and    4 ions
 LDA part: xc-table for Pade appr. of Perdew
 POSCAR, INCAR and KPOINTS ok, starting setup
 FFT: planning ...           1
 reading WAVECAR
 WARNING: random wavefunctions but no delay for mixing, default for NELMDL
 entering main loop
       N       E                     dE             d eps       ncg     rms          rms(c)
DAV:   1     0.119745658921E+02    0.11975E+02   -0.53032E+03  2016   0.104E+03
DAV:   2    -0.140499447825E+02   -0.26025E+02   -0.24363E+02  2492   0.109E+02
DAV:   3    -0.150006463005E+02   -0.95070E+00   -0.92960E+00  2624   0.170E+01
DAV:   4    -0.150083020762E+02   -0.76558E-02   -0.76538E-02  2324   0.179E+00
DAV:   5    -0.150083798969E+02   -0.77821E-04   -0.77819E-04  2488   0.199E-01    0.181E+00
DAV:   6    -0.149574992646E+02    0.50881E-01   -0.73594E-03  2268   0.565E-01    0.113E+00
DAV:   7    -0.149206873725E+02    0.36812E-01   -0.22317E-02  2200   0.928E-01    0.502E-02
DAV:   8    -0.149206912099E+02   -0.38375E-05   -0.14936E-04  2496   0.104E-01    0.127E-02
DAV:   9    -0.149206939770E+02   -0.27671E-05   -0.38417E-06  2376   0.123E-02    0.140E-03
DAV:  10    -0.149206925717E+02    0.14053E-05   -0.49805E-08  2536   0.202E-03    0.328E-04
DAV:  11    -0.149206924128E+02    0.15892E-06   -0.13368E-09  1544   0.277E-04    0.318E-05
DAV:  12    -0.149206924524E+02   -0.39654E-07   -0.17320E-10  1432   0.102E-04    0.850E-06
DAV:  13    -0.149206924509E+02    0.15397E-08   -0.28768E-11  1348   0.347E-05
   1 F= -.14920692E+02 E0= -.14920563E+02  d E =-.259562E-03
