   4   4   0   0
  0.1745885E+02  0.4118053E-09  0.4118053E-09  0.4118053E-09  0.5000000E-15
  1.000000000000000E-004
  CAR 
 unknown system                          
     19.32323615     -4.40571568  301      7.43315264      1.00000000
     -4.406  0.0000E+00  0.0000E+00
     -4.327  0.0000E+00  0.0000E+00
     -4.248  0.0000E+00  0.0000E+00
     -4.168  0.0000E+00  0.0000E+00
     -4.089  0.0000E+00  0.0000E+00
     -4.010  0.0000E+00  0.0000E+00
     -3.931  0.0000E+00  0.0000E+00
     -3.852  0.0000E+00  0.0000E+00
     -3.773  0.0000E+00  0.0000E+00
     -3.694  0.0000E+00  0.0000E+00
     -3.615  0.0000E+00  0.0000E+00
     -3.536  0.0000E+00  0.0000E+00
     -3.457  0.0000E+00  0.0000E+00
     -3.377  0.7993E-14  0.6322E-15
     -3.298  0.1463E-01  0.1157E-02
     -3.219  0.9296E-01  0.8511E-02
     -3.140  0.2603E+00  0.2910E-01
     -3.061  0.8776E-01  0.3819E-01
     -2.982  0.3530E+00  0.6611E-01
     -2.903  0.3494E+00  0.9375E-01
     -2.824  0.1750E+00  0.1076E+00
     -2.745  0.4392E+00  0.1424E+00
     -2.666  0.4524E+00  0.1782E+00
     -2.586  0.3647E+00  0.2070E+00
     -2.507  0.3512E+00  0.2350E+00
     -2.428  0.7023E+00  0.2905E+00
     -2.349  0.8243E-01  0.2970E+00
     -2.270  0.7024E+00  0.3530E+00
     -2.191  0.5453E+00  0.3961E+00
     -2.112  0.6328E+00  0.4462E+00
     -2.033  0.7023E+00  0.5058E+00
     -1.954  0.3512E+00  0.5336E+00
     -1.875  0.2575E+00  0.5539E+00
     -1.796  0.4388E+00  0.5960E+00
     -1.716  0.1057E+01  0.6797E+00
     -1.637  0.4651E+00  0.7164E+00
     -1.558  0.1052E+01  0.7996E+00
     -1.479  0.7024E+00  0.8553E+00
     -1.400  0.8160E-01  0.8618E+00
     -1.321  0.7934E+00  0.9245E+00
     -1.242  0.7031E+00  0.9804E+00
     -1.163  0.8594E+00  0.1048E+01
     -1.084  0.6294E+00  0.1098E+01
     -1.005  0.1054E+01  0.1182E+01
     -0.925  0.9922E-01  0.1190E+01
     -0.846  0.1636E+01  0.1319E+01
     -0.767  0.7025E+00  0.1376E+01
     -0.688  0.4319E+00  0.1410E+01
     -0.609  0.1301E+01  0.1513E+01
     -0.530  0.7024E+00  0.1571E+01
     -0.451  0.2259E-01  0.1572E+01
     -0.372  0.8634E+00  0.1641E+01
     -0.293  0.1229E+01  0.1740E+01
     -0.214  0.7653E+00  0.1800E+01
     -0.135  0.1311E+01  0.1904E+01
     -0.055  0.1405E+01  0.2017E+01
      0.024  0.1240E+00  0.2027E+01
      0.103  0.1260E+01  0.2127E+01
      0.182  0.3513E+00  0.2156E+01
      0.261  0.1053E+01  0.2240E+01
      0.340  0.1025E+01  0.2321E+01
      0.419  0.1405E+01  0.2434E+01
      0.498  0.2562E-01  0.2436E+01
      0.577  0.1442E+01  0.2550E+01
      0.656  0.1405E+01  0.2663E+01
      0.736  0.5621E+00  0.2708E+01
      0.815  0.1883E+01  0.2857E+01
      0.894  0.7024E+00  0.2913E+01
      0.973  0.2078E+00  0.2930E+01
      1.052  0.1017E+01  0.3010E+01
      1.131  0.1757E+01  0.3149E+01
      1.210  0.9658E+00  0.3226E+01
      1.289  0.1604E+01  0.3353E+01
      1.368  0.7024E+00  0.3409E+01
      1.447  0.2267E+00  0.3426E+01
      1.527  0.1491E+01  0.3554E+01
      1.606  0.7269E+00  0.3612E+01
      1.685  0.1566E+01  0.3736E+01
      1.764  0.7023E+00  0.3804E+01
      1.843  0.1756E+01  0.3943E+01
      1.922  0.2760E+00  0.3965E+01
      2.001  0.2107E+01  0.4138E+01
      2.080  0.1919E+01  0.4290E+01
      2.159  0.5394E+00  0.4332E+01
      2.238  0.7030E+00  0.4388E+01
      2.317  0.1404E+01  0.4499E+01
      2.397  0.3442E+00  0.4526E+01
      2.476  0.7061E+00  0.4582E+01
      2.555  0.2011E+01  0.4742E+01
      2.634  0.9273E+00  0.4825E+01
      2.713  0.2589E+01  0.5030E+01
      2.792  0.5717E+00  0.5075E+01
      2.871  0.1056E+01  0.5159E+01
      2.950  0.1493E+01  0.5277E+01
      3.029  0.1904E+01  0.5427E+01
      3.108  0.4276E+00  0.5470E+01
      3.188  0.2235E+01  0.5647E+01
      3.267  0.8745E+00  0.5723E+01
      3.346  0.9964E-01  0.5731E+01
      3.425  0.1875E+01  0.5880E+01
      3.504  0.1728E+01  0.6016E+01
      3.583  0.8441E+00  0.6083E+01
      3.662  0.2700E+01  0.6297E+01
      3.741  0.6278E-02  0.6307E+01
      3.820  0.9268E+00  0.6381E+01
      3.899  0.2308E+01  0.6563E+01
      3.979  0.1054E+01  0.6647E+01
      4.058  0.1821E+01  0.6791E+01
      4.137  0.1990E+01  0.6953E+01
      4.216  0.3638E+00  0.6981E+01
      4.295  0.1891E+01  0.7131E+01
      4.374  0.1615E+01  0.7272E+01
      4.453  0.1405E+01  0.7383E+01
      4.532  0.2246E+01  0.7561E+01
      4.611  0.3506E+00  0.7605E+01
      4.690  0.1425E+01  0.7718E+01
      4.769  0.2334E+01  0.7911E+01
      4.849  0.1320E+01  0.8019E+01
      4.928  0.1893E+01  0.8176E+01
      5.007  0.1054E+01  0.8262E+01
      5.086  0.8263E+00  0.8327E+01
      5.165  0.8769E+00  0.8400E+01
      5.244  0.1798E+01  0.8570E+01
      5.323  0.2057E+01  0.8733E+01
      5.402  0.1165E+01  0.8826E+01
      5.481  0.1816E+01  0.8970E+01
      5.560  0.1168E+01  0.9063E+01
      5.640  0.1481E+01  0.9180E+01
      5.719  0.1912E+01  0.9331E+01
      5.798  0.1955E+01  0.9486E+01
      5.877  0.7673E+00  0.9554E+01
      5.956  0.1316E+01  0.9658E+01
      6.035  0.3398E+00  0.9690E+01
      6.114  0.1850E+01  0.9851E+01
      6.193  0.2130E+01  0.1002E+02
      6.272  0.1275E+01  0.1012E+02
      6.351  0.2491E+01  0.1032E+02
      6.431  0.1644E+01  0.1046E+02
      6.510  0.2983E+00  0.1049E+02
      6.589  0.1456E+01  0.1061E+02
      6.668  0.1931E+01  0.1076E+02
      6.747  0.1539E+01  0.1088E+02
      6.826  0.2017E+01  0.1106E+02
      6.905  0.1464E+01  0.1117E+02
      6.984  0.8187E+00  0.1124E+02
      7.063  0.1057E+01  0.1132E+02
      7.142  0.1774E+01  0.1146E+02
      7.221  0.1372E+01  0.1157E+02
      7.301  0.3001E+01  0.1181E+02
      7.380  0.1779E+01  0.1195E+02
      7.459  0.1669E+01  0.1209E+02
      7.538  0.2104E+01  0.1226E+02
      7.617  0.1917E+01  0.1241E+02
      7.696  0.8471E+00  0.1249E+02
      7.775  0.1856E+01  0.1264E+02
      7.854  0.1260E+01  0.1274E+02
      7.933  0.1458E+01  0.1286E+02
      8.012  0.2261E+01  0.1305E+02
      8.092  0.3512E+00  0.1309E+02
      8.171  0.1154E+01  0.1318E+02
      8.250  0.1816E+01  0.1333E+02
      8.329  0.2962E+01  0.1357E+02
      8.408  0.1745E+01  0.1371E+02
      8.487  0.2399E+01  0.1390E+02
      8.566  0.1407E+01  0.1402E+02
      8.645  0.8202E+00  0.1411E+02
      8.724  0.1330E+01  0.1422E+02
      8.803  0.2455E+01  0.1442E+02
      8.882  0.2873E+01  0.1466E+02
      8.962  0.1192E+01  0.1477E+02
      9.041  0.5758E+00  0.1481E+02
      9.120  0.1686E+01  0.1497E+02
      9.199  0.1848E+01  0.1513E+02
      9.278  0.2135E+01  0.1530E+02
      9.357  0.1186E+01  0.1541E+02
      9.436  0.2600E+01  0.1561E+02
      9.515  0.1358E+01  0.1574E+02
      9.594  0.2281E+00  0.1576E+02
      9.673  0.3073E+01  0.1600E+02
      9.753  0.1992E+01  0.1617E+02
      9.832  0.2155E+01  0.1634E+02
      9.911  0.1301E+01  0.1645E+02
      9.990  0.1495E+01  0.1657E+02
     10.069  0.2062E+01  0.1674E+02
     10.148  0.2102E+01  0.1690E+02
     10.227  0.1675E+01  0.1703E+02
     10.306  0.1954E+01  0.1719E+02
     10.385  0.2154E+01  0.1736E+02
     10.464  0.2602E+01  0.1757E+02
     10.544  0.2546E+01  0.1779E+02
     10.623  0.1468E+01  0.1791E+02
     10.702  0.1478E+01  0.1803E+02
     10.781  0.2239E+01  0.1821E+02
     10.860  0.2371E+01  0.1840E+02
     10.939  0.1257E+01  0.1850E+02
     11.018  0.1442E+01  0.1862E+02
     11.097  0.2689E+01  0.1884E+02
     11.176  0.2117E+01  0.1901E+02
     11.255  0.1039E+01  0.1909E+02
     11.334  0.2516E+01  0.1929E+02
     11.414  0.2451E+01  0.1949E+02
     11.493  0.2117E+01  0.1968E+02
     11.572  0.4791E+00  0.1973E+02
     11.651  0.2068E+01  0.1989E+02
     11.730  0.2304E+01  0.2008E+02
     11.809  0.1255E+01  0.2018E+02
     11.888  0.2958E+01  0.2042E+02
     11.967  0.4548E+01  0.2079E+02
     12.046  0.7021E+00  0.2085E+02
     12.125  0.1405E+01  0.2096E+02
     12.205  0.2182E+01  0.2113E+02
     12.284  0.8788E+00  0.2122E+02
     12.363  0.2982E+01  0.2146E+02
     12.442  0.2629E+01  0.2167E+02
     12.521  0.7001E+00  0.2172E+02
     12.600  0.8930E+00  0.2179E+02
     12.679  0.1928E+01  0.2195E+02
     12.758  0.8886E+00  0.2203E+02
     12.837  0.2271E+01  0.2221E+02
     12.916  0.1201E+01  0.2231E+02
     12.996  0.1225E+00  0.2233E+02
     13.075  0.1420E+01  0.2244E+02
     13.154  0.1390E+01  0.2255E+02
     13.233  0.1141E+01  0.2264E+02
     13.312  0.1755E+01  0.2278E+02
     13.391  0.3013E+00  0.2281E+02
     13.470  0.1276E+01  0.2291E+02
     13.549  0.4319E+00  0.2295E+02
     13.628  0.7901E+00  0.2301E+02
     13.707  0.1187E-01  0.2301E+02
     13.786  0.3396E+00  0.2304E+02
     13.866  0.1077E+01  0.2312E+02
     13.945  0.1034E+01  0.2320E+02
     14.024  0.6990E+00  0.2326E+02
     14.103  0.7558E+00  0.2332E+02
     14.182  0.1078E+00  0.2333E+02
     14.261  0.3505E+00  0.2336E+02
     14.340  0.2745E-04  0.2336E+02
     14.419  0.7023E+00  0.2341E+02
     14.498  0.4793E-06  0.2341E+02
     14.577  0.1054E+01  0.2350E+02
     14.657  0.4115E+00  0.2353E+02
     14.736  0.3786E+00  0.2356E+02
     14.815  0.0000E+00  0.2356E+02
     14.894  0.1298E-06  0.2356E+02
     14.973  0.7024E+00  0.2362E+02
     15.052  0.1920E+00  0.2363E+02
     15.131  0.5104E+00  0.2367E+02
     15.210  0.3131E-01  0.2367E+02
     15.289  0.4357E+00  0.2371E+02
     15.368  0.0000E+00  0.2371E+02
     15.448  0.2486E-10  0.2371E+02
     15.527  0.8927E+00  0.2378E+02
     15.606  0.7785E-09  0.2379E+02
     15.685  0.3512E+00  0.2382E+02
     15.764  0.0000E+00  0.2382E+02
     15.843  0.0000E+00  0.2382E+02
     15.922  0.0000E+00  0.2382E+02
     16.001  0.0000E+00  0.2382E+02
     16.080  0.5712E-01  0.2382E+02
     16.159  0.9964E+00  0.2390E+02
     16.238  0.0000E+00  0.2390E+02
     16.318  0.0000E+00  0.2390E+02
     16.397  0.0000E+00  0.2390E+02
     16.476  0.0000E+00  0.2390E+02
     16.555  0.2751E-01  0.2390E+02
     16.634  0.6749E+00  0.2396E+02
     16.713  0.1170E+00  0.2397E+02
     16.792  0.0000E+00  0.2397E+02
     16.871  0.0000E+00  0.2397E+02
     16.950  0.0000E+00  0.2397E+02
     17.029  0.3100E-14  0.2397E+02
     17.109  0.3511E+00  0.2400E+02
     17.188  0.0000E+00  0.2400E+02
     17.267  0.0000E+00  0.2400E+02
     17.346  0.0000E+00  0.2400E+02
     17.425  0.0000E+00  0.2400E+02
     17.504  0.0000E+00  0.2400E+02
     17.583  0.0000E+00  0.2400E+02
     17.662  0.0000E+00  0.2400E+02
     17.741  0.0000E+00  0.2400E+02
     17.820  0.0000E+00  0.2400E+02
     17.899  0.0000E+00  0.2400E+02
     17.979  0.0000E+00  0.2400E+02
     18.058  0.0000E+00  0.2400E+02
     18.137  0.0000E+00  0.2400E+02
     18.216  0.1390E-05  0.2400E+02
     18.295  0.5853E-01  0.2400E+02
     18.374  0.0000E+00  0.2400E+02
     18.453  0.0000E+00  0.2400E+02
     18.532  0.0000E+00  0.2400E+02
     18.611  0.0000E+00  0.2400E+02
     18.690  0.0000E+00  0.2400E+02
     18.770  0.0000E+00  0.2400E+02
     18.849  0.0000E+00  0.2400E+02
     18.928  0.0000E+00  0.2400E+02
     19.007  0.0000E+00  0.2400E+02
     19.086  0.0000E+00  0.2400E+02
     19.165  0.0000E+00  0.2400E+02
     19.244  0.0000E+00  0.2400E+02
     19.323  0.0000E+00  0.2400E+02
