    4    4    1    1
  0.1745885E+02  0.4118052E-09  0.4118052E-09  0.4118052E-09  0.5000000E-15
  1.000000000000000E-004
  CAR 
 unknown system                          
   12   84   12
 
  0.0000000E+00  0.0000000E+00  0.0000000E+00  0.5787037E-03
   1       -3.3271
   2        4.6353
   3        4.6353
   4        4.6353
   5        5.8258
   6        5.8258
   7        5.8258
   8       12.6658
   9       12.6658
  10       12.6660
  11       12.7602
  12       12.7602
 
  0.8333333E-01  0.0000000E+00  0.0000000E+00  0.3472222E-02
   1       -3.2665
   2        3.7703
   3        4.6911
   4        4.6911
   5        5.8851
   6        5.8851
   7        6.7967
   8       11.4191
   9       11.4191
  10       12.3227
  11       12.3227
  12       12.7258
 
  0.1666667E+00  0.0000000E+00  0.0000000E+00  0.3472222E-02
   1       -3.0848
   2        2.5991
   3        4.8586
   4        4.8586
   5        6.0626
   6        6.0626
   7        8.2854
   8       10.2392
   9       10.2392
  10       11.4351
  11       11.4351
  12       12.9104
 
  0.2500000E+00  0.0000000E+00  0.0000000E+00  0.3472222E-02
   1       -2.7824
   2        1.4997
   3        5.1379
   4        5.1379
   5        6.3567
   6        6.3567
   7        9.1720
   8        9.1720
   9        9.9131
  10       10.4772
  11       10.4772
  12       13.2036
 
  0.3333333E+00  0.0000000E+00  0.0000000E+00  0.3472222E-02
   1       -2.3601
   2        0.5021
   3        5.5291
   4        5.5291
   5        6.7630
   6        6.7630
   7        8.2178
   8        8.2178
   9        9.5657
  10        9.5657
  11       11.6483
  12       13.5929
 
  0.4166667E+00  0.0000000E+00  0.0000000E+00  0.3472222E-02
   1       -1.8189
   2       -0.3857
   3        6.0325
   4        6.0325
   5        7.2676
   6        7.2676
   7        7.3766
   8        7.3766
   9        8.7497
  10        8.7497
  11       13.4801
  12       14.0716
 
  0.5000000E+00  0.0000000E+00  0.0000000E+00  0.1736111E-02
   1       -1.1602
   2       -1.1602
   3        6.6482
   4        6.6482
   5        6.6482
   6        6.6482
   7        7.6897
   8        7.6897
   9        8.2227
  10        8.2227
  11       14.6344
  12       14.6349
 
  0.8333333E-01  0.8333333E-01  0.0000000E+00  0.6944444E-02
   1       -3.2059
   2        3.8276
   3        3.8276
   4        4.7470
   5        5.9443
   6        6.8544
   7        6.8544
   8       10.5605
   9       11.4753
  10       11.4753
  11       12.3758
  12       12.3758
 
  0.1666667E+00  0.8333333E-01  0.0000000E+00  0.1388889E-01
   1       -3.0243
   2        2.6572
   3        3.9996
   4        4.9145
   5        6.1213
   6        7.0270
   7        8.3419
   8        9.4342
   9       10.2953
  10       11.4900
  11       11.6435
  12       12.2858
 
  0.2500000E+00  0.8333333E-01  0.0000000E+00  0.1388889E-01
   1       -2.7220
   2        1.5584
   3        4.2859
   4        5.1938
   5        6.4134
   6        7.3127
   7        8.3825
   8        9.2281
   9        9.9680
  10       10.5342
  11       11.3558
  12       11.9236
 
  0.3333333E+00  0.8333333E-01  0.0000000E+00  0.1388889E-01
   1       -2.2999
   2        0.5612
   3        4.6860
   4        5.5850
   5        6.8045
   6        7.4462
   7        7.7060
   8        8.2738
   9        9.6274
  10       10.4519
  11       11.7000
  12       12.3150
 
  0.4166667E+00  0.8333333E-01  0.0000000E+00  0.1388889E-01
   1       -1.7589
   2       -0.3263
   3        5.1990
   4        6.0884
   5        6.5482
   6        7.3734
   7        7.4326
   8        8.1631
   9        8.8494
  10        9.6321
  11       12.8171
  12       13.4938
 
  0.5000000E+00  0.8333333E-01  0.0000000E+00  0.6944444E-02
   1       -1.1005
   2       -1.1005
   3        5.8230
   4        5.8230
   5        6.7042
   6        6.7042
   7        7.9644
   8        7.9644
   9        8.9345
  10        8.9345
  11       13.4287
  12       13.4287
 
  0.1666667E+00  0.1666667E+00  0.0000000E+00  0.6944444E-02
   1       -2.8429
   2        2.8315
   3        2.8315
   4        5.0820
   5        6.2957
   6        8.3175
   7        8.5104
   8        8.5104
   9       10.4635
  10       10.4635
  11       11.6548
  12       11.6548
 
  0.2500000E+00  0.1666667E+00  0.0000000E+00  0.1388889E-01
   1       -2.5410
   2        1.7342
   3        3.1216
   4        5.3614
   5        6.5706
   6        7.2801
   7        8.7867
   8        9.3962
   9       10.1300
  10       10.7071
  11       10.7437
  12       11.9308
 
  0.3333333E+00  0.1666667E+00  0.0000000E+00  0.1388889E-01
   1       -2.1194
   2        0.7383
   3        3.5270
   4        5.7527
   5        6.2583
   6        7.0420
   7        8.4420
   8        9.1371
   9        9.8392
  10       11.1357
  11       11.8298
  12       11.8615
 
  0.4166667E+00  0.1666667E+00  0.0000000E+00  0.1388889E-01
   1       -1.5791
   2       -0.1481
   3        4.0465
   4        5.4208
   5        6.2562
   6        7.5470
   7        7.6006
   8        8.8784
   9        9.7705
  10       11.0618
  11       11.6392
  12       12.7617
 
  0.5000000E+00  0.1666667E+00  0.0000000E+00  0.6944444E-02
   1       -0.9214
   2       -0.9214
   3        4.6788
   4        4.6788
   5        6.8721
   6        6.8721
   7        8.1717
   8        8.1717
   9       10.3532
  10       10.3532
  11       12.2535
  12       12.2535
 
  0.2500000E+00  0.2500000E+00  0.0000000E+00  0.6944444E-02
   1       -2.2397
   2        2.0269
   3        2.0269
   4        5.6409
   5        6.1541
   6        6.9277
   7        9.6765
   8        9.6765
   9       10.3691
  10       10.3691
  11       11.0214
  12       11.0214
 
  0.3333333E+00  0.2500000E+00  0.0000000E+00  0.1388889E-01
   1       -1.8190
   2        1.0331
   3        2.4358
   4        5.2053
   5        6.0324
   6        7.3190
   7        8.7222
   8       10.0017
   9       10.0688
  10       10.8692
  11       11.3126
  12       12.1886
 
  0.4166667E+00  0.2500000E+00  0.0000000E+00  0.1388889E-01
   1       -1.2798
   2        0.1484
   3        2.9599
   4        4.3476
   5        6.5360
   6        7.8377
   7        7.8808
   8        9.1971
   9       10.5729
  10       11.3404
  11       11.8293
  12       11.9153
 
  0.5000000E+00  0.2500000E+00  0.0000000E+00  0.6944444E-02
   1       -0.6234
   2       -0.6234
   3        3.5978
   4        3.5978
   5        7.1521
   6        7.1521
   7        8.4669
   8        8.4669
   9       11.1885
  10       11.1885
  11       11.9345
  12       11.9345
 
  0.3333333E+00  0.3333333E+00  0.0000000E+00  0.6944444E-02
   1       -1.3994
   2        1.4448
   3        1.4448
   4        4.2357
   5        6.4240
   6        7.7238
   7        9.1145
   8        9.1145
   9       10.4247
  10       10.4247
  11       11.8025
  12       12.5539
 
  0.4166667E+00  0.3333333E+00  0.0000000E+00  0.1388889E-01
   1       -0.8617
   2        0.5625
   3        1.9726
   4        3.3704
   5        6.9279
   6        8.2428
   7        8.2730
   8        9.6017
   9        9.6189
  10       10.9322
  11       10.9632
  12       12.2480
 
  0.5000000E+00  0.3333333E+00  0.0000000E+00  0.6944444E-02
   1       -0.2071
   2       -0.2071
   3        2.6150
   4        2.6150
   5        7.5442
   6        7.5442
   7        8.8709
   8        8.8709
   9       10.2352
  10       10.2352
  11       11.5408
  12       11.5408
 
  0.4166667E+00  0.4166667E+00  0.0000000E+00  0.6944444E-02
   1       -0.3258
   2        1.0934
   3        1.0934
   4        2.4995
   5        7.4320
   6        8.7596
   7        8.7774
   8        8.7774
   9       10.1116
  10       10.1116
  11       10.1226
  12       11.4411
 
  0.5000000E+00  0.4166667E+00  0.0000000E+00  0.6944444E-02
   1        0.3265
   2        0.3265
   3        1.7397
   4        1.7397
   5        8.0484
   6        8.0484
   7        9.3844
   8        9.3844
   9        9.3939
  10        9.3939
  11       10.7262
  12       10.7262
 
  0.5000000E+00  0.5000000E+00  0.0000000E+00  0.1736111E-02
   1        0.9760
   2        0.9760
   3        0.9760
   4        0.9760
   5        8.6650
   6        8.6650
   7        8.6650
   8        8.6650
   9       10.0045
  10       10.0045
  11       10.0045
  12       10.0045
 
  0.8333333E-01  0.8333333E-01  0.8333333E-01  0.4629630E-02
   1       -3.1453
   2        3.8850
   3        3.8850
   4        3.8850
   5        6.9119
   6        6.9119
   7        6.9119
   8       10.6166
   9       10.6166
  10       10.6166
  11       12.9168
  12       12.9168
 
  0.1666667E+00  0.8333333E-01  0.8333333E-01  0.1388889E-01
   1       -2.9638
   2        2.7153
   3        4.0569
   4        4.0569
   5        7.0836
   6        7.0836
   7        8.3978
   8        9.4911
   9        9.4911
  10       10.7852
  11       12.3398
  12       12.3398
 
  0.2500000E+00  0.8333333E-01  0.8333333E-01  0.1388889E-01
   1       -2.6617
   2        1.6170
   3        4.3431
   4        4.3431
   5        7.3648
   6        7.3648
   7        8.4432
   8        8.4432
   9       10.0202
  10       11.0679
  11       11.4114
  12       11.4114
 
  0.3333333E+00  0.8333333E-01  0.8333333E-01  0.1388889E-01
   1       -2.2397
   2        0.6203
   3        4.7429
   4        4.7429
   5        7.4376
   6        7.4376
   7        7.8153
   8        7.8153
   9       10.5093
  10       10.5093
  11       11.4316
  12       11.7794
 
  0.4166667E+00  0.8333333E-01  0.8333333E-01  0.1388889E-01
   1       -1.6990
   2       -0.2669
   3        5.2551
   4        5.2551
   5        6.6212
   6        6.6212
   7        8.2877
   8        8.2877
   9        9.6957
  10        9.6957
  11       11.9482
  12       13.2771
 
  0.5000000E+00  0.8333333E-01  0.8333333E-01  0.6944444E-02
   1       -1.0408
   2       -1.0408
   3        5.8217
   4        5.8217
   5        5.9452
   6        5.9452
   7        8.7423
   8        8.7423
   9        9.1340
  10        9.1340
  11       12.5595
  12       12.5595
 
  0.1666667E+00  0.1666667E+00  0.8333333E-01  0.1388889E-01
   1       -2.7824
   2        2.8896
   3        2.8896
   4        4.2286
   5        7.2497
   6        8.3789
   7        8.5625
   8        8.5625
   9        9.6644
  10        9.6644
  11       12.5017
  12       12.5017
 
  0.2500000E+00  0.1666667E+00  0.8333333E-01  0.2777778E-01
   1       -2.4807
   2        1.7928
   3        3.1796
   4        4.5144
   5        7.2518
   6        7.6079
   7        8.5600
   8        8.8947
   9        9.9005
  10       10.2293
  11       11.5782
  12       12.7587
 
  0.3333333E+00  0.1666667E+00  0.8333333E-01  0.2777778E-01
   1       -2.0593
   2        0.7973
   3        3.5848
   4        4.9131
   5        6.3365
   6        7.6379
   7        7.9650
   8        9.2492
   9       10.3210
  10       10.6847
  11       11.9169
  12       11.9277
 
  0.4166667E+00  0.1666667E+00  0.8333333E-01  0.2777778E-01
   1       -1.5192
   2       -0.0888
   3        4.1040
   4        5.3851
   5        5.5272
   6        6.7939
   7        8.4720
   8        9.6241
   9        9.9892
  10       10.8269
  11       11.1187
  12       12.1629
 
  0.5000000E+00  0.1666667E+00  0.8333333E-01  0.1388889E-01
   1       -0.8618
   2       -0.8618
   3        4.7352
   4        4.7352
   5        6.0588
   6        6.0588
   7        9.0827
   8        9.0827
   9       10.4158
  10       10.4158
  11       11.4409
  12       11.4409
 
  0.2500000E+00  0.2500000E+00  0.8333333E-01  0.1388889E-01
   1       -2.1796
   2        2.0854
   3        2.0854
   4        4.7990
   5        6.2331
   6        7.8526
   7        8.8744
   8        8.8744
   9       10.4748
  10       10.4748
  11       11.8588
  12       11.8588
 
  0.3333333E+00  0.2500000E+00  0.8333333E-01  0.2777778E-01
   1       -1.7590
   2        1.0919
   3        2.4941
   4        5.1616
   5        5.3076
   6        7.9237
   7        8.2495
   8        9.2715
   9       10.7453
  10       11.0762
  11       11.9531
  12       12.0859
 
  0.4166667E+00  0.2500000E+00  0.8333333E-01  0.2777778E-01
   1       -1.2200
   2        0.2076
   3        3.0180
   4        4.4044
   5        5.7182
   6        7.0781
   7        8.7603
   8        9.7780
   9       10.0951
  10       11.1204
  11       11.4013
  12       12.6754
 
  0.5000000E+00  0.2500000E+00  0.8333333E-01  0.1388889E-01
   1       -0.5639
   2       -0.5639
   3        3.6557
   4        3.6557
   5        6.3419
   6        6.3419
   7        9.3789
   8        9.3789
   9       10.3947
  10       10.3947
  11       11.9907
  12       11.9907
 
  0.3333333E+00  0.3333333E+00  0.8333333E-01  0.1388889E-01
   1       -1.3396
   2        1.5035
   3        1.5035
   4        4.2926
   5        5.6043
   6        8.3201
   7        8.3201
   8        8.6487
   9       11.0122
  10       11.3112
  11       11.3112
  12       12.6122
 
  0.4166667E+00  0.3333333E+00  0.8333333E-01  0.2777778E-01
   1       -0.8021
   2        0.6216
   3        2.0311
   4        3.4283
   5        6.1151
   6        7.4749
   7        8.8279
   8        9.1593
   9       10.1755
  10       10.4992
  11       11.8174
  12       13.0889
 
  0.5000000E+00  0.3333333E+00  0.8333333E-01  0.1388889E-01
   1       -0.1477
   2       -0.1477
   3        2.6733
   4        2.6733
   5        6.7392
   6        6.7392
   7        9.4468
   8        9.4468
   9        9.7779
  10        9.7779
  11       12.4220
  12       12.4220
 
  0.4166667E+00  0.4166667E+00  0.8333333E-01  0.1388889E-01
   1       -0.2664
   2        1.1523
   3        1.1523
   4        2.5579
   5        6.6260
   6        7.9840
   7        7.9840
   8        9.3358
   9        9.6683
  10       11.0041
  11       11.0041
  12       12.3230
 
  0.5000000E+00  0.4166667E+00  0.8333333E-01  0.1388889E-01
   1        0.3856
   2        0.3856
   3        1.7983
   4        1.7983
   5        7.2494
   6        7.2494
   7        8.6047
   8        8.6047
   9       10.2848
  10       10.2848
  11       11.6131
  12       11.6131
 
  0.5000000E+00  0.5000000E+00  0.8333333E-01  0.3472222E-02
   1        1.0349
   2        1.0349
   3        1.0349
   4        1.0349
   5        7.8716
   6        7.8716
   7        7.8716
   8        7.8716
   9       10.8980
  10       10.8980
  11       10.8980
  12       10.8980
 
  0.1666667E+00  0.1666667E+00  0.1666667E+00  0.4629630E-02
   1       -2.6013
   2        3.0637
   3        3.0637
   4        3.0637
   5        8.4792
   6        8.4792
   7        8.4792
   8        8.8000
   9        8.8000
  10        8.8000
  11       13.3872
  12       13.3872
 
  0.2500000E+00  0.1666667E+00  0.1666667E+00  0.1388889E-01
   1       -2.3000
   2        1.9684
   3        3.3534
   4        3.3534
   5        7.4666
   6        7.4666
   7        8.8067
   8        9.0396
   9        9.0396
  10       10.3755
  11       12.8204
  12       12.9149
 
  0.3333333E+00  0.1666667E+00  0.1666667E+00  0.1388889E-01
   1       -1.8790
   2        0.9742
   3        3.7580
   4        3.7580
   5        6.5109
   6        6.5109
   7        9.2051
   8        9.4294
   9        9.4294
  10       11.8866
  11       12.0831
  12       12.0837
 
  0.4166667E+00  0.1666667E+00  0.1666667E+00  0.1388889E-01
   1       -1.3396
   2        0.0891
   3        4.2758
   4        4.2758
   5        5.6594
   6        5.6594
   7        9.7123
   8        9.9255
   9        9.9255
  10       11.0549
  11       11.2924
  12       11.2924
 
  0.5000000E+00  0.1666667E+00  0.1666667E+00  0.6944444E-02
   1       -0.6830
   2       -0.6830
   3        4.8444
   4        4.8444
   5        4.9792
   6        4.9792
   7       10.3293
   8       10.3293
   9       10.3953
  10       10.3953
  11       10.7216
  12       10.7216
 
  0.2500000E+00  0.2500000E+00  0.1666667E+00  0.1388889E-01
   1       -1.9992
   2        2.2607
   3        2.2607
   4        3.6424
   5        6.4079
   6        7.7543
   7        7.7543
   8        9.3204
   9       10.6514
  10       10.6514
  11       11.7867
  12       13.1844
 
  0.3333333E+00  0.2500000E+00  0.1666667E+00  0.2777778E-01
   1       -1.5791
   2        1.2685
   3        2.6690
   4        4.0456
   5        5.4443
   6        6.7968
   7        8.1522
   8        9.7141
   9       10.8473
  10       11.0333
  11       12.3621
  12       12.3688
 
  0.4166667E+00  0.2500000E+00  0.1666667E+00  0.2777778E-01
   1       -1.0407
   2        0.3852
   3        3.1922
   4        4.5103
   5        4.6385
   6        5.9444
   7        8.6614
   8       10.0108
   9       10.2167
  10       11.4019
  11       11.6934
  12       12.8402
 
  0.5000000E+00  0.2500000E+00  0.1666667E+00  0.1388889E-01
   1       -0.3854
   2       -0.3854
   3        3.8285
   4        3.8285
   5        5.2023
   6        5.2023
   7        9.2814
   8        9.2814
   9       10.8205
  10       10.8205
  11       12.1616
  12       12.1616
 
  0.3333333E+00  0.3333333E+00  0.1666667E+00  0.1388889E-01
   1       -1.1602
   2        1.6796
   3        1.6796
   4        4.3984
   5        4.5237
   6        7.1955
   7        7.1955
   8        9.9030
   9       10.1085
  10       12.6257
  11       12.6257
  12       12.8635
 
  0.4166667E+00  0.3333333E+00  0.1666667E+00  0.2777778E-01
   1       -0.6233
   2        0.7987
   3        2.2066
   4        3.6016
   5        4.9728
   6        6.3442
   7        7.7067
   8        9.0624
   9       10.6115
  10       11.9231
  11       13.2110
  12       13.2556
 
  0.5000000E+00  0.3333333E+00  0.1666667E+00  0.1388889E-01
   1        0.0303
   2        0.0303
   3        2.8481
   4        2.8481
   5        5.6023
   6        5.6023
   7        8.3295
   8        8.3295
   9       11.2193
  10       11.2193
  11       13.8086
  12       13.8134
 
  0.4166667E+00  0.4166667E+00  0.1666667E+00  0.1388889E-01
   1       -0.0883
   2        1.3288
   3        1.3288
   4        2.7328
   5        5.4880
   6        6.8572
   7        6.8572
   8        8.2182
   9       11.1134
  10       12.4243
  11       12.4243
  12       13.7203
 
  0.5000000E+00  0.4166667E+00  0.1666667E+00  0.1388889E-01
   1        0.5630
   2        0.5630
   3        1.9742
   4        1.9742
   5        6.1168
   6        6.1168
   7        7.4824
   8        7.4824
   9       11.7197
  10       11.7197
  11       13.0242
  12       13.0242
 
  0.5000000E+00  0.5000000E+00  0.1666667E+00  0.3472222E-02
   1        1.2116
   2        1.2116
   3        1.2116
   4        1.2116
   5        6.7441
   6        6.7441
   7        6.7441
   8        6.7441
   9       12.3232
  10       12.3232
  11       12.3232
  12       12.3232
 
  0.2500000E+00  0.2500000E+00  0.2500000E+00  0.4629630E-02
   1       -1.6990
   2        2.5524
   3        2.5524
   4        2.5524
   5        6.6941
   6        6.6941
   7        6.6941
   8       10.7476
   9       10.9319
  10       10.9319
  11       10.9319
  12       14.1723
 
  0.3333333E+00  0.2500000E+00  0.2500000E+00  0.1388889E-01
   1       -1.2798
   2        1.5623
   3        2.9599
   4        2.9599
   5        5.7300
   6        5.7300
   7        7.0933
   8        9.8030
   9       11.3197
  10       11.3197
  11       12.6477
  12       13.8271
 
  0.4166667E+00  0.2500000E+00  0.2500000E+00  0.1388889E-01
   1       -0.7425
   2        0.6807
   3        3.4817
   4        3.4817
   5        4.8723
   6        4.8723
   7        7.6052
   8        8.9619
   9       11.8098
  10       11.8098
  11       13.1161
  12       13.1161
 
  0.5000000E+00  0.2500000E+00  0.2500000E+00  0.6944444E-02
   1       -0.0884
   2       -0.0884
   3        4.0642
   4        4.0642
   5        4.1775
   6        4.1775
   7        8.2285
   8        8.2285
   9       12.2918
  10       12.2918
  11       12.5472
  12       12.5472
 
  0.3333333E+00  0.3333333E+00  0.2500000E+00  0.1388889E-01
   1       -0.8617
   2        1.9727
   3        1.9727
   4        3.3659
   5        4.7606
   6        6.1307
   7        6.1307
   8        8.8536
   9       11.7090
  10       13.0256
  11       13.0256
  12       14.2023
 
  0.4166667E+00  0.3333333E+00  0.2500000E+00  0.2777778E-01
   1       -0.3258
   2        1.0935
   3        2.4987
   4        3.8399
   5        3.9442
   6        5.2738
   7        6.6449
   8        8.0083
   9       12.2025
  10       13.3972
  11       13.6005
  12       14.6572
 
  0.5000000E+00  0.3333333E+00  0.2500000E+00  0.1388889E-01
   1        0.3265
   2        0.3265
   3        3.1386
   4        3.1386
   5        4.5271
   6        4.5271
   7        7.2713
   8        7.2713
   9       12.7936
  10       12.7936
  11       14.0912
  12       14.0912
 
  0.4166667E+00  0.4166667E+00  0.2500000E+00  0.1388889E-01
   1        0.2082
   2        1.6226
   3        1.6226
   4        3.0237
   5        4.4118
   6        5.7900
   7        5.7900
   8        7.1593
   9       12.6957
  10       13.9630
  11       13.9630
  12       15.2197
 
  0.5000000E+00  0.4166667E+00  0.2500000E+00  0.1388889E-01
   1        0.8582
   2        0.8582
   3        2.2668
   4        2.2668
   5        5.0447
   6        5.0447
   7        6.4190
   8        6.4190
   9       13.2873
  10       13.2873
  11       14.5495
  12       14.5495
 
  0.5000000E+00  0.5000000E+00  0.2500000E+00  0.3472222E-02
   1        1.5056
   2        1.5056
   3        1.5056
   4        1.5056
   5        5.6760
   6        5.6760
   7        5.6760
   8        5.6760
   9       13.8763
  10       13.8763
  11       13.8763
  12       13.8763
 
  0.3333333E+00  0.3333333E+00  0.3333333E+00  0.4629630E-02
   1       -0.4448
   2        2.3820
   3        2.3820
   4        2.3820
   5        5.1625
   6        5.1625
   7        5.1625
   8        7.8994
   9       13.4087
  10       13.4087
  11       13.4087
  12       15.2731
 
  0.4166667E+00  0.3333333E+00  0.3333333E+00  0.1388889E-01
   1        0.0897
   2        1.5052
   3        2.9065
   4        2.9065
   5        4.3008
   6        4.3008
   7        5.6792
   8        7.0497
   9       13.8868
  10       13.8868
  11       15.0562
  12       15.0563
 
  0.5000000E+00  0.3333333E+00  0.3333333E+00  0.6944444E-02
   1        0.7403
   2        0.7403
   3        3.5031
   4        3.5031
   5        3.5915
   6        3.5915
   7        6.3089
   8        6.3089
   9       14.3823
  10       14.3823
  11       14.5315
  12       14.5315
 
  0.4166667E+00  0.4166667E+00  0.3333333E+00  0.1388889E-01
   1        0.6223
   2        2.0331
   3        2.0331
   4        3.3907
   5        3.4733
   6        4.8195
   7        4.8195
   8        6.1962
   9       14.3669
  10       15.5139
  11       15.5252
  12       15.6472
 
  0.5000000E+00  0.4166667E+00  0.3333333E+00  0.1388889E-01
   1        1.2707
   2        1.2707
   3        2.6754
   4        2.6754
   5        4.0701
   6        4.0701
   7        5.4520
   8        5.4520
   9       14.9298
  10       14.9298
  11       16.0962
  12       16.1108
 
  0.5000000E+00  0.5000000E+00  0.3333333E+00  0.3472222E-02
   1        1.9164
   2        1.9164
   3        1.9164
   4        1.9164
   5        4.7048
   6        4.7048
   7        4.7048
   8        4.7048
   9       15.4929
  10       15.4929
  11       15.4929
  12       15.4929
 
  0.4166667E+00  0.4166667E+00  0.4166667E+00  0.4629630E-02
   1        1.1531
   2        2.5590
   3        2.5590
   4        2.5590
   5        3.9556
   6        3.9556
   7        3.9556
   8        5.3386
   9       16.0876
  10       16.0876
  11       16.0876
  12       16.6885
 
  0.5000000E+00  0.4166667E+00  0.4166667E+00  0.6944444E-02
   1        1.7994
   2        1.7994
   3        3.1657
   4        3.1657
   5        3.2359
   6        3.2359
   7        4.5908
   8        4.5908
   9       16.5649
  10       16.5649
  11       16.5797
  12       16.5797
 
  0.5000000E+00  0.5000000E+00  0.4166667E+00  0.3472222E-02
   1        2.4428
   2        2.4428
   3        2.4428
   4        2.4428
   5        3.8401
   6        3.8401
   7        3.8401
   8        3.8401
   9       17.0836
  10       17.0836
  11       17.0836
  12       17.0836
 
  0.5000000E+00  0.5000000E+00  0.5000000E+00  0.5787037E-03
   1        3.0532
   2        3.0532
   3        3.0532
   4        3.0532
   5        3.1168
   6        3.1168
   7        3.1168
   8        3.1168
   9       18.2446
  10       18.2446
  11       18.2446
  12       18.2446
