       N       E                     dE             d eps       ncg     rms          rms(c)
DAV:   1     0.208936073812E+04    0.20894E+04   -0.11548E+05   432   0.970E+02
DAV:   2    -0.532602374644E+01   -0.20947E+04   -0.19922E+04   428   0.335E+02
DAV:   3    -0.950024084150E+02   -0.89676E+02   -0.87411E+02   464   0.756E+01
DAV:   4    -0.958977360813E+02   -0.89533E+00   -0.89311E+00   440   0.761E+00
DAV:   5    -0.959030698052E+02   -0.53337E-02   -0.53300E-02   448   0.502E-01    0.150E+01
DAV:   6    -0.896190810647E+02    0.62840E+01   -0.23163E+01   444   0.169E+01    0.282E+00
DAV:   7    -0.894262670856E+02    0.19281E+00   -0.36390E-01   440   0.134E+00    0.149E+00
DAV:   8    -0.893382731175E+02    0.87994E-01   -0.20846E-02   436   0.451E-01    0.928E-02
DAV:   9    -0.893388082242E+02   -0.53511E-03   -0.17058E-03   448   0.124E-01    0.682E-02
DAV:  10    -0.893386358274E+02    0.17240E-03   -0.16890E-04   440   0.386E-02    0.729E-03
DAV:  11    -0.893386283749E+02    0.74525E-05   -0.49418E-06   232   0.579E-03
   1 F= -.89338628E+02 E0= -.89281350E+02  d E =-.893386E+02
