 running on    2 nodes
 distr:  one band on    1 nodes,    2 groups
 vasp.4.6.28 25Jul05 complex 
 POSCAR found :  1 types and    4 ions
 LDA part: xc-table for Pade appr. of Perdew
 POSCAR, INCAR and KPOINTS ok, starting setup
 FFT: planning ...           1
 reading WAVECAR
 WARNING: random wavefunctions but no delay for mixing, default for NELMDL
 entering main loop
       N       E                     dE             d eps       ncg     rms          rms(c)
DAV:   1     0.317669452481E+03    0.31767E+03   -0.27445E+04  4432   0.347E+03
DAV:   2     0.774136339599E+00   -0.31690E+03   -0.31037E+03  4376   0.478E+02
DAV:   3    -0.180393568767E+02   -0.18813E+02   -0.18378E+02  4456   0.151E+02
DAV:   4    -0.182467290258E+02   -0.20737E+00   -0.20705E+00  4582   0.173E+01
DAV:   5    -0.182474430600E+02   -0.71403E-03   -0.71401E-03  4510   0.814E-01    0.141E+01
DAV:   6    -0.157294388792E+02    0.25180E+01   -0.33802E+01  4478   0.945E+01    0.528E+00
DAV:   7    -0.147440549481E+02    0.98538E+00   -0.52167E+00  4650   0.376E+01    0.126E+00
DAV:   8    -0.146972297765E+02    0.46825E-01   -0.46892E-02  4452   0.201E+00    0.655E-01
DAV:   9    -0.146884096060E+02    0.88202E-02   -0.21424E-02  4760   0.227E+00    0.288E-02
DAV:  10    -0.146885133564E+02   -0.10375E-03   -0.80658E-04  4410   0.256E-01    0.120E-02
DAV:  11    -0.146885064537E+02    0.69027E-05   -0.21811E-05  4782   0.702E-02    0.490E-03
DAV:  12    -0.146885130249E+02   -0.65712E-05   -0.83951E-07  4876   0.144E-02    0.111E-03
DAV:  13    -0.146885132779E+02   -0.25299E-06   -0.30584E-08  3670   0.289E-03    0.350E-04
DAV:  14    -0.146885133118E+02   -0.33841E-07   -0.45841E-09  2254   0.932E-04    0.272E-05
DAV:  15    -0.146885132957E+02    0.16060E-07   -0.10124E-09  2224   0.402E-04    0.178E-05
DAV:  16    -0.146885132997E+02   -0.39645E-08   -0.25543E-10  2206   0.206E-04
   1 F= -.14688513E+02 E0= -.14688444E+02  d E =-.139151E-03
