   4   4   0   0
  0.1097175E+02  0.3527323E-09  0.3527323E-09  0.3527323E-09  0.5000000E-15
  1.000000000000000E-004
  CAR 
 unknown system                          
     15.68248261     -6.48116370  301      4.51040193      1.00000000
     -6.481  0.0000E+00  0.0000E+00
     -6.407  0.0000E+00  0.0000E+00
     -6.333  0.0000E+00  0.0000E+00
     -6.260  0.0000E+00  0.0000E+00
     -6.186  0.0000E+00  0.0000E+00
     -6.112  0.0000E+00  0.0000E+00
     -6.038  0.0000E+00  0.0000E+00
     -5.964  0.0000E+00  0.0000E+00
     -5.890  0.0000E+00  0.0000E+00
     -5.816  0.0000E+00  0.0000E+00
     -5.742  0.0000E+00  0.0000E+00
     -5.668  0.0000E+00  0.0000E+00
     -5.595  0.0000E+00  0.0000E+00
     -5.521  0.2315E-12  0.1711E-13
     -5.447  0.1567E-01  0.1157E-02
     -5.373  0.8928E-01  0.7753E-02
     -5.299  0.6104E-01  0.1261E-01
     -5.225  0.1278E+00  0.2205E-01
     -5.151  0.1245E+00  0.3125E-01
     -5.077  0.9400E-01  0.3819E-01
     -5.004  0.3760E+00  0.6597E-01
     -4.930  0.3700E+00  0.9331E-01
     -4.856  0.0000E+00  0.9375E-01
     -4.782  0.1368E-01  0.9476E-01
     -4.708  0.1748E+00  0.1077E+00
     -4.634  0.4695E+00  0.1424E+00
     -4.560  0.3760E+00  0.1701E+00
     -4.486  0.3760E+00  0.1979E+00
     -4.413  0.1251E+00  0.2072E+00
     -4.339  0.3199E+00  0.2308E+00
     -4.265  0.3285E+00  0.2592E+00
     -4.191  0.4235E+00  0.2905E+00
     -4.117  0.8598E-04  0.2905E+00
     -4.043  0.9406E-01  0.2975E+00
     -3.969  0.7518E+00  0.3530E+00
     -3.895  0.5640E+00  0.3947E+00
     -3.822  0.3760E+00  0.4225E+00
     -3.748  0.3756E+00  0.4502E+00
     -3.674  0.7479E+00  0.5055E+00
     -3.600  0.3757E+00  0.5335E+00
     -3.526  0.0000E+00  0.5336E+00
     -3.452  0.3435E+00  0.5589E+00
     -3.378  0.1518E+00  0.5726E+00
     -3.304  0.7057E+00  0.6247E+00
     -3.230  0.9243E+00  0.6930E+00
     -3.157  0.3169E+00  0.7164E+00
     -3.083  0.6758E+00  0.7664E+00
     -3.009  0.4230E+00  0.8044E+00
     -2.935  0.6897E+00  0.8553E+00
     -2.861  0.2741E-02  0.8555E+00
     -2.787  0.5337E+00  0.8950E+00
     -2.713  0.7985E+00  0.9539E+00
     -2.639  0.7230E+00  0.1007E+01
     -2.566  0.8558E+00  0.1071E+01
     -2.492  0.3756E+00  0.1098E+01
     -2.418  0.1128E+01  0.1182E+01
     -2.344  0.1895E-03  0.1182E+01
     -2.270  0.7518E+00  0.1237E+01
     -2.196  0.1129E+01  0.1321E+01
     -2.122  0.1126E+01  0.1404E+01
     -2.048  0.3630E+00  0.1431E+01
     -1.975  0.8772E+00  0.1497E+01
     -1.901  0.1116E+01  0.1580E+01
     -1.827  0.6307E+00  0.1626E+01
     -1.753  0.1315E+01  0.1724E+01
     -1.679  0.3756E+00  0.1753E+01
     -1.605  0.6099E+00  0.1799E+01
     -1.531  0.1892E+01  0.1938E+01
     -1.457  0.1749E+01  0.2069E+01
     -1.384  0.8335E+00  0.2130E+01
     -1.310  0.1480E+01  0.2240E+01
     -1.236  0.1375E+01  0.2341E+01
     -1.162  0.9303E+00  0.2413E+01
     -1.088  0.3423E+01  0.2666E+01
     -1.014  0.2397E+01  0.2845E+01
     -0.940  0.2076E+01  0.2998E+01
     -0.866  0.5442E+01  0.3400E+01
     -0.792  0.3163E+01  0.3638E+01
     -0.719  0.3930E+01  0.3929E+01
     -0.645  0.5447E+01  0.4340E+01
     -0.571  0.3013E+01  0.4563E+01
     -0.497  0.6607E+01  0.5053E+01
     -0.423  0.3953E+01  0.5347E+01
     -0.349  0.4457E+01  0.5676E+01
     -0.275  0.7267E+01  0.6216E+01
     -0.201  0.7501E+01  0.6784E+01
     -0.128  0.7656E+01  0.7350E+01
     -0.054  0.9000E+01  0.8025E+01
      0.020  0.8966E+01  0.8706E+01
      0.094  0.8192E+01  0.9312E+01
      0.168  0.6588E+01  0.9804E+01
      0.242  0.8455E+01  0.1043E+02
      0.316  0.7518E+01  0.1099E+02
      0.390  0.8158E+01  0.1159E+02
      0.463  0.6697E+01  0.1209E+02
      0.537  0.5725E+01  0.1252E+02
      0.611  0.9762E+01  0.1324E+02
      0.685  0.9187E+01  0.1392E+02
      0.759  0.1064E+02  0.1472E+02
      0.833  0.9540E+01  0.1544E+02
      0.907  0.1006E+02  0.1619E+02
      0.981  0.1466E+02  0.1728E+02
      1.054  0.9962E+01  0.1803E+02
      1.128  0.1300E+02  0.1900E+02
      1.202  0.1434E+02  0.2007E+02
      1.276  0.1311E+02  0.2105E+02
      1.350  0.1843E+02  0.2243E+02
      1.424  0.1535E+02  0.2359E+02
      1.498  0.1235E+02  0.2451E+02
      1.572  0.8240E+01  0.2513E+02
      1.646  0.9615E+01  0.2585E+02
      1.719  0.8961E+01  0.2652E+02
      1.793  0.1054E+02  0.2732E+02
      1.867  0.1048E+02  0.2809E+02
      1.941  0.1214E+02  0.2900E+02
      2.015  0.1453E+02  0.3008E+02
      2.089  0.1123E+02  0.3093E+02
      2.163  0.1206E+02  0.3184E+02
      2.237  0.1330E+02  0.3283E+02
      2.310  0.1106E+02  0.3365E+02
      2.384  0.1038E+02  0.3444E+02
      2.458  0.1353E+02  0.3544E+02
      2.532  0.8401E+01  0.3607E+02
      2.606  0.1800E+02  0.3740E+02
      2.680  0.1723E+02  0.3868E+02
      2.754  0.2351E+02  0.4043E+02
      2.828  0.1200E+02  0.4132E+02
      2.901  0.8643E+01  0.4196E+02
      2.975  0.9371E+00  0.4203E+02
      3.049  0.9638E+00  0.4210E+02
      3.123  0.9565E+00  0.4218E+02
      3.197  0.1813E+01  0.4231E+02
      3.271  0.2787E+01  0.4252E+02
      3.345  0.1235E+01  0.4261E+02
      3.419  0.8893E+00  0.4268E+02
      3.492  0.1209E+01  0.4277E+02
      3.566  0.1036E+01  0.4285E+02
      3.640  0.1495E+01  0.4296E+02
      3.714  0.2264E+01  0.4313E+02
      3.788  0.7765E+00  0.4319E+02
      3.862  0.1237E+01  0.4328E+02
      3.936  0.6024E+00  0.4332E+02
      4.010  0.4219E+00  0.4335E+02
      4.084  0.1754E+01  0.4348E+02
      4.157  0.1532E+01  0.4360E+02
      4.231  0.3427E+01  0.4386E+02
      4.305  0.2252E+00  0.4388E+02
      4.379  0.2449E+00  0.4390E+02
      4.453  0.1120E+01  0.4398E+02
      4.527  0.7719E+00  0.4404E+02
      4.601  0.1459E+01  0.4415E+02
      4.675  0.5062E-06  0.4415E+02
      4.748  0.1132E+01  0.4423E+02
      4.822  0.1875E+01  0.4437E+02
      4.896  0.1710E+01  0.4450E+02
      4.970  0.8304E+00  0.4457E+02
      5.044  0.2926E-02  0.4457E+02
      5.118  0.1877E+01  0.4470E+02
      5.192  0.2039E+01  0.4486E+02
      5.266  0.9667E+00  0.4493E+02
      5.339  0.7520E+00  0.4498E+02
      5.413  0.2816E+00  0.4500E+02
      5.487  0.1565E+01  0.4512E+02
      5.561  0.0000E+00  0.4513E+02
      5.635  0.7981E-01  0.4513E+02
      5.709  0.1476E+01  0.4524E+02
      5.783  0.1639E+01  0.4536E+02
      5.857  0.6316E+00  0.4541E+02
      5.930  0.2470E+01  0.4559E+02
      6.004  0.1081E+01  0.4567E+02
      6.078  0.2525E-06  0.4567E+02
      6.152  0.9510E+00  0.4574E+02
      6.226  0.8125E+00  0.4580E+02
      6.300  0.1062E+01  0.4588E+02
      6.374  0.1501E+01  0.4599E+02
      6.448  0.1687E+01  0.4612E+02
      6.522  0.0000E+00  0.4612E+02
      6.595  0.7624E-05  0.4612E+02
      6.669  0.1443E+01  0.4622E+02
      6.743  0.8614E-01  0.4624E+02
      6.817  0.2357E+01  0.4641E+02
      6.891  0.6062E-03  0.4641E+02
      6.965  0.3755E+00  0.4644E+02
      7.039  0.1234E+01  0.4653E+02
      7.113  0.2150E+01  0.4669E+02
      7.186  0.2007E+00  0.4670E+02
      7.260  0.5513E+00  0.4674E+02
      7.334  0.1128E+01  0.4683E+02
      7.408  0.0000E+00  0.4683E+02
      7.482  0.1245E-06  0.4683E+02
      7.556  0.1316E+01  0.4692E+02
      7.630  0.1504E+01  0.4703E+02
      7.704  0.1898E+00  0.4705E+02
      7.777  0.7502E+00  0.4710E+02
      7.851  0.7500E+00  0.4716E+02
      7.925  0.1881E+00  0.4717E+02
      7.999  0.4210E+00  0.4720E+02
      8.073  0.1588E+01  0.4732E+02
      8.147  0.2485E+00  0.4734E+02
      8.221  0.7488E+00  0.4740E+02
      8.295  0.3661E+00  0.4742E+02
      8.368  0.5739E-04  0.4742E+02
      8.442  0.7519E+00  0.4748E+02
      8.516  0.1128E+01  0.4756E+02
      8.590  0.1264E-01  0.4756E+02
      8.664  0.1283E+01  0.4766E+02
      8.738  0.3305E+00  0.4769E+02
      8.812  0.7427E+00  0.4774E+02
      8.886  0.3508E+00  0.4777E+02
      8.960  0.1898E+01  0.4791E+02
      9.033  0.9058E+00  0.4798E+02
      9.107  0.1880E+01  0.4812E+02
      9.181  0.3825E+00  0.4815E+02
      9.255  0.1654E+01  0.4828E+02
      9.329  0.2208E+00  0.4829E+02
      9.403  0.1127E+01  0.4837E+02
      9.477  0.7381E+00  0.4843E+02
      9.551  0.1302E+01  0.4853E+02
      9.624  0.7202E+00  0.4858E+02
      9.698  0.9602E-01  0.4859E+02
      9.772  0.1827E+01  0.4873E+02
      9.846  0.9739E+00  0.4880E+02
      9.920  0.1089E+01  0.4888E+02
      9.994  0.2821E+01  0.4909E+02
     10.068  0.1332E-04  0.4909E+02
     10.142  0.7521E+00  0.4914E+02
     10.215  0.1128E+01  0.4923E+02
     10.289  0.1052E+01  0.4930E+02
     10.363  0.9174E-01  0.4932E+02
     10.437  0.1036E+01  0.4939E+02
     10.511  0.1880E+00  0.4941E+02
     10.585  0.9399E+00  0.4948E+02
     10.659  0.1062E+01  0.4956E+02
     10.733  0.1104E+01  0.4964E+02
     10.806  0.6537E+00  0.4969E+02
     10.880  0.1069E+01  0.4976E+02
     10.954  0.3117E-01  0.4977E+02
     11.028  0.1731E+01  0.4990E+02
     11.102  0.1413E+01  0.5000E+02
     11.176  0.7877E-12  0.5000E+02
     11.250  0.1442E+01  0.5011E+02
     11.324  0.8138E+00  0.5017E+02
     11.398  0.3770E-08  0.5017E+02
     11.471  0.3760E+00  0.5020E+02
     11.545  0.4574E-01  0.5020E+02
     11.619  0.1333E+01  0.5030E+02
     11.693  0.8908E+00  0.5037E+02
     11.767  0.9892E+00  0.5044E+02
     11.841  0.6807E-01  0.5044E+02
     11.915  0.4912E+00  0.5048E+02
     11.989  0.1648E-01  0.5048E+02
     12.062  0.7355E+00  0.5054E+02
     12.136  0.1654E+01  0.5066E+02
     12.210  0.6374E+00  0.5071E+02
     12.284  0.7623E+00  0.5076E+02
     12.358  0.4241E+00  0.5079E+02
     12.432  0.1807E+01  0.5093E+02
     12.506  0.1364E+01  0.5103E+02
     12.580  0.1012E+00  0.5105E+02
     12.653  0.2748E+00  0.5107E+02
     12.727  0.3794E+00  0.5110E+02
     12.801  0.2251E+01  0.5126E+02
     12.875  0.3210E+00  0.5129E+02
     12.949  0.8842E+00  0.5135E+02
     13.023  0.1723E+01  0.5148E+02
     13.097  0.3292E+00  0.5150E+02
     13.171  0.8160E+00  0.5156E+02
     13.244  0.1039E+01  0.5164E+02
     13.318  0.7520E+00  0.5170E+02
     13.392  0.1271E-12  0.5170E+02
     13.466  0.1880E+00  0.5171E+02
     13.540  0.8656E+00  0.5177E+02
     13.614  0.6383E+00  0.5182E+02
     13.688  0.3760E+00  0.5185E+02
     13.762  0.7502E+00  0.5190E+02
     13.836  0.5655E-12  0.5191E+02
     13.909  0.2506E+00  0.5192E+02
     13.983  0.7520E+00  0.5198E+02
     14.057  0.0000E+00  0.5198E+02
     14.131  0.0000E+00  0.5198E+02
     14.205  0.0000E+00  0.5198E+02
     14.279  0.0000E+00  0.5198E+02
     14.353  0.0000E+00  0.5198E+02
     14.427  0.0000E+00  0.5198E+02
     14.500  0.0000E+00  0.5198E+02
     14.574  0.7531E-01  0.5198E+02
     14.648  0.1127E+00  0.5199E+02
     14.722  0.9399E-01  0.5200E+02
     14.796  0.0000E+00  0.5200E+02
     14.870  0.0000E+00  0.5200E+02
     14.944  0.0000E+00  0.5200E+02
     15.018  0.0000E+00  0.5200E+02
     15.091  0.0000E+00  0.5200E+02
     15.165  0.0000E+00  0.5200E+02
     15.239  0.0000E+00  0.5200E+02
     15.313  0.0000E+00  0.5200E+02
     15.387  0.0000E+00  0.5200E+02
     15.461  0.0000E+00  0.5200E+02
     15.535  0.0000E+00  0.5200E+02
     15.609  0.0000E+00  0.5200E+02
     15.682  0.0000E+00  0.5200E+02
