    4    4    1    1
  0.1097175E+02  0.3527323E-09  0.3527323E-09  0.3527323E-09  0.5000000E-15
  1.000000000000000E-004
  CAR 
 unknown system                          
   44   84   26
 
  0.0000000E+00  0.0000000E+00  0.0000000E+00  0.5787037E-03
   1       -5.4737
   2       -0.8973
   3       -0.8973
   4       -0.8973
   5       -0.3944
   6       -0.3944
   7       -0.3944
   8        1.1665
   9        1.1665
  10        1.1665
  11        2.0951
  12        2.0951
  13        2.7109
  14        2.7109
  15        2.7109
  16        2.8841
  17        2.8841
  18        2.8841
  19        2.8841
  20        2.8841
  21        2.8841
  22        5.9113
  23        5.9113
  24        5.9113
  25       12.1047
  26       12.1047
 
  0.8333333E-01  0.0000000E+00  0.0000000E+00  0.3472222E-02
   1       -5.3846
   2       -0.8960
   3       -0.8541
   4       -0.8541
   5       -0.3694
   6       -0.3678
   7       -0.3678
   8        1.1383
   9        1.1889
  10        1.1889
  11        2.0695
  12        2.1054
  13        2.6777
  14        2.6777
  15        2.7002
  16        2.7117
  17        2.7117
  18        2.8450
  19        2.8450
  20        2.8841
  21        2.8841
  22        5.3923
  23        6.1617
  24        6.1617
  25       12.1340
  26       12.1340
 
  0.1666667E+00  0.0000000E+00  0.0000000E+00  0.3472222E-02
   1       -5.1193
   2       -0.9091
   3       -0.7306
   4       -0.7306
   5       -0.2957
   6       -0.2877
   7       -0.2877
   8        1.0558
   9        1.2555
  10        1.2555
  11        1.9955
  12        2.1355
  13        2.3113
  14        2.3113
  15        2.5813
  16        2.5813
  17        2.6688
  18        2.7333
  19        2.7333
  20        2.8843
  21        2.8843
  22        4.2797
  23        6.7959
  24        6.7959
  25       12.2246
  26       12.2246
 
  0.2500000E+00  0.0000000E+00  0.0000000E+00  0.3472222E-02
   1       -4.6848
   2       -0.9964
   3       -0.5459
   4       -0.5459
   5       -0.1775
   6       -0.1529
   7       -0.1529
   8        0.9257
   9        1.3646
  10        1.3646
  11        1.8415
  12        1.8415
  13        1.8827
  14        2.1835
  15        2.4333
  16        2.4333
  17        2.5636
  18        2.5636
  19        2.6189
  20        2.8845
  21        2.8845
  22        3.1193
  23        7.6537
  24        7.6537
  25       12.3843
  26       12.3843
 
  0.3333333E+00  0.0000000E+00  0.0000000E+00  0.3472222E-02
   1       -4.0950
   2       -1.2718
   3       -0.3363
   4       -0.3363
   5       -0.0218
   6        0.0383
   7        0.0383
   8        0.7581
   9        1.3810
  10        1.3810
  11        1.5132
  12        1.5132
  13        1.7496
  14        2.2153
  15        2.2464
  16        2.2598
  17        2.2598
  18        2.3557
  19        2.3557
  20        2.5543
  21        2.8847
  22        2.8847
  23        8.6541
  24        8.6541
  25       12.6218
  26       12.6218
 
  0.4166667E+00  0.0000000E+00  0.0000000E+00  0.3472222E-02
   1       -3.3770
   2       -1.8281
   3       -0.1597
   4       -0.1597
   5        0.1619
   6        0.2874
   7        0.2874
   8        0.5656
   9        0.9614
  10        0.9614
  11        1.6294
  12        1.6960
  13        1.6960
  14        1.7236
  15        2.1091
  16        2.1091
  17        2.1302
  18        2.1302
  19        2.3200
  20        2.4794
  21        2.8849
  22        2.8849
  23        9.7623
  24        9.7623
  25       12.2397
  26       12.2397
 
  0.5000000E+00  0.0000000E+00  0.0000000E+00  0.1736111E-02
   1       -2.5850
   2       -2.5850
   3       -0.0881
   4       -0.0881
   5        0.3621
   6        0.3621
   7        0.5954
   8        0.5954
   9        0.5954
  10        0.5954
  11        1.5828
  12        1.5828
  13        1.9054
  14        1.9054
  15        1.9054
  16        1.9054
  17        2.0469
  18        2.0469
  19        2.3994
  20        2.3994
  21        2.8849
  22        2.8849
  23       10.9611
  24       10.9611
  25       10.9611
  26       10.9611
 
  0.8333333E-01  0.8333333E-01  0.0000000E+00  0.6944444E-02
   1       -5.2959
   2       -0.8518
   3       -0.8518
   4       -0.8119
   5       -0.3433
   6       -0.3433
   7       -0.3422
   8        1.1223
   9        1.1995
  10        1.2090
  11        2.0624
  12        2.0993
  13        2.5855
  14        2.6225
  15        2.6225
  16        2.6460
  17        2.7082
  18        2.7082
  19        2.8449
  20        2.8449
  21        2.8592
  22        5.6406
  23        5.6406
  24        6.3912
  25       12.1627
  26       12.8358
 
  0.1666667E+00  0.8333333E-01  0.0000000E+00  0.1388889E-01
   1       -5.0318
   2       -0.8620
   3       -0.7254
   4       -0.6912
   5       -0.2710
   6       -0.2649
   7       -0.2647
   8        1.0480
   9        1.2597
  10        1.2683
  11        1.9983
  12        2.1268
  13        2.2353
  14        2.2366
  15        2.4767
  16        2.5536
  17        2.5897
  18        2.6760
  19        2.7330
  20        2.8448
  21        2.8457
  22        4.5496
  23        6.2485
  24        6.9892
  25       12.2492
  26       12.9607
 
  0.2500000E+00  0.8333333E-01  0.0000000E+00  0.1388889E-01
   1       -4.5995
   2       -0.9443
   3       -0.5359
   4       -0.5101
   5       -0.1553
   6       -0.1360
   7       -0.1324
   8        0.9226
   9        1.3621
  10        1.3669
  11        1.7704
  12        1.7984
  13        1.8952
  14        2.1806
  15        2.2266
  16        2.4113
  17        2.4413
  18        2.5631
  19        2.6117
  20        2.8425
  21        2.8446
  22        3.4774
  23        7.0442
  24        7.8181
  25       12.3802
  26       13.1786
 
  0.3333333E+00  0.8333333E-01  0.0000000E+00  0.1388889E-01
   1       -4.0130
   2       -1.2133
   3       -0.3194
   4       -0.3022
   5       -0.0028
   6        0.0434
   7        0.0549
   8        0.7595
   9        1.3185
  10        1.3595
  11        1.4698
  12        1.5144
  13        1.7944
  14        1.8611
  15        2.2443
  16        2.2522
  17        2.2678
  18        2.3551
  19        2.4882
  20        2.7866
  21        2.8420
  22        2.8442
  23        7.9491
  24        8.7987
  25       12.1680
  26       12.8955
 
  0.4166667E+00  0.8333333E-01  0.0000000E+00  0.1388889E-01
   1       -3.2994
   2       -1.7630
   3       -0.1338
   4       -0.1238
   5        0.1771
   6        0.2728
   7        0.2986
   8        0.5717
   9        0.9108
  10        0.9547
  11        1.5033
  12        1.5615
  13        1.6964
  14        1.8123
  15        2.1009
  16        2.1147
  17        2.1297
  18        2.2352
  19        2.3373
  20        2.5457
  21        2.8423
  22        2.8436
  23        8.9314
  24        9.8932
  25       11.0859
  26       12.3550
 
  0.5000000E+00  0.8333333E-01  0.0000000E+00  0.6944444E-02
   1       -2.5133
   2       -2.5133
   3       -0.0541
   4       -0.0541
   5        0.3729
   6        0.3729
   7        0.5603
   8        0.5603
   9        0.5990
  10        0.5990
  11        1.4746
  12        1.4746
  13        1.9052
  14        1.9052
  15        1.9884
  16        1.9884
  17        2.0464
  18        2.0464
  19        2.4328
  20        2.4328
  21        2.8430
  22        2.8430
  23        9.9791
  24        9.9791
  25       11.0826
  26       11.0826
 
  0.1666667E+00  0.1666667E+00  0.0000000E+00  0.6944444E-02
   1       -4.7717
   2       -0.7267
   3       -0.7267
   4       -0.5785
   5       -0.1969
   6       -0.1969
   7       -0.1966
   8        1.0029
   9        1.2957
  10        1.3055
  11        1.9751
  12        2.0044
  13        2.0447
  14        2.0447
  15        2.1357
  16        2.4722
  17        2.5821
  18        2.5821
  19        2.7322
  20        2.7322
  21        2.7852
  22        5.1402
  23        5.1402
  24        7.5161
  25       12.2942
  26       13.5827
 
  0.2500000E+00  0.1666667E+00  0.0000000E+00  0.1388889E-01
   1       -4.3460
   2       -0.7940
   3       -0.5222
   4       -0.4087
   5       -0.0884
   6       -0.0844
   7       -0.0724
   8        0.9024
   9        1.3596
  10        1.3860
  11        1.5854
  12        1.6656
  13        1.7701
  14        1.9023
  15        2.1991
  16        2.3457
  17        2.4407
  18        2.5290
  19        2.5617
  20        2.7309
  21        2.7503
  22        4.0617
  23        5.8602
  24        8.2809
  25       11.8472
  26       12.7811
 
  0.3333333E+00  0.1666667E+00  0.0000000E+00  0.1388889E-01
   1       -3.7697
   2       -1.0444
   3       -0.2840
   4       -0.2072
   5        0.0542
   6        0.0620
   7        0.1034
   8        0.7583
   9        1.1575
  10        1.2928
  11        1.4000
  12        1.4799
  13        1.5245
  14        1.8410
  15        2.1967
  16        2.2715
  17        2.2989
  18        2.3537
  19        2.4159
  20        2.7294
  21        2.7349
  22        3.2765
  23        6.6575
  24        9.2130
  25       10.6592
  26       12.9491
 
  0.4166667E+00  0.1666667E+00  0.0000000E+00  0.1388889E-01
   1       -3.0704
   2       -1.5739
   3       -0.0698
   4       -0.0210
   5        0.2220
   6        0.2321
   7        0.3308
   8        0.5872
   9        0.7799
  10        0.9329
  11        1.3115
  12        1.3710
  13        1.7013
  14        1.8814
  15        2.0718
  16        2.1160
  17        2.1292
  18        2.2356
  19        2.4254
  20        2.7280
  21        2.7289
  22        2.8272
  23        7.5241
  24        9.5111
  25       10.2726
  26       12.6928
 
  0.5000000E+00  0.1666667E+00  0.0000000E+00  0.6944444E-02
   1       -2.3029
   2       -2.3029
   3        0.0405
   4        0.0405
   5        0.4038
   6        0.4038
   7        0.4648
   8        0.4648
   9        0.6087
  10        0.6087
  11        1.3048
  12        1.3048
  13        1.9067
  14        1.9067
  15        2.0329
  16        2.0329
  17        2.0354
  18        2.0354
  19        2.5859
  20        2.5859
  21        2.7275
  22        2.7275
  23        8.4696
  24        8.4696
  25       11.4372
  26       11.4372
 
  0.2500000E+00  0.2500000E+00  0.0000000E+00  0.6944444E-02
   1       -3.9324
   2       -0.5648
   3       -0.5648
   4       -0.2582
   5        0.0014
   6        0.0234
   7        0.0234
   8        0.8436
   9        1.3444
  10        1.3444
  11        1.3601
  12        1.4468
  13        1.4482
  14        1.8620
  15        2.2413
  16        2.2841
  17        2.3972
  18        2.3972
  19        2.5598
  20        2.5598
  21        2.6646
  22        4.7093
  23        4.7093
  24        8.9783
  25       10.4874
  26       12.8844
 
  0.3333333E+00  0.2500000E+00  0.0000000E+00  0.1388889E-01
   1       -3.3745
   2       -0.7855
   3       -0.2921
   4       -0.0781
   5        0.1067
   6        0.1486
   7        0.1801
   8        0.7404
   9        0.9663
  10        1.1438
  11        1.1771
  12        1.3432
  13        1.5604
  14        1.8161
  15        2.1158
  16        2.2363
  17        2.2934
  18        2.3528
  19        2.4275
  20        2.5585
  21        2.6089
  22        3.8136
  23        5.4133
  24        9.1961
  25        9.8538
  26       13.1821
 
  0.4166667E+00  0.2500000E+00  0.0000000E+00  0.1388889E-01
   1       -2.7017
   2       -1.2805
   3       -0.0320
   4        0.1234
   5        0.1816
   6        0.2946
   7        0.3803
   8        0.6041
   9        0.6393
  10        0.8915
  11        1.0871
  12        1.2697
  13        1.7206
  14        1.8450
  15        2.0126
  16        2.0831
  17        2.1315
  18        2.1353
  19        2.5592
  20        2.5787
  21        2.6144
  22        3.2231
  23        6.1882
  24        8.0545
  25       10.8691
  26       13.2331
 
  0.5000000E+00  0.2500000E+00  0.0000000E+00  0.6944444E-02
   1       -1.9696
   2       -1.9696
   3        0.1419
   4        0.1419
   5        0.3620
   6        0.3620
   7        0.4507
   8        0.4507
   9        0.6203
  10        0.6203
  11        1.1584
  12        1.1584
  13        1.9155
  14        1.9155
  15        1.9659
  16        1.9659
  17        1.9940
  18        1.9940
  19        2.5645
  20        2.5645
  21        2.8595
  22        2.8595
  23        7.0592
  24        7.0592
  25       12.0006
  26       12.0006
 
  0.3333333E+00  0.3333333E+00  0.0000000E+00  0.6944444E-02
   1       -2.8457
   2       -0.4756
   3       -0.4756
   4        0.0291
   5        0.2019
   6        0.2788
   7        0.2788
   8        0.6919
   9        0.8596
  10        0.8596
  11        1.0161
  12        1.2877
  13        1.6398
  14        1.7607
  15        2.0119
  16        2.1424
  17        2.1424
  18        2.3548
  19        2.3548
  20        2.5021
  21        2.6240
  22        4.4039
  23        4.4039
  24        7.8992
  25       10.6765
  26       13.5381
 
  0.4166667E+00  0.3333333E+00  0.0000000E+00  0.1388889E-01
   1       -2.2163
   2       -0.9207
   3       -0.1778
   4        0.0767
   5        0.3288
   6        0.3910
   7        0.4409
   8        0.6106
   9        0.6316
  10        0.8256
  11        0.9079
  12        1.1915
  13        1.7598
  14        1.7688
  15        1.9228
  16        1.9969
  17        1.9986
  18        2.1419
  19        2.3638
  20        2.4288
  21        2.8751
  22        3.6832
  23        5.0719
  24        6.7872
  25       11.6476
  26       13.9509
 
  0.5000000E+00  0.3333333E+00  0.0000000E+00  0.6944444E-02
   1       -1.5435
   2       -1.5435
   3        0.0233
   4        0.0233
   5        0.4605
   6        0.4605
   7        0.5059
   8        0.5059
   9        0.6274
  10        0.6274
  11        1.0467
  12        1.0467
  13        1.8509
  14        1.8509
  15        1.9097
  16        1.9097
  17        1.9408
  18        1.9408
  19        2.3857
  20        2.3857
  21        3.2051
  22        3.2051
  23        5.8537
  24        5.8537
  25       12.7441
  26       12.7441
 
  0.4166667E+00  0.4166667E+00  0.0000000E+00  0.6944444E-02
   1       -1.6534
   2       -0.5544
   3       -0.5544
   4       -0.0484
   5        0.5039
   6        0.5039
   7        0.5088
   8        0.5966
   9        0.7339
  10        0.7722
  11        0.7722
  12        1.0987
  13        1.7069
  14        1.8310
  15        1.8587
  16        1.8683
  17        1.8683
  18        2.1681
  19        2.1681
  20        2.3055
  21        3.2005
  22        4.2250
  23        4.2250
  24        5.7343
  25       12.5789
  26       14.5761
 
  0.5000000E+00  0.4166667E+00  0.0000000E+00  0.6944444E-02
   1       -1.0736
   2       -1.0736
   3       -0.2516
   4       -0.2516
   5        0.5592
   6        0.5592
   7        0.6227
   8        0.6227
   9        0.6537
  10        0.6537
  11        0.9517
  12        0.9517
  13        1.7492
  14        1.7492
  15        1.8004
  16        1.8004
  17        1.9943
  18        1.9943
  19        2.2196
  20        2.2196
  21        3.6263
  22        3.6263
  23        4.8917
  24        4.8917
  25       13.6420
  26       13.6420
 
  0.5000000E+00  0.5000000E+00  0.0000000E+00  0.1736111E-02
   1       -0.6244
   2       -0.6244
   3       -0.6244
   4       -0.6244
   5        0.6001
   6        0.6001
   7        0.6001
   8        0.6001
   9        0.8286
  10        0.8286
  11        0.8286
  12        0.8286
  13        1.7268
  14        1.7268
  15        1.7268
  16        1.7268
  17        2.0862
  18        2.0862
  19        2.0862
  20        2.0862
  21        4.1666
  22        4.1666
  23        4.1666
  24        4.1666
  25       14.6750
  26       14.6750
 
  0.8333333E-01  0.8333333E-01  0.8333333E-01  0.4629630E-02
   1       -5.2076
   2       -0.8088
   3       -0.8088
   4       -0.8088
   5       -0.3181
   6       -0.3181
   7       -0.3181
   8        1.1075
   9        1.2183
  10        1.2183
  11        2.0755
  12        2.0755
  13        2.5304
  14        2.5304
  15        2.5304
  16        2.6172
  17        2.6172
  18        2.6172
  19        2.8409
  20        2.8409
  21        2.8409
  22        5.8630
  23        5.8630
  24        5.8630
  25       12.8759
  26       12.8759
 
  0.1666667E+00  0.8333333E-01  0.8333333E-01  0.1388889E-01
   1       -4.9449
   2       -0.8165
   3       -0.6857
   4       -0.6857
   5       -0.2471
   6       -0.2422
   7       -0.2422
   8        1.0401
   9        1.2694
  10        1.2741
  11        2.0080
  12        2.1138
  13        2.1685
  14        2.1685
  15        2.3635
  16        2.5306
  17        2.5327
  18        2.5327
  19        2.7919
  20        2.8288
  21        2.8288
  22        4.7712
  23        6.4284
  24        6.4284
  25       12.9960
  26       12.9960
 
  0.2500000E+00  0.8333333E-01  0.8333333E-01  0.1388889E-01
   1       -4.5149
   2       -0.8946
   3       -0.5007
   4       -0.5007
   5       -0.1333
   6       -0.1158
   7       -0.1158
   8        0.9203
   9        1.3602
  10        1.3662
  11        1.7325
  12        1.7325
  13        1.9133
  14        2.0802
  15        2.1745
  16        2.3920
  17        2.4021
  18        2.4021
  19        2.7220
  20        2.8186
  21        2.8186
  22        3.6998
  23        7.1908
  24        7.1908
  25       13.1527
  26       13.1527
 
  0.3333333E+00  0.8333333E-01  0.8333333E-01  0.1388889E-01
   1       -3.9319
   2       -1.1580
   3       -0.2866
   4       -0.2866
   5        0.0166
   6        0.0587
   7        0.0587
   8        0.7622
   9        1.3031
  10        1.3031
  11        1.4514
  12        1.4925
  13        1.7236
  14        1.8415
  15        2.2163
  16        2.2416
  17        2.2416
  18        2.2535
  19        2.6376
  20        2.8128
  21        2.8128
  22        2.9256
  23        8.0698
  24        8.0698
  25       12.4163
  26       12.4163
 
  0.4166667E+00  0.8333333E-01  0.8333333E-01  0.1388889E-01
   1       -3.2234
   2       -1.7009
   3       -0.0985
   4       -0.0985
   5        0.1932
   6        0.2757
   7        0.2757
   8        0.5792
   9        0.9161
  10        0.9161
  11        1.4552
  12        1.4713
  13        1.6489
  14        1.9076
  15        2.0228
  16        2.0986
  17        2.0986
  18        2.3453
  19        2.4447
  20        2.5433
  21        2.8101
  22        2.8101
  23        9.0214
  24        9.0214
  25       11.2583
  26       11.2583
 
  0.5000000E+00  0.8333333E-01  0.8333333E-01  0.6944444E-02
   1       -2.4437
   2       -2.4437
   3       -0.0193
   4       -0.0193
   5        0.3850
   6        0.3850
   7        0.4775
   8        0.4775
   9        0.6529
  10        0.6529
  11        1.4131
  12        1.4131
  13        1.8291
  14        1.8291
  15        2.0387
  16        2.0387
  17        2.1232
  18        2.1232
  19        2.4440
  20        2.4440
  21        2.8093
  22        2.8093
  23        9.8105
  24        9.8105
  25       10.3977
  26       10.3977
 
  0.1666667E+00  0.1666667E+00  0.8333333E-01  0.1388889E-01
   1       -4.6864
   2       -0.6861
   3       -0.6861
   4       -0.5723
   5       -0.1751
   6       -0.1751
   7       -0.1748
   8        0.9978
   9        1.3015
  10        1.3069
  11        1.9455
  12        1.9839
  13        1.9839
  14        1.9986
  15        2.1163
  16        2.4232
  17        2.4556
  18        2.4556
  19        2.7847
  20        2.7847
  21        2.7945
  22        5.3011
  23        5.3011
  24        6.9117
  25       13.0310
  26       13.7433
 
  0.2500000E+00  0.1666667E+00  0.8333333E-01  0.2777778E-01
   1       -4.2637
   2       -0.7522
   3       -0.4895
   4       -0.4017
   5       -0.0670
   6       -0.0646
   7       -0.0554
   8        0.9031
   9        1.3578
  10        1.3769
  11        1.5577
  12        1.6123
  13        1.7128
  14        1.9358
  15        2.1851
  16        2.3029
  17        2.3181
  18        2.3538
  19        2.7179
  20        2.7566
  21        2.7597
  22        4.1949
  23        5.9820
  24        7.5964
  25       12.1038
  26       13.4920
 
  0.3333333E+00  0.1666667E+00  0.8333333E-01  0.2777778E-01
   1       -3.6918
   2       -0.9994
   3       -0.2587
   4       -0.1982
   5        0.0753
   6        0.0758
   7        0.1066
   8        0.7652
   9        1.1577
  10        1.2535
  11        1.3935
  12        1.4333
  13        1.4858
  14        1.9032
  15        2.1429
  16        2.1673
  17        2.2148
  18        2.2886
  19        2.6187
  20        2.7343
  21        2.7349
  22        3.3495
  23        6.7516
  24        8.3953
  25       10.8688
  26       12.7773
 
  0.4166667E+00  0.1666667E+00  0.8333333E-01  0.2777778E-01
   1       -2.9991
   2       -1.5214
   3       -0.0421
   4        0.0001
   5        0.2174
   6        0.2418
   7        0.2858
   8        0.5997
   9        0.8227
  10        0.9248
  11        1.2804
  12        1.3563
  13        1.6196
  14        1.9564
  15        1.9964
  16        2.0483
  17        2.0780
  18        2.4135
  19        2.4567
  20        2.7217
  21        2.7219
  22        2.8242
  23        7.5912
  24        9.0670
  25        9.9730
  26       11.5953
 
  0.5000000E+00  0.1666667E+00  0.8333333E-01  0.1388889E-01
   1       -2.2403
   2       -2.2403
   3        0.0772
   4        0.0772
   5        0.3497
   6        0.3497
   7        0.4208
   8        0.4208
   9        0.7013
  10        0.7013
  11        1.2838
  12        1.2838
  13        1.7780
  14        1.7780
  15        2.0083
  16        2.0083
  17        2.2110
  18        2.2110
  19        2.5667
  20        2.5667
  21        2.7179
  22        2.7179
  23        8.4828
  24        8.4828
  25       10.5370
  26       10.5370
 
  0.2500000E+00  0.2500000E+00  0.8333333E-01  0.1388889E-01
   1       -3.8540
   2       -0.5375
   3       -0.5375
   4       -0.2574
   5        0.0216
   6        0.0435
   7        0.0435
   8        0.8507
   9        1.3286
  10        1.3286
  11        1.3577
  12        1.4113
  13        1.4205
  14        1.9134
  15        2.1816
  16        2.2429
  17        2.2429
  18        2.2674
  19        2.6696
  20        2.6696
  21        2.6948
  22        4.8012
  23        4.8012
  24        8.1759
  25       10.7093
  26       13.7350
 
  0.3333333E+00  0.2500000E+00  0.8333333E-01  0.2777778E-01
   1       -3.3025
   2       -0.7608
   3       -0.2862
   4       -0.0903
   5        0.1273
   6        0.1741
   7        0.1922
   8        0.7553
   9        0.9870
  10        1.1391
  11        1.1642
  12        1.3408
  13        1.4985
  14        1.9014
  15        2.0602
  16        2.0821
  17        2.1345
  18        2.4101
  19        2.5507
  20        2.6234
  21        2.6400
  22        3.8613
  23        5.4804
  24        8.6522
  25        9.7063
  26       13.2851
 
  0.4166667E+00  0.2500000E+00  0.8333333E-01  0.2777778E-01
   1       -2.6392
   2       -1.2466
   3       -0.0458
   4        0.0841
   5        0.2004
   6        0.3236
   7        0.3340
   8        0.6265
   9        0.7355
  10        0.9222
  11        1.0868
  12        1.2672
  13        1.6032
  14        1.9044
  15        1.9633
  16        1.9889
  17        2.0145
  18        2.3814
  19        2.5941
  20        2.5964
  21        2.6044
  22        3.2243
  23        6.2353
  24        8.0101
  25       10.0969
  26       12.0983
 
  0.5000000E+00  0.2500000E+00  0.8333333E-01  0.1388889E-01
   1       -1.9204
   2       -1.9204
   3        0.1242
   4        0.1242
   5        0.2909
   6        0.2909
   7        0.4784
   8        0.4784
   9        0.7347
  10        0.7347
  11        1.1571
  12        1.1571
  13        1.7392
  14        1.7392
  15        1.9414
  16        1.9414
  17        2.1724
  18        2.1724
  19        2.5902
  20        2.5902
  21        2.8396
  22        2.8396
  23        7.0806
  24        7.0806
  25       11.0261
  26       11.0261
 
  0.3333333E+00  0.3333333E+00  0.8333333E-01  0.1388889E-01
   1       -2.7832
   2       -0.4851
   3       -0.4851
   4       -0.0201
   5        0.2371
   6        0.3112
   7        0.3112
   8        0.7182
   9        0.8894
  10        0.8894
  11        1.0392
  12        1.2888
  13        1.5294
  14        1.8903
  15        1.9456
  16        1.9990
  17        1.9990
  18        2.4844
  19        2.4844
  20        2.5501
  21        2.6034
  22        4.4366
  23        4.4366
  24        7.8333
  25        9.9492
  26       13.9519
 
  0.4166667E+00  0.3333333E+00  0.8333333E-01  0.2777778E-01
   1       -2.1684
   2       -0.9178
   3       -0.2329
   4       -0.0037
   5        0.3635
   6        0.4381
   7        0.4576
   8        0.6490
   9        0.7203
  10        0.8961
  11        0.9275
  12        1.1959
  13        1.5862
  14        1.8383
  15        1.8557
  16        1.9008
  17        1.9605
  18        2.3105
  19        2.4463
  20        2.4813
  21        2.8520
  22        3.6816
  23        5.0937
  24        6.7807
  25       10.7405
  26       12.7612
 
  0.5000000E+00  0.3333333E+00  0.8333333E-01  0.1388889E-01
   1       -1.5164
   2       -1.5164
   3       -0.0646
   4       -0.0646
   5        0.4634
   6        0.4634
   7        0.5531
   8        0.5531
   9        0.7528
  10        0.7528
  11        1.0562
  12        1.0562
  13        1.6909
  14        1.6909
  15        1.8364
  16        1.8364
  17        2.1184
  18        2.1184
  19        2.4452
  20        2.4452
  21        3.1850
  22        3.1850
  23        5.8651
  24        5.8651
  25       11.6896
  26       11.6896
 
  0.4166667E+00  0.4166667E+00  0.8333333E-01  0.1388889E-01
   1       -1.6280
   2       -0.5939
   3       -0.5939
   4       -0.1395
   5        0.5377
   6        0.5759
   7        0.5759
   8        0.6546
   9        0.8082
  10        0.8082
  11        0.8385
  12        1.1088
  13        1.5817
  14        1.7572
  15        1.7609
  16        1.7609
  17        1.9959
  18        2.2775
  19        2.2775
  20        2.3722
  21        3.1759
  22        4.2210
  23        4.2210
  24        5.7321
  25       11.5535
  26       13.5700
 
  0.5000000E+00  0.4166667E+00  0.8333333E-01  0.1388889E-01
   1       -1.0792
   2       -1.0792
   3       -0.3294
   4       -0.3294
   5        0.6338
   6        0.6338
   7        0.6572
   8        0.6572
   9        0.7560
  10        0.7560
  11        0.9682
  12        0.9682
  13        1.6395
  14        1.6395
  15        1.7183
  16        1.7183
  17        2.1129
  18        2.1129
  19        2.2989
  20        2.2989
  21        3.6060
  22        3.6060
  23        4.8880
  24        4.8880
  25       12.4993
  26       12.4993
 
  0.5000000E+00  0.5000000E+00  0.8333333E-01  0.3472222E-02
   1       -0.6693
   2       -0.6693
   3       -0.6693
   4       -0.6693
   5        0.6979
   6        0.6979
   7        0.6979
   8        0.6979
   9        0.8530
  10        0.8530
  11        0.8530
  12        0.8530
  13        1.6383
  14        1.6383
  15        1.6383
  16        1.6383
  17        2.1777
  18        2.1777
  19        2.1777
  20        2.1777
  21        4.1510
  22        4.1510
  23        4.1510
  24        4.1510
  25       13.4424
  26       13.4424
 
  0.1666667E+00  0.1666667E+00  0.1666667E+00  0.4629630E-02
   1       -4.4329
   2       -0.5712
   3       -0.5712
   4       -0.5712
   5       -0.1094
   6       -0.1094
   7       -0.1094
   8        0.9694
   9        1.3217
  10        1.3217
  11        1.7768
  12        1.7768
  13        1.7768
  14        2.0650
  15        2.0650
  16        2.3026
  17        2.3026
  18        2.3026
  19        2.8001
  20        2.8001
  21        2.8001
  22        5.7260
  23        5.7260
  24        5.7260
  25       13.8844
  26       13.8844
 
  0.2500000E+00  0.1666667E+00  0.1666667E+00  0.1388889E-01
   1       -4.0194
   2       -0.6352
   3       -0.4007
   4       -0.4007
   5       -0.0017
   6       -0.0016
   7       -0.0016
   8        0.8975
   9        1.3564
  10        1.3631
  11        1.4675
  12        1.4675
  13        1.5318
  14        2.0089
  15        2.1461
  16        2.1635
  17        2.1913
  18        2.1913
  19        2.7708
  20        2.7708
  21        2.7782
  22        4.5545
  23        6.3171
  24        6.3171
  25       12.4869
  26       12.4869
 
  0.3333333E+00  0.1666667E+00  0.1666667E+00  0.1388889E-01
   1       -3.4618
   2       -0.8744
   3       -0.2009
   4       -0.2009
   5        0.1309
   6        0.1309
   7        0.1409
   8        0.7825
   9        1.1534
  10        1.1534
  11        1.2997
  12        1.3699
  13        1.4318
  14        1.9763
  15        2.0143
  16        2.0813
  17        2.0813
  18        2.2818
  19        2.7231
  20        2.7298
  21        2.7298
  22        3.6057
  23        7.0056
  24        7.0056
  25       11.2256
  26       11.2256
 
  0.4166667E+00  0.1666667E+00  0.1666667E+00  0.1388889E-01
   1       -2.7898
   2       -1.3728
   3        0.0033
   4        0.0033
   5        0.2242
   6        0.2242
   7        0.3042
   8        0.6369
   9        0.9098
  10        0.9098
  11        1.1947
  12        1.3133
  13        1.5304
  14        1.8094
  15        1.9774
  16        1.9774
  17        2.1584
  18        2.4076
  19        2.6379
  20        2.6996
  21        2.6996
  22        2.9222
  23        7.7235
  24        7.7235
  25       10.1677
  26       10.1677
 
  0.5000000E+00  0.1666667E+00  0.1666667E+00  0.6944444E-02
   1       -2.0594
   2       -2.0594
   3        0.1666
   4        0.1666
   5        0.1833
   6        0.1833
   7        0.4736
   8        0.4736
   9        0.8181
  10        0.8181
  11        1.2259
  12        1.2259