<?xml version="1.0" encoding="ISO-8859-1"?>
<modeling>
 <generator>
  <i name="program" type="string">vasp</i>
  <i name="version" type="string">4.6.28 </i>
  <i name="subversion" type="string">25Jul05 complex  parallel</i>
  <i name="platform" type="string">LinuxIFC</i>
  <i name="date" type="string">2016 12 21</i>
  <i name="time" type="string">11:35:58</i>
 </generator>
 <incar>
  <i type="string" name="PREC">accurate</i>
  <i type="int" name="IALGO">    38</i>
  <i type="logical" name="ADDGRID"> T  </i>
  <i name="EDIFF">      0.00000001</i>
  <i type="int" name="IBRION">    -1</i>
  <i name="ENCUT">    750.00000000</i>
  <i type="logical" name="LREAL"> F  </i>
  <i type="int" name="ISMEAR">     0</i>
  <i name="SIGMA">      0.01000000</i>
  <i type="logical" name="LWAVE"> F  </i>
  <i type="logical" name="LCHARG"> F  </i>
 </incar>
 <kpoints>
  <generation param="Gamma">
   <v type="int" name="divisions">      12      12      12</v>
   <v name="usershift">      0.00000000      0.00000000      0.00000000</v>
   <v name="genvec1">      0.08333333      0.00000000      0.00000000</v>
   <v name="genvec2">      0.00000000      0.08333333      0.00000000</v>
   <v name="genvec3">      0.00000000      0.00000000      0.08333333</v>
   <v name="shift">      0.00000000      0.00000000      0.00000000</v>
  </generation>
  <varray name="kpointlist" >
   <v>       0.00000000      0.00000000      0.00000000</v>
   <v>       0.08333333      0.00000000      0.00000000</v>
   <v>       0.16666667      0.00000000      0.00000000</v>
   <v>       0.25000000      0.00000000      0.00000000</v>
   <v>       0.33333333      0.00000000      0.00000000</v>
   <v>       0.41666667      0.00000000      0.00000000</v>
   <v>       0.50000000      0.00000000      0.00000000</v>
   <v>       0.08333333      0.08333333      0.00000000</v>
   <v>       0.16666667      0.08333333      0.00000000</v>
   <v>       0.25000000      0.08333333      0.00000000</v>
   <v>       0.33333333      0.08333333      0.00000000</v>
   <v>       0.41666667      0.08333333      0.00000000</v>
   <v>       0.50000000      0.08333333      0.00000000</v>
   <v>       0.16666667      0.16666667      0.00000000</v>
   <v>       0.25000000      0.16666667      0.00000000</v>
   <v>       0.33333333      0.16666667      0.00000000</v>
   <v>       0.41666667      0.16666667      0.00000000</v>
   <v>       0.50000000      0.16666667      0.00000000</v>
   <v>       0.25000000      0.25000000      0.00000000</v>
   <v>       0.33333333      0.25000000      0.00000000</v>
   <v>       0.41666667      0.25000000      0.00000000</v>
   <v>       0.50000000      0.25000000      0.00000000</v>
   <v>       0.33333333      0.33333333      0.00000000</v>
   <v>       0.41666667      0.33333333      0.00000000</v>
   <v>       0.50000000      0.33333333      0.00000000</v>
   <v>       0.41666667      0.41666667      0.00000000</v>
   <v>       0.50000000      0.41666667      0.00000000</v>
   <v>       0.50000000      0.50000000      0.00000000</v>
   <v>       0.08333333      0.08333333      0.08333333</v>
   <v>       0.16666667      0.08333333      0.08333333</v>
   <v>       0.25000000      0.08333333      0.08333333</v>
   <v>       0.33333333      0.08333333      0.08333333</v>
   <v>       0.41666667      0.08333333      0.08333333</v>
   <v>       0.50000000      0.08333333      0.08333333</v>
   <v>       0.16666667      0.16666667      0.08333333</v>
   <v>       0.25000000      0.16666667      0.08333333</v>
   <v>       0.33333333      0.16666667      0.08333333</v>
   <v>       0.41666667      0.16666667      0.08333333</v>
   <v>       0.50000000      0.16666667      0.08333333</v>
   <v>       0.25000000      0.25000000      0.08333333</v>
   <v>       0.33333333      0.25000000      0.08333333</v>
   <v>       0.41666667      0.25000000      0.08333333</v>
   <v>       0.50000000      0.25000000      0.08333333</v>
   <v>       0.33333333      0.33333333      0.08333333</v>
   <v>       0.41666667      0.33333333      0.08333333</v>
   <v>       0.50000000      0.33333333      0.08333333</v>
   <v>       0.41666667      0.41666667      0.08333333</v>
   <v>       0.50000000      0.41666667      0.08333333</v>
   <v>       0.50000000      0.50000000      0.08333333</v>
   <v>       0.16666667      0.16666667      0.16666667</v>
   <v>       0.25000000      0.16666667      0.16666667</v>
   <v>       0.33333333      0.16666667      0.16666667</v>
   <v>       0.41666667      0.16666667      0.16666667</v>
   <v>       0.50000000      0.16666667      0.16666667</v>
   <v>       0.25000000      0.25000000      0.16666667</v>
   <v>       0.33333333      0.25000000      0.16666667</v>
   <v>       0.41666667      0.25000000      0.16666667</v>
   <v>       0.50000000      0.25000000      0.16666667</v>
   <v>       0.33333333      0.33333333      0.16666667</v>
   <v>       0.41666667      0.33333333      0.16666667</v>
   <v>       0.50000000      0.33333333      0.16666667</v>
   <v>       0.41666667      0.41666667      0.16666667</v>
   <v>       0.50000000      0.41666667      0.16666667</v>
   <v>       0.50000000      0.50000000      0.16666667</v>
   <v>       0.25000000      0.25000000      0.25000000</v>
   <v>       0.33333333      0.25000000      0.25000000</v>
   <v>       0.41666667      0.25000000      0.25000000</v>
   <v>       0.50000000      0.25000000      0.25000000</v>
   <v>       0.33333333      0.33333333      0.25000000</v>
   <v>       0.41666667      0.33333333      0.25000000</v>
   <v>       0.50000000      0.33333333      0.25000000</v>
   <v>       0.41666667      0.41666667      0.25000000</v>
   <v>       0.50000000      0.41666667      0.25000000</v>
   <v>       0.50000000      0.50000000      0.25000000</v>
   <v>       0.33333333      0.33333333      0.33333333</v>
   <v>       0.41666667      0.33333333      0.33333333</v>
   <v>       0.50000000      0.33333333      0.33333333</v>
   <v>       0.41666667      0.41666667      0.33333333</v>
   <v>       0.50000000      0.41666667      0.33333333</v>
   <v>       0.50000000      0.50000000      0.33333333</v>
   <v>       0.41666667      0.41666667      0.41666667</v>
   <v>       0.50000000      0.41666667      0.41666667</v>
   <v>       0.50000000      0.50000000      0.41666667</v>
   <v>       0.50000000      0.50000000      0.50000000</v>
  </varray>
  <varray name="weights" >
   <v>       0.00057870</v>
   <v>       0.00347222</v>
   <v>       0.00347222</v>
   <v>       0.00347222</v>
   <v>       0.00347222</v>
   <v>       0.00347222</v>
   <v>       0.00173611</v>
   <v>       0.00694444</v>
   <v>       0.01388889</v>
   <v>       0.01388889</v>
   <v>       0.01388889</v>
   <v>       0.01388889</v>
   <v>       0.00694444</v>
   <v>       0.00694444</v>
   <v>       0.01388889</v>
   <v>       0.01388889</v>
   <v>       0.01388889</v>
   <v>       0.00694444</v>
   <v>       0.00694444</v>
   <v>       0.01388889</v>
   <v>       0.01388889</v>
   <v>       0.00694444</v>
   <v>       0.00694444</v>
   <v>       0.01388889</v>
   <v>       0.00694444</v>
   <v>       0.00694444</v>
   <v>       0.00694444</v>
   <v>       0.00173611</v>
   <v>       0.00462963</v>
   <v>       0.01388889</v>
   <v>       0.01388889</v>
   <v>       0.01388889</v>
   <v>       0.01388889</v>
   <v>       0.00694444</v>
   <v>       0.01388889</v>
   <v>       0.02777778</v>
   <v>       0.02777778</v>
   <v>       0.02777778</v>
   <v>       0.01388889</v>
   <v>       0.01388889</v>
   <v>       0.02777778</v>
   <v>       0.02777778</v>
   <v>       0.01388889</v>
   <v>       0.01388889</v>
   <v>       0.02777778</v>
   <v>       0.01388889</v>
   <v>       0.01388889</v>
   <v>       0.01388889</v>
   <v>       0.00347222</v>
   <v>       0.00462963</v>
   <v>       0.01388889</v>
   <v>       0.01388889</v>
   <v>       0.01388889</v>
   <v>       0.00694444</v>
   <v>       0.01388889</v>
   <v>       0.02777778</v>
   <v>       0.02777778</v>
   <v>       0.01388889</v>
   <v>       0.01388889</v>
   <v>       0.02777778</v>
   <v>       0.01388889</v>
   <v>       0.01388889</v>
   <v>       0.01388889</v>
   <v>       0.00347222</v>
   <v>       0.00462963</v>
   <v>       0.01388889</v>
   <v>       0.01388889</v>
   <v>       0.00694444</v>
   <v>       0.01388889</v>
   <v>       0.02777778</v>
   <v>       0.01388889</v>
   <v>       0.01388889</v>
   <v>       0.01388889</v>
   <v>       0.00347222</v>
   <v>       0.00462963</v>
   <v>       0.01388889</v>
   <v>       0.00694444</v>
   <v>       0.01388889</v>
   <v>       0.01388889</v>
   <v>       0.00347222</v>
   <v>       0.00462963</v>
   <v>       0.00694444</v>
   <v>       0.00347222</v>
   <v>       0.00057870</v>
  </varray>
 </kpoints>
 <parameters>
  <separator name="general" >
   <i type="string" name="SYSTEM">unknown system</i>
   <i type="logical" name="LCOMPAT"> F  </i>
  </separator>
  <separator name="electronic" >
   <i type="string" name="PREC">accura</i>
   <i name="ENMAX">    750.00000000</i>
   <i name="ENAUG">    516.45600000</i>
   <i name="EDIFF">      0.00000001</i>
   <i type="int" name="IALGO">    38</i>
   <i type="int" name="IWAVPR">    10</i>
   <i type="int" name="NBANDS">    26</i>
   <i name="NELECT">     44.00000000</i>
   <separator name="electronic smearing" >
    <i type="int" name="ISMEAR">     0</i>
    <i name="SIGMA">      0.01000000</i>
   </separator>
   <separator name="electronic projectors" >
    <i type="logical" name="LREAL"> F  </i>
    <v name="ROPT">      0.00000000</v>
    <i type="int" name="LMAXPAW">  -100</i>
    <i type="int" name="LMAXMIX">     2</i>
   </separator>
   <separator name="electronic startup" >
    <i type="int" name="ISTART">     0</i>
    <i type="int" name="ICHARG">     2</i>
    <i type="int" name="INIWAV">     1</i>
   </separator>
   <separator name="electronic spin" >
    <i type="int" name="ISPIN">     1</i>
    <i type="logical" name="LNONCOLLINEAR"> F  </i>
    <v name="MAGMOM">      1.00000000      1.00000000      1.00000000      1.00000000</v>
    <i name="NUPDOWN">     -1.00000000</i>
    <i type="logical" name="LSORBIT"> F  </i>
    <v name="SAXIS">      0.00000000      0.00000000      1.00000000</v>
    <i type="logical" name="LSPIRAL"> F  </i>
    <v name="QSPIRAL">      0.00000000      0.00000000      0.00000000</v>
    <i type="logical" name="LZEROZ"> F  </i>
   </separator>
   <separator name="electronic exchange-correlation" >
    <i type="string" name="GGA">--</i>
    <i type="int" name="VOSKOWN">     0</i>
    <i type="logical" name="LASPH"> F  </i>
    <i type="logical" name="LMETAGGA"> F  </i>
    <i type="string" name="GGA2">--</i>
   </separator>
   <separator name="electronic convergence" >
    <i type="int" name="NELM">    60</i>
    <i type="int" name="NELMDL">     0</i>
    <i type="int" name="NELMIN">     2</i>
    <i name="ENINI">    750.00000000</i>
    <separator name="electronic convergence detail" >
     <i type="logical" name="LDIAG"> T  </i>
     <i name="WEIMIN">      0.00000000</i>
     <i name="EBREAK">      0.00000000</i>
     <i name="DEPER">      0.30000000</i>
     <i type="int" name="NRMM">     4</i>
     <i name="TIME">      0.10000000</i>
    </separator>
   </separator>
   <separator name="electronic mixer" >
    <i name="AMIX">      0.40000000</i>
    <i name="BMIX">      1.00000000</i>
    <i name="AMIN">      0.10000000</i>
    <i name="AMIX_MAG">      1.60000000</i>
    <i name="BMIX_MAG">      1.00000000</i>
    <separator name="electronic mixer details" >
     <i type="int" name="IMIX">     4</i>
     <i type="int" name="MAXMIX">   -45</i>
     <i name="WC">    100.00000000</i>
     <i type="int" name="INIMIX">     1</i>
     <i type="int" name="MIXPRE">     1</i>
     <i type="int" name="MREMOVE">     5</i>
    </separator>
   </separator>
   <separator name="electronic dipolcorrection" >
    <i type="int" name="IDIPOL">     0</i>
    <i type="logical" name="LDIPOL"> F  </i>
    <v name="DIPOL">   -100.00000000</v>
    <i name="EFIELD">      0.00000000</i>
   </separator>
  </separator>
  <separator name="grids" >
   <i type="int" name="NGX">    32</i>
   <i type="int" name="NGY">    32</i>
   <i type="int" name="NGZ">    32</i>
   <i type="int" name="NGXF">    64</i>
   <i type="int" name="NGYF">    64</i>
   <i type="int" name="NGZF">    64</i>
   <i type="logical" name="ADDGRID"> T  </i>
  </separator>
  <separator name="ionic" >
   <i type="int" name="NSW">     0</i>
   <i type="int" name="IBRION">    -1</i>
   <i type="int" name="ISIF">     2</i>
   <i name="PSTRESS">      0.00000000</i>
   <i name="EDIFFG">      0.00000010</i>
   <i type="int" name="NFREE">     0</i>
   <i name="POTIM">      0.50000000</i>
   <i name="SMASS">     -3.00000000</i>
  </separator>
  <separator name="ionic md" >
   <i name="TEBEG">      0.00010000</i>
   <i name="TEEND">      0.00010000</i>
   <i type="int" name="NBLOCK">     1</i>
   <i type="int" name="KBLOCK">     1</i>
   <i type="int" name="NPACO">   256</i>
   <i name="APACO">     16.00000000</i>
  </separator>
  <separator name="symmetry" >
   <i type="int" name="ISYM">     2</i>
   <i name="SYMPREC">      0.00001000</i>
  </separator>
  <separator name="dos" >
   <i type="logical" name="LORBIT"> F  </i>
   <v name="RWIGS">     -1.00000000</v>
   <i type="int" name="NEDOS">   301</i>
   <i name="EMIN">     10.00000000</i>
   <i name="EMAX">    -10.00000000</i>
  </separator>
  <separator name="writing" >
   <i type="int" name="NWRITE">     2</i>
   <i type="logical" name="LWAVE"> F  </i>
   <i type="logical" name="LCHARG"> F  </i>
   <i type="logical" name="LPARD"> F  </i>
   <i type="logical" name="LVTOT"> F  </i>
   <i type="logical" name="LELF"> F  </i>
   <i type="logical" name="LOPTICS"> F  </i>
   <i name="STM">      0.00000000</i>
  </separator>
  <separator name="performance" >
   <i type="int" name="NPAR">     2</i>
   <i type="int" name="NSIM">     4</i>
   <i type="int" name="NBLK">   224</i>
   <i type="logical" name="LPLANE"> T  </i>
   <i type="logical" name="LCRITICAL_MEM"> F  </i>
   <i type="logical" name="LSCALAPACK"> F  </i>
   <i type="logical" name="LSCALU"> F  </i>
   <i type="logical" name="LASYNC"> F  </i>
  </separator>
  <separator name="miscellaneous" >
   <i type="int" name="IDIOT">     3</i>
   <i type="logical" name="LMUSIC"> F  </i>
   <v name="POMASS">     63.54600000</v>
   <i type="logical" name="LCORR"> T  </i>
  </separator>
  <i type="logical" name="LREAL_COMPAT"> F  </i>
  <i type="logical" name="GGA_COMPAT"> T  </i>
  <i type="logical" name="LBERRY"> F  </i>
  <i type="int" name="ICORELEVEL">     0</i>
  <i type="logical" name="LDAU"> F  </i>
  <i type="int" name="I_CONSTRAINED_M">     0</i>
 </parameters>
 <atominfo>
  <atoms>       4</atoms>
  <types>       1</types>
  <array name="atoms" >
   <dimension dim="1">ion</dimension>
   <field type="string">element</field>
   <field type="int">atomtype</field>
   <set>
    <rc><c>Cu</c><c>   1</c></rc>
    <rc><c>Cu</c><c>   1</c></rc>
    <rc><c>Cu</c><c>   1</c></rc>
    <rc><c>Cu</c><c>   1</c></rc>
   </set>
  </array>
  <array name="atomtypes" >
   <dimension dim="1">type</dimension>
   <field type="int">atomspertype</field>
   <field type="string">element</field>
   <field>mass</field>
   <field>valence</field>
   <field type="string">pseudopotential</field>
   <set>
    <rc><c>   4</c><c>Cu</c><c>     63.54600000</c><c>     11.00000000</c><c> PAW_PBE Cu 05Jan2001                   </c></rc>
   </set>
  </array>
 </atominfo>
 <structure name="initialpos" >
  <crystal>
   <varray name="basis" >
    <v>       3.52732334      0.00000000      0.00000000</v>
    <v>       0.00000000      3.52732334      0.00000000</v>
    <v>       0.00000000      0.00000000      3.52732334</v>
   </varray>
   <i name="volume">     43.88699198</i>
   <varray name="rec_basis" >
    <v>       0.28350109      0.00000000      0.00000000</v>
    <v>       0.00000000      0.28350109      0.00000000</v>
    <v>       0.00000000      0.00000000      0.28350109</v>
   </varray>
  </crystal>
  <varray name="positions" >
   <v>       0.00000000      0.00000000      0.00000000</v>
   <v>       0.50000000      0.50000000      0.00000000</v>
   <v>       0.50000000      0.00000000      0.50000000</v>
   <v>       0.00000000      0.50000000      0.50000000</v>
  </varray>
 </structure>
 <calculation>
  <scstep>
   <time name="dav">   45.48  153.94</time>
   <time name="total">   45.80  155.20</time>
   <energy>
    <i name="alphaZ">    465.78723123</i>
    <i name="ewald">  -4529.52277153</i>
    <i name="hartreedc">  -1247.96578768</i>
    <i name="XCdc">    176.47483063</i>
    <i name="pawpsdc">   4328.20916945</i>
    <i name="pawaedc">  -4904.30802700</i>
    <i name="eentropy">     -0.00012642</i>
    <i name="bandstr">    465.07738320</i>
    <i name="atom">   5563.91755062</i>
    <i name="e_fr_energy">    317.66945248</i>
    <i name="e_wo_entrp">    317.66957890</i>
    <i name="e_0_energy">    317.66951569</i>
   </energy>
  </scstep>
  <scstep>
   <time name="dav">   24.25  214.63</time>
   <time name="total">   24.27  214.73</time>
   <energy>
    <i name="e_fr_energy">      0.77413634</i>
    <i name="e_wo_entrp">      0.77417352</i>
    <i name="e_0_energy">      0.77415493</i>
   </energy>
  </scstep>
  <scstep>
   <time name="dav">   27.33  273.23</time>
   <time name="total">   27.34  273.40</time>
   <energy>
    <i name="e_fr_energy">    -18.03935688</i>
    <i name="e_wo_entrp">    -18.03916843</i>
    <i name="e_0_energy">    -18.03926266</i>
   </energy>
  </scstep>
  <scstep>
   <time name="dav">   28.55  285.42</time>
   <time name="total">   28.60  285.93</time>
   <energy>
    <i name="e_fr_energy">    -18.24672903</i>
    <i name="e_wo_entrp">    -18.24653989</i>
    <i name="e_0_energy">    -18.24663446</i>
   </energy>
  </scstep>
  <scstep>
   <time name="dav">   27.43  274.16</time>
   <time name="total">   27.96  279.47</time>
   <energy>
    <i name="e_fr_energy">    -18.24744306</i>
    <i name="e_wo_entrp">    -18.24725391</i>
    <i name="e_0_energy">    -18.24734849</i>
   </energy>
  </scstep>
  <scstep>
   <time name="dav">   28.31  283.07</time>
   <time name="total">   29.30  292.99</time>
   <energy>
    <i name="e_fr_energy">    -15.72943888</i>
    <i name="e_wo_entrp">    -15.72928409</i>
    <i name="e_0_energy">    -15.72936148</i>
   </energy>
  </scstep>
  <scstep>
   <time name="dav">   29.13  291.32</time>
   <time name="total">   30.32  303.25</time>
   <energy>
    <i name="e_fr_energy">    -14.74405495</i>
    <i name="e_wo_entrp">    -14.74391569</i>
    <i name="e_0_energy">    -14.74398532</i>
   </energy>
  </scstep>
  <scstep>
   <time name="dav">   27.57  275.76</time>
   <time name="total">   28.49  284.95</time>
   <energy>
    <i name="e_fr_energy">    -14.69722978</i>
    <i name="e_wo_entrp">    -14.69709057</i>
    <i name="e_0_energy">    -14.69716017</i>
   </energy>
  </scstep>
  <scstep>
   <time name="dav">   29.05  290.49</time>
   <time name="total">   30.09  300.91</time>
   <energy>
    <i name="e_fr_energy">    -14.68840961</i>
    <i name="e_wo_entrp">    -14.68827043</i>
    <i name="e_0_energy">    -14.68834002</i>
   </energy>
  </scstep>
  <scstep>
   <time name="dav">   28.46  284.64</time>
   <time name="total">   29.40  293.98</time>
   <energy>
    <i name="e_fr_energy">    -14.68851336</i>
    <i name="e_wo_entrp">    -14.68837419</i>
    <i name="e_0_energy">    -14.68844378</i>
   </energy>
  </scstep>
  <scstep>
   <time name="dav">   29.83  298.24</time>
   <time name="total">   30.90  309.02</time>
   <energy>
    <i name="e_fr_energy">    -14.68850645</i>
    <i name="e_wo_entrp">    -14.68836731</i>
    <i name="e_0_energy">    -14.68843688</i>
   </energy>
  </scstep>
  <scstep>
   <time name="dav">   28.20  266.12</time>
   <time name="total">   29.41  277.59</time>
   <energy>
    <i name="e_fr_energy">    -14.68851302</i>
    <i name="e_wo_entrp">    -14.68837387</i>
    <i name="e_0_energy">    -14.68844345</i>
   </energy>
  </scstep>
  <scstep>
   <time name="dav">   21.79  196.13</time>
   <time name="total">   22.88  205.88</time>
   <energy>
    <i name="e_fr_energy">    -14.68851328</i>
    <i name="e_wo_entrp">    -14.68837413</i>
    <i name="e_0_energy">    -14.68844370</i>
   </energy>
  </scstep>
  <scstep>
   <time name="dav">   17.06  153.52</time>
   <time name="total">   18.22  163.96</time>
   <energy>
    <i name="e_fr_energy">    -14.68851331</i>
    <i name="e_wo_entrp">    -14.68837416</i>
    <i name="e_0_energy">    -14.68844374</i>
   </energy>
  </scstep>
  <scstep>
   <time name="dav">   17.98  161.84</time>
   <time name="total">   19.14  172.26</time>
   <energy>
    <i name="e_fr_energy">    -14.68851330</i>
    <i name="e_wo_entrp">    -14.68837415</i>
    <i name="e_0_energy">    -14.68844372</i>
   </energy>
  </scstep>
  <scstep>
   <time name="dav">   13.44  107.78</time>
   <time name="total">   13.88  111.74</time>
   <energy>
    <i name="alphaZ">    465.78723123</i>
    <i name="ewald">  -4529.52277153</i>
    <i name="hartreedc">  -1157.58301141</i>
    <i name="XCdc">    171.94132442</i>
    <i name="pawpsdc">   4444.09170975</i>
    <i name="pawaedc">  -5024.81476080</i>
    <i name="eentropy">     -0.00013915</i>
    <i name="bandstr">     51.49435359</i>
    <i name="atom">   5563.91755062</i>
    <i name="e_fr_energy">    -14.68851330</i>
    <i name="e_wo_entrp">    -14.68837415</i>
    <i name="e_0_energy">    -14.68844372</i>
   </energy>
  </scstep>
  <structure>
   <crystal>
    <varray name="basis" >
     <v>       3.52732334      0.00000000      0.00000000</v>
     <v>       0.00000000      3.52732334      0.00000000</v>
     <v>       0.00000000      0.00000000      3.52732334</v>
    </varray>
    <i name="volume">     43.88699198</i>
    <varray name="rec_basis" >
     <v>       0.28350109      0.00000000      0.00000000</v>
     <v>       0.00000000      0.28350109      0.00000000</v>
     <v>       0.00000000      0.00000000      0.28350109</v>
    </varray>
   </crystal>
   <varray name="positions" >
    <v>       0.00000000      0.00000000      0.00000000</v>
    <v>       0.50000000      0.50000000      0.00000000</v>
    <v>       0.50000000      0.00000000      0.50000000</v>
    <v>       0.00000000      0.50000000      0.50000000</v>
   </varray>
  </structure>
  <varray name="forces" >
   <v>       0.00000000      0.00000000      0.00000000</v>
   <v>       0.00000000     -0.00000000     -0.00000000</v>
   <v>       0.00000000      0.00000000      0.00000000</v>
   <v>       0.00000000      0.00000000      0.00000000</v>
  </varray>
  <varray name="stress" >
   <v>     159.31565384      0.00000000      0.00000000</v>
   <v>      -0.00000000    159.31565384      0.00000000</v>
   <v>       0.00000000     -0.00000000    159.31565384</v>
  </varray>
  <energy>
   <i name="e_fr_energy">    -14.68851330</i>
   <i name="e_wo_entrp">    -14.68844372</i>
   <i name="e_0_energy">     -0.00013915</i>
  </energy>
  <eigenvalues>
   <array>
    <dimension dim="1">band</dimension>
    <dimension dim="2">kpoint</dimension>
    <dimension dim="3">spin</dimension>
    <field>eigene</field>
    <field>occ</field>
    <set>
     <set comment="spin 1">
      <set comment="kpoint 1">
       <r>  -5.4737  1.0000</r>
       <r>  -0.8973  1.0000</r>
       <r>  -0.8973  1.0000</r>
       <r>  -0.8973  1.0000</r>
       <r>  -0.3944  1.0000</r>
       <r>  -0.3944  1.0000</r>
       <r>  -0.3944  1.0000</r>
       <r>   1.1665  1.0000</r>
       <r>   1.1665  1.0000</r>
       <r>   1.1665  1.0000</r>
       <r>   2.0951  1.0000</r>
       <r>   2.0951  1.0000</r>
       <r>   2.7109  1.0000</r>
       <r>   2.7109  1.0000</r>
       <r>   2.7109  1.0000</r>
       <r>   2.8841  1.0000</r>
       <r>   2.8841  1.0000</r>
       <r>   2.8841  1.0000</r>
       <r>   2.8841  1.0000</r>
       <r>   2.8841  1.0000</r>
       <r>   2.8841  1.0000</r>
       <r>   5.9113  0.0000</r>
       <r>   5.9113  0.0000</r>
       <r>   5.9113  0.0000</r>
       <r>  12.1047  0.0000</r>
       <r>  12.1047  0.0000</r>
      </set>
      <set comment="kpoint 2">
       <r>  -5.3846  1.0000</r>
       <r>  -0.8960  1.0000</r>
       <r>  -0.8541  1.0000</r>
       <r>  -0.8541  1.0000</r>
       <r>  -0.3694  1.0000</r>
       <r>  -0.3678  1.0000</r>
       <r>  -0.3678  1.0000</r>
       <r>   1.1383  1.0000</r>
       <r>   1.1889  1.0000</r>
       <r>   1.1889  1.0000</r>
       <r>   2.0695  1.0000</r>
       <r>   2.1054  1.0000</r>
       <r>   2.6777  1.0000</r>
       <r>   2.6777  1.0000</r>
       <r>   2.7002  1.0000</r>
       <r>   2.7117  1.0000</r>
       <r>   2.7117  1.0000</r>
       <r>   2.8450  1.0000</r>
       <r>   2.8450  1.0000</r>
       <r>   2.8841  1.0000</r>
       <r>   2.8841  1.0000</r>
       <r>   5.3923  0.0000</r>
       <r>   6.1617  0.0000</r>
       <r>   6.1617  0.0000</r>
       <r>  12.1340  0.0000</r>
       <r>  12.1340  0.0000</r>
      </set>
      <set comment="kpoint 3">
       <r>  -5.1193  1.0000</r>
       <r>  -0.9091  1.0000</r>
       <r>  -0.7306  1.0000</r>
       <r>  -0.7306  1.0000</r>
       <r>  -0.2957  1.0000</r>
       <r>  -0.2877  1.0000</r>
       <r>  -0.2877  1.0000</r>
       <r>   1.0558  1.0000</r>
       <r>   1.2555  1.0000</r>
       <r>   1.2555  1.0000</r>
       <r>   1.9955  1.0000</r>
       <r>   2.1355  1.0000</r>
       <r>   2.3113  1.0000</r>
       <r>   2.3113  1.0000</r>
       <r>   2.5813  1.0000</r>
       <r>   2.5813  1.0000</r>
       <r>   2.6688  1.0000</r>
       <r>   2.7333  1.0000</r>
       <r>   2.7333  1.0000</r>
       <r>   2.8843  1.0000</r>
       <r>   2.8843  1.0000</r>
       <r>   4.2797  1.0000</r>
       <r>   6.7959  0.0000</r>
       <r>   6.7959  0.0000</r>
       <r>  12.2246  0.0000</r>
       <r>  12.2246  0.0000</r>
      </set>
      <set comment="kpoint 4">
       <r>  -4.6848  1.0000</r>
       <r>  -0.9964  1.0000</r>
       <r>  -0.5459  1.0000</r>
       <r>  -0.5459  1.0000</r>
       <r>  -0.1775  1.0000</r>
       <r>  -0.1529  1.0000</r>
       <r>  -0.1529  1.0000</r>
       <r>   0.9257  1.0000</r>
       <r>   1.3646  1.0000</r>
       <r>   1.3646  1.0000</r>
       <r>   1.8415  1.0000</r>
       <r>   1.8415  1.0000</r>
       <r>   1.8827  1.0000</r>
       <r>   2.1835  1.0000</r>
       <r>   2.4333  1.0000</r>
       <r>   2.4333  1.0000</r>
       <r>   2.5636  1.0000</r>
       <r>   2.5636  1.0000</r>
       <r>   2.6189  1.0000</r>
       <r>   2.8845  1.0000</r>
       <r>   2.8845  1.0000</r>
       <r>   3.1193  1.0000</r>
       <r>   7.6537  0.0000</r>
       <r>   7.6537  0.0000</r>
       <r>  12.3843  0.0000</r>
       <r>  12.3843  0.0000</r>
      </set>
      <set comment="kpoint 5">
       <r>  -4.0950  1.0000</r>
       <r>  -1.2718  1.0000</r>
       <r>  -0.3363  1.0000</r>
       <r>  -0.3363  1.0000</r>
       <r>  -0.0218  1.0000</r>
       <r>   0.0383  1.0000</r>
       <r>   0.0383  1.0000</r>
       <r>   0.7581  1.0000</r>
       <r>   1.3810  1.0000</r>
       <r>   1.3810  1.0000</r>
       <r>   1.5132  1.0000</r>
       <r>   1.5132  1.0000</r>
       <r>   1.7496  1.0000</r>
       <r>   2.2153  1.0000</r>
       <r>   2.2464  1.0000</r>
       <r>   2.2598  1.0000</r>
       <r>   2.2598  1.0000</r>
       <r>   2.3557  1.0000</r>
       <r>   2.3557  1.0000</r>
       <r>   2.5543  1.0000</r>
       <r>   2.8847  1.0000</r>
       <r>   2.8847  1.0000</r>
       <r>   8.6541  0.0000</r>
       <r>   8.6541  0.0000</r>
       <r>  12.6218  0.0000</r>
       <r>  12.6218  0.0000</r>
      </set>
      <set comment="kpoint 6">
       <r>  -3.3770  1.0000</r>
       <r>  -1.8281  1.0000</r>
       <r>  -0.1597  1.0000</r>
       <r>  -0.1597  1.0000</r>
       <r>   0.1619  1.0000</r>
       <r>   0.2874  1.0000</r>
       <r>   0.2874  1.0000</r>
       <r>   0.5656  1.0000</r>
       <r>   0.9614  1.0000</r>
       <r>   0.9614  1.0000</r>
       <r>   1.6294  1.0000</r>
       <r>   1.6960  1.0000</r>
       <r>   1.6960  1.0000</r>
       <r>   1.7236  1.0000</r>
       <r>   2.1091  1.0000</r>
       <r>   2.1091  1.0000</r>
       <r>   2.1302  1.0000</r>
       <r>   2.1302  1.0000</r>
       <r>   2.3200  1.0000</r>
       <r>   2.4794  1.0000</r>
       <r>   2.8849  1.0000</r>
       <r>   2.8849  1.0000</r>
       <r>   9.7623  0.0000</r>
       <r>   9.7623  0.0000</r>
       <r>  12.2397  0.0000</r>
       <r>  12.2397  0.0000</r>
      </set>
      <set comment="kpoint 7">
       <r>  -2.5850  1.0000</r>
       <r>  -2.5850  1.0000</r>
       <r>  -0.0881  1.0000</r>
       <r>  -0.0881  1.0000</r>
       <r>   0.3621  1.0000</r>
       <r>   0.3621  1.0000</r>
       <r>   0.5954  1.0000</r>
       <r>   0.5954  1.0000</r>
       <r>   0.5954  1.0000</r>
       <r>   0.5954  1.0000</r>
       <r>   1.5828  1.0000</r>
       <r>   1.5828  1.0000</r>
       <r>   1.9054  1.0000</r>
       <r>   1.9054  1.0000</r>
       <r>   1.9054  1.0000</r>
       <r>   1.9054  1.0000</r>
       <r>   2.0469  1.0000</r>
       <r>   2.0469  1.0000</r>
       <r>   2.3994  1.0000</r>
       <r>   2.3994  1.0000</r>
       <r>   2.8849  1.0000</r>
       <r>   2.8849  1.0000</r>
       <r>  10.9611  0.0000</r>
       <r>  10.9611  0.0000</r>
       <r>  10.9611  0.0000</r>
       <r>  10.9611  0.0000</r>
      </set>
      <set comment="kpoint 8">
       <r>  -5.2959  1.0000</r>
       <r>  -0.8518  1.0000</r>
       <r>  -0.8518  1.0000</r>
       <r>  -0.8119  1.0000</r>
       <r>  -0.3433  1.0000</r>
       <r>  -0.3433  1.0000</r>
       <r>  -0.3422  1.0000</r>
       <r>   1.1223  1.0000</r>
       <r>   1.1995  1.0000</r>
       <r>   1.2090  1.0000</r>
       <r>   2.0624  1.0000</r>
       <r>   2.0993  1.0000</r>
       <r>   2.5855  1.0000</r>
       <r>   2.6225  1.0000</r>
       <r>   2.6225  1.0000</r>
       <r>   2.6460  1.0000</r>
       <r>   2.7082  1.0000</r>
       <r>   2.7082  1.0000</r>
       <r>   2.8449  1.0000</r>
       <r>   2.8449  1.0000</r>
       <r>   2.8592  1.0000</r>
       <r>   5.6406  0.0000</r>
       <r>   5.6406  0.0000</r>
       <r>   6.3912  0.0000</r>
       <r>  12.1627  0.0000</r>
       <r>  12.8358  0.0000</r>
      </set>
      <set comment="kpoint 9">
       <r>  -5.0318  1.0000</r>
       <r>  -0.8620  1.0000</r>
       <r>  -0.7254  1.0000</r>
       <r>  -0.6912  1.0000</r>
       <r>  -0.2710  1.0000</r>
       <r>  -0.2649  1.0000</r>
       <r>  -0.2647  1.0000</r>
       <r>   1.0480  1.0000</r>
       <r>   1.2597  1.0000</r>
       <r>   1.2683  1.0000</r>
       <r>   1.9983  1.0000</r>
       <r>   2.1268  1.0000</r>
       <r>   2.2353  1.0000</r>
       <r>   2.2366  1.0000</r>
       <r>   2.4767  1.0000</r>
       <r>   2.5536  1.0000</r>
       <r>   2.5897  1.0000</r>
       <r>   2.6760  1.0000</r>
       <r>   2.7330  1.0000</r>
       <r>   2.8448  1.0000</r>
       <r>   2.8457  1.0000</r>
       <r>   4.5496  0.0000</r>
       <r>   6.2485  0.0000</r>
       <r>   6.9892  0.0000</r>
       <r>  12.2492  0.0000</r>
       <r>  12.9607  0.0000</r>
      </set>
      <set comment="kpoint 10">
       <r>  -4.5995  1.0000</r>
       <r>  -0.9443  1.0000</r>
       <r>  -0.5359  1.0000</r>
       <r>  -0.5101  1.0000</r>
       <r>  -0.1553  1.0000</r>
       <r>  -0.1360  1.0000</r>
       <r>  -0.1324  1.0000</r>
       <r>   0.9226  1.0000</r>
       <r>   1.3621  1.0000</r>
       <r>   1.3669  1.0000</r>
       <r>   1.7704  1.0000</r>
       <r>   1.7984  1.0000</r>
       <r>   1.8952  1.0000</r>
       <r>   2.1806  1.0000</r>
       <r>   2.2266  1.0000</r>
       <r>   2.4113  1.0000</r>
       <r>   2.4413  1.0000</r>
       <r>   2.5631  1.0000</r>
       <r>   2.6117  1.0000</r>
       <r>   2.8425  1.0000</r>
       <r>   2.8446  1.0000</r>
       <r>   3.4774  1.0000</r>
       <r>   7.0442  0.0000</r>
       <r>   7.8181  0.0000</r>
       <r>  12.3802  0.0000</r>
       <r>  13.1786  0.0000</r>
      </set>
      <set comment="kpoint 11">
       <r>  -4.0130  1.0000</r>
       <r>  -1.2133  1.0000</r>
       <r>  -0.3194  1.0000</r>
       <r>  -0.3022  1.0000</r>
       <r>  -0.0028  1.0000</r>
       <r>   0.0434  1.0000</r>
       <r>   0.0549  1.0000</r>
       <r>   0.7595  1.0000</r>
       <r>   1.3185  1.0000</r>
       <r>   1.3595  1.0000</r>
       <r>   1.4698  1.0000</r>
       <r>   1.5144  1.0000</r>
       <r>   1.7944  1.0000</r>
       <r>   1.8611  1.0000</r>
       <r>   2.2443  1.0000</r>
       <r>   2.2522  1.0000</r>
       <r>   2.2678  1.0000</r>
       <r>   2.3551  1.0000</r>
       <r>   2.4882  1.0000</r>
       <r>   2.7866  1.0000</r>
       <r>   2.8420  1.0000</r>
       <r>   2.8442  1.0000</r>
       <r>   7.9491  0.0000</r>
       <r>   8.7987  0.0000</r>
       <r>  12.1680  0.0000</r>
       <r>  12.8955  0.0000</r>
      </set>
      <set comment="kpoint 12">
       <r>  -3.2994  1.0000</r>
       <r>  -1.7630  1.0000</r>
       <r>  -0.1338  1.0000</r>
       <r>  -0.1238  1.0000</r>
       <r>   0.1771  1.0000</r>
       <r>   0.2728  1.0000</r>
       <r>   0.2986  1.0000</r>
       <r>   0.5717  1.0000</r>
       <r>   0.9108  1.0000</r>
       <r>   0.9547  1.0000</r>
       <r>   1.5033  1.0000</r>
       <r>   1.5615  1.0000</r>
       <r>   1.6964  1.0000</r>
       <r>   1.8123  1.0000</r>
       <r>   2.1009  1.0000</r>
       <r>   2.1147  1.0000</r>
       <r>   2.1297  1.0000</r>
       <r>   2.2352  1.0000</r>
       <r>   2.3373  1.0000</r>
       <r>   2.5457  1.0000</r>
       <r>   2.8423  1.0000</r>
       <r>   2.8436  1.0000</r>
       <r>   8.9314  0.0000</r>
       <r>   9.8932  0.0000</r>
       <r>  11.0859  0.0000</r>
       <r>  12.3550  0.0000</r>
      </set>
      <set comment="kpoint 13">
       <r>  -2.5133  1.0000</r>
       <r>  -2.5133  1.0000</r>
       <r>  -0.0541  1.0000</r>
       <r>  -0.0541  1.0000</r>
       <r>   0.3729  1.0000</r>
       <r>   0.3729  1.0000</r>
       <r>   0.5603  1.0000</r>
       <r>   0.5603  1.0000</r>
       <r>   0.5990  1.0000</r>
       <r>   0.5990  1.0000</r>
       <r>   1.4746  1.0000</r>
       <r>   1.4746  1.0000</r>
       <r>   1.9052  1.0000</r>
       <r>   1.9052  1.0000</r>
       <r>   1.9884  1.0000</r>
       <r>   1.9884  1.0000</r>
       <r>   2.0464  1.0000</r>
       <r>   2.0464  1.0000</r>
       <r>   2.4328  1.0000</r>
       <r>   2.4328  1.0000</r>
       <r>   2.8430  1.0000</r>
       <r>   2.8430  1.0000</r>
       <r>   9.9791  0.0000</r>
       <r>   9.9791  0.0000</r>
       <r>  11.0826  0.0000</r>
       <r>  11.0826  0.0000</r>
      </set>
      <set comment="kpoint 14">
       <r>  -4.7717  1.0000</r>
       <r>  -0.7267  1.0000</r>
       <r>  -0.7267  1.0000</r>
       <r>  -0.5785  1.0000</r>
       <r>  -0.1969  1.0000</r>
       <r>  -0.1969  1.0000</r>
       <r>  -0.1966  1.0000</r>
       <r>   1.0029  1.0000</r>
       <r>   1.2957  1.0000</r>
       <r>   1.3055  1.0000</r>
       <r>   1.9751  1.0000</r>
       <r>   2.0044  1.0000</r>
       <r>   2.0447  1.0000</r>
       <r>   2.0447  1.0000</r>
       <r>   2.1357  1.0000</r>
       <r>   2.4722  1.0000</r>
       <r>   2.5821  1.0000</r>
       <r>   2.5821  1.0000</r>
       <r>   2.7322  1.0000</r>
       <r>   2.7322  1.0000</r>
       <r>   2.7852  1.0000</r>
       <r>   5.1402  0.0000</r>
       <r>   5.1402  0.0000</r>
       <r>   7.5161  0.0000</r>
       <r>  12.2942  0.0000</r>
       <r>  13.5827  0.0000</r>
      </set>
      <set comment="kpoint 15">
       <r>  -4.3460  1.0000</r>
       <r>  -0.7940  1.0000</r>
       <r>  -0.5222  1.0000</r>
       <r>  -0.4087  1.0000</r>
       <r>  -0.0884  1.0000</r>
       <r>  -0.0844  1.0000</r>
       <r>  -0.0724  1.0000</r>
       <r>   0.9024  1.0000</r>
       <r>   1.3596  1.0000</r>
       <r>   1.3860  1.0000</r>
       <r>   1.5854  1.0000</r>
       <r>   1.6656  1.0000</r>
       <r>   1.7701  1.0000</r>
       <r>   1.9023  1.0000</r>
       <r>   2.1991  1.0000</r>
       <r>   2.3457  1.0000</r>
       <r>   2.4407  1.0000</r>
       <r>   2.5290  1.0000</r>
       <r>   2.5617  1.0000</r>
       <r>   2.7309  1.0000</r>
       <r>   2.7503  1.0000</r>
       <r>   4.0617  1.0000</r>
       <r>   5.8602  0.0000</r>
       <r>   8.2809  0.0000</r>
       <r>  11.8472  0.0000</r>
       <r>  12.7811  0.0000</r>
      </set>
      <set comment="kpoint 16">
       <r>  -3.7697  1.0000</r>
       <r>  -1.0444  1.0000</r>
       <r>  -0.2840  1.0000</r>
       <r>  -0.2072  1.0000</r>
       <r>   0.0542  1.0000</r>
       <r>   0.0620  1.0000</r>
       <r>   0.1034  1.0000</r>
       <r>   0.7583  1.0000</r>
       <r>   1.1575  1.0000</r>
       <r>   1.2928  1.0000</r>
       <r>   1.4000  1.0000</r>
       <r>   1.4799  1.0000</r>
       <r>   1.5245  1.0000</r>
       <r>   1.8410  1.0000</r>
       <r>   2.1967  1.0000</r>
       <r>   2.2715  1.0000</r>
       <r>   2.2989  1.0000</r>
       <r>   2.3537  1.0000</r>
       <r>   2.4159  1.0000</r>
       <r>   2.7294  1.0000</r>
       <r>   2.7349  1.0000</r>
       <r>   3.2765  1.0000</r>
       <r>   6.6575  0.0000</r>
       <r>   9.2130  0.0000</r>
       <r>  10.6592  0.0000</r>
       <r>  12.9491  0.0000</r>
      </set>
      <set comment="kpoint 17">
       <r>  -3.0704  1.0000</r>
       <r>  -1.5739  1.0000</r>
       <r>  -0.0698  1.0000</r>
       <r>  -0.0210  1.0000</r>
       <r>   0.2220  1.0000</r>
       <r>   0.2321  1.0000</r>
       <r>   0.3308  1.0000</r>
       <r>   0.5872  1.0000</r>
       <r>   0.7799  1.0000</r>
       <r>   0.9329  1.0000</r>
       <r>   1.3115  1.0000</r>
       <r>   1.3710  1.0000</r>
       <r>   1.7013  1.0000</r>
       <r>   1.8814  1.0000</r>
       <r>   2.0718  1.0000</r>
       <r>   2.1160  1.0000</r>
       <r>   2.1292  1.0000</r>
       <r>   2.2356  1.0000</r>
       <r>   2.4254  1.0000</r>
       <r>   2.7280  1.0000</r>
       <r>   2.7289  1.0000</r>
       <r>   2.8272  1.0000</r>
       <r>   7.5241  0.0000</r>
       <r>   9.5111  0.0000</r>
       <r>  10.2726  0.0000</r>
       <r>  12.6928  0.0000</r>
      </set>
      <set comment="kpoint 18">
       <r>  -2.3029  1.0000</r>
       <r>  -2.3029  1.0000</r>
       <r>   0.0405  1.0000</r>
       <r>   0.0405  1.0000</r>
       <r>   0.4038  1.0000</r>
       <r>   0.4038  1.0000</r>
       <r>   0.4648  1.0000</r>
       <r>   0.4648  1.0000</r>
       <r>   0.6087  1.0000</r>
       <r>   0.6087  1.0000</r>
       <r>   1.3048  1.0000</r>
       <r>   1.3048  1.0000</r>
       <r>   1.9067  1.0000</r>
       <r>   1.9067  1.0000</r>
       <r>   2.0329  1.0000</r>
       <r>   2.0329  1.0000</r>
       <r>   2.0354  1.0000</r>
       <r>   2.0354  1.0000</r>
       <r>   2.5859  1.0000</r>
       <r>   2.5859  1.0000</r>
       <r>   2.7275  1.0000</r>
       <r>   2.7275  1.0000</r>
       <r>   8.4696  0.0000</r>
       <r>   8.4696  0.0000</r>
       <r>  11.4372  0.0000</r>
       <r>  11.4372  0.0000</r>
      </set>
      <set comment="kpoint 19">
       <r>  -3.9324  1.0000</r>
       <r>  -0.5648  1.0000</r>
       <r>  -0.5648  1.0000</r>
       <r>  -0.2582  1.0000</r>
       <r>   0.0014  1.0000</r>
       <r>   0.0234  1.0000</r>
       <r>   0.0234  1.0000</r>
       <r>   0.8436  1.0000</r>
       <r>   1.3444  1.0000</r>
       <r>   1.3444  1.0000</r>
       <r>   1.3601  1.0000</r>
       <r>   1.4468  1.0000</r>
       <r>   1.4482  1.0000</r>
       <r>   1.8620  1.0000</r>
       <r>   2.2413  1.0000</r>
       <r>   2.2841  1.0000</r>
       <r>   2.3972  1.0000</r>
       <r>   2.3972  1.0000</r>
       <r>   2.5598  1.0000</r>
       <r>   2.5598  1.0000</r>
       <r>   2.6646  1.0000</r>
       <r>   4.7093  0.0000</r>
       <r>   4.7093  0.0000</r>
       <r>   8.9783  0.0000</r>
       <r>  10.4874  0.0000</r>
       <r>  12.8844  0.0000</r>
      </set>
      <set comment="kpoint 20">
       <r>  -3.3745  1.0000</r>
       <r>  -0.7855  1.0000</r>
       <r>  -0.2921  1.0000</r>
       <r>  -0.0781  1.0000</r>
       <r>   0.1067  1.0000</r>
       <r>   0.1486  1.0000</r>
       <r>   0.1801  1.0000</r>
       <r>   0.7404  1.0000</r>
       <r>   0.9663  1.0000</r>
       <r>   1.1438  1.0000</r>
       <r>   1.1771  1.0000</r>
       <r>   1.3432  1.0000</r>
       <r>   1.5604  1.0000</r>
       <r>   1.8161  1.0000</r>
       <r>   2.1158  1.0000</r>
       <r>   2.2363  1.0000</r>
       <r>   2.2934  1.0000</r>
       <r>   2.3528  1.0000</r>
       <r>   2.4275  1.0000</r>
       <r>   2.5585  1.0000</r>
       <r>   2.6089  1.0000</r>
       <r>   3.8136  1.0000</r>
       <r>   5.4133  0.0000</r>
       <r>   9.1961  0.0000</r>
       <r>   9.8538  0.0000</r>
       <r>  13.1821  0.0000</r>
      </set>
      <set comment="kpoint 21">
       <r>  -2.7017  1.0000</r>
       <r>  -1.2805  1.0000</r>
       <r>  -0.0320  1.0000</r>
       <r>   0.1234  1.0000</r>
       <r>   0.1816  1.0000</r>
       <r>   0.2946  1.0000</r>
       <r>   0.3803  1.0000</r>
       <r>   0.6041  1.0000</r>
       <r>   0.6393  1.0000</r>
       <r>   0.8915  1.0000</r>
       <r>   1.0871  1.0000</r>
       <r>   1.2697  1.0000</r>
       <r>   1.7206  1.0000</r>
       <r>   1.8450  1.0000</r>
       <r>   2.0126  1.0000</r>
       <r>   2.0831  1.0000</r>
       <r>   2.1315  1.0000</r>
       <r>   2.1353  1.0000</r>
       <r>   2.5592  1.0000</r>
       <r>   2.5787  1.0000</r>
       <r>   2.6144  1.0000</r>
       <r>   3.2231  1.0000</r>
       <r>   6.1882  0.0000</r>
       <r>   8.0545  0.0000</r>
       <r>  10.8691  0.0000</r>
       <r>  13.2331  0.0000</r>
      </set>
      <set comment="kpoint 22">
       <r>  -1.9696  1.0000</r>
       <r>  -1.9696  1.0000</r>
       <r>   0.1419  1.0000</r>
       <r>   0.1419  1.0000</r>
       <r>   0.3620  1.0000</r>
       <r>   0.3620  1.0000</r>
       <r>   0.4507  1.0000</r>
       <r>   0.4507  1.0000</r>
       <r>   0.6203  1.0000</r>
       <r>   0.6203  1.0000</r>
       <r>   1.1584  1.0000</r>
       <r>   1.1584  1.0000</r>
       <r>   1.9155  1.0000</r>
       <r>   1.9155  1.0000</r>
       <r>   1.9659  1.0000</r>
       <r>   1.9659  1.0000</r>
       <r>   1.9940  1.0000</r>
       <r>   1.9940  1.0000</r>
       <r>   2.5645  1.0000</r>
       <r>   2.5645  1.0000</r>
       <r>   2.8595  1.0000</r>
       <r>   2.8595  1.0000</r>
       <r>   7.0592  0.0000</r>
       <r>   7.0592  0.0000</r>
       <r>  12.0006  0.0000</r>
       <r>  12.0006  0.0000</r>
      </set>
      <set comment="kpoint 23">
       <r>  -2.8457  1.0000</r>
       <r>  -0.4756  1.0000</r>
       <r>  -0.4756  1.0000</r>
       <r>   0.0291  1.0000</r>
       <r>   0.2019  1.0000</r>
       <r>   0.2788  1.0000</r>
       <r>   0.2788  1.0000</r>
       <r>   0.6919  1.0000</r>
       <r>   0.8596  1.0000</r>
       <r>   0.8596  1.0000</r>
       <r>   1.0161  1.0000</r>
       <r>   1.2877  1.0000</r>
       <r>   1.6398  1.0000</r>
       <r>   1.7607  1.0000</r>
       <r>   2.0119  1.0000</r>
       <r>   2.1424  1.0000</r>
       <r>   2.1424  1.0000</r>
       <r>   2.3548  1.0000</r>
       <r>   2.3548  1.0000</r>
       <r>   2.5021  1.0000</r>
       <r>   2.6240  1.0000</r>
       <r>   4.4039  1.0000</r>
       <r>   4.4039  1.0000</r>
       <r>   7.8992  0.0000</r>
       <r>  10.6765  0.0000</r>
       <r>  13.5381  0.0000</r>
      </set>
      <set comment="kpoint 24">
       <r>  -2.2163  1.0000</r>
       <r>  -0.9207  1.0000</r>
       <r>  -0.1778  1.0000</r>
       <r>   0.0767  1.0000</r>
       <r>   0.3288  1.0000</r>
       <r>   0.3910  1.0000</r>
       <r>   0.4409  1.0000</r>
       <r>   0.6106  1.0000</r>
       <r>   0.6316  1.0000</r>
       <r>   0.8256  1.0000</r>
       <r>   0.9079  1.0000</r>
       <r>   1.1915  1.0000</r>
       <r>   1.7598  1.0000</r>
       <r>   1.7688  1.0000</r>
       <r>   1.9228  1.0000</r>
       <r>   1.9969  1.0000</r>
       <r>   1.9986  1.0000</r>
       <r>   2.1419  1.0000</r>
       <r>   2.3638  1.0000</r>
       <r>   2.4288  1.0000</r>
       <r>   2.8751  1.0000</r>
       <r>   3.6832  1.0000</r>
       <r>   5.0719  0.0000</r>
       <r>   6.7872  0.0000</r>
       <r>  11.6476  0.0000</r>
       <r>  13.9509  0.0000</r>
      </set>
      <set comment="kpoint 25">
       <r>  -1.5435  1.0000</r>
       <r>  -1.5435  1.0000</r>
       <r>   0.0233  1.0000</r>
       <r>   0.0233  1.0000</r>
       <r>   0.4605  1.0000</r>
       <r>   0.4605  1.0000</r>
       <r>   0.5059  1.0000</r>
       <r>   0.5059  1.0000</r>
       <r>   0.6274  1.0000</r>
       <r>   0.6274  1.0000</r>
       <r>   1.0467  1.0000</r>
       <r>   1.0467  1.0000</r>
       <r>   1.8509  1.0000</r>
       <r>   1.8509  1.0000</r>
       <r>   1.9097  1.0000</r>
       <r>   1.9097  1.0000</r>
       <r>   1.9408  1.0000</r>
       <r>   1.9408  1.0000</r>
       <r>   2.3857  1.0000</r>
       <r>   2.3857  1.0000</r>
       <r>   3.2051  1.0000</r>
       <r>   3.2051  1.0000</r>
       <r>   5.8537  0.0000</r>
       <r>   5.8537  0.0000</r>
       <r>  12.7441  0.0000</r>
       <r>  12.7441  0.0000</r>
      </set>
      <set comment="kpoint 26">
       <r>  -1.6534  1.0000</r>
       <r>  -0.5544  1.0000</r>
       <r>  -0.5544  1.0000</r>
       <r>  -0.0484  1.0000</r>
       <r>   0.5039  1.0000</r>
       <r>   0.5039  1.0000</r>
       <r>   0.5088  1.0000</r>
       <r>   0.5966  1.0000</r>
       <r>   0.7339  1.0000</r>
       <r>   0.7722  1.0000</r>
       <r>   0.7722  1.0000</r>
       <r>   1.0987  1.0000</r>
       <r>   1.7069  1.0000</r>
       <r>   1.8310  1.0000</r>
       <r>   1.8587  1.0000</r>
       <r>   1.8683  1.0000</r>
       <r>   1.8683  1.0000</r>
       <r>   2.1681  1.0000</r>
       <r>   2.1681  1.0000</r>
       <r>   2.3055  1.0000</r>
       <r>   3.2005  1.0000</r>
       <r>   4.2250  1.0000</r>
       <r>   4.2250  1.0000</r>
       <r>   5.7343  0.0000</r>
       <r>  12.5789  0.0000</r>
       <r>  14.5761  0.0000</r>
      </set>
      <set comment="kpoint 27">
       <r>  -1.0736  1.0000</r>
       <r>  -1.0736  1.0000</r>
       <r>  -0.2516  1.0000</r>
       <r>  -0.2516  1.0000</r>
       <r>   0.5592  1.0000</r>
       <r>   0.5592  1.0000</r>
       <r>   0.6227  1.0000</r>
       <r>   0.6227  1.0000</r>
       <r>   0.6537  1.0000</r>
       <r>   0.6537  1.0000</r>
       <r>   0.9517  1.0000</r>
       <r>   0.9517  1.0000</r>
       <r>   1.7492  1.0000</r>
       <r>   1.7492  1.0000</r>
       <r>   1.8004  1.0000</r>
       <r>   1.8004  1.0000</r>
       <r>   1.9943  1.0000</r>
       <r>   1.9943  1.0000</r>
       <r>   2.2196  1.0000</r>
       <r>   2.2196  1.0000</r>
       <r>   3.6263  1.0000</r>
       <r>   3.6263  1.0000</r>
       <r>   4.8917  0.0000</r>
       <r>   4.8917  0.0000</r>
       <r>  13.6420  0.0000</r>
       <r>  13.6420  0.0000</r>
      </set>
      <set comment="kpoint 28">
       <r>  -0.6244  1.0000</r>
       <r>  -0.6244  1.0000</r>
       <r>  -0.6244  1.0000</r>
       <r>  -0.6244  1.0000</r>
       <r>   0.6001  1.0000</r>
       <r>   0.6001  1.0000</r>
       <r>   0.6001  1.0000</r>
       <r>   0.6001  1.0000</r>
       <r>   0.8286  1.0000</r>
       <r>   0.8286  1.0000</r>
       <r>   0.8286  1.0000</r>
       <r>   0.8286  1.0000</r>
       <r>   1.7268  1.0000</r>
       <r>   1.7268  1.0000</r>
       <r>   1.7268  1.0000</r>
       <r>   1.7268  1.0000</r>
       <r>   2.0862  1.0000</r>
       <r>   2.0862  1.0000</r>
       <r>   2.0862  1.0000</r>
       <r>   2.0862  1.0000</r>
       <r>   4.1666  1.0000</r>
       <r>   4.1666  1.0000</r>
       <r>   4.1666  1.0000</r>
       <r>   4.1666  1.0000</r>
       <r>  14.6750  0.0000</r>
       <r>  14.6750  0.0000</r>
      </set>
      <set comment="kpoint 29">
       <r>  -5.2076  1.0000</r>
       <r>  -0.8088  1.0000</r>
       <r>  -0.8088  1.0000</r>
       <r>  -0.8088  1.0000</r>
       <r>  -0.3181  1.0000</r>
       <r>  -0.3181  1.0000</r>
       <r>  -0.3181  1.0000</r>
       <r>   1.1075  1.0000</r>
       <r>   1.2183  1.0000</r>
       <r>   1.2183  1.0000</r>
       <r>   2.0755  1.0000</r>
       <r>   2.0755  1.0000</r>
       <r>   2.5304  1.0000</r>
       <r>   2.5304  1.0000</r>
       <r>   2.5304  1.0000</r>
       <r>   2.6172  1.0000</r>
       <r>   2.6172  1.0000</r>
       <r>   2.6172  1.0000</r>
       <r>   2.8409  1.0000</r>
       <r>   2.8409  1.0000</r>
       <r>   2.8409  1.0000</r>
       <r>   5.8630  0.0000</r>
       <r>   5.8630  0.0000</r>
       <r>   5.8630  0.0000</r>
       <r>  12.8759  0.0000</r>
       <r>  12.8759  0.0000</r>
      </set>
      <set comment="kpoint 30">
       <r>  -4.9449  1.0000</r>
       <r>  -0.8165  1.0000</r>
       <r>  -0.6857  1.0000</r>
       <r>  -0.6857  1.0000</r>
       <r>  -0.2471  1.0000</r>
       <r>  -0.2422  1.0000</r>
       <r>  -0.2422  1.0000</r>
       <r>   1.0401  1.0000</r>
       <r>   1.2694  1.0000</r>
       <r>   1.2741  1.0000</r>
       <r>   2.0080  1.0000</r>
       <r>   2.1138  1.0000</r>
       <r>   2.1685  1.0000</r>
       <r>   2.1685  1.0000</r>
       <r>   2.3635  1.0000</r>
       <r>   2.5306  1.0000</r>
       <r>   2.5327  1.0000</r>
       <r>   2.5327  1.0000</r>
       <r>   2.7919  1.0000</r>
       <r>   2.8288  1.0000</r>
       <r>   2.8288  1.0000</r>
       <r>   4.7712  0.0000</r>
       <r>   6.4284  0.0000</r>
       <r>   6.4284  0.0000</r>
       <r>  12.9960  0.0000</r>
       <r>  12.9960  0.0000</r>
      </set>
      <set comment="kpoint 31">
       <r>  -4.5149  1.0000</r>
       <r>  -0.8946  1.0000</r>
       <r>  -0.5007  1.0000</r>
       <r>  -0.5007  1.0000</r>
       <r>  -0.1333  1.0000</r>
       <r>  -0.1158  1.0000</r>
       <r>  -0.1158  1.0000</r>
       <r>   0.9203  1.0000</r>
       <r>   1.3602  1.0000</r>
       <r>   1.3662  1.0000</r>
       <r>   1.7325  1.0000</r>
       <r>   1.7325  1.0000</r>
       <r>   1.9133  1.0000</r>
       <r>   2.0802  1.0000</r>
       <r>   2.1745  1.0000</r>
       <r>   2.3920  1.0000</r>
       <r>   2.4021  1.0000</r>
       <r>   2.4021  1.0000</r>
       <r>   2.7220  1.0000</r>
       <r>   2.8186  1.0000</r>
       <r>   2.8186  1.0000</r>
       <r>   3.6998  1.0000</r>
       <r>   7.1908  0.0000</r>
       <r>   7.1908  0.0000</r>
       <r>  13.1527  0.0000</r>
       <r>  13.1527  0.0000</r>
      </set>
      <set comment="kpoint 32">
       <r>  -3.9319  1.0000</r>
       <r>  -1.1580  1.0000</r>
       <r>  -0.2866  1.0000</r>
       <r>  -0.2866  1.0000</r>
       <r>   0.0166  1.0000</r>
       <r>   0.0587  1.0000</r>
       <r>   0.0587  1.0000</r>
       <r>   0.7622  1.0000</r>
       <r>   1.3031  1.0000</r>
       <r>   1.3031  1.0000</r>
       <r>   1.4514  1.0000</r>
       <r>   1.4925  1.0000</r>
       <r>   1.7236  1.0000</r>
       <r>   1.8415  1.0000</r>
       <r>   2.2163  1.0000</r>
       <r>   2.2416  1.0000</r>
       <r>   2.2416  1.0000</r>
       <r>   2.2535  1.0000</r>
       <r>   2.6376  1.0000</r>
       <r>   2.8128  1.0000</r>
       <r>   2.8128  1.0000</r>
       <r>   2.9256  1.0000</r>
       <r>   8.0698  0.0000</r>
       <r>   8.0698  0.0000</r>
       <r>  12.4163  0.0000</r>
       <r>  12.4163  0.0000</r>
      </set>
      <set comment="kpoint 33">
       <r>  -3.2234  1.0000</r>
       <r>  -1.7009  1.0000</r>
       <r>  -0.0985  1.0000</r>
       <r>  -0.0985  1.0000</r>
       <r>   0.1932  1.0000</r>
       <r>   0.2757  1.0000</r>
       <r>   0.2757  1.0000</r>
       <r>   0.5792  1.0000</r>
       <r>   0.9161  1.0000</r>
       <r>   0.9161  1.0000</r>
       <r>   1.4552  1.0000</r>
       <r>   1.4713  1.0000</r>
       <r>   1.6489  1.0000</r>
       <r>   1.9076  1.0000</r>
       <r>   2.0228  1.0000</r>
       <r>   2.0986  1.0000</r>
       <r>   2.0986  1.0000</r>
       <r>   2.3453  1.0000</r>
       <r>   2.4447  1.0000</r>
       <r>   2.5433  1.0000</r>
       <r>   2.8101  1.0000</r>
       <r>   2.8101  1.0000</r>
       <r>   9.0214  0.0000</r>
       <r>   9.0214  0.0000</r>
       <r>  11.2583  0.0000</r>
       <r>  11.2583  0.0000</r>
      </set>
      <set comment="kpoint 34">
       <r>  -2.4437  1.0000</r>
       <r>  -2.4437  1.0000</r>
       <r>  -0.0193  1.0000</r>
       <r>  -0.0193  1.0000</r>
       <r>   0.3850  1.0000</r>
       <r>   0.3850  1.0000</r>
       <r>   0.4775  1.0000</r>
       <r>   0.4775  1.0000</r>
       <r>   0.6529  1.0000</r>
       <r>   0.6529  1.0000</r>
       <r>   1.4131  1.0000</r>
       <r>   1.4131  1.0000</r>
       <r>   1.8291  1.0000</r>
       <r>   1.8291  1.0000</r>
       <r>   2.0387  1.0000</r>
       <r>   2.0387  1.0000</r>
       <r>   2.1232  1.0000</r>
       <r>   2.1232  1.0000</r>
       <r>   2.4440  1.0000</r>
       <r>   2.4440  1.0000</r>
       <r>   2.8093  1.0000</r>
       <r>   2.8093  1.0000</r>
       <r>   9.8105  0.0000</r>
       <r>   9.8105  0.0000</r>
       <r>  10.3977  0.0000</r>
       <r>  10.3977  0.0000</r>
      </set>
      <set comment="kpoint 35">
       <r>  -4.6864  1.0000</r>
       <r>  -0.6861  1.0000</r>
       <r>  -0.6861  1.0000</r>
       <r>  -0.5723  1.0000</r>
       <r>  -0.1751  1.0000</r>
       <r>  -0.1751  1.0000</r>
       <r>  -0.1748  1.0000</r>
       <r>   0.9978  1.0000</r>
       <r>   1.3015  1.0000</r>
       <r>   1.3069  1.0000</r>
       <r>   1.9455  1.0000</r>
       <r>   1.9839  1.0000</r>
       <r>   1.9839  1.0000</r>
       <r>   1.9986  1.0000</r>
       <r>   2.1163  1.0000</r>
       <r>   2.4232  1.0000</r>
       <r>   2.4556  1.0000</r>
       <r>   2.4556  1.0000</r>
       <r>   2.7847  1.0000</r>
       <r>   2.7847  1.0000</r>
       <r>   2.7945  1.0000</r>
       <r>   5.3011  0.0000</r>
       <r>   5.3011  0.0000</r>
       <r>   6.9117  0.0000</r>
       <r>  13.0310  0.0000</r>
       <r>  13.7433  0.0000</r>
      </set>
      <set comment="kpoint 36">
       <r>  -4.2637  1.0000</r>
       <r>  -0.7522  1.0000</r>
       <r>  -0.4895  1.0000</r>
       <r>  -0.4017  1.0000</r>
       <r>  -0.0670  1.0000</r>
       <r>  -0.0646  1.0000</r>
       <r>  -0.0554  1.0000</r>
       <r>   0.9031  1.0000</r>
       <r>   1.3578  1.0000</r>
       <r>   1.3769  1.0000</r>
       <r>   1.5577  1.0000</r>
       <r>   1.6123  1.0000</r>
       <r>   1.7128  1.0000</r>
       <r>   1.9358  1.0000</r>
       <r>   2.1851  1.0000</r>
       <r>   2.3029  1.0000</r>
       <r>   2.3181  1.0000</r>
       <r>   2.3538  1.0000</r>
       <r>   2.7179  1.0000</r>
       <r>   2.7566  1.0000</r>
       <r>   2.7597  1.0000</r>
       <r>   4.1949  1.0000</r>
       <r>   5.9820  0.0000</r>
       <r>   7.5964  0.0000</r>
       <r>  12.1038  0.0000</r>
       <r>  13.4920  0.0000</r>
      </set>
      <set comment="kpoint 37">
       <r>  -3.6918  1.0000</r>
       <r>  -0.9994  1.0000</r>
       <r>  -0.2587  1.0000</r>
       <r>  -0.1982  1.0000</r>
       <r>   0.0753  1.0000</r>
       <r>   0.0758  1.0000</r>
       <r>   0.1066  1.0000</r>
       <r>   0.7652  1.0000</r>
       <r>   1.1577  1.0000</r>
       <r>   1.2535  1.0000</r>
       <r>   1.3935  1.0000</r>
       <r>   1.4333  1.0000</r>
       <r>   1.4858  1.0000</r>
       <r>   1.9032  1.0000</r>
       <r>   2.1429  1.0000</r>
       <r>   2.1673  1.0000</r>
       <r>   2.2148  1.0000</r>
       <r>   2.2886  1.0000</r>
       <r>   2.6187  1.0000</r>
       <r>   2.7343  1.0000</r>
       <r>   2.7349  1.0000</r>
       <r>   3.3495  1.0000</r>
       <r>   6.7516  0.0000</r>
       <r>   8.3953  0.0000</r>
       <r>  10.8688  0.0000</r>
       <r>  12.7773  0.0000</r>
      </set>
      <set comment="kpoint 38">
       <r>  -2.9991  1.0000</r>
       <r>  -1.5214  1.0000</r>
       <r>  -0.0421  1.0000</r>
       <r>   0.0001  1.0000</r>
       <r>   0.2174  1.0000</r>
       <r>   0.2418  1.0000</r>
       <r>   0.2858  1.0000</r>
       <r>   0.5997  1.0000</r>
       <r>   0.8227  1.0000</r>
       <r>   0.9248  1.0000</r>
       <r>   1.2804  1.0000</r>
       <r>   1.3563  1.0000</r>
       <r>   1.6196  1.0000</r>
       <r>   1.9564  1.0000</r>
       <r>   1.9964  1.0000</r>
       <r>   2.0483  1.0000</r>
       <r>   2.0780  1.0000</r>
       <r>   2.4135  1.0000</r>
       <r>   2.4567  1.0000</r>
       <r>   2.7217  1.0000</r>
       <r>   2.7219  1.0000</r>
       <r>   2.8242  1.0000</r>
       <r>   7.5912  0.0000</r>
       <r>   9.0670  0.0000</r>
       <r>   9.9730  0.0000</r>
       <r>  11.5953  0.0000</r>
      </set>
      <set comment="kpoint 39">
       <r>  -2.2403  1.0000</r>
       <r>  -2.2403  1.0000</r>
       <r>   0.0772  1.0000</r>
       <r>   0.0772  1.0000</r>
       <r>   0.3497  1.0000</r>
       <r>   0.3497  1.0000</r>
       <r>   0.4208  1.0000</r>
       <r>   0.4208  1.0000</r>
       <r>   0.7013  1.0000</r>
       <r>   0.7013  1.0000</r>
       <r>   1.2838  1.0000</r>
       <r>   1.2838  1.0000</r>
       <r>   1.7780  1.0000</r>
       <r>   1.7780  1.0000</r>
       <r>   2.0083  1.0000</r>
       <r>   2.0083  1.0000</r>
       <r>   2.2110  1.0000</r>
       <r>   2.2110  1.0000</r>
       <r>   2.5667  1.0000</r>
       <r>   2.5667  1.0000</r>
       <r>   2.7179  1.0000</r>
       <r>   2.7179  1.0000</r>
       <r>   8.4828  0.0000</r>
       <r>   8.4828  0.0000</r>
       <r>  10.5370  0.0000</r>
       <r>  10.5370  0.0000</r>
      </set>
      <set comment="kpoint 40">
       <r>  -3.8540  1.0000</r>
       <r>  -0.5375  1.0000</r>
       <r>  -0.5375  1.0000</r>
       <r>  -0.2574  1.0000</r>
       <r>   0.0216  1.0000</r>
       <r>   0.0435  1.0000</r>
       <r>   0.0435  1.0000</r>
       <r>   0.8507  1.0000</r>
       <r>   1.3286  1.0000</r>
       <r>   1.3286  1.0000</r>
       <r>   1.3577  1.0000</r>
       <r>   1.4113  1.0000</r>
       <r>   1.4205  1.0000</r>
       <r>   1.9134  1.0000</r>
       <r>   2.1816  1.0000</r>
       <r>   2.2429  1.0000</r>
       <r>   2.2429  1.0000</r>
       <r>   2.2674  1.0000</r>
       <r>   2.6696  1.0000</r>
       <r>   2.6696  1.0000</r>
       <r>   2.6948  1.0000</r>
       <r>   4.8012  0.0000</r>
       <r>   4.8012  0.0000</r>
       <r>   8.1759  0.0000</r>
       <r>  10.7093  0.0000</r>
       <r>  13.7350  0.0000</r>
      </set>
      <set comment="kpoint 41">
       <r>  -3.3025  1.0000</r>
       <r>  -0.7608  1.0000</r>
       <r>  -0.2862  1.0000</r>
       <r>  -0.0903  1.0000</r>
       <r>   0.1273  1.0000</r>
       <r>   0.1741  1.0000</r>
       <r>   0.1922  1.0000</r>
       <r>   0.7553  1.0000</r>
       <r>   0.9870  1.0000</r>
       <r>   1.1391  1.0000</r>
       <r>   1.1642  1.0000</r>
       <r>   1.3408  1.0000</r>
       <r>   1.4985  1.0000</r>
       <r>   1.9014  1.0000</r>
       <r>   2.0602  1.0000</r>
       <r>   2.0821  1.0000</r>
       <r>   2.1345  1.0000</r>
       <r>   2.4101  1.0000</r>
       <r>   2.5507  1.0000</r>
       <r>   2.6234  1.0000</r>
       <r>   2.6400  1.0000</r>
       <r>   3.8613  1.0000</r>
       <r>   5.4804  0.0000</r>
       <r>   8.6522  0.0000</r>
       <r>   9.7063  0.0000</r>
       <r>  13.2851  0.0000</r>
      </set>
      <set comment="kpoint 42">
       <r>  -2.6392  1.0000</r>
       <r>  -1.2466  1.0000</r>
       <r>  -0.0458  1.0000</r>
       <r>   0.0841  1.0000</r>
       <r>   0.2004  1.0000</r>
       <r>   0.3236  1.0000</r>
       <r>   0.3340  1.0000</r>
       <r>   0.6265  1.0000</r>
       <r>   0.7355  1.0000</r>
       <r>   0.9222  1.0000</r>
       <r>   1.0868  1.0000</r>
       <r>   1.2672  1.0000</r>
       <r>   1.6032  1.0000</r>
       <r>   1.9044  1.0000</r>
       <r>   1.9633  1.0000</r>
       <r>   1.9889  1.0000</r>
       <r>   2.0145  1.0000</r>
       <r>   2.3814  1.0000</r>
       <r>   2.5941  1.0000</r>
       <r>   2.5964  1.0000</r>
       <r>   2.6044  1.0000</r>
       <r>   3.2243  1.0000</r>
       <r>   6.2353  0.0000</r>
       <r>   8.0101  0.0000</r>
       <r>  10.0969  0.0000</r>
       <r>  12.0983  0.0000</r>
      </set>
      <set comment="kpoint 43">
       <r>  -1.9204  1.0000</r>
       <r>  -1.9204  1.0000</r>
       <r>   0.1242  1.0000</r>
       <r>   0.1242  1.0000</r>
       <r>   0.2909  1.0000</r>
       <r>   0.2909  1.0000</r>
       <r>   0.4784  1.0000</r>
       <r>   0.4784  1.0000</r>
       <r>   0.7347  1.0000</r>
       <r>   0.7347  1.0000</r>
       <r>   1.1571  1.0000</r>
       <r>   1.1571  1.0000</r>
       <r>   1.7392  1.0000</r>
       <r>   1.7392  1.0000</r>
       <r>   1.9414  1.0000</r>
       <r>   1.9414  1.0000</r>
       <r>   2.1724  1.0000</r>
       <r>   2.1724  1.0000</r>
       <r>   2.5902  1.0000</r>
       <r>   2.5902  1.0000</r>
       <r>   2.8396  1.0000</r>
       <r>   2.8396  1.0000</r>
       <r>   7.0806  0.0000</r>
       <r>   7.0806  0.0000</r>
       <r>  11.0261  0.0000</r>
       <r>  11.0261  0.0000</r>
      </set>
      <set comment="kpoint 44">
       <r>  -2.7832  1.0000</r>
       <r>  -0.4851  1.0000</r>
       <r>  -0.4851  1.0000</r>
       <r>  -0.0201  1.0000</r>
       <r>   0.2371  1.0000</r>
       <r>   0.3112  1.0000</r>
       <r>   0.3112  1.0000</r>
       <r>   0.7182  1.0000</r>
       <r>   0.8894  1.0000</r>
       <r>   0.8894  1.0000</r>
       <r>   1.0392  1.0000</r>
       <r>   1.2888  1.0000</r>
       <r>   1.5294  1.0000</r>
       <r>   1.8903  1.0000</r>
       <r>   1.9456  1.0000</r>
       <r>   1.9990  1.0000</r>
       <r>   1.9990  1.0000</r>
       <r>   2.4844  1.0000</r>
       <r>   2.4844  1.0000</r>
       <r>   2.5501  1.0000</r>
       <r>   2.6034  1.0000</r>
       <r>   4.4366  1.0000</r>
       <r>   4.4366  1.0000</r>
       <r>   7.8333  0.0000</r>
       <r>   9.9492  0.0000</r>
       <r>  13.9519  0.0000</r>
      </set>
      <set comment="kpoint 45">
       <r>  -2.1684  1.0000</r>
       <r>  -0.9178  1.0000</r>
       <r>  -0.2329  1.0000</r>
       <r>  -0.0037  1.0000</r>
       <r>   0.3635  1.0000</r>
       <r>   0.4381  1.0000</r>
       <r>   0.4576  1.0000</r>
       <r>   0.6490  1.0000</r>
       <r>   0.7203  1.0000</r>
       <r>   0.8961  1.0000</r>
       <r>   0.9275  1.0000</r>
       <r>   1.1959  1.0000</r>
       <r>   1.5862  1.0000</r>
       <r>   1.8383  1.0000</r>
       <r>   1.8557  1.0000</r>
       <r>   1.9008  1.0000</r>
       <r>   1.9605  1.0000</r>
       <r>   2.3105  1.0000</r>
       <r>   2.4463  1.0000</r>
       <r>   2.4813  1.0000</r>
       <r>   2.8520  1.0000</r>
       <r>   3.6816  1.0000</r>
       <r>   5.0937  0.0000</r>
       <r>   6.7807  0.0000</r>
       <r>  10.7405  0.0000</r>
       <r>  12.7612  0.0000</r>
      </set>
      <set comment="kpoint 46">
       <r>  -1.5164  1.0000</r>
       <r>  -1.5164  1.0000</r>
       <r>  -0.0646  1.0000</r>
       <r>  -0.0646  1.0000</r>
       <r>   0.4634  1.0000</r>
       <r>   0.4634  1.0000</r>
       <r>   0.5531  1.0000</r>
       <r>   0.5531  1.0000</r>
       <r>   0.7528  1.0000</r>
       <r>   0.7528  1.0000</r>
       <r>   1.0562  1.0000</r>
       <r>   1.0562  1.0000</r>
       <r>   1.6909  1.0000</r>
       <r>   1.6909  1.0000</r>
       <r>   1.8364  1.0000</r>
       <r>   1.8364  1.0000</r>
       <r>   2.1184  1.0000</r>
       <r>   2.1184  1.0000</r>
       <r>   2.4452  1.0000</r>
       <r>   2.4452  1.0000</r>
       <r>   3.1850  1.0000</r>
       <r>   3.1850  1.0000</r>
       <r>   5.8651  0.0000</r>
       <r>   5.8651  0.0000</r>
       <r>  11.6896  0.0000</r>
       <r>  11.6896  0.0000</r>
      </set>
      <set comment="kpoint 47">
       <r>  -1.6280  1.0000</r>
       <r>  -0.5939  1.0000</r>
       <r>  -0.5939  1.0000</r>
       <r>  -0.1395  1.0000</r>
       <r>   0.5377  1.0000</r>
       <r>   0.5759  1.0000</r>
       <r>   0.5759  1.0000</r>
       <r>   0.6546  1.0000</r>
       <r>   0.8082  1.0000</r>
       <r>   0.8082  1.0000</r>
       <r>   0.8385  1.0000</r>
       <r>   1.1088  1.0000</r>
       <r>   1.5817  1.0000</r>
       <r>   1.7572  1.0000</r>
       <r>   1.7609  1.0000</r>
       <r>   1.7609  1.0000</r>
       <r>   1.9959  1.0000</r>
       <r>   2.2775  1.0000</r>
       <r>   2.2775  1.0000</r>
       <r>   2.3722  1.0000</r>
       <r>   3.1759  1.0000</r>
       <r>   4.2210  1.0000</r>
       <r>   4.2210  1.0000</r>
       <r>   5.7321  0.0000</r>
       <r>  11.5535  0.0000</r>
       <r>  13.5700  0.0000</r>
      </set>
      <set comment="kpoint 48">
       <r>  -1.0792  1.0000</r>
       <r>  -1.0792  1.0000</r>
       <r>  -0.3294  1.0000</r>
       <r>  -0.3294  1.0000</r>
       <r>   0.6338  1.0000</r>
       <r>   0.6338  1.0000</r>
       <r>   0.6572  1.0000</r>
       <r>   0.6572  1.0000</r>
       <r>   0.7560  1.0000</r>
       <r>   0.7560  1.0000</r>
       <r>   0.9682  1.0000</r>
       <r>   0.9682  1.0000</r>
       <r>   1.6395  1.0000</r>
       <r>   1.6395  1.0000</r>
       <r>   1.7183  1.0000</r>
       <r>   1.7183  1.0000</r>
       <r>   2.1129  1.0000</r>
       <r>   2.1129  1.0000</r>
       <r>   2.2989  1.0000</r>
       <r>   2.2989  1.0000</r>
       <r>   3.6060  1.0000</r>
       <r>   3.6060  1.0000</r>
       <r>   4.8880  0.0000</r>
       <r>   4.8880  0.0000</r>
       <r>  12.4993  0.0000</r>
       <r>  12.4993  0.0000</r>
      </set>
      <set comment="kpoint 49">
       <r>  -0.6693  1.0000</r>
       <r>  -0.6693  1.0000</r>
       <r>  -0.6693  1.0000</r>
       <r>  -0.6693  1.0000</r>
       <r>   0.6979  1.0000</r>
       <r>   0.6979  1.0000</r>
       <r>   0.6979  1.0000</r>
       <r>   0.6979  1.0000</r>
       <r>   0.8530  1.0000</r>
       <r>   0.8530  1.0000</r>
       <r>   0.8530  1.0000</r>
       <r>   0.8530  1.0000</r>
       <r>   1.6383  1.0000</r>
       <r>   1.6383  1.0000</r>
       <r>   1.6383  1.0000</r>
       <r>   1.6383  1.0000</r>
       <r>   2.1777  1.0000</r>
       <r>   2.1777  1.0000</r>
       <r>   2.1777  1.0000</r>
       <r>   2.1777  1.0000</r>
       <r>   4.1510  1.0000</r>
       <r>   4.1510  1.0000</r>
       <r>   4.1510  1.0000</r>
       <r>   4.1510  1.0000</r>
       <r>  13.4424  0.0000</r>
       <r>  13.4424  0.0000</r>
      </set>
      <set comment="kpoint 50">
       <r>  -4.4329  1.0000</r>
       <r>  -0.5712  1.0000</r>
       <r>  -0.5712  1.0000</r>
       <r>  -0.5712  1.0000</r>
       <r>  -0.1094  1.0000</r>
       <r>  -0.1094  1.0000</r>
       <r>  -0.1094  1.0000</r>
       <r>   0.9694  1.0000</r>
       <r>   1.3217  1.0000</r>
       <r>   1.3217  1.0000</r>
       <r>   1.7768  1.0000</r>
       <r>   1.7768  1.0000</r>
       <r>   1.7768  1.0000</r>
       <r>   2.0650  1.0000</r>
       <r>   2.0650  1.0000</r>
       <r>   2.3026  1.0000</r>
       <r>   2.3026  1.0000</r>
       <r>   2.3026  1.0000</r>
       <r>   2.8001  1.0000</r>
       <r>   2.8001  1.0000</r>
       <r>   2.8001  1.0000</r>
       <r>   5.7260  0.0000</r>
       <r>   5.7260  0.0000</r>
       <r>   5.7260  0.0000</r>
       <r>  13.8844  0.0000</r>
       <r>  13.8844  0.0000</r>
      </set>
      <set comment="kpoint 51">
       <r>  -4.0194  1.0000</r>
       <r>  -0.6352  1.0000</r>
       <r>  -0.4007  1.0000</r>
       <r>  -0.4007  1.0000</r>
       <r>  -0.0017  1.0000</r>
       <r>  -0.0016  1.0000</r>
       <r>  -0.0016  1.0000</r>
       <r>   0.8975  1.0000</r>
       <r>   1.3564  1.0000</r>
       <r>   1.3631  1.0000</r>
       <r>   1.4675  1.0000</r>
       <r>   1.4675  1.0000</r>
       <r>   1.5318  1.0000</r>
       <r>   2.0089  1.0000</r>
       <r>   2.1461  1.0000</r>
       <r>   2.1635  1.0000</r>
       <r>   2.1913  1.0000</r>
       <r>   2.1913  1.0000</r>
       <r>   2.7708  1.0000</r>
       <r>   2.7708  1.0000</r>
       <r>   2.7782  1.0000</r>
       <r>   4.5545  0.0000</r>
       <r>   6.3171  0.0000</r>
       <r>   6.3171  0.0000</r>
       <r>  12.4869  0.0000</r>
       <r>  12.4869  0.0000</r>
      </set>
      <set comment="kpoint 52">
       <r>  -3.4618  1.0000</r>
       <r>  -0.8744  1.0000</r>
       <r>  -0.2009  1.0000</r>
       <r>  -0.2009  1.0000</r>
       <r>   0.1309  1.0000</r>
       <r>   0.1309  1.0000</r>
       <r>   0.1409  1.0000</r>
       <r>   0.7825  1.0000</r>
       <r>   1.1534  1.0000</r>
       <r>   1.1534  1.0000</r>
       <r>   1.2997  1.0000</r>
       <r>   1.3699  1.0000</r>
       <r>   1.4318  1.0000</r>
       <r>   1.9763  1.0000</r>
       <r>   2.0143  1.0000</r>
       <r>   2.0813  1.0000</r>
       <r>   2.0813  1.0000</r>
       <r>   2.2818  1.0000</r>
       <r>   2.7231  1.0000</r>
       <r>   2.7298  1.0000</r>
       <r>   2.7298  1.0000</r>
       <r>   3.6057  1.0000</r>
       <r>   7.0056  0.0000</r>
       <r>   7.0056  0.0000</r>
       <r>  11.2256  0.0000</r>
       <r>  11.2256  0.0000</r>
      </set>
      <set comment="kpoint 53">
       <r>  -2.7898  1.0000</r>
       <r>  -1.3728  1.0000</r>
       <r>   0.0033  1.0000</r>
       <r>   0.0033  1.0000</r>
       <r>   0.2242  1.0000</r>
       <r>   0.2242  1.0000</r>
       <r>   0.3042  1.0000</r>
       <r>   0.6369  1.0000</r>
       <r>   0.9098  1.0000</r>
       <r>   0.9098  1.0000</r>
       <r>   1.1947  1.0000</r>
       <r>   1.3133  1.0000</r>
       <r>   1.5304  1.0000</r>
       <r>   1.8094  1.0000</r>
       <r>   1.9774  1.0000</r>
       <r>   1.9774  1.0000</r>
       <r>   2.1584  1.0000</r>
       <r>   2.4076  1.0000</r>
       <r>   2.6379  1.0000</r>
       <r>   2.6996  1.0000</r>
       <r>   2.6996  1.0000</r>
       <r>   2.9222  1.0000</r>
       <r>   7.7235  0.0000</r>
       <r>   7.7235  0.0000</r>
       <r>  10.1677  0.0000</r>
       <r>  10.1677  0.0000</r>
      </set>
      <set comment="kpoint 54">
       <r>  -2.0594  1.0000</r>
       <r>  -2.0594  1.0000</r>
       <r>   0.1666  1.0000</r>
       <r>   0.1666  1.0000</r>
       <r>   0.1833  1.0000</r>
       <r>   0.1833  1.0000</r>
       <r>   0.4736  1.0000</r>
       <r>   0.4736  1.0000</r>
       <r>   0.8181  1.0000</r>
       <r>   0.8181  1.0000</r>
       <r>   1.2259  1.0000</r>
       <r>   1.2259  1.0000</r>
       <r>   1.6579  1.0000</r>
       <r>   1.6579  1.0000</r>
       <r>   1.9308  1.0000</r>
       <r>   1.9308  1.0000</r>
       <r>   2.4570  1.0000</r>
       <r>   2.4570  1.0000</r>
       <r>   2.5297  1.0000</r>
       <r>   2.5297  1.0000</r>
       <r>   2.6891  1.0000</r>
       <r>   2.6891  1.0000</r>
       <r>   8.1637  0.0000</r>
       <r>   8.1637  0.0000</r>
       <r>   9.6147  0.0000</r>
       <r>   9.6147  0.0000</r>
      </set>
      <set comment="kpoint 55">
       <r>  -3.6224  1.0000</r>
       <r>  -0.4678  1.0000</r>
       <r>  -0.4678  1.0000</r>
       <r>  -0.2809  1.0000</r>
       <r>   0.0929  1.0000</r>
       <r>   0.1086  1.0000</r>
       <r>   0.1086  1.0000</r>
       <r>   0.8674  1.0000</r>
       <r>   1.2770  1.0000</r>
       <r>   1.2770  1.0000</r>
       <r>   1.3131  1.0000</r>
       <r>   1.3518  1.0000</r>
       <r>   1.3731  1.0000</r>
       <r>   2.0348  1.0000</r>
       <r>   2.0401  1.0000</r>
       <r>   2.0401  1.0000</r>
       <r>   2.0451  1.0000</r>
       <r>   2.2248  1.0000</r>
       <r>   2.7451  1.0000</r>
       <r>   2.7579  1.0000</r>
       <r>   2.7579  1.0000</r>
       <r>   5.0628  0.0000</r>
       <r>   5.0628  0.0000</r>
       <r>   6.7961  0.0000</r>
       <r>  11.0770  0.0000</r>
       <r>  13.0021  0.0000</r>
      </set>
      <set comment="kpoint 56">
       <r>  -3.0910  1.0000</r>
       <r>  -0.6987  1.0000</r>
       <r>  -0.2861  1.0000</r>
       <r>  -0.1590  1.0000</r>
       <r>   0.2115  1.0000</r>
       <r>   0.2479  1.0000</r>
       <r>   0.2558  1.0000</r>
       <r>   0.7999  1.0000</r>
       <r>   1.0398  1.0000</r>
       <r>   1.1234  1.0000</r>
       <r>   1.1341  1.0000</r>
       <r>   1.3321  1.0000</r>
       <r>   1.4072  1.0000</r>
       <r>   1.8747  1.0000</r>
       <r>   1.9306  1.0000</r>
       <r>   1.9507  1.0000</r>
       <r>   2.0605  1.0000</r>
       <r>   2.3655  1.0000</r>
       <r>   2.6970  1.0000</r>
       <r>   2.7046  1.0000</r>
       <r>   2.7058  1.0000</r>
       <r>   4.0205  1.0000</r>
       <r>   5.6680  0.0000</r>
       <r>   7.3100  0.0000</r>
       <r>   9.9250  0.0000</r>
       <r>  11.7252  0.0000</r>
      </set>
      <set comment="kpoint 57">
       <r>  -2.4580  1.0000</r>
       <r>  -1.1557  1.0000</r>
       <r>  -0.1266  1.0000</r>
       <r>  -0.0601  1.0000</r>
       <r>   0.3022  1.0000</r>
       <r>   0.3481  1.0000</r>
       <r>   0.4161  1.0000</r>
       <r>   0.6972  1.0000</r>
       <r>   0.9043  1.0000</r>
       <r>   0.9934  1.0000</r>
       <r>   1.0841  1.0000</r>
       <r>   1.2575  1.0000</r>
       <r>   1.4749  1.0000</r>
       <r>   1.7160  1.0000</r>
       <r>   1.8446  1.0000</r>
       <r>   1.8646  1.0000</r>
       <r>   2.1958  1.0000</r>
       <r>   2.5379  1.0000</r>
       <r>   2.6018  1.0000</r>
       <r>   2.6537  1.0000</r>
       <r>   2.6566  1.0000</r>
       <r>   3.2566  1.0000</r>
       <r>   6.3460  0.0000</r>
       <r>   7.5273  0.0000</r>
       <r>   9.3497  0.0000</r>
       <r>  10.6199  0.0000</r>
      </set>
      <set comment="kpoint 58">
       <r>  -1.7814  1.0000</r>
       <r>  -1.7814  1.0000</r>
       <r>  -0.0357  1.0000</r>
       <r>  -0.0357  1.0000</r>
       <r>   0.3454  1.0000</r>
       <r>   0.3454  1.0000</r>
       <r>   0.5670  1.0000</r>
       <r>   0.5670  1.0000</r>
       <r>   0.9131  1.0000</r>
       <r>   0.9131  1.0000</r>
       <r>   1.1514  1.0000</r>
       <r>   1.1514  1.0000</r>
       <r>   1.5794  1.0000</r>
       <r>   1.5794  1.0000</r>
       <r>   1.8162  1.0000</r>
       <r>   1.8162  1.0000</r>
       <r>   2.4201  1.0000</r>
       <r>   2.4201  1.0000</r>
       <r>   2.6373  1.0000</r>
       <r>   2.6373  1.0000</r>
       <r>   2.7854  1.0000</r>
       <r>   2.7854  1.0000</r>
       <r>   7.0517  0.0000</r>
       <r>   7.0517  0.0000</r>
       <r>   9.7387  0.0000</r>
       <r>   9.7387  0.0000</r>
      </set>
      <set comment="kpoint 59">
       <r>  -2.6019  1.0000</r>
       <r>  -0.5157  1.0000</r>
       <r>  -0.5157  1.0000</r>
       <r>  -0.1584  1.0000</r>
       <r>   0.3428  1.0000</r>
       <r>   0.4111  1.0000</r>
       <r>   0.4111  1.0000</r>
       <r>   0.8014  1.0000</r>
       <r>   0.9710  1.0000</r>
       <r>   0.9710  1.0000</r>
       <r>   1.0973  1.0000</r>
       <r>   1.2895  1.0000</r>
       <r>   1.4029  1.0000</r>
       <r>   1.7977  1.0000</r>
       <r>   1.7977  1.0000</r>
       <r>   1.8017  1.0000</r>
       <r>   2.0735  1.0000</r>
       <r>   2.5458  1.0000</r>
       <r>   2.6400  1.0000</r>
       <r>   2.6400  1.0000</r>
       <r>   2.6400  1.0000</r>
       <r>   4.5378  0.0001</r>
       <r>   4.5378  0.0001</r>
       <r>   7.2995  0.0000</r>
       <r>   9.2565  0.0000</r>
       <r>  12.3782  0.0000</r>
      </set>
      <set comment="kpoint 60">
       <r>  -2.0327  1.0000</r>
       <r>  -0.9129  1.0000</r>
       <r>  -0.3625  1.0000</r>
       <r>  -0.1899  1.0000</r>
       <r>   0.4668  1.0000</r>
       <r>   0.5380  1.0000</r>
       <r>   0.5776  1.0000</r>
       <r>   0.7721  1.0000</r>
       <r>   0.9138  1.0000</r>
       <r>   0.9855  1.0000</r>
       <r>   1.0505  1.0000</r>
       <r>   1.2053  1.0000</r>
       <r>   1.4366  1.0000</r>
       <r>   1.6473  1.0000</r>
       <r>   1.7124  1.0000</r>
       <r>   1.7274  1.0000</r>
       <r>   2.1638  1.0000</r>
       <r>   2.5182  1.0000</r>
       <r>   2.5779  1.0000</r>
       <r>   2.5819  1.0000</r>
       <r>   2.7842  1.0000</r>
       <r>   3.6859  1.0000</r>
       <r>   5.1489  0.0000</r>
       <r>   6.6581  0.0000</r>
       <r>   9.5358  0.0000</r>
       <r>  11.2437  0.0000</r>
      </set>
      <set comment="kpoint 61">
       <r>  -1.4435  1.0000</r>
       <r>  -1.4435  1.0000</r>
       <r>  -0.2548  1.0000</r>
       <r>  -0.2548  1.0000</r>
       <r>   0.5423  1.0000</r>
       <r>   0.5423  1.0000</r>
       <r>   0.7017  1.0000</r>
       <r>   0.7017  1.0000</r>
       <r>   0.9802  1.0000</r>
       <r>   0.9802  1.0000</r>
       <r>   1.0815  1.0000</r>
       <r>   1.0815  1.0000</r>
       <r>   1.5213  1.0000</r>
       <r>   1.5213  1.0000</r>
       <r>   1.6857  1.0000</r>
       <r>   1.6857  1.0000</r>
       <r>   2.3394  1.0000</r>
       <r>   2.3394  1.0000</r>
       <r>   2.5549  1.0000</r>
       <r>   2.5549  1.0000</r>
       <r>   3.1269  1.0000</r>
       <r>   3.1269  1.0000</r>
       <r>   5.8639  0.0000</r>
       <r>   5.8639  0.0000</r>
       <r>  10.2801  0.0000</r>
       <r>  10.2801  0.0000</r>
      </set>
      <set comment="kpoint 62">
       <r>  -1.5591  1.0000</r>
       <r>  -0.6869  1.0000</r>
       <r>  -0.6869  1.0000</r>
       <r>  -0.3351  1.0000</r>
       <r>   0.6292  1.0000</r>
       <r>   0.7391  1.0000</r>
       <r>   0.7391  1.0000</r>
       <r>   0.8385  1.0000</r>
       <r>   0.9368  1.0000</r>
       <r>   0.9368  1.0000</r>
       <r>   1.0649  1.0000</r>
       <r>   1.1342  1.0000</r>
       <r>   1.4252  1.0000</r>
       <r>   1.5897  1.0000</r>
       <r>   1.5897  1.0000</r>
       <r>   1.6084  1.0000</r>
       <r>   2.1868  1.0000</r>
       <r>   2.4526  1.0000</r>
       <r>   2.4526  1.0000</r>
       <r>   2.4992  1.0000</r>
       <r>   3.1013  1.0000</r>
       <r>   4.2074  1.0000</r>
       <r>   4.2074  1.0000</r>
       <r>   5.6875  0.0000</r>
       <r>  10.1712  0.0000</r>
       <r>  12.0181  0.0000</r>
      </set>
      <set comment="kpoint 63">
       <r>  -1.0939  1.0000</r>
       <r>  -1.0939  1.0000</r>
       <r>  -0.4965  1.0000</r>
       <r>  -0.4965  1.0000</r>
       <r>   0.7414  1.0000</r>
       <r>   0.7414  1.0000</r>
       <r>   0.8552  1.0000</r>
       <r>   0.8552  1.0000</r>
       <r>   1.0102  1.0000</r>
       <r>   1.0102  1.0000</r>
       <r>   1.0140  1.0000</r>
       <r>   1.0140  1.0000</r>
       <r>   1.4785  1.0000</r>
       <r>   1.4785  1.0000</r>
       <r>   1.5639  1.0000</r>
       <r>   1.5639  1.0000</r>
       <r>   2.2999  1.0000</r>
       <r>   2.2999  1.0000</r>
       <r>   2.4442  1.0000</r>
       <r>   2.4442  1.0000</r>
       <r>   3.5437  1.0000</r>
       <r>   3.5437  1.0000</r>
       <r>   4.8626  0.0000</r>
       <r>   4.8626  0.0000</r>
       <r>  11.0135  0.0000</r>
       <r>  11.0135  0.0000</r>
      </set>
      <set comment="kpoint 64">
       <r>  -0.7734  1.0000</r>
       <r>  -0.7734  1.0000</r>
       <r>  -0.7734  1.0000</r>
       <r>  -0.7734  1.0000</r>
       <r>   0.8985  1.0000</r>
       <r>   0.8985  1.0000</r>
       <r>   0.8985  1.0000</r>
       <r>   0.8985  1.0000</r>
       <r>   0.9835  1.0000</r>
       <r>   0.9835  1.0000</r>
       <r>   0.9835  1.0000</r>
       <r>   0.9835  1.0000</r>
       <r>   1.4840  1.0000</r>
       <r>   1.4840  1.0000</r>
       <r>   1.4840  1.0000</r>
       <r>   1.4840  1.0000</r>
       <r>   2.3401  1.0000</r>
       <r>   2.3401  1.0000</r>
       <r>   2.3401  1.0000</r>
       <r>   2.3401  1.0000</r>
       <r>   4.0983  1.0000</r>
       <r>   4.0983  1.0000</r>
       <r>   4.0983  1.0000</r>
       <r>   4.0983  1.0000</r>
       <r>  11.9008  0.0000</r>
       <r>  11.9008  0.0000</r>
      </set>
      <set comment="kpoint 65">
       <r>  -3.2487  1.0000</r>
       <r>  -0.3848  1.0000</r>
       <r>  -0.3848  1.0000</r>
       <r>  -0.3848  1.0000</r>
       <r>   0.2236  1.0000</r>
       <r>   0.2236  1.0000</r>
       <r>   0.2236  1.0000</r>
       <r>   0.8804  1.0000</r>
       <r>   1.1909  1.0000</r>
       <r>   1.1909  1.0000</r>
       <r>   1.1909  1.0000</r>
       <r>   1.3421  1.0000</r>
       <r>   1.3421  1.0000</r>
       <r>   1.8828  1.0000</r>
       <r>   1.8828  1.0000</r>
       <r>   1.8828  1.0000</r>
       <r>   2.1848  1.0000</r>
       <r>   2.1848  1.0000</r>
       <r>   2.7719  1.0000</r>
       <r>   2.7719  1.0000</r>
       <r>   2.7719  1.0000</r>
       <r>   5.4561  0.0000</r>
       <r>   5.4561  0.0000</r>
       <r>   5.4561  0.0000</r>
       <r>  11.5807  0.0000</r>
       <r>  11.5807  0.0000</r>
      </set>
      <set comment="kpoint 66">
       <r>  -2.7547  1.0000</r>
       <r>  -0.6262  1.0000</r>
       <r>  -0.3137  1.0000</r>
       <r>  -0.3137  1.0000</r>
       <r>   0.3640  1.0000</r>
       <r>   0.3640  1.0000</r>
       <r>   0.3966  1.0000</r>
       <r>   0.8704  1.0000</r>
       <r>   1.0988  1.0000</r>
       <r>   1.1056  1.0000</r>
       <r>   1.1056  1.0000</r>
       <r>   1.3125  1.0000</r>
       <r>   1.3437  1.0000</r>
       <r>   1.7218  1.0000</r>
       <r>   1.7755  1.0000</r>
       <r>   1.7755  1.0000</r>
       <r>   2.2106  1.0000</r>
       <r>   2.3403  1.0000</r>
       <r>   2.7350  1.0000</r>
       <r>   2.7350  1.0000</r>
       <r>   2.7592  1.0000</r>
       <r>   4.3079  1.0000</r>
       <r>   5.9294  0.0000</r>
       <r>   5.9294  0.0000</r>
       <r>  10.3714  0.0000</r>
       <r>  10.3714  0.0000</r>
      </set>
      <set comment="kpoint 67">
       <r>  -2.1777  1.0000</r>
       <r>  -1.0345  1.0000</r>
       <r>  -0.2659  1.0000</r>
       <r>  -0.2659  1.0000</r>
       <r>   0.4658  1.0000</r>
       <r>   0.4658  1.0000</r>
       <r>   0.5780  1.0000</r>
       <r>   0.8228  1.0000</r>
       <r>   1.0752  1.0000</r>
       <r>   1.0752  1.0000</r>
       <r>   1.0795  1.0000</r>
       <r>   1.2375  1.0000</r>
       <r>   1.3839  1.0000</r>
       <r>   1.5782  1.0000</r>
       <r>   1.6999  1.0000</r>
       <r>   1.6999  1.0000</r>
       <r>   2.3889  1.0000</r>
       <r>   2.4864  1.0000</r>
       <r>   2.6860  1.0000</r>
       <r>   2.6860  1.0000</r>
       <r>   2.7044  1.0000</r>
       <r>   3.4112  1.0000</r>
       <r>   6.3944  0.0000</r>
       <r>   6.3944  0.0000</r>
       <r>   9.4619  0.0000</r>
       <r>   9.4619  0.0000</r>
      </set>
      <set comment="kpoint 68">
       <r>  -1.5776  1.0000</r>
       <r>  -1.5776  1.0000</r>
       <r>  -0.2486  1.0000</r>
       <r>  -0.2486  1.0000</r>
       <r>   0.4956  1.0000</r>
       <r>   0.4956  1.0000</r>
       <r>   0.7274  1.0000</r>
       <r>   0.7274  1.0000</r>
       <r>   1.0828  1.0000</r>
       <r>   1.0828  1.0000</r>
       <r>   1.1386  1.0000</r>
       <r>   1.1386  1.0000</r>
       <r>   1.4632  1.0000</r>
       <r>   1.4632  1.0000</r>
       <r>   1.6671  1.0000</r>
       <r>   1.6671  1.0000</r>
       <r>   2.6110  1.0000</r>
       <r>   2.6110  1.0000</r>
       <r>   2.6638  1.0000</r>
       <r>   2.6638  1.0000</r>
       <r>   2.7784  1.0000</r>
       <r>   2.7784  1.0000</r>
       <r>   6.6244  0.0000</r>
       <r>   6.6244  0.0000</r>
       <r>   9.0829  0.0000</r>
       <r>   9.0829  0.0000</r>
      </set>
      <set comment="kpoint 69">
       <r>  -2.3207  1.0000</r>
       <r>  -0.5632  1.0000</r>
       <r>  -0.5632  1.0000</r>
       <r>  -0.3618  1.0000</r>
       <r>   0.5076  1.0000</r>
       <r>   0.5618  1.0000</r>
       <r>   0.5618  1.0000</r>
       <r>   0.9498  1.0000</r>
       <r>   1.0926  1.0000</r>
       <r>   1.0926  1.0000</r>
       <r>   1.1713  1.0000</r>
       <r>   1.2828  1.0000</r>
       <r>   1.3096  1.0000</r>
       <r>   1.6225  1.0000</r>
       <r>   1.6225  1.0000</r>
       <r>   1.6414  1.0000</r>
       <r>   2.2567  1.0000</r>
       <r>   2.4689  1.0000</r>
       <r>   2.7139  1.0000</r>
       <r>   2.7319  1.0000</r>
       <r>   2.7319  1.0000</r>
       <r>   4.7093  0.0000</r>
       <r>   4.7093  0.0000</r>
       <r>   6.1524  0.0000</r>
       <r>   9.3665  0.0000</r>
       <r>  10.9873  0.0000</r>
      </set>
      <set comment="kpoint 70">
       <r>  -1.8320  1.0000</r>
       <r>  -0.9099  1.0000</r>
       <r>  -0.5117  1.0000</r>
       <r>  -0.4145  1.0000</r>
       <r>   0.6225  1.0000</r>
       <r>   0.6668  1.0000</r>
       <r>   0.7742  1.0000</r>
       <r>   0.9984  1.0000</r>
       <r>   1.0977  1.0000</r>
       <r>   1.1513  1.0000</r>
       <r>   1.2100  1.0000</r>
       <r>   1.2275  1.0000</r>
       <r>   1.3241  1.0000</r>
       <r>   1.4889  1.0000</r>
       <r>   1.5561  1.0000</r>
       <r>   1.5582  1.0000</r>
       <r>   2.3648  1.0000</r>
       <r>   2.6688  1.0000</r>
       <r>   2.6751  1.0000</r>
       <r>   2.6756  1.0000</r>
       <r>   2.6794  1.0000</r>
       <r>   3.7284  1.0000</r>
       <r>   5.1973  0.0000</r>
       <r>   6.1134  0.0000</r>
       <r>   8.9490  0.0000</r>
       <r>   9.9606  0.0000</r>
      </set>
      <set comment="kpoint 71">
       <r>  -1.3438  1.0000</r>
       <r>  -1.3438  1.0000</r>
       <r>  -0.4642  1.0000</r>
       <r>  -0.4642  1.0000</r>
       <r>   0.6781  1.0000</r>
       <r>   0.6781  1.0000</r>
       <r>   0.9494  1.0000</r>
       <r>   0.9494  1.0000</r>
       <r>   1.1264  1.0000</r>
       <r>   1.1264  1.0000</r>
       <r>   1.2304  1.0000</r>
       <r>   1.2304  1.0000</r>
       <r>   1.3866  1.0000</r>
       <r>   1.3866  1.0000</r>
       <r>   1.5264  1.0000</r>
       <r>   1.5264  1.0000</r>
       <r>   2.5492  1.0000</r>
       <r>   2.5492  1.0000</r>
       <r>   2.6462  1.0000</r>
       <r>   2.6462  1.0000</r>
       <r>   3.0473  1.0000</r>
       <r>   3.0473  1.0000</r>
       <r>   5.7195  0.0000</r>
       <r>   5.7195  0.0000</r>
       <r>   9.2227  0.0000</r>
       <r>   9.2227  0.0000</r>
      </set>
      <set comment="kpoint 72">
       <r>  -1.4633  1.0000</r>
       <r>  -0.7924  1.0000</r>
       <r>  -0.7924  1.0000</r>
       <r>  -0.5523  1.0000</r>
       <r>   0.7635  1.0000</r>
       <r>   0.8744  1.0000</r>
       <r>   0.8744  1.0000</r>
       <r>   1.1617  1.0000</r>
       <r>   1.1711  1.0000</r>
       <r>   1.2104  1.0000</r>
       <r>   1.2104  1.0000</r>
       <r>   1.2975  1.0000</r>
       <r>   1.3365  1.0000</r>
       <r>   1.4377  1.0000</r>
       <r>   1.4377  1.0000</r>
       <r>   1.4541  1.0000</r>
       <r>   2.3682  1.0000</r>
       <r>   2.6062  1.0000</r>
       <r>   2.6062  1.0000</r>
       <r>   2.6170  1.0000</r>
       <r>   2.9754  1.0000</r>
       <r>   4.1792  1.0000</r>
       <r>   4.1792  1.0000</r>
       <r>   5.4672  0.0000</r>
       <r>   9.1489  0.0000</r>
       <r>  10.6615  0.0000</r>
      </set>
      <set comment="kpoint 73">
       <r>  -1.1103  1.0000</r>
       <r>  -1.1103  1.0000</r>
       <r>  -0.6764  1.0000</r>
       <r>  -0.6764  1.0000</r>
       <r>   0.8531  1.0000</r>
       <r>   0.8531  1.0000</r>
       <r>   1.0505  1.0000</r>
       <r>   1.0505  1.0000</r>
       <r>   1.2336  1.0000</r>
       <r>   1.2336  1.0000</r>
       <r>   1.3376  1.0000</r>
       <r>   1.3376  1.0000</r>
       <r>   1.3461  1.0000</r>
       <r>   1.3461  1.0000</r>
       <r>   1.4178  1.0000</r>
       <r>   1.4178  1.0000</r>
       <r>   2.4794  1.0000</r>
       <r>   2.4794  1.0000</r>
       <r>   2.5791  1.0000</r>
       <r>   2.5791  1.0000</r>
       <r>   3.4363  1.0000</r>
       <r>   3.4363  1.0000</r>
       <r>   4.7666  0.0000</r>
       <r>   4.7666  0.0000</r>
       <r>   9.7753  0.0000</r>
       <r>   9.7753  0.0000</r>
      </set>
      <set comment="kpoint 74">
       <r>  -0.8891  1.0000</r>
       <r>  -0.8891  1.0000</r>
       <r>  -0.8891  1.0000</r>
       <r>  -0.8891  1.0000</r>
       <r>   0.9848  1.0000</r>
       <r>   0.9848  1.0000</r>
       <r>   0.9848  1.0000</r>
       <r>   0.9848  1.0000</r>
       <r>   1.3394  1.0000</r>
       <r>   1.3394  1.0000</r>
       <r>   1.3394  1.0000</r>
       <r>   1.3394  1.0000</r>
       <r>   1.3738  1.0000</r>
       <r>   1.3738  1.0000</r>
       <r>   1.3738  1.0000</r>
       <r>   1.3738  1.0000</r>
       <r>   2.4958  1.0000</r>
       <r>   2.4958  1.0000</r>
       <r>   2.4958  1.0000</r>
       <r>   2.4958  1.0000</r>
       <r>   3.9901  1.0000</r>
       <r>   3.9901  1.0000</r>
       <r>   3.9901  1.0000</r>
       <r>   3.9901  1.0000</r>
       <r>  10.5586  0.0000</r>
       <r>  10.5586  0.0000</r>
      </set>
      <set comment="kpoint 75">
       <r>  -1.9720  1.0000</r>
       <r>  -0.6125  1.0000</r>
       <r>  -0.6125  1.0000</r>
       <r>  -0.6125  1.0000</r>
       <r>   0.7092  1.0000</r>
       <r>   0.7092  1.0000</r>
       <r>   0.7092  1.0000</r>
       <r>   1.1544  1.0000</r>
       <r>   1.2487  1.0000</r>
       <r>   1.2487  1.0000</r>
       <r>   1.2487  1.0000</r>
       <r>   1.2578  1.0000</r>
       <r>   1.2578  1.0000</r>
       <r>   1.4932  1.0000</r>
       <r>   1.4932  1.0000</r>
       <r>   1.4932  1.0000</r>
       <r>   2.4255  1.0000</r>
       <r>   2.4255  1.0000</r>
       <r>   2.7485  1.0000</r>
       <r>   2.7485  1.0000</r>
       <r>   2.7485  1.0000</r>
       <r>   4.9333  0.0000</r>
       <r>   4.9333  0.0000</r>
       <r>   4.9333  0.0000</r>
       <r>   9.8530  0.0000</r>
       <r>   9.8530  0.0000</r>
      </set>
      <set comment="kpoint 76">
       <r>  -1.5969  1.0000</r>
       <r>  -0.9036  1.0000</r>
       <r>  -0.6485  1.0000</r>
       <r>  -0.6485  1.0000</r>
       <r>   0.8014  1.0000</r>
       <r>   0.8014  1.0000</r>
       <r>   0.9157  1.0000</r>
       <r>   1.1995  1.0000</r>
       <r>   1.2511  1.0000</r>
       <r>   1.3221  1.0000</r>
       <r>   1.3330  1.0000</r>
       <r>   1.3729  1.0000</r>
       <r>   1.3930  1.0000</r>
       <r>   1.3930  1.0000</r>
       <r>   1.4317  1.0000</r>
       <r>   1.4317  1.0000</r>
       <r>   2.5578  1.0000</r>
       <r>   2.5679  1.0000</r>
       <r>   2.7151  1.0000</r>
       <r>   2.7151  1.0000</r>
       <r>   2.7354  1.0000</r>
       <r>   3.8649  1.0000</r>
       <r>   5.1502  0.0000</r>
       <r>   5.1502  0.0000</r>
       <r>   9.0712  0.0000</r>
       <r>   9.0712  0.0000</r>
      </set>
      <set comment="kpoint 77">
       <r>  -1.2336  1.0000</r>
       <r>  -1.2336  1.0000</r>
       <r>  -0.6615  1.0000</r>
       <r>  -0.6615  1.0000</r>
       <r>   0.8302  1.0000</r>
       <r>   0.8302  1.0000</r>
       <r>   1.0879  1.0000</r>
       <r>   1.0879  1.0000</r>
       <r>   1.2903  1.0000</r>
       <r>   1.2903  1.0000</r>
       <r>   1.3730  1.0000</r>
       <r>   1.3730  1.0000</r>
       <r>   1.3868  1.0000</r>
       <r>   1.3868  1.0000</r>
       <r>   1.4861  1.0000</r>
       <r>   1.4861  1.0000</r>
       <r>   2.6738  1.0000</r>
       <r>   2.6738  1.0000</r>
       <r>   2.6907  1.0000</r>
       <r>   2.6907  1.0000</r>
       <r>   3.0422  1.0000</r>
       <r>   3.0422  1.0000</r>
       <r>   5.2475  0.0000</r>
       <r>   5.2475  0.0000</r>
       <r>   8.7818  0.0000</r>
       <r>   8.7818  0.0000</r>
      </set>
      <set comment="kpoint 78">
       <r>  -1.3544  1.0000</r>
       <r>  -0.8825  1.0000</r>
       <r>  -0.8825  1.0000</r>
       <r>  -0.7585  1.0000</r>
       <r>   0.9074  1.0000</r>
       <r>   0.9688  1.0000</r>
       <r>   0.9688  1.0000</r>
       <r>   1.1777  1.0000</r>
       <r>   1.2095  1.0000</r>
       <r>   1.3022  1.0000</r>
       <r>   1.3022  1.0000</r>
       <r>   1.3219  1.0000</r>
       <r>   1.5916  1.0000</r>
       <r>   1.5916  1.0000</r>
       <r>   1.6314  1.0000</r>
       <r>   1.6641  1.0000</r>
       <r>   2.5240  1.0000</r>
       <r>   2.6988  1.0000</r>
       <r>   2.7065  1.0000</r>
       <r>   2.7065  1.0000</r>
       <r>   2.8011  1.0000</r>
       <r>   4.1328  1.0000</r>
       <r>   4.1328  1.0000</r>
       <r>   4.9075  0.0000</r>
       <r>   8.7296  0.0000</r>
       <r>   9.5869  0.0000</r>
      </set>
      <set comment="kpoint 79">
       <r>  -1.1164  1.0000</r>
       <r>  -1.1164  1.0000</r>
       <r>  -0.8362  1.0000</r>
       <r>  -0.8362  1.0000</r>
       <r>   0.9651  1.0000</r>
       <r>   0.9651  1.0000</r>
       <r>   1.0976  1.0000</r>
       <r>   1.0976  1.0000</r>
       <r>   1.2323  1.0000</r>
       <r>   1.2323  1.0000</r>
       <r>   1.2830  1.0000</r>
       <r>   1.2830  1.0000</r>
       <r>   1.7227  1.0000</r>
       <r>   1.7227  1.0000</r>
       <r>   1.7278  1.0000</r>
       <r>   1.7278  1.0000</r>
       <r>   2.6302  1.0000</r>
       <r>   2.6302  1.0000</r>
       <r>   2.6755  1.0000</r>
       <r>   2.6755  1.0000</r>
       <r>   3.2916  1.0000</r>
       <r>   3.2916  1.0000</r>
       <r>   4.5139  0.3124</r>
       <r>   4.5139  0.3124</r>
       <r>   8.9451  0.0000</r>
       <r>   8.9451  0.0000</r>
      </set>
      <set comment="kpoint 80">
       <r>  -0.9865  1.0000</r>
       <r>  -0.9865  1.0000</r>
       <r>  -0.9865  1.0000</r>
       <r>  -0.9865  1.0000</r>
       <r>   1.0598  1.0000</r>
       <r>   1.0598  1.0000</r>
       <r>   1.0598  1.0000</r>
       <r>   1.0598  1.0000</r>
       <r>   1.2264  1.0000</r>
       <r>   1.2264  1.0000</r>
       <r>   1.2264  1.0000</r>
       <r>   1.2264  1.0000</r>
       <r>   1.8605  1.0000</r>
       <r>   1.8605  1.0000</r>
       <r>   1.8605  1.0000</r>
       <r>   1.8605  1.0000</r>
       <r>   2.6199  1.0000</r>
       <r>   2.6199  1.0000</r>
       <r>   2.6199  1.0000</r>
       <r>   2.6199  1.0000</r>
       <r>   3.7967  1.0000</r>
       <r>   3.7967  1.0000</r>
       <r>   3.7967  1.0000</r>
       <r>   3.7967  1.0000</r>
       <r>   9.5061  0.0000</r>
       <r>   9.5061  0.0000</r>
      </set>
      <set comment="kpoint 81">
       <r>  -1.2349  1.0000</r>
       <r>  -0.9419  1.0000</r>
       <r>  -0.9419  1.0000</r>
       <r>  -0.9419  1.0000</r>
       <r>   1.0318  1.0000</r>
       <r>   1.0318  1.0000</r>
       <r>   1.0318  1.0000</r>
       <r>   1.1669  1.0000</r>
       <r>   1.1669  1.0000</r>
       <r>   1.2254  1.0000</r>
       <r>   1.2254  1.0000</r>
       <r>   1.2254  1.0000</r>
       <r>   1.9368  1.0000</r>
       <r>   1.9368  1.0000</r>
       <r>   1.9368  1.0000</r>
       <r>   2.2567  1.0000</r>
       <r>   2.6420  1.0000</r>
       <r>   2.6420  1.0000</r>
       <r>   2.7325  1.0000</r>
       <r>   2.7325  1.0000</r>
       <r>   2.7325  1.0000</r>
       <r>   4.0782  1.0000</r>
       <r>   4.0782  1.0000</r>
       <r>   4.0782  1.0000</r>
       <r>   8.8827  0.0000</r>
       <r>   8.8827  0.0000</r>
      </set>
      <set comment="kpoint 82">
       <r>  -1.0996  1.0000</r>
       <r>  -1.0996  1.0000</r>
       <r>  -0.9625  1.0000</r>
       <r>  -0.9625  1.0000</r>
       <r>   1.0557  1.0000</r>
       <r>   1.0557  1.0000</r>
       <r>   1.1197  1.0000</r>
       <r>   1.1197  1.0000</r>
       <r>   1.1724  1.0000</r>
       <r>   1.1724  1.0000</r>
       <r>   1.1964  1.0000</r>
       <r>   1.1964  1.0000</r>
       <r>   2.0993  1.0000</r>
       <r>   2.0993  1.0000</r>
       <r>   2.2258  1.0000</r>
       <r>   2.2258  1.0000</r>
       <r>   2.7133  1.0000</r>
       <r>   2.7133  1.0000</r>
       <r>   2.7170  1.0000</r>
       <r>   2.7170  1.0000</r>
       <r>   3.2044  1.0000</r>
       <r>   3.2044  1.0000</r>
       <r>   4.0512  1.0000</r>
       <r>   4.0512  1.0000</r>
       <r>   8.6352  0.0000</r>
       <r>   8.6352  0.0000</r>
      </set>
      <set comment="kpoint 83">
       <r>  -1.0501  1.0000</r>
       <r>  -1.0501  1.0000</r>
       <r>  -1.0501  1.0000</r>
       <r>  -1.0501  1.0000</r>
       <r>   1.1120  1.0000</r>
       <r>   1.1120  1.0000</r>
       <r>   1.1120  1.0000</r>
       <r>   1.1120  1.0000</r>
       <r>   1.1550  1.0000</r>
       <r>   1.1550  1.0000</r>
       <r>   1.1550  1.0000</r>
       <r>   1.1550  1.0000</r>
       <r>   2.3815  1.0000</r>
       <r>   2.3815  1.0000</r>
       <r>   2.3815  1.0000</r>
       <r>   2.3815  1.0000</r>
       <r>   2.6994  1.0000</r>
       <r>   2.6994  1.0000</r>
       <r>   2.6994  1.0000</r>
       <r>   2.6994  1.0000</r>
       <r>   3.4974  1.0000</r>
       <r>   3.4974  1.0000</r>
       <r>   3.4974  1.0000</r>
       <r>   3.4974  1.0000</r>
       <r>   8.8271  0.0000</r>
       <r>   8.8271  0.0000</r>
      </set>
      <set comment="kpoint 84">
       <r>  -1.0721  1.0000</r>
       <r>  -1.0721  1.0000</r>
       <r>  -1.0721  1.0000</r>
       <r>  -1.0721  1.0000</r>
       <r>   1.1306  1.0000</r>
       <r>   1.1306  1.0000</r>
       <r>   1.1306  1.0000</r>
       <r>   1.1306  1.0000</r>
       <r>   1.1306  1.0000</r>
       <r>   1.1306  1.0000</r>
       <r>   1.1306  1.0000</r>
       <r>   1.1306  1.0000</r>
       <r>   2.7267  1.0000</r>
       <r>   2.7267  1.0000</r>
       <r>   2.7267  1.0000</r>
       <r>   2.7267  1.0000</r>
       <r>   2.7267  1.0000</r>
       <r>   2.7267  1.0000</r>
       <r>   2.7267  1.0000</r>
       <r>   2.7267  1.0000</r>
       <r>   3.2346  1.0000</r>
       <r>   3.2346  1.0000</r>
       <r>   3.2346  1.0000</r>
       <r>   3.2346  1.0000</r>
       <r>   8.5918  0.0000</r>
       <r>   8.5918  0.0000</r>
      </set>
     </set>
    </set>
   </array>
  </eigenvalues>
 </calculation>
 <structure name="finalpos" >
  <crystal>
   <varray name="basis" >
    <v>       3.52732334      0.00000000      0.00000000</v>
    <v>       0.00000000      3.52732334      0.00000000</v>
    <v>       0.00000000      0.00000000      3.52732334</v>
   </varray>
   <i name="volume">     43.88699198</i>
   <varray name="rec_basis" >
    <v>       0.28350109      0.00000000      0.00000000</v>
    <v>       0.00000000      0.28350109      0.00000000</v>
    <v>       0.00000000      0.00000000      0.28350109</v>
   </varray>
  </crystal>
  <varray name="positions" >
   <v>       0.00000000      0.00000000      0.00000000</v>
   <v>       0.50000000      0.50000000      0.00000000</v>
   <v>       0.50000000      0.00000000      0.50000000</v>
   <v>       0.00000000      0.50000000      0.50000000</v>
  </varray>
 </structure>
</modeling>
