       N       E                     dE             d eps       ncg     rms          rms(c)
DAV:   1     0.326396021388E+04    0.32640E+04   -0.14511E+05 43208   0.245E+03
DAV:   2     0.314353561193E+03   -0.29496E+04   -0.28285E+04 43200   0.545E+02
DAV:   3    -0.122794713462E+03   -0.43715E+03   -0.39511E+03 43200   0.214E+02
DAV:   4    -0.146510628681E+03   -0.23716E+02   -0.23208E+02 45928   0.603E+01
DAV:   5    -0.146700333175E+03   -0.18970E+00   -0.18940E+00 46120   0.563E+00    0.394E+01
DAV:   6    -0.129225259430E+03    0.17475E+02   -0.26424E+02 46472   0.927E+01    0.178E+01
DAV:   7    -0.119372159439E+03    0.98531E+01   -0.45779E+01 48232   0.390E+01    0.292E+00
DAV:   8    -0.119123862291E+03    0.24830E+00   -0.60426E-01 44896   0.269E+00    0.209E+00
DAV:   9    -0.119037789504E+03    0.86073E-01   -0.22661E-01 46984   0.271E+00    0.109E-01
DAV:  10    -0.119038707306E+03   -0.91780E-03   -0.88701E-03 48016   0.596E-01    0.121E-01
DAV:  11    -0.119038609462E+03    0.97845E-04   -0.10549E-03 45640   0.252E-01    0.234E-02
DAV:  12    -0.119038610122E+03   -0.66045E-06   -0.20600E-04 47296   0.114E-01    0.180E-02
DAV:  13    -0.119038609287E+03    0.83471E-06   -0.64020E-05 45664   0.831E-02    0.860E-03
DAV:  14    -0.119038613089E+03   -0.38013E-05   -0.34642E-06 45104   0.117E-02    0.472E-03
DAV:  15    -0.119038613848E+03   -0.75892E-06   -0.72534E-07 46808   0.772E-03    0.345E-03
DAV:  16    -0.119038615085E+03   -0.12375E-05   -0.56744E-07 48616   0.623E-03    0.140E-03
DAV:  17    -0.119038618868E+03   -0.37833E-05   -0.18130E-07 46608   0.279E-03    0.558E-04
DAV:  18    -0.119038619621E+03   -0.75240E-06   -0.47090E-08 41608   0.248E-03    0.295E-04
DAV:  19    -0.119038620909E+03   -0.12884E-05   -0.71736E-09 24024   0.725E-04    0.113E-04
DAV:  20    -0.119038620998E+03   -0.88257E-07   -0.19882E-09 24024   0.544E-04    0.139E-04
DAV:  21    -0.119038621006E+03   -0.84838E-08   -0.92354E-11 24024   0.373E-04
   1 F= -.11903862E+03 E0= -.11903810E+03  d E =-.119039E+03
       N       E                     dE             d eps       ncg     rms          rms(c)
DAV:   1    -0.119038645181E+03   -0.11904E+03   -0.22377E-04 44856   0.791E-02    0.353E-02
DAV:   2    -0.119038625621E+03    0.19560E-04   -0.15363E-04 45936   0.714E-02    0.119E-02
DAV:   3    -0.119038621242E+03    0.43794E-05   -0.27420E-05 45496   0.307E-02    0.602E-03
DAV:   4    -0.119038620052E+03    0.11894E-05   -0.19648E-07 57072   0.327E-03    0.367E-04
DAV:   5    -0.119038620144E+03   -0.91488E-07   -0.42681E-08 38960   0.253E-03    0.268E-04
DAV:   6    -0.119038620243E+03   -0.98662E-07   -0.12826E-08 23944   0.130E-03    0.128E-04
DAV:   7    -0.119038620375E+03   -0.13291E-06   -0.30573E-09 23632   0.484E-04    0.946E-05
DAV:   8    -0.119038620441E+03   -0.65964E-07   -0.37728E-10 23536   0.393E-04    0.454E-05
DAV:   9    -0.119038620433E+03    0.85201E-08    0.69426E-10 23424   0.126E-04
   2 F= -.11903862E+03 E0= -.11903810E+03  d E =0.573069E-06
       N       E                     dE             d eps       ncg     rms          rms(c)
DAV:   1    -0.119038624353E+03   -0.11904E+03   -0.52547E-05 44712   0.383E-02    0.171E-02
DAV:   2    -0.119038623141E+03    0.12123E-05   -0.35929E-05 45848   0.345E-02    0.580E-03
DAV:   3    -0.119038620996E+03    0.21456E-05   -0.63857E-06 45344   0.148E-02    0.287E-03
DAV:   4    -0.119038621028E+03   -0.32880E-07   -0.40234E-08 36720   0.190E-03    0.239E-04
DAV:   5    -0.119038620999E+03    0.29722E-07   -0.15573E-08 27016   0.158E-03    0.131E-04
DAV:   6    -0.119038620940E+03    0.58673E-07   -0.56089E-09 23000   0.611E-04    0.124E-04
DAV:   7    -0.119038620901E+03    0.39130E-07   -0.10893E-09 22984   0.302E-04    0.107E-04
DAV:   8    -0.119038620838E+03    0.63163E-07    0.33262E-10 22960   0.224E-04    0.566E-05
DAV:   9    -0.119038620839E+03   -0.15207E-08    0.83956E-10 22968   0.102E-04
   3 F= -.11903862E+03 E0= -.11903810E+03  d E =0.166780E-06
