       N       E                     dE             d eps       ncg     rms          rms(c)
DAV:   1    -0.102419698246E+03   -0.10242E+03   -0.35328E+00   432   0.417E+00    0.101E+00
DAV:   2    -0.102343186093E+03    0.76512E-01   -0.32293E-01   512   0.324E+00    0.526E-01
DAV:   3    -0.102336957451E+03    0.62286E-02   -0.38903E-02   508   0.121E+00    0.257E-01
DAV:   4    -0.102336897993E+03    0.59457E-04   -0.86393E-03   444   0.268E-01    0.129E-01
DAV:   5    -0.102336878052E+03    0.19941E-04   -0.50968E-04   464   0.102E-01    0.610E-02
DAV:   6    -0.102336896317E+03   -0.18265E-04   -0.15491E-04   436   0.400E-02    0.104E-02
DAV:   7    -0.102336891567E+03    0.47502E-05   -0.31987E-05   336   0.182E-02
   1 F= -.10233689E+03 E0= -.10228696E+03  d E =-.149808E+00
