 vasp.4.6.28 25Jul05 complex 
 executed on             LinuxIFC date 2016.05.23  15:11:34
 running on    4 nodes
 distr:  one band on    1 nodes,    4 groups


--------------------------------------------------------------------------------------------------------


 INCAR:
 POTCAR:   PAW_PBE Au 06Sep2000                   
 POTCAR:   PAW_PBE Au 06Sep2000                   
   VRHFIN =Au: s1d10                                                            
   LEXCH  = PE                                                                  
   EATOM  =   926.0567 eV,   68.0632 Ry                                         
                                                                                
   TITEL  = PAW_PBE Au 06Sep2000                                                
   LULTRA =        F    use ultrasoft PP ?                                      
   IUNSCR =        1    unscreen: 0-lin 1-nonlin 2-no                           
   RPACOR =    2.330    partial core radius                                     
   POMASS =  196.966; ZVAL   =   11.000    mass and valenz                      
   RCORE  =    2.500    outmost cutoff radius                                   
   RWIGS  =    2.840; RWIGS  =    1.503    wigner-seitz radius (au A)           
   ENMAX  =  229.948; ENMIN  =  172.461 eV                                      
   RCLOC  =    1.964    cutoff for local pot                                    
   LCOR   =        T    correct aug charges                                     
   LPAW   =        T    paw PP                                                  
   EAUG   =  356.670                                                            
   DEXC   =    -.025                                                            
   RMAX   =    3.041    core radius for proj-oper                               
   RAUG   =    1.300    factor for augmentation sphere                          
   RDEP   =    2.598    radius for radial grids                                 
   QCUT   =   -4.111; QGAM   =    8.222    optimization parameters              
                                                                                
   Description                                                                  
     l     E      TYP  RCUT    TYP  RCUT                                        
     2   .000     23  2.500                                                     
     2   .000     23  2.500                                                     
     0   .000     23  2.500                                                     
     0   .000     23  2.500                                                     
     1  -.200     23  2.500                                                     
     1   .000     23  2.500                                                     
     3   .000      7   .000                                                     
  local pseudopotential read in
  partial core-charges read in
  atomic valenz-charges read in
  non local Contribution for L=           2  read in
    real space projection operators read in
  non local Contribution for L=           2  read in
    real space projection operators read in
  non local Contribution for L=           0  read in
    real space projection operators read in
  non local Contribution for L=           0  read in
    real space projection operators read in
  non local Contribution for L=           1  read in
    real space projection operators read in
  non local Contribution for L=           1  read in
    real space projection operators read in
    PAW grid and wavefunctions read in
 
   number of l-projection  operators is LMAX  =           6
   number of lm-projection operators is LMMAX =          18
 

 ----------------------------------------------------------------------------- 
|                                                                             |
|  ADVICE TO THIS USER RUNNING 'VASP/VAMP'   (HEAR YOUR MASTER'S VOICE ...):  |
|                                                                             |
|      You have a (more or less) 'large supercell' and for larger cells       |
|      it might be more efficient to use real space projection operators      |
|      So try LREAL= Auto  in the INCAR   file.                               |
|      Mind: If you want to do an extremely accurate calculations keep the    |
|      reciprocal projection scheme          (i.e. LREAL=.FALSE.)             |
|                                                                             |
 ----------------------------------------------------------------------------- 

 PAW_PBE Au 06Sep2000                   :
 energy of atom  1       EATOM= -926.0567
 kinetic energy error for atom=    0.0708 (will be added to EATOM!!)
 
 EXHCAR: internal setup
 exchange correlation table for  LEXCH =        8
   RHO(1)=    0.500       N(1)  =     2000
   RHO(2)=  100.500       N(2)  =     4000
 
 POSCAR: No title                                
  positions in direct lattice
  No initial velocities read in
 


--------------------------------------------------------------------------------------------------------


 ion  position               nearest neighbor table
   1  0.750  0.750  0.500-   3 2.92   5 2.92  14 2.92  19 2.92  20 2.92  26 2.92  11 2.92   6 2.92
                            18 2.92  29 2.92  10 2.92   8 2.92
   2  0.750  0.750  0.000-   8 2.92  10 2.92  11 2.92  18 2.92  22 2.92  27 2.92  26 2.92   5 2.92
                            32 2.92   3 2.92  20 2.92  12 2.93
   3  0.750  0.000  0.250-   1 2.92   5 2.92   9 2.92  19 2.92  28 2.92  18 2.92   6 2.92  27 2.92
                            13 2.92   2 2.92   4 2.92  12 2.93
   4  0.750  0.250  0.500-   6 2.92   8 2.92  10 2.92  13 2.92  29 2.92  31 2.92  21 2.92  28 2.92
                            14 2.92  19 2.92   3 2.92  20 2.92
   5  0.000  0.750  0.250-   1 2.92   3 2.92  14 2.92  15 2.92  25 2.92   2 2.92   7 2.92  16 2.92
                            10 2.92  22 2.92   6 2.92  12 2.92
   6  0.000  0.000  0.500-   4 2.92   7 2.92   8 2.92  11 2.92  13 2.92  16 2.92   1 2.92   3 2.92
                            17 2.92  23 2.92  21 2.92   5 2.92
   7  0.250  0.750  0.500-   6 2.92  11 2.92  16 2.92  18 2.92  29 2.92  30 2.92  19 2.92  26 2.92
                             5 2.92  14 2.92  25 2.92  23 2.92
   8  0.750  0.000  0.750-   2 2.92   4 2.92   6 2.92  11 2.92  27 2.92  31 2.92  26 2.92  19 2.92
                            21 2.92   1 2.92   9 2.92  12 2.93
   9  0.750  0.250  0.000-   3 2.92  20 2.92  21 2.92  28 2.92  32 2.92  27 2.92  13 2.92  31 2.92
                            22 2.92   8 2.92  10 2.92  12 2.93
  10  0.750  0.500  0.250-   2 2.92   4 2.92  13 2.92  18 2.92  22 2.92  29 2.92  14 2.92  28 2.92
                             5 2.92  32 2.92   9 2.92   1 2.92
  11  0.000  0.750  0.750-   2 2.92   6 2.92   7 2.92   8 2.92  22 2.92  30 2.92  20 2.92   1 2.92
                            23 2.92  15 2.92  14 2.92  12 2.92
  12  0.002  0.000  0.000-  15 2.90  23 2.90  24 2.90  16 2.90   5 2.92  21 2.92  13 2.92  11 2.92
                             9 2.93   3 2.93   2 2.93   8 2.93
  13  0.000  0.250  0.250-   4 2.92   6 2.92  10 2.92  16 2.92  22 2.92  24 2.92  17 2.92   3 2.92
                             9 2.92  25 2.92  14 2.92  12 2.92
  14  0.000  0.500  0.500-   1 2.92   5 2.92  17 2.92  20 2.92  21 2.92  25 2.92   7 2.92  10 2.92
                             4 2.92  30 2.92  13 2.92  11 2.92
  15  0.250  0.750  0.000-  12 2.90   5 2.92  23 2.92  25 2.92  26 2.92  32 2.92  18 2.92  22 2.92
                            27 2.92  11 2.92  30 2.92  16 2.92
  16  0.250  0.000  0.250-  12 2.90   7 2.92   6 2.92  13 2.92  18 2.92  24 2.92  27 2.92   5 2.92
                            19 2.92  28 2.92  17 2.92  15 2.92
  17  0.250  0.250  0.500-  14 2.92  19 2.92  21 2.92  23 2.92  25 2.92  28 2.92   6 2.92  13 2.92
                            29 2.92  31 2.92  30 2.92  16 2.92
  18  0.500  0.750  0.250-   2 2.92   7 2.92  10 2.92  16 2.92  27 2.92  29 2.92   1 2.92  25 2.92
                             3 2.92  15 2.92  19 2.92  32 2.92
  19  0.500  0.000  0.500-   1 2.92   3 2.92  17 2.92  23 2.92  26 2.92  28 2.92   4 2.92   7 2.92
                             8 2.92  16 2.92  18 2.92  31 2.92
  20  0.750  0.500  0.750-   1 2.92   9 2.92  14 2.92  21 2.92  26 2.92  32 2.92  11 2.92  29 2.92
                            31 2.92  22 2.92   4 2.92   2 2.92
  21  0.000  0.250  0.750-   9 2.92  14 2.92  17 2.92  20 2.92  23 2.92   8 2.92   4 2.92  24 2.92
                            30 2.92  22 2.92   6 2.92  12 2.92
  22  0.000  0.500  0.000-   2 2.92  10 2.92  11 2.92  13 2.92  24 2.92  30 2.92  20 2.92   9 2.92
                            25 2.92  15 2.92  21 2.92   5 2.92
  23  0.250  0.000  0.750-  12 2.90  15 2.92  17 2.92  19 2.92  21 2.92  26 2.92   6 2.92  11 2.92
                            27 2.92  31 2.92  24 2.92   7 2.92
  24  0.250  0.250  0.000-  12 2.90  13 2.92  16 2.92  22 2.92  27 2.92  30 2.92  31 2.92  21 2.92
                            28 2.92  32 2.92  25 2.92  23 2.92
  25  0.250  0.500  0.250-   5 2.92  14 2.92  15 2.92  17 2.92  28 2.92  32 2.92  22 2.92  13 2.92
                            29 2.92  18 2.92  24 2.92   7 2.92
  26  0.500  0.750  0.750-   1 2.92  15 2.92  19 2.92  20 2.92  23 2.92  32 2.92   8 2.92   2 2.92
                            30 2.92   7 2.92  27 2.92  29 2.92
  27  0.500  0.000  0.000-   2 2.92   8 2.92  16 2.92  18 2.92  24 2.92  31 2.92   9 2.92  23 2.92
                            15 2.92   3 2.92  28 2.92  26 2.92
  28  0.500  0.250  0.250-   3 2.92   9 2.92  17 2.92  19 2.92  25 2.92  32 2.92  10 2.92  24 2.92
                            16 2.92   4 2.92  29 2.92  27 2.92
  29  0.500  0.500  0.500-   4 2.92   7 2.92  10 2.92  18 2.92  30 2.92  31 2.92  20 2.92  25 2.92
                            17 2.92   1 2.92  26 2.92  28 2.92
  30  0.250  0.500  0.750-   7 2.92  11 2.92  22 2.92  24 2.92  29 2.92  31 2.92  26 2.92  14 2.92
                            21 2.92  32 2.92  17 2.92  15 2.92
  31  0.500  0.250  0.750-   4 2.92   8 2.92  24 2.92  27 2.92  29 2.92  30 2.92   9 2.92  17 2.92
                            20 2.92  23 2.92  19 2.92  32 2.92
  32  0.500  0.500  0.000-   9 2.92  15 2.92  20 2.92  25 2.92  26 2.92  28 2.92   2 2.92  10 2.92
                            24 2.92  30 2.92  18 2.92  31 2.92
 
  LATTYP: Found a simple cubic cell.
 ALAT       =     8.2551944500
  
  Lattice vectors:
  
 A1 = (   8.2551944500,   0.0000000000,   0.0000000000)
 A2 = (   0.0000001500,   8.2551944500,   0.0000000000)
 A3 = (   0.0000001500,   0.0000001500,   8.2551944500)
 Subroutine PRICEL returns:
 Original cell was already a primitive cell.
 

Analysis of symmetry for initial positions (statically):

 Routine SETGRP: Setting up the symmetry group for a 
 simple cubic supercell.


 Subroutine GETGRP returns: Found  8 space group operations
 (whereof  8 operations were pure point group operations)
 out of a pool of 48 trial point group operations.


The static configuration has the point symmetry C_4v.

Analysis of symmetry for dynamics (positions and initial velocities):

 Subroutine DYNSYM returns: Found  8 space group operations
 (whereof  8 operations were pure point group operations)
 out of a pool of  8 trial space group operations
 (whereof  8 operations were pure point group operations)
 and found also     1 'primitive' translations


The dynamic configuration has the point symmetry C_4v.
 
 
 KPOINTS: Automatic mesh                          

Automatic generation of k-mesh.
 
 Subroutine IBZKPT returns following result:
 ===========================================
 
 Found      1 irreducible k-points:
 
 Following reciprocal coordinates:
            Coordinates               Weight
  0.250000  0.250000  0.250000      8.000000
 
 Following cartesian coordinates:
            Coordinates               Weight
  0.030284  0.030284  0.030284      8.000000
 


--------------------------------------------------------------------------------------------------------




 Dimension of arrays:
   k-Points           NKPTS =      1   number of bands    NBANDS=    212
   number of dos      NEDOS =    301   number of ions     NIONS =     32
   non local maximal  LDIM  =      6   non local SUM 2l+1 LMDIM =     18
   total plane-waves  NPLWV =  32768
   max r-space proj   IRMAX =      1   max aug-charges    IRDMAX=   3761
   dimension x,y,z NGX =    32 NGY =   32 NGZ =   32
   dimension x,y,z NGXF=    64 NGYF=   64 NGZF=   64
   support grid    NGXF=    64 NGYF=   64 NGZF=   64
   ions per type =              32
 NGX,Y,Z   is equivalent  to a cutoff of   6.44,  6.44,  6.44 a.u.
 NGXF,Y,Z  is equivalent  to a cutoff of  12.89, 12.89, 12.89 a.u.


 I would recommend the setting:
   dimension x,y,z NGX =    31 NGY =   31 NGZ =   31
 SYSTEM =  No title                                
 POSCAR =  No title                                

 Startparameter for this run:
   NWRITE =      2    write-flag & timer
   PREC   = normal    medium, high low
   ISTART =      1    job   : 0-new  1-cont  2-samecut
   ICHARG =      0    charge: 1-file 2-atom 10-const
   ISPIN  =      1    spin polarized calculation?
   LNONCOLLINEAR =      F non collinear calculations
   LSORBIT =      F    spin-orbit coupling
   INIWAV =      1    electr: 0-lowe 1-rand  2-diag
   LASPH  =      F    aspherical Exc in radial PAW
   METAGGA=      F    non-selfconsistent MetaGGA calc.

 Electronic Relaxation 1
   ENCUT  =  229.9 eV  16.90 Ry    4.11 a.u.  10.21 10.21 10.21*2*pi/ulx,y,z
   ENINI  =  229.9     initial cutoff
   ENAUG  =  356.7 eV  augmentation charge cutoff
   NELM   =     60;   NELMIN=  2; NELMDL=  0     # of ELM steps 
   EDIFF  = 0.1E-04   stopping-criterion for ELM
   LREAL  =      F    real-space projection
   LCOMPAT=      F    compatible to vasp.4.4
   LREAL_COMPAT= F    compatible to vasp.4.5.1-3
   GGA_COMPAT  = T    GGA compatible to vasp.4.4-vasp.4.6
   LMAXPAW     = -100 max onsite density
   LMAXMIX     =    2 max onsite mixed and CHGCAR
   VOSKOWN=      1    Vosko Wilk Nusair interpolation
   ROPT   =    0.00000
 Ionic relaxation
   EDIFFG = -.2E-01   stopping-criterion for IOM
   NSW    =      0    number of steps for IOM
   NBLOCK =      1;   KBLOCK =      1    inner block; outer block 
   IBRION =     -1    ionic relax: 0-MD 1-quasi-New 2-CG
   NFREE  =      0    steps in history (QN), initial steepest desc. (CG)
   ISIF   =      2    stress and relaxation
   IWAVPR =     10    prediction:  0-non 1-charg 2-wave 3-comb
   ISYM   =      2    0-nonsym 1-usesym 2-fastsym
   LCORR  =      T    Harris-Foulkes like correction to forces

   POTIM  =   0.50    time-step for ionic-motion
   TEIN   =    0.0    initial temperature
   TEBEG  =    0.0;   TEEND  =   0.0 temperature during run
   SMASS  =  -3.00    Nose mass-parameter (am)
   estimated Nose-frequenzy (Omega)   =  0.10E-29 period in steps =****** mass=  -0.156E-26a.u.
   NPACO  =    256;   APACO  = 16.0  distance and # of slots for P.C.
   PSTRESS=    0.0 pullay stress

  Mass of Ions in am
   POMASS = 196.97
  Ionic Valenz
   ZVAL   =  11.00
  Atomic Wigner-Seitz radii
   RWIGS  =   1.34
   NELECT =     352.0000    total number of electrons
   NUPDOWN=      -1.0000    fix difference up-down

 DOS related values:
   EMIN   =  10.00;   EMAX   =-10.00  energy-range for DOS
   ISMEAR =     1;   SIGMA  =   0.20  broadening in eV -4-tet -1-fermi 0-gaus

 Electronic relaxation 2 (details)
   IALGO  =     38    algorithm
   LDIAG  =      T    sub-space diagonalisation
   IMIX   =      4    mixing-type and parameters
     AMIX     =   0.40;   BMIX     =  1.00
     AMIX_MAG =   1.60;   BMIX_MAG =  1.00
     AMIN     =   0.10
     WC   =   100.;   INIMIX=   1;  MIXPRE=   1

 Intra band minimization:
   WEIMIN = 0.0000     energy-eigenvalue tresh-hold
   EBREAK =  0.12E-07  absolut break condition
   DEPER  =   0.30     relativ break condition  

   TIME   =   0.10     timestep for ELM

  volume/ion in A,a.u.               =      17.58       118.64
  Fermi-wavevector in a.u.,eV,Ry     =   1.400216 26.675654  1.960605

 Second variation
   LSECVAR=     F    do a second variation
 
 Write flags
   LWAVE  =      F    write WAVECAR
   LCHARG =      F    write CHGCAR
   LVTOT  =      F    write LOCPOT, local potential
   LELF   =      F    write electronic localiz. function (ELF)
   LORBIT =      0    0 simple, 1 ext, 2 COOP (PROOUT)


 Dipole corrections
   IDIPOL =      0    1-x, 2-y, 3-z
   LDIPOL =      F    correct potential



--------------------------------------------------------------------------------------------------------


 Static calculation
 charge density will be updated during run
 non-spin polarized calculation
 Variant of blocked Davidson
 Davidson routine will perform the subspace rotation
 performe sub-space diagonalisation
    after iterative eigenvector-optimisation
 modified Broyden-mixing scheme, WC =      100.0
 initial mixing is a Kerker type mixing with AMIX =  0.4000 and BMIX =      1.0000
 Hartree-type preconditioning will be used
 using additional bands           36
 reciprocal scheme for non local part
 use partial core corrections
 calculate Harris-corrections to forces 
   (improved forces if not selfconsistent)
 use gradient corrections 
 use of overlap-Matrix (Vanderbilt PP)
 Methfessel and Paxton  Order N= 1 SIGMA  =   0.20


--------------------------------------------------------------------------------------------------------


  energy-cutoff  :      229.95
  volume of cell :      562.58
      direct lattice vectors                 reciprocal lattice vectors
     8.255194450  0.000000000  0.000000000     0.121135850 -0.000000002 -0.000000002
     0.000000150  8.255194450  0.000000000     0.000000000  0.121135850 -0.000000002
     0.000000150  0.000000150  8.255194450     0.000000000  0.000000000  0.121135850

  length of vectors
     8.255194450  8.255194450  8.255194450     0.121135850  0.121135850  0.121135850


 
 old parameters found on file WAVECAR:
  energy-cutoff  :      229.95
  volume of cell :      562.58
      direct lattice vectors                 reciprocal lattice vectors
     8.255194450  0.000000000  0.000000000     0.121135850 -0.000000002 -0.000000002
     0.000000150  8.255194450  0.000000000     0.000000000  0.121135850 -0.000000002
     0.000000150  0.000000150  8.255194450     0.000000000  0.000000000  0.121135850

  length of vectors

 
 k-points in units of 2pi/SCALE and weight: Automatic mesh                          
   0.03028396  0.03028396  0.03028396       1.000
 
 k-points in reciprocal lattice and weights: Automatic mesh                          
   0.25000000  0.25000000  0.25000000       1.000
 
 position of ions in fractional coordinates (direct lattice) 
   0.75000000  0.75000000  0.50000000
   0.75000000  0.75000000  0.00000000
   0.75000000  0.00000000  0.25000000
   0.75000000  0.25000000  0.50000000
   0.00000000  0.75000000  0.25000000
   0.00000000  0.00000000  0.50000000
   0.25000000  0.75000000  0.50000000
   0.75000000  0.00000000  0.75000000
   0.75000000  0.25000000  0.00000000
   0.75000000  0.50000000  0.25000000
   0.00000000  0.75000000  0.75000000
   0.00242300  0.00000000  0.00000000
   0.00000000  0.25000000  0.25000000
   0.00000000  0.50000000  0.50000000
   0.25000000  0.75000000  0.00000000
   0.25000000  0.00000000  0.25000000
   0.25000000  0.25000000  0.50000000
   0.50000000  0.75000000  0.25000000
   0.50000000  0.00000000  0.50000000
   0.75000000  0.50000000  0.75000000
   0.00000000  0.25000000  0.75000000
   0.00000000  0.50000000  0.00000000
   0.25000000  0.00000000  0.75000000
   0.25000000  0.25000000  0.00000000
   0.25000000  0.50000000  0.25000000
   0.50000000  0.75000000  0.75000000
   0.50000000  0.00000000  0.00000000
   0.50000000  0.25000000  0.25000000
   0.50000000  0.50000000  0.50000000
   0.25000000  0.50000000  0.75000000
   0.50000000  0.25000000  0.75000000
   0.50000000  0.50000000  0.00000000
 
 position of ions in cartesian coordinates  (Angst):
   6.19139602  6.19139591  4.12759722
   6.19139595  6.19139584  0.00000000
   6.19139588  0.00000004  2.06379861
   6.19139595  2.06379869  4.12759722
   0.00000015  6.19139588  2.06379861
   0.00000007  0.00000007  4.12759722
   2.06379880  6.19139591  4.12759722
   6.19139595  0.00000011  6.19139584
   6.19139587  2.06379861  0.00000000
   6.19139595  4.12759726  2.06379861
   0.00000022  6.19139595  6.19139584
   0.02000234  0.00000000  0.00000000
   0.00000007  2.06379865  2.06379861
   0.00000015  4.12759730  4.12759722
   2.06379872  6.19139584  0.00000000
   2.06379865  0.00000004  2.06379861
   2.06379872  2.06379869  4.12759722
   4.12759738  6.19139588  2.06379861
   4.12759730  0.00000007  4.12759722
   6.19139603  4.12759734  6.19139584
   0.00000015  2.06379872  6.19139584
   0.00000007  4.12759722  0.00000000
   2.06379872  0.00000011  6.19139584
   2.06379865  2.06379861  0.00000000
   2.06379872  4.12759726  2.06379861
   4.12759745  6.19139595  6.19139584
   4.12759722  0.00000000  0.00000000
   4.12759730  2.06379865  2.06379861
   4.12759737  4.12759730  4.12759722
   2.06379880  4.12759734  6.19139584
   4.12759738  2.06379872  6.19139584
   4.12759730  4.12759722  0.00000000
 


--------------------------------------------------------------------------------------------------------


 k-point  1 :  0.25000.25000.2500  plane waves:   4425

 maximum and minimum number of plane-waves per node :   4425  4425

 maximum number of plane-waves:   4425
 maximal index in each direction: 
   IXMAX=  9   IYMAX=  9   IZMAX=  9
   IXMIN=-10   IYMIN=-10   IZMIN=-10

 WARNING: wrap around error must be expected set NGX to  40
 WARNING: wrap around error must be expected set NGY to  40
 WARNING: wrap around error must be expected set NGZ to  40

 parallel 3dFFT wavefunction:
    minimum data exchange during FFTs selected (reduces bandwidth)
 parallel 3dFFT charge:
    minimum data exchange during FFTs selected (reduces bandwidth)

 For storing wavefunctions   15.01 MBYTES are necessary
 For predicting wavefunctions   34.80 MBYTES are necessary
Broyden mixing: mesh for mixing (old mesh)
   NGX = 21   NGY = 21   NGZ = 21
  (NGX  = 64   NGY  = 64   NGZ  = 64)
 gives a total of   9261 points
 charge density for first step will be calculated from the start-wavefunctions


--------------------------------------------------------------------------------------------------------


 Maximum index for augmentation-charges          889 (set IRDMAX)


--------------------------------------------------------------------------------------------------------


 initial charge from wavefunction
 First call to EWALD:  gamma=   0.215
 Maximum number of real-space cells 3x 3x 3
 Maximum number of reciprocal cells 3x 3x 3

    FEWALD:  VPU time    0.00: CPU time    0.00


----------------------------------------- Iteration    1(   1)  ---------------------------------------


    POTLOK:  VPU time    0.04: CPU time    0.04
    SETDIJ:  VPU time    0.01: CPU time    0.01
    EDDAV :  VPU time    0.81: CPU time    0.82
    DOS   :  VPU time    0.00: CPU time   -0.00
    CHARGE:  VPU time    0.03: CPU time    0.03
    MIXING:  VPU time    0.00: CPU time    0.00
    ------------------------------------------
      LOOP:  VPU time    0.90: CPU time    0.90

 eigenvalue-minimisations  :   432
 total energy-change (2. order) :-0.1024197E+03  (-0.3532501E+00)
 number of electron  352.0004625 magnetization 
 augmentation part   129.1545722 magnetization 

 Broyden mixing:
  rms(total) = 0.10142E+00    rms(broyden)= 0.10122E+00
  rms(prec ) = 0.26497E+00
  weight for this iteration     100.00

 Free energy of the ion-electron system (eV)
  ---------------------------------------------------
  alpha Z        PSCENC =      3408.89924786
  Ewald energy   TEWEN  =    -30966.29969642
  -1/2 Hartree   DENC   =     -3754.77609326
  -V(xc)+E(xc)   XCENC  =       473.12327089
  PAW double counting   =     24053.60992134   -23388.21115506
  entropy T*S    EENTRO =        -0.14919113
  eigenvalues    EBANDS =       439.83382585
  atomic energy  EATOM  =     29631.55017626
  ---------------------------------------------------
  free energy    TOTEN  =      -102.41969367 eV

  energy without entropy =     -102.27050253  energy(sigma->0) =     -102.36996329


--------------------------------------------------------------------------------------------------------




----------------------------------------- Iteration    1(   2)  ---------------------------------------


    POTLOK:  VPU time    0.03: CPU time    0.04
    SETDIJ:  VPU time    0.01: CPU time    0.01
    EDDAV :  VPU time    0.85: CPU time    0.85
    DOS   :  VPU time    0.00: CPU time   -0.00
    CHARGE:  VPU time    0.03: CPU time    0.03
    MIXING:  VPU time    0.00: CPU time    0.00
    ------------------------------------------
      LOOP:  VPU time    0.93: CPU time    0.93

 eigenvalue-minimisations  :   512
 total energy-change (2. order) : 0.7650968E-01  (-0.3229669E-01)
 number of electron  352.0004625 magnetization 
 augmentation part   129.1555430 magnetization 

 Broyden mixing:
  rms(total) = 0.52573E-01    rms(broyden)= 0.52498E-01
  rms(prec ) = 0.92694E-01
  weight for this iteration     100.00

 eigenvalues of (default mixing * dielectric matrix)
  average eigenvalue GAMMA=   0.8922
  0.8922

 Free energy of the ion-electron system (eV)
  ---------------------------------------------------
  alpha Z        PSCENC =      3408.89924786
  Ewald energy   TEWEN  =    -30966.29969642
  -1/2 Hartree   DENC   =     -3754.93341010
  -V(xc)+E(xc)   XCENC  =       473.12688328
  PAW double counting   =     24053.79815139   -23388.40057938
  entropy T*S    EENTRO =        -0.14985184
  eigenvalues    EBANDS =       440.06589496
  atomic energy  EATOM  =     29631.55017626
  ---------------------------------------------------
  free energy    TOTEN  =      -102.34318399 eV

  energy without entropy =     -102.19333215  energy(sigma->0) =     -102.29323337


--------------------------------------------------------------------------------------------------------




----------------------------------------- Iteration    1(   3)  ---------------------------------------


    POTLOK:  VPU time    0.03: CPU time    0.03
    SETDIJ:  VPU time    0.01: CPU time    0.01
    EDDAV :  VPU time    0.85: CPU time    0.85
    DOS   :  VPU time    0.00: CPU time   -0.00
    CHARGE:  VPU time    0.03: CPU time    0.03
    MIXING:  VPU time    0.00: CPU time    0.00
    ------------------------------------------
      LOOP:  VPU time    0.93: CPU time    0.93

 eigenvalue-minimisations  :   508
 total energy-change (2. order) : 0.6226126E-02  (-0.3889875E-02)
 number of electron  352.0004624 magnetization 
 augmentation part   129.1547646 magnetization 

 Broyden mixing:
  rms(total) = 0.25691E-01    rms(broyden)= 0.25677E-01
  rms(prec ) = 0.36514E-01
  weight for this iteration     100.00

 eigenvalues of (default mixing * dielectric matrix)
  average eigenvalue GAMMA=   1.1669
  0.7577  1.5760

 Free energy of the ion-electron system (eV)
  ---------------------------------------------------
  alpha Z        PSCENC =      3408.89924786
  Ewald energy   TEWEN  =    -30966.29969642
  -1/2 Hartree   DENC   =     -3755.03033014
  -V(xc)+E(xc)   XCENC  =       473.13052142
  PAW double counting   =     24053.94222252   -23388.53978499
  entropy T*S    EENTRO =        -0.14983081
  eigenvalues    EBANDS =       440.16051643
  atomic energy  EATOM  =     29631.55017626
  ---------------------------------------------------
  free energy    TOTEN  =      -102.33695786 eV

  energy without entropy =     -102.18712705  energy(sigma->0) =     -102.28701426


--------------------------------------------------------------------------------------------------------




----------------------------------------- Iteration    1(   4)  ---------------------------------------


    POTLOK:  VPU time    0.03: CPU time    0.03
    SETDIJ:  VPU time    0.01: CPU time    0.01
    EDDAV :  VPU time    0.76: CPU time    0.76
    DOS   :  VPU time    0.00: CPU time   -0.00
    CHARGE:  VPU time    0.03: CPU time    0.03
    MIXING:  VPU time    0.00: CPU time    0.00
    ------------------------------------------
      LOOP:  VPU time    0.84: CPU time    0.84

 eigenvalue-minimisations  :   444
 total energy-change (2. order) : 0.6001694E-04  (-0.8631831E-03)
 number of electron  352.0004624 magnetization 
 augmentation part   129.1528884 magnetization 

 Broyden mixing:
  rms(total) = 0.12902E-01    rms(broyden)= 0.12900E-01
  rms(prec ) = 0.15680E-01
  weight for this iteration     100.00

 eigenvalues of (default mixing * dielectric matrix)
  average eigenvalue GAMMA=   1.2860
  0.7814  1.1720  1.9046

 Free energy of the ion-electron system (eV)
  ---------------------------------------------------
  alpha Z        PSCENC =      3408.89924786
  Ewald energy   TEWEN  =    -30966.29969642
  -1/2 Hartree   DENC   =     -3755.11402181
  -V(xc)+E(xc)   XCENC  =       473.13369762
  PAW double counting   =     24054.03598817   -23388.62939326
  entropy T*S    EENTRO =        -0.14981173
  eigenvalues    EBANDS =       440.23691547
  atomic energy  EATOM  =     29631.55017626
  ---------------------------------------------------
  free energy    TOTEN  =      -102.33689784 eV

  energy without entropy =     -102.18708611  energy(sigma->0) =     -102.28696060


--------------------------------------------------------------------------------------------------------




----------------------------------------- Iteration    1(   5)  ---------------------------------------


    POTLOK:  VPU time    0.03: CPU time    0.03
    SETDIJ:  VPU time    0.01: CPU time    0.01
    EDDAV :  VPU time    0.79: CPU time    0.79
    DOS   :  VPU time    0.00: CPU time   -0.00
    CHARGE:  VPU time    0.03: CPU time    0.03
    MIXING:  VPU time    0.00: CPU time    0.00
    ------------------------------------------
      LOOP:  VPU time    0.87: CPU time    0.87

 eigenvalue-minimisations  :   464
 total energy-change (2. order) : 0.1977918E-04  (-0.5094121E-04)
 number of electron  352.0004624 magnetization 
 augmentation part   129.1526973 magnetization 

 Broyden mixing:
  rms(total) = 0.61003E-02    rms(broyden)= 0.60998E-02
  rms(prec ) = 0.72229E-02
  weight for this iteration     100.00

 eigenvalues of (default mixing * dielectric matrix)
  average eigenvalue GAMMA=   1.3271
  2.4472  1.3215  0.7698  0.7698

 Free energy of the ion-electron system (eV)
  ---------------------------------------------------
  alpha Z        PSCENC =      3408.89924786
  Ewald energy   TEWEN  =    -30966.29969642
  -1/2 Hartree   DENC   =     -3755.11065533
  -V(xc)+E(xc)   XCENC  =       473.13353995
  PAW double counting   =     24053.99107644   -23388.58427542
  entropy T*S    EENTRO =        -0.14980946
  eigenvalues    EBANDS =       440.23351806
  atomic energy  EATOM  =     29631.55017626
  ---------------------------------------------------
  free energy    TOTEN  =      -102.33687806 eV

  energy without entropy =     -102.18706860  energy(sigma->0) =     -102.28694158


--------------------------------------------------------------------------------------------------------




----------------------------------------- Iteration    1(   6)  ---------------------------------------


    POTLOK:  VPU time    0.03: CPU time    0.03
    SETDIJ:  VPU time    0.01: CPU time    0.01
    EDDAV :  VPU time    0.76: CPU time    0.76
    DOS   :  VPU time    0.00: CPU time   -0.00
    CHARGE:  VPU time    0.03: CPU time    0.03
    MIXING:  VPU time    0.00: CPU time    0.00
    ------------------------------------------
      LOOP:  VPU time    0.84: CPU time    0.84

 eigenvalue-minimisations  :   436
 total energy-change (2. order) :-0.1822857E-04  (-0.1547436E-04)
 number of electron  352.0004624 magnetization 
 augmentation part   129.1527758 magnetization 

 Broyden mixing:
  rms(total) = 0.10372E-02    rms(broyden)= 0.10363E-02
  rms(prec ) = 0.18342E-02
  weight for this iteration     100.00

 eigenvalues of (default mixing * dielectric matrix)
  average eigenvalue GAMMA=   1.2819
  2.4822  1.1805  1.1805  0.7832  0.7832

 Free energy of the ion-electron system (eV)
  ---------------------------------------------------
  alpha Z        PSCENC =      3408.89924786
  Ewald energy   TEWEN  =    -30966.29969642
  -1/2 Hartree   DENC   =     -3755.10500316
  -V(xc)+E(xc)   XCENC  =       473.13331956
  PAW double counting   =     24053.95010558   -23388.54311471
  entropy T*S    EENTRO =        -0.14980537
  eigenvalues    EBANDS =       440.22787411
  atomic energy  EATOM  =     29631.55017626
  ---------------------------------------------------
  free energy    TOTEN  =      -102.33689629 eV

  energy without entropy =     -102.18709092  energy(sigma->0) =     -102.28696117


--------------------------------------------------------------------------------------------------------




----------------------------------------- Iteration    1(   7)  ---------------------------------------


    POTLOK:  VPU time    0.03: CPU time    0.03
    SETDIJ:  VPU time    0.01: CPU time    0.01
    EDDAV :  VPU time    0.65: CPU time    0.65
    DOS   :  VPU time    0.00: CPU time   -0.00
    ------------------------------------------
      LOOP:  VPU time    0.70: CPU time    0.70

 eigenvalue-minimisations  :   336
 total energy-change (2. order) : 0.4737805E-05  (-0.3165386E-05)
 number of electron  352.0004624 magnetization 
 augmentation part   129.1527758 magnetization 

 Free energy of the ion-electron system (eV)
  ---------------------------------------------------
  alpha Z        PSCENC =      3408.89924786
  Ewald energy   TEWEN  =    -30966.29969642
  -1/2 Hartree   DENC   =     -3755.10730982
  -V(xc)+E(xc)   XCENC  =       473.13340754
  PAW double counting   =     24053.95573498   -23388.54860450
  entropy T*S    EENTRO =        -0.14980766
  eigenvalues    EBANDS =       440.22996020
  atomic energy  EATOM  =     29631.55017626
  ---------------------------------------------------
  free energy    TOTEN  =      -102.33689156 eV

  energy without entropy =     -102.18708389  energy(sigma->0) =     -102.28695567


--------------------------------------------------------------------------------------------------------




 average (electrostatic) potential at core
  the test charge radii are     1.2098
  (the norm of the test charge is              1.0000)
       1 -45.8093       2 -45.8065       3 -45.8065       4 -45.8093       5 -45.8094
       6 -45.8097       7 -45.8095       8 -45.8065       9 -45.8065      10 -45.8093
      11 -45.8094      12 -45.8100      13 -45.8094      14 -45.8097      15 -45.8124
      16 -45.8124      17 -45.8095      18 -45.8095      19 -45.8097      20 -45.8093
      21 -45.8094      22 -45.8097      23 -45.8124      24 -45.8124      25 -45.8095
      26 -45.8095      27 -45.8098      28 -45.8095      29 -45.8096      30 -45.8095
      31 -45.8095      32 -45.8097
 
 
 
 E-fermi :   5.2971     XC(G=0): -12.5260     alpha+bet : -9.8713
   add alpha+bet to get absolut eigen values

 k-point   1 :       0.2500    0.2500    0.2500
  band No.  band energies     occupation 
      1      -3.6487      2.00000
      2      -2.4232      2.00000
      3      -2.4198      2.00000
      4      -2.4165      2.00000
      5      -1.7325      2.00000
      6      -1.6213      2.00000
      7      -1.6189      2.00000
      8      -1.6165      2.00000
      9      -1.3285      2.00000
     10      -1.3282      2.00000
     11      -1.3279      2.00000
     12      -1.1905      2.00000
     13      -1.1902      2.00000
     14      -1.1900      2.00000
     15      -1.0895      2.00000
     16      -1.0871      2.00000
     17      -1.0846      2.00000
     18      -0.8738      2.00000
     19      -0.8731      2.00000
     20      -0.8725      2.00000
     21      -0.7131      2.00000
     22      -0.7121      2.00000
     23      -0.7094      2.00000
     24      -0.7094      2.00000
     25      -0.7069      2.00000
     26      -0.7058      2.00000
     27      -0.6042      2.00000
     28      -0.6016      2.00000
     29      -0.5992      2.00000
     30      -0.5649      2.00000
     31      -0.5626      2.00000
     32      -0.5614      2.00000
     33      -0.5613      2.00000
     34      -0.5602      2.00000
     35      -0.5580      2.00000
     36      -0.4209      2.00000
     37      -0.4194      2.00000
     38      -0.4180      2.00000
     39      -0.1418      2.00000
     40      -0.1400      2.00000
     41      -0.1386      2.00000
     42      -0.1386      2.00000
     43      -0.1373      2.00000
     44      -0.1357      2.00000
     45       0.2200      2.00000
     46       0.2220      2.00000
     47       0.2240      2.00000
     48       0.2702      2.00000
     49       0.2723      2.00000
     50       0.2743      2.00000
     51       0.3538      2.00000
     52       0.3562      2.00000
     53       0.3573      2.00000
     54       0.3573      2.00000
     55       0.3582      2.00000
     56       0.3608      2.00000
     57       0.5107      2.00000
     58       0.5134      2.00000
     59       0.5156      2.00000
     60       0.5491      2.00000
     61       0.5497      2.00000
     62       0.5519      2.00000
     63       0.5520      2.00000
     64       0.5539      2.00000
     65       0.5546      2.00000
     66       0.5597      2.00000
     67       0.5601      2.00000
     68       0.5606      2.00000
     69       0.6706      2.00000
     70       0.8834      2.00000
     71       0.8836      2.00000
     72       0.9679      2.00000
     73       0.9681      2.00000
     74       0.9955      2.00000
     75       0.9970      2.00000
     76       0.9993      2.00000
     77       1.0082      2.00000
     78       1.0082      2.00000
     79       1.0106      2.00000
     80       1.0107      2.00000
     81       1.0131      2.00000
     82       1.0138      2.00000
     83       1.0647      2.00000
     84       1.0660      2.00000
     85       1.0676      2.00000
     86       1.0891      2.00000
     87       1.0895      2.00000
     88       1.0896      2.00000
     89       1.1846      2.00000
     90       1.1857      2.00000
     91       1.1867      2.00000
     92       1.2862      2.00000
     93       1.2877      2.00000
     94       1.2885      2.00000
     95       1.2906      2.00000
     96       1.2923      2.00000
     97       1.2960      2.00000
     98       1.3750      2.00000
     99       1.3763      2.00000
    100       1.3774      2.00000
    101       1.7632      2.00000
    102       1.7662      2.00000
    103       1.7689      2.00000
    104       1.8020      2.00000
    105       1.8024      2.00000
    106       1.8050      2.00000
    107       1.8050      2.00000
    108       1.8076      2.00000
    109       1.8079      2.00000
    110       1.9699      2.00000
    111       1.9719      2.00000
    112       1.9737      2.00000
    113       2.0381      2.00000
    114       2.0407      2.00000
    115       2.0435      2.00000
    116       2.1433      2.00000
    117       2.1490      2.00000
    118       2.1491      2.00000
    119       2.1495      2.00000
    120       2.1497      2.00000
    121       2.1554      2.00000
    122       2.1952      2.00000
    123       2.1953      2.00000
    124       2.3256      2.00000
    125       2.3277      2.00000
    126       2.3287      2.00000
    127       2.3289      2.00000
    128       2.3295      2.00000
    129       2.3321      2.00000
    130       2.3345      2.00000
    131       2.6019      2.00000
    132       2.6027      2.00000
    133       2.6031      2.00000
    134       2.6344      2.00000
    135       2.6367      2.00000
    136       2.6384      2.00000
    137       2.9274      2.00000
    138       2.9301      2.00000
    139       2.9309      2.00000
    140       2.9309      2.00000
    141       2.9311      2.00000
    142       2.9340      2.00000
    143       2.9412      2.00000
    144       2.9415      2.00000
    145       2.9418      2.00000
    146       3.0029      2.00000
    147       3.0036      2.00000
    148       3.0043      2.00000
    149       3.0496      2.00000
    150       3.0498      2.00000
    151       3.2234      2.00000
    152       3.2236      2.00000
    153       3.2239      2.00000
    154       3.4131      2.00000
    155       3.4131      2.00000
    156       3.4136      2.00000
    157       3.4314      2.00000
    158       3.4327      2.00000
    159       3.4334      2.00000
    160       3.4334      2.00000
    161       3.4341      2.00000
    162       3.4352      2.00000
    163       3.4491      2.00000
    164       3.4505      2.00000
    165       3.4521      2.00000
    166       3.5008      2.00000
    167       3.5026      2.00000
    168       3.5041      2.00000
    169       3.5631      2.00000
    170       3.5631      2.00000
    171       3.5632      2.00000
    172       5.2064      1.68746
    173       5.2070      1.68356
    174       5.2086      1.67395
    175       5.2087      1.67349
    176       5.2103      1.66389
    177       5.2109      1.66016
    178       5.7040     -0.01429
    179       5.7045     -0.01416
    180       5.7049     -0.01406
    181       6.5085     -0.00000
    182       6.5099     -0.00000
    183       6.5112     -0.00000
    184       7.2335     -0.00000
    185       7.2340     -0.00000
    186       7.2344     -0.00000
    187       8.4372     -0.00000
    188       8.4391     -0.00000
    189       8.4400     -0.00000
    190       8.4400     -0.00000
    191       8.4409     -0.00000
    192       8.4428     -0.00000
    193       8.9132     -0.00000
    194       8.9146     -0.00000
    195       8.9160     -0.00000
    196      10.1205     -0.00000
    197      10.1220     -0.00000
    198      10.1234     -0.00000
    199      10.4838     -0.00000
    200      10.4844     -0.00000
    201      10.4872     -0.00000
    202      10.4872     -0.00000
    203      10.4901     -0.00000
    204      10.4906     -0.00000
    205      11.5040      0.00000
    206      11.8952      0.00000
    207      11.8956      0.00000
    208      11.8957      0.00000
    209      12.2779      0.00000
    210      12.2788      0.00000
    211      12.2804      0.00000
    212      12.2822      0.00000


--------------------------------------------------------------------------------------------------------


 soft charge-density along one line, spin component           1
         0         1         2         3         4         5         6         7         8         9
 total charge-density along one line
 
 pseudopotential strength for first ion, spin component:           1
 -9.905   0.000  -0.000   0.000  -0.000  -0.089  -0.000   0.000
  0.000  -9.905   0.000  -0.000  -0.000  -0.000  -0.089  -0.000
 -0.000   0.000  -9.892   0.000   0.000   0.000  -0.000  -0.091
  0.000  -0.000   0.000  -9.905   0.000  -0.000   0.000  -0.000
 -0.000  -0.000   0.000   0.000  -9.892   0.000   0.000  -0.000
 -0.089  -0.000   0.000  -0.000   0.000   0.282   0.000  -0.000
 -0.000  -0.089  -0.000   0.000   0.000   0.000   0.282   0.000
  0.000  -0.000  -0.091  -0.000  -0.000  -0.000   0.000   0.283
 -0.000   0.000  -0.000  -0.089  -0.000   0.000  -0.000   0.000
  0.000   0.000  -0.000  -0.000  -0.091  -0.000  -0.000   0.000
  0.000  -0.000   0.000  -0.000   0.000   0.000   0.000  -0.000
  0.000   0.000  -0.000   0.000   0.000  -0.000  -0.000   0.000
 -0.000   0.000  -0.000  -0.000  -0.000   0.000  -0.000   0.000
 -0.000   0.000   0.000  -0.000  -0.000  -0.000  -0.000  -0.000
  0.000  -0.000   0.000   0.000  -0.000  -0.000  -0.000  -0.000
  0.000  -0.000   0.000   0.000   0.000  -0.000   0.000  -0.000
  0.000  -0.000  -0.000   0.000   0.000  -0.000   0.000   0.000
 -0.000   0.000  -0.000  -0.000   0.000   0.000  -0.000   0.000
 total augmentation occupancy for first ion, spin component:           1
  1.908  -0.013  -0.001  -0.013   0.000  -0.053   0.012  -0.005   0.012   0.000   0.013   0.000  -0.000   0.000  -0.000  -0.000
 -0.013   1.908   0.001  -0.013  -0.001   0.012  -0.053   0.002   0.013  -0.004   0.013   0.000   0.000   0.000  -0.000   0.000
 -0.001   0.001   1.951   0.001   0.000  -0.006   0.003  -0.093   0.003  -0.000  -0.000  -0.000  -0.000   0.000   0.000  -0.000
 -0.013  -0.013   0.001   1.908   0.001   0.012   0.013   0.002  -0.053   0.004   0.013   0.000   0.000  -0.000  -0.000  -0.000
  0.000  -0.001   0.000   0.001   1.951   0.000  -0.005   0.000   0.005  -0.093   0.000   0.000  -0.000   0.000  -0.000  -0.000
 -0.053   0.012  -0.006   0.012   0.000   0.190  -0.010   0.011  -0.010  -0.000  -0.001   0.005   0.000  -0.000   0.000   0.000
  0.012  -0.053   0.003   0.013  -0.005  -0.010   0.190  -0.006  -0.010   0.010  -0.002   0.005  -0.000   0.000   0.000   0.000
 -0.005   0.002  -0.093   0.002   0.000   0.011  -0.006   0.150  -0.006  -0.000   0.000   0.000   0.000  -0.000  -0.000   0.000
  0.012   0.013   0.003  -0.053   0.005  -0.010  -0.010  -0.006   0.190  -0.010  -0.001   0.005  -0.000   0.000   0.000   0.000
  0.000  -0.004  -0.000   0.004  -0.093  -0.000   0.010  -0.000  -0.010   0.150  -0.000  -0.000   0.000  -0.000  -0.000   0.000
  0.013   0.013  -0.000   0.013   0.000  -0.001  -0.002   0.000  -0.001  -0.000   1.092  -0.364  -0.000  -0.000   0.000   0.000
  0.000   0.000  -0.000   0.000   0.000   0.005   0.005   0.000   0.005  -0.000  -0.364   0.248  -0.000  -0.000   0.000  -0.000
 -0.000   0.000  -0.000   0.000  -0.000   0.000  -0.000   0.000  -0.000   0.000  -0.000  -0.000   0.148   0.003   0.003  -0.011
  0.000   0.000   0.000  -0.000   0.000  -0.000   0.000  -0.000   0.000  -0.000  -0.000  -0.000   0.003   0.148   0.003  -0.000
 -0.000  -0.000   0.000  -0.000  -0.000   0.000   0.000  -0.000   0.000  -0.000   0.000   0.000   0.003   0.003   0.148  -0.000
 -0.000   0.000  -0.000  -0.000  -0.000   0.000   0.000   0.000   0.000   0.000   0.000  -0.000  -0.011  -0.000  -0.000   0.001
 -0.000   0.000  -0.000  -0.000  -0.000   0.000  -0.000   0.000   0.000   0.000   0.000   0.000  -0.000  -0.011  -0.000   0.000
  0.000   0.000   0.000   0.000  -0.000  -0.000  -0.000  -0.000  -0.000   0.000  -0.000   0.000  -0.000  -0.000  -0.011   0.000


------------------------ aborting loop because EDIFF is reached ----------------------------------------




--------------------------------------------------------------------------------------------------------


    CHARGE:  VPU time    0.03: CPU time    0.03
    FORLOC:  VPU time    0.01: CPU time    0.01
    FORNL :  VPU time    0.61: CPU time    0.61
    STRESS:  VPU time    0.79: CPU time    0.79
    FORCOR:  VPU time    0.04: CPU time    0.04
    FORHAR:  VPU time    0.01: CPU time    0.01
    MIXING:  VPU time    0.00: CPU time    0.00


--------------------------------------------------------------------------------------------------------



  FREE ENERGIE OF THE ION-ELECTRON SYSTEM (eV)
  ---------------------------------------------------
  free  energy   TOTEN  =      -102.336892 eV

  energy  without entropy=     -102.187084  energy(sigma->0) =     -102.286956
 

  FORCE on cell =-STRESS in cart. coord.  units (eV/reduce length):
  Direction    X        Y        Z        XY       YZ       ZX
  --------------------------------------------------------------------------------------
  Alpha Z   3408.90   3408.90   3408.90
  Ewald   -10322.24 -10322.09 -10322.09     -0.00     -0.00     -0.00
  Hartree   1251.64   1251.73   1251.73     -0.00     -0.00     -0.00
  E(xc)    -1590.01  -1590.01  -1590.01     -0.00     -0.00     -0.00
  Local     2583.12   2582.88   2582.88      0.00      0.00      0.00
  n-local  -1594.03  -1594.03  -1594.03     11.14     11.14     11.14
  augment   1371.94   1371.94   1371.94     -0.00     -0.00     -0.00
  Kinetic   4901.92   4901.91   4901.91     -9.65     -9.65     -9.65
  -------------------------------------------------------------------------------------
  Total       11.24     11.24     11.24      0.00      0.00      0.00
  in kB       32.02     32.02     32.02      0.00      0.00      0.00
  external pressure =       32.02 kB  Pullay stress =        0.00 kB


 VOLUME and BASIS-vectors are now :
 -----------------------------------------------------------------------------
  energy-cutoff  :      229.95
  volume of cell :      562.58
      direct lattice vectors                 reciprocal lattice vectors
     8.255194450  0.000000000  0.000000000     0.121135850 -0.000000002 -0.000000002
     0.000000150  8.255194450  0.000000000     0.000000000  0.121135850 -0.000000002
     0.000000150  0.000000150  8.255194450     0.000000000  0.000000000  0.121135850

  length of vectors
     8.255194450  8.255194450  8.255194450     0.121135850  0.121135850  0.121135850


 FORCES acting on ions
    electron-ion (+dipol)            ewald-force                    non-local-force                 convergence-correction
 -----------------------------------------------------------------------------------------------
   -.317E-01 -.164E+00 0.152E-07   0.358E-01 0.161E+00 -.165E-07   -.297E-02 0.131E-02 0.213E-19   0.253E-04 -.265E-03 -.349E-09
   -.102E+01 -.192E+01 0.106E-07   0.103E+01 0.194E+01 -.340E-09   0.831E-02 0.352E-02 -.439E-19   -.838E-04 0.374E-02 0.412E-09
   -.102E+01 0.321E-07 0.192E+01   0.103E+01 -.349E-07 -.194E+01   0.831E-02 -.639E-10 -.352E-02   -.840E-04 -.275E-09 -.374E-02
   -.317E-01 0.164E+00 -.832E-08   0.358E-01 -.161E+00 0.910E-08   -.297E-02 -.131E-02 -.254E-19   0.253E-04 0.265E-03 0.180E-09
   0.127E+01 -.842E-02 0.842E-02   -.127E+01 0.966E-02 -.966E-02   -.251E-03 -.704E-04 0.704E-04   -.709E-02 -.113E-02 0.113E-02
   0.666E+00 -.281E-08 -.437E-07   -.672E+00 0.179E-08 0.484E-07   0.104E-01 0.720E-20 -.102E-21   -.334E-02 -.514E-09 0.122E-08
   -.267E-01 0.166E+00 -.870E-08   0.295E-01 -.161E+00 0.949E-08   -.298E-02 -.122E-02 -.215E-19   0.129E-02 -.167E-02 0.194E-09
   -.102E+01 -.243E-07 -.192E+01   0.103E+01 0.349E-07 0.194E+01   0.831E-02 0.639E-10 0.352E-02   -.840E-04 0.480E-09 0.374E-02
   -.102E+01 0.192E+01 -.287E-08   0.103E+01 -.194E+01 0.278E-09   0.831E-02 -.352E-02 0.761E-19   -.838E-04 -.374E-02 -.207E-09
   -.317E-01 -.534E-08 0.164E+00   0.358E-01 0.617E-08 -.161E+00   -.297E-02 -.238E-10 -.131E-02   0.253E-04 0.185E-09 0.265E-03
   0.127E+01 -.842E-02 -.842E-02   -.127E+01 0.966E-02 0.966E-02   -.251E-03 -.704E-04 -.704E-04   -.709E-02 -.113E-02 -.113E-02
   0.798E+01 -.123E-06 0.886E-06   -.804E+01 0.139E-06 0.139E-06   -.616E-01 0.115E-20 -.117E-21   0.115E-01 -.155E-08 -.155E-08
   0.127E+01 0.842E-02 0.842E-02   -.127E+01 -.966E-02 -.966E-02   -.251E-03 0.704E-04 0.704E-04   -.709E-02 0.113E-02 0.113E-02
   0.274E+00 -.121E-07 -.121E-07   -.277E+00 0.129E-07 0.129E-07   -.901E-03 0.500E-19 0.871E-19   -.103E-03 0.545E-09 0.545E-09
   -.101E+01 0.196E+01 -.305E-08   0.102E+01 -.197E+01 0.310E-09   0.872E-02 -.383E-02 -.195E-18   0.192E-02 -.746E-02 -.185E-09
   -.101E+01 -.248E-07 -.196E+01   0.102E+01 0.355E-07 0.197E+01   0.872E-02 0.695E-10 0.383E-02   0.192E-02 0.543E-09 0.746E-02
   -.267E-01 -.166E+00 0.150E-07   0.295E-01 0.161E+00 -.162E-07   -.298E-02 0.122E-02 0.426E-19   0.129E-02 0.167E-02 -.471E-09
   -.707E+00 0.378E-02 -.378E-02   0.713E+00 -.289E-02 0.289E-02   -.721E-02 0.811E-04 -.811E-04   0.327E-02 -.977E-03 0.977E-03
   -.547E+00 0.269E-08 0.292E-07   0.528E+00 -.178E-08 -.306E-07   0.131E-01 0.285E-19 0.954E-19   -.386E-03 0.597E-09 -.110E-08
   -.317E-01 0.122E-07 -.164E+00   0.358E-01 -.136E-07 0.161E+00   -.297E-02 0.238E-10 0.131E-02   0.253E-04 -.353E-09 -.265E-03
   0.127E+01 0.842E-02 -.842E-02   -.127E+01 -.966E-02 0.966E-02   -.251E-03 0.704E-04 -.704E-04   -.709E-02 0.113E-02 -.113E-02
   0.666E+00 -.437E-07 -.281E-08   -.672E+00 0.484E-07 0.179E-08   0.104E-01 -.619E-20 -.963E-19   -.334E-02 0.122E-08 -.514E-09
   -.101E+01 0.325E-07 0.196E+01   0.102E+01 -.355E-07 -.197E+01   0.872E-02 -.695E-10 -.383E-02   0.192E-02 -.320E-09 -.746E-02
   -.101E+01 -.196E+01 0.108E-07   0.102E+01 0.197E+01 -.309E-09   0.872E-02 0.383E-02 0.560E-19   0.192E-02 0.746E-02 0.407E-09
   -.267E-01 0.119E-07 -.166E+00   0.295E-01 -.133E-07 0.161E+00   -.298E-02 0.221E-10 0.122E-02   0.129E-02 -.440E-09 0.167E-02
   -.707E+00 0.378E-02 0.378E-02   0.713E+00 -.289E-02 -.289E-02   -.721E-02 0.811E-04 0.811E-04   0.327E-02 -.977E-03 -.977E-03
   -.212E+01 0.628E-08 0.628E-08   0.212E+01 -.238E-08 -.238E-08   -.767E-02 0.538E-19 0.134E-19   0.141E-01 0.107E-08 0.107E-08
   -.707E+00 -.378E-02 -.378E-02   0.713E+00 0.289E-02 0.289E-02   -.721E-02 -.811E-04 -.811E-04   0.327E-02 0.977E-03 0.977E-03
   -.257E+00 0.108E-07 0.108E-07   0.259E+00 -.113E-07 -.113E-07   -.150E-02 0.503E-21 0.109E-19   0.316E-04 -.577E-09 -.577E-09
   -.267E-01 -.568E-08 0.166E+00   0.295E-01 0.656E-08 -.161E+00   -.298E-02 -.221E-10 -.122E-02   0.129E-02 0.164E-09 -.167E-02
   -.707E+00 -.378E-02 0.378E-02   0.713E+00 0.289E-02 -.289E-02   -.721E-02 -.811E-04 0.811E-04   0.327E-02 0.977E-03 -.977E-03
   -.547E+00 0.292E-07 0.269E-08   0.528E+00 -.306E-07 -.178E-08   0.131E-01 -.214E-18 -.525E-19   -.386E-03 -.110E-08 0.597E-09
 -----------------------------------------------------------------------------------------------
   -.928E-02 0.859E-10 0.101E-05   -.739E-13 -.415E-13 0.944E-13   -.103E-01 -.123E-17 -.324E-18   0.153E-01 -.168E-09 -.168E-09
 
 
 POSITION                                       TOTAL-FORCE (eV/Angst)
 -----------------------------------------------------------------------------------
      6.19140      6.19140      4.12760         0.001290     -0.002000      0.000000
      6.19140      6.19140      0.00000         0.016580      0.020374     -0.000000
      6.19140      0.00000      2.06380         0.016580     -0.000000     -0.020374
      6.19140      2.06380      4.12760         0.001290      0.002000      0.000000
      0.00000      6.19140      2.06380        -0.009445      0.000034     -0.000034
      0.00000      0.00000      4.12760         0.000872     -0.000000      0.000000
      2.06380      6.19140      4.12760         0.001295      0.001963      0.000000
      6.19140      0.00000      6.19140         0.016580      0.000000      0.020374
      6.19140      2.06380      0.00000         0.016580     -0.020374      0.000000
      6.19140      4.12760      2.06380         0.001290      0.000000      0.002000
      0.00000      6.19140      6.19140        -0.009445      0.000034      0.000034
      0.02000      0.00000      0.00000        -0.115892      0.000000      0.000000
      0.00000      2.06380      2.06380        -0.009445     -0.000034     -0.000034
      0.00000      4.12760      4.12760        -0.003868     -0.000000      0.000000
      2.06380      6.19140      0.00000         0.017797     -0.022087      0.000000
      2.06380      0.00000      2.06380         0.017797      0.000000      0.022087
      2.06380      2.06380      4.12760         0.001295     -0.001963     -0.000000
      4.12760      6.19140      2.06380         0.002354     -0.000007      0.000007
      4.12760      0.00000      4.12760        -0.005901     -0.000000      0.000000
      6.19140      4.12760      6.19140         0.001290     -0.000000     -0.002000
      0.00000      2.06380      6.19140        -0.009445     -0.000034      0.000034
      0.00000      4.12760      0.00000         0.000872      0.000000      0.000000
      2.06380      0.00000      6.19140         0.017797     -0.000000     -0.022087
      2.06380      2.06380      0.00000         0.017797      0.022087     -0.000000
      2.06380      4.12760      2.06380         0.001295     -0.000000     -0.001963
      4.12760      6.19140      6.19140         0.002354     -0.000007     -0.000007
      4.12760      0.00000      0.00000         0.008901     -0.000000      0.000000
      4.12760      2.06380      2.06380         0.002354      0.000007      0.000007
      4.12760      4.12760      4.12760         0.001435     -0.000000     -0.000000
      2.06380      4.12760      6.19140         0.001295      0.000000      0.001963
      4.12760      2.06380      6.19140         0.002354      0.000007     -0.000007
      4.12760      4.12760      0.00000        -0.005901     -0.000000     -0.000000
 -----------------------------------------------------------------------------------
    total drift:                               -0.004198     -0.000000      0.000001


--------------------------------------------------------------------------------------------------------



 mean value of Nose-termostat <S>:     1.000 mean value of <T> :     0.000
 mean temperature <T/S>/<1/S>  :     0.000

     LOOP+:  VPU time    7.50: CPU time    7.52

 ----------------------------------------------------------------------------- 
|                                                                             |
|           W    W    AA    RRRRR   N    N  II  N    N   GGGG   !!!           |
|           W    W   A  A   R    R  NN   N  II  NN   N  G    G  !!!           |
|           W    W  A    A  R    R  N N  N  II  N N  N  G       !!!           |
|           W WW W  AAAAAA  RRRRR   N  N N  II  N  N N  G  GGG   !            |
|           WW  WW  A    A  R   R   N   NN  II  N   NN  G    G                |
|           W    W  A    A  R    R  N    N  II  N    N   GGGG   !!!           |
|                                                                             |
|      The partial DOS and the PROCAR file are not evaluated for NPAR/=1      |
|      please rerun with NPAR=1                                               |
|                                                                             |
 ----------------------------------------------------------------------------- 

  
  
 General timing and accounting informations for this job:
 ========================================================
  
                  Total CPU time used (sec):        7.979
                            User time (sec):        7.368
                          System time (sec):        0.611
                         Elapsed time (sec):        8.011
  
                   Maximum memory used (kb):       75064.
                   Average memory used (kb):           0.
  
                          Minor page faults:        15397
                          Major page faults:            0
                 Voluntary context switches:          813
