 running on    4 nodes
 distr:  one band on    1 nodes,    4 groups
 vasp.4.6.28 25Jul05 complex 
 POSCAR found :  1 types and   32 ions

 ----------------------------------------------------------------------------- 
|                                                                             |
|  ADVICE TO THIS USER RUNNING 'VASP/VAMP'   (HEAR YOUR MASTER'S VOICE ...):  |
|                                                                             |
|      You have a (more or less) 'large supercell' and for larger cells       |
|      it might be more efficient to use real space projection operators      |
|      So try LREAL= Auto  in the INCAR   file.                               |
|      Mind: If you want to do an extremely accurate calculations keep the    |
|      reciprocal projection scheme          (i.e. LREAL=.FALSE.)             |
|                                                                             |
 ----------------------------------------------------------------------------- 

 LDA part: xc-table for Pade appr. of Perdew
 POSCAR, INCAR and KPOINTS ok, starting setup
 WARNING: wrap around errors must be expected
 FFT: planning ...           4
 reading WAVECAR
 entering main loop
       N       E                     dE             d eps       ncg     rms          rms(c)
DAV:   1     0.201945905931E+04    0.20195E+04   -0.10683E+05   424   0.869E+02
DAV:   2    -0.126130509384E+02   -0.20321E+04   -0.19241E+04   444   0.332E+02
DAV:   3    -0.108215757991E+03   -0.95603E+02   -0.91789E+02   464   0.711E+01
DAV:   4    -0.109951476032E+03   -0.17357E+01   -0.17274E+01   456   0.953E+00
DAV:   5    -0.109987881732E+03   -0.36406E-01   -0.36330E-01   468   0.114E+00    0.159E+01
DAV:   6    -0.102992764186E+03    0.69951E+01   -0.17762E+01   436   0.135E+01    0.439E+00
DAV:   7    -0.102442511076E+03    0.55025E+00   -0.13508E+00   460   0.327E+00    0.161E+00
DAV:   8    -0.102337993191E+03    0.10452E+00   -0.49050E-02   432   0.612E-01    0.115E-01
DAV:   9    -0.102337993424E+03   -0.23336E-06   -0.32706E-03   456   0.166E-01    0.624E-02
DAV:  10    -0.102338049945E+03   -0.56521E-04   -0.23126E-04   432   0.349E-02    0.653E-03
DAV:  11    -0.102338060489E+03   -0.10544E-04   -0.47255E-06   236   0.615E-03    0.187E-03
DAV:  12    -0.102338057666E+03    0.28233E-05   -0.67843E-07   228   0.244E-03
   1 F= -.10233806E+03 E0= -.10228811E+03  d E =-.102338E+03
 curvature:   0.00 expect dE= 0.000E+00 dE for cont linesearch  0.000E+00
 trial: gam= 0.00000 g(F)=  0.535E-58 g(S)=  0.000E+00 ort = 0.000E+00 (trialstep = 0.100E+01)
 search vector abs. value=  0.100E-09
 reached required accuracy - stopping structural energy minimisation
 writing wavefunctions

 ----------------------------------------------------------------------------- 
|                                                                             |
|           W    W    AA    RRRRR   N    N  II  N    N   GGGG   !!!           |
|           W    W   A  A   R    R  NN   N  II  NN   N  G    G  !!!           |
|           W    W  A    A  R    R  N N  N  II  N N  N  G       !!!           |
|           W WW W  AAAAAA  RRRRR   N  N N  II  N  N N  G  GGG   !            |
|           WW  WW  A    A  R   R   N   NN  II  N   NN  G    G                |
|           W    W  A    A  R    R  N    N  II  N    N   GGGG   !!!           |
|                                                                             |
|      The partial DOS and the PROCAR file are not evaluated for NPAR/=1      |
|      please rerun with NPAR=1                                               |
|                                                                             |
 ----------------------------------------------------------------------------- 

