   4   4   0   0
  0.2337111E+02  0.4538508E-09  0.4538508E-09  0.4538508E-09  0.5000000E-15
  1.000000000000000E-004
  CAR 
 unknown system                          
     16.82756896     -5.58711473  301      1.24389455      1.00000000
     -5.587  0.0000E+00  0.0000E+00
     -5.512  0.0000E+00  0.0000E+00
     -5.438  0.0000E+00  0.0000E+00
     -5.363  0.0000E+00  0.0000E+00
     -5.288  0.0000E+00  0.0000E+00
     -5.214  0.0000E+00  0.0000E+00
     -5.139  0.0000E+00  0.0000E+00
     -5.064  0.0000E+00  0.0000E+00
     -4.989  0.0000E+00  0.0000E+00
     -4.915  0.0000E+00  0.0000E+00
     -4.840  0.0000E+00  0.0000E+00
     -4.765  0.0000E+00  0.0000E+00
     -4.691  0.0000E+00  0.0000E+00
     -4.616  0.5114E-14  0.3821E-15
     -4.541  0.2146E-01  0.1604E-02
     -4.466  0.1314E+00  0.1147E-01
     -4.392  0.2118E+00  0.2735E-01
     -4.317  0.2507E+00  0.4632E-01
     -4.242  0.3156E+00  0.6994E-01
     -4.168  0.3454E+00  0.9602E-01
     -4.093  0.4033E+00  0.1265E+00
     -4.018  0.4650E+00  0.1617E+00
     -3.943  0.4935E+00  0.1987E+00
     -3.869  0.5770E+00  0.2421E+00
     -3.794  0.6243E+00  0.2890E+00
     -3.719  0.7320E+00  0.3440E+00
     -3.645  0.1117E+01  0.4283E+00
     -3.570  0.5979E+01  0.8764E+00
     -3.495  0.1184E+02  0.1769E+01
     -3.420  0.1564E+02  0.2951E+01
     -3.346  0.2187E+02  0.4602E+01
     -3.271  0.2415E+02  0.6434E+01
     -3.196  0.2058E+02  0.7995E+01
     -3.121  0.1743E+02  0.9315E+01
     -3.047  0.1350E+02  0.1034E+02
     -2.972  0.1582E+02  0.1153E+02
     -2.897  0.2065E+02  0.1309E+02
     -2.823  0.1960E+02  0.1458E+02
     -2.748  0.1784E+02  0.1593E+02
     -2.673  0.2028E+02  0.1745E+02
     -2.598  0.2689E+02  0.1949E+02
     -2.524  0.2860E+02  0.2165E+02
     -2.449  0.1942E+02  0.2312E+02
     -2.374  0.1640E+02  0.2436E+02
     -2.300  0.2051E+02  0.2591E+02
     -2.225  0.2296E+02  0.2764E+02
     -2.150  0.2340E+02  0.2941E+02
     -2.075  0.2243E+02  0.3111E+02
     -2.001  0.1941E+02  0.3259E+02
     -1.926  0.1865E+02  0.3400E+02
     -1.851  0.1977E+02  0.3549E+02
     -1.777  0.2394E+02  0.3730E+02
     -1.702  0.3199E+02  0.3972E+02
     -1.627  0.1481E+02  0.4086E+02
     -1.552  0.2779E+01  0.4107E+02
     -1.478  0.9953E+00  0.4115E+02
     -1.403  0.1079E+01  0.4123E+02
     -1.328  0.7865E+00  0.4129E+02
     -1.254  0.1063E+01  0.4137E+02
     -1.179  0.7932E+00  0.4143E+02
     -1.104  0.1132E+01  0.4152E+02
     -1.029  0.7998E+00  0.4158E+02
     -0.955  0.1069E+01  0.4166E+02
     -0.880  0.8389E+00  0.4172E+02
     -0.805  0.1036E+01  0.4180E+02
     -0.731  0.9423E+00  0.4187E+02
     -0.656  0.9723E+00  0.4194E+02
     -0.581  0.9444E+00  0.4202E+02
     -0.506  0.9171E+00  0.4208E+02
     -0.432  0.1049E+01  0.4216E+02
     -0.357  0.9719E+00  0.4224E+02
     -0.282  0.1007E+01  0.4231E+02
     -0.208  0.1059E+01  0.4239E+02
     -0.133  0.8588E+00  0.4246E+02
     -0.058  0.1160E+01  0.4254E+02
      0.017  0.1023E+01  0.4262E+02
      0.091  0.9527E+00  0.4269E+02
      0.166  0.1118E+01  0.4278E+02
      0.241  0.9919E+00  0.4285E+02
      0.315  0.1128E+01  0.4294E+02
      0.390  0.1052E+01  0.4302E+02
      0.465  0.1124E+01  0.4310E+02
      0.540  0.1006E+01  0.4318E+02
      0.614  0.1240E+01  0.4327E+02
      0.689  0.1012E+01  0.4335E+02
      0.764  0.1169E+01  0.4344E+02
      0.838  0.1113E+01  0.4352E+02
      0.913  0.1187E+01  0.4361E+02
      0.988  0.1103E+01  0.4369E+02
      1.063  0.1245E+01  0.4379E+02
      1.137  0.1089E+01  0.4387E+02
      1.212  0.1182E+01  0.4396E+02
      1.287  0.1358E+01  0.4406E+02
      1.361  0.1176E+01  0.4415E+02
      1.436  0.1167E+01  0.4424E+02
      1.511  0.1311E+01  0.4434E+02
      1.586  0.1372E+01  0.4444E+02
      1.660  0.1317E+01  0.4454E+02
      1.735  0.1296E+01  0.4464E+02
      1.810  0.1298E+01  0.4474E+02
      1.884  0.1384E+01  0.4484E+02
      1.959  0.1208E+01  0.4493E+02
      2.034  0.1382E+01  0.4504E+02
      2.109  0.1304E+01  0.4514E+02
      2.183  0.1166E+01  0.4523E+02
      2.258  0.1227E+01  0.4532E+02
      2.333  0.1323E+01  0.4542E+02
      2.407  0.1261E+01  0.4552E+02
      2.482  0.1024E+01  0.4559E+02
      2.557  0.1472E+01  0.4570E+02
      2.632  0.1176E+01  0.4579E+02
      2.706  0.1193E+01  0.4588E+02
      2.781  0.1172E+01  0.4597E+02
      2.856  0.1135E+01  0.4606E+02
      2.930  0.1271E+01  0.4615E+02
      3.005  0.1080E+01  0.4624E+02
      3.080  0.1243E+01  0.4633E+02
      3.155  0.1231E+01  0.4642E+02
      3.229  0.1211E+01  0.4651E+02
      3.304  0.1080E+01  0.4660E+02
      3.379  0.1131E+01  0.4668E+02
      3.453  0.1494E+01  0.4680E+02
      3.528  0.1554E+01  0.4691E+02
      3.603  0.1495E+01  0.4703E+02
      3.678  0.1523E+01  0.4714E+02
      3.752  0.1604E+01  0.4726E+02
      3.827  0.1670E+01  0.4739E+02
      3.902  0.1523E+01  0.4751E+02
      3.976  0.1535E+01  0.4762E+02
      4.051  0.1726E+01  0.4775E+02
      4.126  0.1463E+01  0.4786E+02
      4.201  0.1505E+01  0.4798E+02
      4.275  0.1571E+01  0.4809E+02
      4.350  0.1557E+01  0.4821E+02
      4.425  0.1369E+01  0.4832E+02
      4.499  0.1553E+01  0.4843E+02
      4.574  0.1559E+01  0.4855E+02
      4.649  0.1298E+01  0.4865E+02
      4.724  0.1476E+01  0.4876E+02
      4.798  0.1457E+01  0.4887E+02
      4.873  0.1458E+01  0.4898E+02
      4.948  0.1305E+01  0.4908E+02
      5.023  0.1447E+01  0.4919E+02
      5.097  0.1356E+01  0.4929E+02
      5.172  0.1259E+01  0.4939E+02
      5.247  0.1584E+01  0.4951E+02
      5.321  0.1162E+01  0.4960E+02
      5.396  0.1477E+01  0.4971E+02
      5.471  0.1347E+01  0.4981E+02
      5.546  0.1319E+01  0.4991E+02
      5.620  0.1479E+01  0.5002E+02
      5.695  0.1187E+01  0.5011E+02
      5.770  0.1415E+01  0.5022E+02
      5.844  0.1546E+01  0.5034E+02
      5.919  0.1737E+01  0.5047E+02
      5.994  0.2117E+01  0.5063E+02
      6.069  0.1937E+01  0.5078E+02
      6.143  0.1617E+01  0.5090E+02
      6.218  0.1875E+01  0.5104E+02
      6.293  0.1647E+01  0.5117E+02
      6.367  0.1520E+01  0.5128E+02
      6.442  0.1246E+01  0.5138E+02
      6.517  0.1551E+01  0.5149E+02
      6.592  0.1715E+01  0.5162E+02
      6.666  0.1575E+01  0.5174E+02
      6.741  0.1689E+01  0.5187E+02
      6.816  0.1683E+01  0.5200E+02
      6.890  0.2045E+01  0.5215E+02
      6.965  0.2046E+01  0.5230E+02
      7.040  0.1992E+01  0.5246E+02
      7.115  0.1733E+01  0.5259E+02
      7.189  0.1711E+01  0.5272E+02
      7.264  0.1632E+01  0.5284E+02
      7.339  0.2181E+01  0.5301E+02
      7.413  0.2127E+01  0.5317E+02
      7.488  0.1876E+01  0.5331E+02
      7.563  0.1412E+01  0.5342E+02
      7.638  0.1829E+01  0.5355E+02
      7.712  0.1784E+01  0.5369E+02
      7.787  0.2367E+01  0.5387E+02
      7.862  0.1844E+01  0.5401E+02
      7.936  0.1721E+01  0.5413E+02
      8.011  0.1557E+01  0.5425E+02
      8.086  0.2079E+01  0.5441E+02
      8.161  0.1982E+01  0.5456E+02
      8.235  0.1901E+01  0.5470E+02
      8.310  0.2097E+01  0.5486E+02
      8.385  0.1830E+01  0.5500E+02
      8.459  0.1919E+01  0.5515E+02
      8.534  0.2145E+01  0.5531E+02
      8.609  0.1793E+01  0.5545E+02
      8.684  0.2069E+01  0.5560E+02
      8.758  0.2087E+01  0.5576E+02
      8.833  0.1961E+01  0.5591E+02
      8.908  0.2057E+01  0.5606E+02
      8.982  0.2180E+01  0.5623E+02
      9.057  0.1908E+01  0.5637E+02
      9.132  0.2027E+01  0.5653E+02
      9.207  0.2044E+01  0.5668E+02
      9.281  0.2356E+01  0.5686E+02
      9.356  0.2078E+01  0.5702E+02
      9.431  0.2235E+01  0.5719E+02
      9.505  0.2039E+01  0.5734E+02
      9.580  0.2080E+01  0.5750E+02
      9.655  0.2109E+01  0.5766E+02
      9.730  0.2188E+01  0.5782E+02
      9.804  0.2612E+01  0.5802E+02
      9.879  0.2241E+01  0.5819E+02
      9.954  0.2047E+01  0.5834E+02
     10.028  0.2435E+01  0.5853E+02
     10.103  0.2142E+01  0.5869E+02
     10.178  0.2221E+01  0.5886E+02
     10.253  0.2649E+01  0.5906E+02
     10.327  0.2615E+01  0.5926E+02
     10.402  0.2371E+01  0.5944E+02
     10.477  0.2557E+01  0.5963E+02
     10.551  0.2201E+01  0.5980E+02
     10.626  0.2533E+01  0.5999E+02
     10.701  0.2341E+01  0.6017E+02
     10.776  0.2287E+01  0.6034E+02
     10.850  0.2237E+01  0.6051E+02
     10.925  0.2201E+01  0.6068E+02
     11.000  0.1968E+01  0.6083E+02
     11.074  0.2246E+01  0.6100E+02
     11.149  0.2145E+01  0.6116E+02
     11.224  0.2080E+01  0.6132E+02
     11.299  0.2065E+01  0.6147E+02
     11.373  0.1748E+01  0.6161E+02
     11.448  0.1850E+01  0.6175E+02
     11.523  0.1626E+01  0.6187E+02
     11.597  0.1680E+01  0.6200E+02
     11.672  0.1377E+01  0.6210E+02
     11.747  0.1375E+01  0.6220E+02
     11.822  0.1228E+01  0.6230E+02
     11.896  0.1347E+01  0.6240E+02
     11.971  0.8701E+00  0.6247E+02
     12.046  0.1015E+01  0.6254E+02
     12.120  0.1292E+01  0.6264E+02
     12.195  0.7780E+00  0.6270E+02
     12.270  0.1042E+01  0.6278E+02
     12.345  0.8372E+00  0.6284E+02
     12.419  0.8371E+00  0.6291E+02
     12.494  0.8841E+00  0.6297E+02
     12.569  0.8311E+00  0.6304E+02
     12.643  0.4962E+00  0.6307E+02
     12.718  0.9519E+00  0.6314E+02
     12.793  0.6763E+00  0.6320E+02
     12.868  0.4314E+00  0.6323E+02
     12.942  0.7301E+00  0.6328E+02
     13.017  0.5198E+00  0.6332E+02
     13.092  0.4817E+00  0.6336E+02
     13.167  0.5536E+00  0.6340E+02
     13.241  0.5124E+00  0.6344E+02
     13.316  0.2741E+00  0.6346E+02
     13.391  0.5838E+00  0.6351E+02
     13.465  0.3535E+00  0.6353E+02
     13.540  0.4482E+00  0.6357E+02
     13.615  0.3463E+00  0.6359E+02
     13.690  0.4448E+00  0.6363E+02
     13.764  0.2084E+00  0.6364E+02
     13.839  0.4940E+00  0.6368E+02
     13.914  0.2445E+00  0.6370E+02
     13.988  0.2596E+00  0.6372E+02
     14.063  0.2816E+00  0.6374E+02
     14.138  0.3161E+00  0.6376E+02
     14.213  0.2453E+00  0.6378E+02
     14.287  0.2514E+00  0.6380E+02
     14.362  0.2329E+00  0.6382E+02
     14.437  0.2262E+00  0.6383E+02
     14.511  0.1692E+00  0.6385E+02
     14.586  0.2253E+00  0.6386E+02
     14.661  0.2023E+00  0.6388E+02
     14.736  0.1508E+00  0.6389E+02
     14.810  0.1659E+00  0.6390E+02
     14.885  0.1278E+00  0.6391E+02
     14.960  0.1443E+00  0.6392E+02
     15.034  0.1614E+00  0.6394E+02
     15.109  0.9446E-01  0.6394E+02
     15.184  0.1455E+00  0.6395E+02
     15.259  0.5809E-01  0.6396E+02
     15.333  0.1217E+00  0.6397E+02
     15.408  0.1032E+00  0.6398E+02
     15.483  0.3338E-01  0.6398E+02
     15.557  0.7008E-01  0.6398E+02
     15.632  0.7045E-01  0.6399E+02
     15.707  0.4860E-01  0.6399E+02
     15.782  0.7783E-01  0.6400E+02
     15.856  0.1686E-01  0.6400E+02
     15.931  0.0000E+00  0.6400E+02
     16.006  0.0000E+00  0.6400E+02
     16.080  0.0000E+00  0.6400E+02
     16.155  0.0000E+00  0.6400E+02
     16.230  0.0000E+00  0.6400E+02
     16.305  0.0000E+00  0.6400E+02
     16.379  0.0000E+00  0.6400E+02
     16.454  0.0000E+00  0.6400E+02
     16.529  0.0000E+00  0.6400E+02
     16.603  0.0000E+00  0.6400E+02
     16.678  0.0000E+00  0.6400E+02
     16.753  0.0000E+00  0.6400E+02
     16.828  0.0000E+00  0.6400E+02
