    4    4    1    1
  0.2337111E+02  0.4538508E-09  0.4538508E-09  0.4538508E-09  0.5000000E-15
  1.000000000000000E-004
  CAR 
 unknown system                          
   44 1330   32
 
  0.0000000E+00  0.0000000E+00  0.0000000E+00  0.2143347E-04
   1       -4.5683
   2       -3.6605
   3       -3.6605
   4       -3.6605
   5       -3.6153
   6       -3.6153
   7       -3.6153
   8       -2.7662
   9       -2.7662
  10       -2.7662
  11       -2.1833
  12       -2.1833
  13       -1.7499
  14       -1.7499
  15       -1.7499
  16       -1.6115
  17       -1.6115
  18       -1.6115
  19       -1.6115
  20       -1.6115
  21       -1.6115
  22        3.0524
  23        3.0524
  24        3.0524
  25        5.8236
  26        5.8236
  27        5.8236
  28       10.3713
  29       10.3713
  30       10.3713
  31       10.3713
  32       10.3713
 
  0.2777778E-01  0.0000000E+00  0.0000000E+00  0.1286008E-03
   1       -4.5619
   2       -3.6584
   3       -3.6578
   4       -3.6578
   5       -3.6138
   6       -3.6129
   7       -3.6129
   8       -2.7679
   9       -2.7644
  10       -2.7644
  11       -2.1850
  12       -2.1825
  13       -1.7521
  14       -1.7521
  15       -1.7507
  16       -1.6187
  17       -1.6187
  18       -1.6143
  19       -1.6143
  20       -1.6115
  21       -1.6115
  22        2.9832
  23        3.0654
  24        3.0654
  25        5.8254
  26        5.8254
  27        5.9039
  28       10.3408
  29       10.3408
  30       10.3411
  31       10.3411
  32       10.3813
 
  0.5555556E-01  0.0000000E+00  0.0000000E+00  0.1286008E-03
   1       -4.5430
   2       -3.6521
   3       -3.6498
   4       -3.6498
   5       -3.6093
   6       -3.6058
   7       -3.6058
   8       -2.7731
   9       -2.7592
  10       -2.7592
  11       -2.1901
  12       -2.1801
  13       -1.7588
  14       -1.7588
  15       -1.7533
  16       -1.6400
  17       -1.6400
  18       -1.6226
  19       -1.6226
  20       -1.6114
  21       -1.6114
  22        2.7957
  23        3.1040
  24        3.1040
  25        5.8307
  26        5.8307
  27        6.1245
  28       10.2529
  29       10.2529
  30       10.2532
  31       10.2532
  32       10.4111
 
  0.8333333E-01  0.0000000E+00  0.0000000E+00  0.1286008E-03
   1       -4.5115
   2       -3.6418
   3       -3.6366
   4       -3.6366
   5       -3.6018
   6       -3.5939
   7       -3.5939
   8       -2.7817
   9       -2.7504
  10       -2.7504
  11       -2.1985
  12       -2.1761
  13       -1.7699
  14       -1.7699
  15       -1.7575
  16       -1.6747
  17       -1.6747
  18       -1.6364
  19       -1.6364
  20       -1.6114
  21       -1.6114
  22        2.5302
  23        3.1676
  24        3.1676
  25        5.8396
  26        5.8396
  27        6.4452
  28       10.1137
  29       10.1137
  30       10.1182
  31       10.1182
  32       10.4605
 
  0.1111111E+00  0.0000000E+00  0.0000000E+00  0.1286008E-03
   1       -4.4676
   2       -3.6274
   3       -3.6184
   4       -3.6184
   5       -3.5913
   6       -3.5773
   7       -3.5773
   8       -2.7936
   9       -2.7382
  10       -2.7382
  11       -2.2099
  12       -2.1706
  13       -1.7852
  14       -1.7852
  15       -1.7634
  16       -1.7216
  17       -1.7216
  18       -1.6555
  19       -1.6555
  20       -1.6114
  21       -1.6114
  22        2.2209
  23        3.2548
  24        3.2548
  25        5.8520
  26        5.8520
  27        6.8320
  28        9.9325
  29        9.9325
  30        9.9483
  31        9.9483
  32       10.5294
 
  0.1388889E+00  0.0000000E+00  0.0000000E+00  0.1286008E-03
   1       -4.4117
   2       -3.6093
   3       -3.5955
   4       -3.5955
   5       -3.5780
   6       -3.5560
   7       -3.5560
   8       -2.8087
   9       -2.7225
  10       -2.7225
  11       -2.2241
  12       -2.1636
  13       -1.8047
  14       -1.8047
  15       -1.7792
  16       -1.7792
  17       -1.7709
  18       -1.6795
  19       -1.6795
  20       -1.6114
  21       -1.6114
  22        1.8894
  23        3.3642
  24        3.3642
  25        5.8680
  26        5.8680
  27        7.2631
  28        9.7186
  29        9.7186
  30        9.7554
  31        9.7554
  32       10.6175
 
  0.1666667E+00  0.0000000E+00  0.0000000E+00  0.1286008E-03
   1       -4.3439
   2       -3.5877
   3       -3.5682
   4       -3.5682
   5       -3.5619
   6       -3.5300
   7       -3.5300
   8       -2.8269
   9       -2.7035
  10       -2.7035
  11       -2.2405
  12       -2.1551
  13       -1.8460
  14       -1.8460
  15       -1.8279
  16       -1.8279
  17       -1.7799
  18       -1.7082
  19       -1.7082
  20       -1.6113
  21       -1.6113
  22        1.5487
  23        3.4941
  24        3.4941
  25        5.8876
  26        5.8876
  27        7.7257
  28        9.4799
  29        9.4799
  30        9.5496
  31        9.5496
  32       10.7242
 
  0.1944444E+00  0.0000000E+00  0.0000000E+00  0.1286008E-03
   1       -4.2649
   2       -3.5628
   3       -3.5432
   4       -3.5370
   5       -3.5370
   6       -3.4992
   7       -3.4992
   8       -2.8480
   9       -2.6812
  10       -2.6812
  11       -2.2585
  12       -2.1453
  13       -1.9202
  14       -1.9202
  15       -1.8546
  16       -1.8546
  17       -1.7903
  18       -1.7412
  19       -1.7412
  20       -1.6113
  21       -1.6113
  22        1.2063
  23        3.6428
  24        3.6428
  25        5.9107
  26        5.9107
  27        8.2123
  28        9.2232
  29        9.2232
  30        9.3386
  31        9.3386
  32       10.8492
 
  0.2222222E+00  0.0000000E+00  0.0000000E+00  0.1286008E-03
   1       -4.1754
   2       -3.5350
   3       -3.5218
   4       -3.5025
   5       -3.5025
   6       -3.4639
   7       -3.4639
   8       -2.8718
   9       -2.6557
  10       -2.6557
  11       -2.2772
  12       -2.1341
  13       -2.0003
  14       -2.0003
  15       -1.8843
  16       -1.8843
  17       -1.8021
  18       -1.7780
  19       -1.7780
  20       -1.6113
  21       -1.6113
  22        0.8670
  23        3.8086
  24        3.8086
  25        5.9372
  26        5.9372
  27        8.7182
  28        8.9536
  29        8.9536
  30        9.1285
  31        9.1285
  32       10.9918
 
  0.2500000E+00  0.0000000E+00  0.0000000E+00  0.1286008E-03
   1       -4.0764
   2       -3.5048
   3       -3.4980
   4       -3.4654
   5       -3.4654
   6       -3.4239
   7       -3.4239
   8       -2.8982
   9       -2.6271
  10       -2.6271
  11       -2.2955
  12       -2.1216
  13       -2.0849
  14       -2.0849
  15       -1.9166
  16       -1.9166
  17       -1.8182
  18       -1.8182
  19       -1.8152
  20       -1.6112
  21       -1.6112
  22        0.5340
  23        3.9898
  24        3.9898
  25        5.9669
  26        5.9669
  27        8.6751
  28        8.6751
  29        8.9240
  30        8.9240
  31        9.2405
  32       11.1516
 
  0.2777778E+00  0.0000000E+00  0.0000000E+00  0.1286008E-03
   1       -3.9693
   2       -3.4727
   3       -3.4720
   4       -3.4265
   5       -3.4265
   6       -3.3794
   7       -3.3794
   8       -2.9268
   9       -2.5955
  10       -2.5955
  11       -2.3116
  12       -2.1725
  13       -2.1725
  14       -2.1080
  15       -1.9506
  16       -1.9506
  17       -1.8613
  18       -1.8613
  19       -1.8295
  20       -1.6112
  21       -1.6112
  22        0.2096
  23        4.1851
  24        4.1851
  25        5.9995
  26        5.9995
  27        8.3908
  28        8.3908
  29        8.7288
  30        8.7288
  31        9.7771
  32       11.3278
 
  0.3055556E+00  0.0000000E+00  0.0000000E+00  0.1286008E-03
   1       -3.8564
   2       -3.4438
   3       -3.4395
   4       -3.3868
   5       -3.3868
   6       -3.3303
   7       -3.3303
   8       -2.9574
   9       -2.5610
  10       -2.5610
  11       -2.3233
  12       -2.2620
  13       -2.2620
  14       -2.0933
  15       -1.9856
  16       -1.9856
  17       -1.9069
  18       -1.9069
  19       -1.8448
  20       -1.6111
  21       -1.6111
  22       -0.1046
  23        4.3930
  24        4.3930
  25        6.0343
  26        6.0343
  27        8.1031
  28        8.1031
  29        8.5460
  30        8.5460
  31       10.3265
  32       11.5198
 
  0.3333333E+00  0.0000000E+00  0.0000000E+00  0.1286008E-03
   1       -3.7407
   2       -3.4137
   3       -3.4060
   4       -3.3475
   5       -3.3475
   6       -3.2768
   7       -3.2768
   8       -2.9898
   9       -2.5238
  10       -2.5238
  11       -2.3523
  12       -2.3523
  13       -2.3272
  14       -2.0776
  15       -2.0206
  16       -2.0206
  17       -1.9545
  18       -1.9545
  19       -1.8610
  20       -1.6111
  21       -1.6111
  22       -0.4070
  23        4.6124
  24        4.6124
  25        6.0705
  26        6.0705
  27        7.8138
  28        7.8138
  29        8.3785
  30        8.3785
  31       10.8877
  32       11.7269
 
  0.3611111E+00  0.0000000E+00  0.0000000E+00  0.1286008E-03
   1       -3.6266
   2       -3.3820
   3       -3.3732
   4       -3.3099
   5       -3.3099
   6       -3.2190
   7       -3.2190
   8       -3.0236
   9       -2.4841
  10       -2.4841
  11       -2.4426
  12       -2.4426
  13       -2.3185
  14       -2.0611
  15       -2.0542
  16       -2.0542
  17       -2.0035
  18       -2.0035
  19       -1.8780
  20       -1.6111
  21       -1.6111
  22       -0.6961
  23        4.8422
  24        4.8422
  25        6.1069
  26        6.1069
  27        7.5246
  28        7.5246
  29        8.2288
  30        8.2288
  31       11.4599
  32       11.9484
 
  0.3888889E+00  0.0000000E+00  0.0000000E+00  0.1286008E-03
   1       -3.5203
   2       -3.3487
   3       -3.3426
   4       -3.2757
   5       -3.2757
   6       -3.1570
   7       -3.1570
   8       -3.0587
   9       -2.5320
  10       -2.5320
  11       -2.4421
  12       -2.4421
  13       -2.2910
  14       -2.0851
  15       -2.0851
  16       -2.0536
  17       -2.0536
  18       -2.0439
  19       -1.8957
  20       -1.6110
  21       -1.6110
  22       -0.9704
  23        5.0813
  24        5.0813
  25        6.1418
  26        6.1418
  27        7.2365
  28        7.2365
  29        8.0999
  30        8.0999
  31       12.0424
  32       12.1836
 
  0.4166667E+00  0.0000000E+00  0.0000000E+00  0.1286008E-03
   1       -3.4288
   2       -3.3159
   3       -3.3141
   4       -3.2464
   5       -3.2464
   6       -3.0947
   7       -3.0909
   8       -3.0909
   9       -2.6199
  10       -2.6199
  11       -2.3979
  12       -2.3979
  13       -2.2374
  14       -2.1116
  15       -2.1116
  16       -2.1042
  17       -2.1042
  18       -2.0261
  19       -1.9139
  20       -1.6110
  21       -1.6110
  22       -1.2278
  23        5.3290
  24        5.3290
  25        6.1729
  26        6.1729
  27        6.9506
  28        6.9506
  29        7.9948
  30        7.9948
  31       12.4317
  32       12.4328
 
  0.4444444E+00  0.0000000E+00  0.0000000E+00  0.1286008E-03
   1       -3.3584
   2       -3.2958
   3       -3.2786
   4       -3.2239
   5       -3.2239
   6       -3.1314
   7       -3.0208
   8       -3.0208
   9       -2.7058
  10       -2.7058
  11       -2.3519
  12       -2.3519
  13       -2.1550
  14       -2.1550
  15       -2.1511
  16       -2.1320
  17       -2.1320
  18       -2.0077
  19       -1.9325
  20       -1.6110
  21       -1.6110
  22       -1.4661
  23        5.5844
  24        5.5844
  25        6.1979
  26        6.1979
  27        6.6679
  28        6.6679
  29        7.9166
  30        7.9166
  31       12.6919
  32       12.6919
 
  0.4722222E+00  0.0000000E+00  0.0000000E+00  0.1286008E-03
   1       -3.3123
   2       -3.2855
   3       -3.2422
   4       -3.2097
   5       -3.2097
   6       -3.1684
   7       -2.9471
   8       -2.9471
   9       -2.7892
  10       -2.7892
  11       -2.3043
  12       -2.3043
  13       -2.2055
  14       -2.2055
  15       -2.1450
  16       -2.1450
  17       -2.0286
  18       -1.9891
  19       -1.9513
  20       -1.6818
  21       -1.6110
  22       -1.6110
  23        5.8468
  24        5.8468
  25        6.2142
  26        6.2142
  27        6.3892
  28        6.3892
  29        7.8682
  30        7.8682
  31       12.9635
  32       12.9635
 
  0.5000000E+00  0.0000000E+00  0.0000000E+00  0.6430041E-04
   1       -3.2894
   2       -3.2894
   3       -3.2054
   4       -3.2054
   5       -3.2048
   6       -3.2048
   7       -2.8698
   8       -2.8698
   9       -2.8698
  10       -2.8698
  11       -2.2554
  12       -2.2554
  13       -2.2554
  14       -2.2554
  15       -2.1495
  16       -2.1495
  17       -1.9702
  18       -1.9702
  19       -1.8708
  20       -1.8708
  21       -1.6110
  22       -1.6110
  23        6.1153
  24        6.1153
  25        6.1153
  26        6.1153
  27        6.2198
  28        6.2198
  29        7.8518
  30        7.8518
  31       13.2457
  32       13.2457
 
  0.2777778E-01  0.2777778E-01  0.0000000E+00  0.2572016E-03
   1       -4.5556
   2       -3.6557
   3       -3.6557
   4       -3.6552
   5       -3.6114
   6       -3.6114
   7       -3.6105
   8       -2.7685
   9       -2.7638
  10       -2.7627
  11       -2.1855
  12       -2.1829
  13       -1.7544
  14       -1.7531
  15       -1.7531
  16       -1.6238
  17       -1.6214
  18       -1.6214
  19       -1.6143
  20       -1.6143
  21       -1.6134
  22        2.9960
  23        2.9960
  24        3.0783
  25        5.8271
  26        5.9058
  27        5.9058
  28       10.2342
  29       10.3507
  30       10.3507
  31       10.3510
  32       10.3510
 
  0.5555556E-01  0.2777778E-01  0.0000000E+00  0.5144033E-03
   1       -4.5367
   2       -3.6495
   3       -3.6477
   4       -3.6476
   5       -3.6069
   6       -3.6043
   7       -3.6030
   8       -2.7731
   9       -2.7591
  10       -2.7574
  11       -2.1901
  12       -2.1810
  13       -1.7610
  14       -1.7600
  15       -1.7559
  16       -1.6441
  17       -1.6424
  18       -1.6295
  19       -1.6226
  20       -1.6144
  21       -1.6143
  22        2.8080
  23        3.0340
  24        3.1169
  25        5.8324
  26        5.9117
  27        6.1268
  28       10.0793
  29       10.2627
  30       10.2629
  31       10.3792
  32       10.3803
 
  0.8333333E-01  0.2777778E-01  0.0000000E+00  0.5144033E-03
   1       -4.5053
   2       -3.6391
   3       -3.6349
   4       -3.6345
   5       -3.5994
   6       -3.5925
   7       -3.5907
   8       -2.7816
   9       -2.7505
  10       -2.7487
  11       -2.1983
  12       -2.1771
  13       -1.7721
  14       -1.7717
  15       -1.7605
  16       -1.6783
  17       -1.6765
  18       -1.6429
  19       -1.6365
  20       -1.6146
  21       -1.6142
  22        2.5422
  23        3.0965
  24        3.1802
  25        5.8413
  26        5.9215
  27        6.4479
  28        9.8870
  29       10.1233
  30       10.1277
  31       10.3092
  32       10.4297
 
  0.1111111E+00  0.2777778E-01  0.0000000E+00  0.5144033E-03
   1       -4.4615
   2       -3.6247
   3       -3.6175
   4       -3.6163
   5       -3.5890
   6       -3.5759
   7       -3.5734
   8       -2.7934
   9       -2.7383
  10       -2.7366
  11       -2.2097
  12       -2.1715
  13       -1.7885
  14       -1.7873
  15       -1.7671
  16       -1.7249
  17       -1.7220
  18       -1.6612
  19       -1.6555
  20       -1.6147
  21       -1.6142
  22        2.2325
  23        3.1823
  24        3.2672
  25        5.8536
  26        5.9352
  27        6.8349
  28        9.6678
  29        9.9419
  30        9.9576
  31       10.1890
  32       10.4980
 
  0.1388889E+00  0.2777778E-01  0.0000000E+00  0.5144033E-03
   1       -4.4056
   2       -3.6066
   3       -3.5955
   4       -3.5934
   5       -3.5757
   6       -3.5546
   7       -3.5512
   8       -2.8085
   9       -2.7227
  10       -2.7211
  11       -2.2238
  12       -2.1644
  13       -1.8129
  14       -1.8067
  15       -1.7823
  16       -1.7757
  17       -1.7745
  18       -1.6841
  19       -1.6795
  20       -1.6147
  21       -1.6142
  22        1.9008
  23        3.2897
  24        3.3764
  25        5.8695
  26        5.9530
  27        7.2659
  28        9.4305
  29        9.7277
  30        9.7646
  31       10.0293
  32       10.5858
 
  0.1666667E+00  0.2777778E-01  0.0000000E+00  0.5144033E-03
   1       -4.3380
   2       -3.5849
   3       -3.5693
   4       -3.5661
   5       -3.5597
   6       -3.5286
   7       -3.5242
   8       -2.8266
   9       -2.7037
  10       -2.7022
  11       -2.2401
  12       -2.1558
  13       -1.8591
  14       -1.8487
  15       -1.8298
  16       -1.8182
  17       -1.7867
  18       -1.7109
  19       -1.7082
  20       -1.6147
  21       -1.6142
  22        1.5600
  23        3.4170
  24        3.5060
  25        5.8889
  26        5.9748
  27        7.7284
  28        9.1816
  29        9.4889
  30        9.5587
  31        9.8414
  32       10.6915
 
  0.1944444E+00  0.2777778E-01  0.0000000E+00  0.5144033E-03
   1       -4.2591
   2       -3.5600
   3       -3.5410
   4       -3.5393
   5       -3.5349
   6       -3.4979
   7       -3.4925
   8       -2.8476
   9       -2.6814
  10       -2.6801
  11       -2.2579
  12       -2.1458
  13       -1.9284
  14       -1.9227
  15       -1.8564
  16       -1.8498
  17       -1.8008
  18       -1.7412
  19       -1.7403
  20       -1.6146
  21       -1.6142
  22        1.2176
  23        3.5625
  24        3.6544
  25        5.9117
  26        6.0006
  27        8.2146
  28        8.9259
  29        9.2321
  30        9.3478
  31        9.6352
  32       10.8163
 
  0.2222222E+00  0.2777778E-01  0.0000000E+00  0.5144033E-03
   1       -4.1697
   2       -3.5322
   3       -3.5197
   4       -3.5057
   5       -3.5003
   6       -3.4626
   7       -3.4563
   8       -2.8714
   9       -2.6559
  10       -2.6549
  11       -2.2764
  12       -2.1344
  13       -2.0070
  14       -2.0025
  15       -1.8860
  16       -1.8810
  17       -1.8199
  18       -1.7780
  19       -1.7698
  20       -1.6146
  21       -1.6141
  22        0.8785
  23        3.7244
  24        3.8199
  25        5.9377
  26        6.0303
  27        8.6666
  28        8.7200
  29        8.9624
  30        9.1381
  31        9.4193
  32       10.9580
 
  0.2500000E+00  0.2777778E-01  0.0000000E+00  0.5144033E-03
   1       -4.0709
   2       -3.5020
   3       -3.4959
   4       -3.4692
   5       -3.4632
   6       -3.4227
   7       -3.4159
   8       -2.8976
   9       -2.6272
  10       -2.6267
  11       -2.2942
  12       -2.1218
  13       -2.0907
  14       -2.0867
  15       -1.9182
  16       -1.9139
  17       -1.8473
  18       -1.8183
  19       -1.7958
  20       -1.6145
  21       -1.6141
  22        0.5457
  23        3.9009
  24        4.0008
  25        5.9666
  26        6.0638
  27        8.4058
  28        8.6838
  29        8.9342
  30        9.2008
  31        9.2415
  32       11.1167
 
  0.2777778E+00  0.2777778E-01  0.0000000E+00  0.5144033E-03
   1       -3.9641
   2       -3.4699
   3       -3.4699
   4       -3.4305
   5       -3.4242
   6       -3.3782
   7       -3.3714
   8       -2.9261
   9       -2.5958
  10       -2.5956
  11       -2.3097
  12       -2.1777
  13       -2.1741
  14       -2.1080
  15       -1.9521
  16       -1.9484
  17       -1.8835
  18       -1.8614
  19       -1.8171
  20       -1.6145
  21       -1.6141
  22        0.2214
  23        4.0904
  24        4.1958
  25        5.9978
  26        6.1008
  27        8.1448
  28        8.3994
  29        8.7399
  30        8.9857
  31        9.7768
  32       11.2920
 
  0.3055556E+00  0.2777778E-01  0.0000000E+00  0.5144033E-03
   1       -3.8514
   2       -3.4418
   3       -3.4366
   4       -3.3905
   5       -3.3845
   6       -3.3292
   7       -3.3229
   8       -2.9567
   9       -2.5626
  10       -2.5612
  11       -2.3201
  12       -2.2667
  13       -2.2633
  14       -2.0931
  15       -1.9870
  16       -1.9837
  17       -1.9257
  18       -1.9070
  19       -1.8361
  20       -1.6144
  21       -1.6141
  22       -0.0925
  23        4.2913
  24        4.4035
  25        6.0304
  26        6.1408
  27        7.8845
  28        8.1117
  29        8.5585
  30        8.7791
  31       10.3243
  32       11.4828
 
  0.3333333E+00  0.2777778E-01  0.0000000E+00  0.5144033E-03
   1       -3.7360
   2       -3.4118
   3       -3.4030
   4       -3.3504
   5       -3.3452
   6       -3.2759
   7       -3.2704
   8       -2.9890
   9       -2.5276
  10       -2.5240
  11       -2.3565
  12       -2.3533
  13       -2.3218
  14       -2.0771
  15       -2.0218
  16       -2.0190
  17       -1.9715
  18       -1.9546
  19       -1.8544
  20       -1.6144
  21       -1.6141
  22       -0.3945
  23        4.5022
  24        4.6226
  25        6.0629
  26        6.1831
  27        7.6259
  28        7.8224
  29        8.3931
  30        8.5857
  31       10.8821
  32       11.6898
 
  0.3611111E+00  0.2777778E-01  0.0000000E+00  0.5144033E-03
   1       -3.6223
   2       -3.3801
   3       -3.3701
   4       -3.3119
   5       -3.3076
   6       -3.2182
   7       -3.2139
   8       -3.0227
   9       -2.4914
  10       -2.4843
  11       -2.4463
  12       -2.4433
  13       -2.3097
  14       -2.0604
  15       -2.0552
  16       -2.0528
  17       -2.0196
  18       -2.0036
  19       -1.8728
  20       -1.6143
  21       -1.6140
  22       -0.6831
  23        4.7213
  24        4.8521
  25        6.0926
  26        6.2266
  27        7.3706
  28        7.5332
  29        8.2466
  30        8.4095
  31       11.4458
  32       11.9086
 
  0.3888889E+00  0.2777778E-01  0.0000000E+00  0.5144033E-03
   1       -3.5162
   2       -3.3469
   3       -3.3394
   4       -3.2766
   5       -3.2734
   6       -3.1562
   7       -3.1532
   8       -3.0577
   9       -2.5352
  10       -2.5325
  11       -2.4539
  12       -2.4423
  13       -2.2778
  14       -2.0859
  15       -2.0840
  16       -2.0692
  17       -2.0537
  18       -2.0428
  19       -1.8914
  20       -1.6142
  21       -1.6140
  22       -0.9567
  23        4.9471
  24        5.0911
  25        6.1151
  26        6.2700
  27        7.1217
  28        7.2451
  29        8.1222
  30        8.2544
  31       11.9873
  32       12.1413
 
  0.4166667E+00  0.2777778E-01  0.0000000E+00  0.5144033E-03
   1       -3.4249
   2       -3.3127
   3       -3.3125
   4       -3.2465
   5       -3.2442
   6       -3.0936
   7       -3.0902
   8       -3.0883
   9       -2.6226
  10       -2.6203
  11       -2.4139
  12       -2.3981
  13       -2.2204
  14       -2.1198
  15       -2.1122
  16       -2.1107
  17       -2.1043
  18       -2.0246
  19       -1.9104
  20       -1.6142
  21       -1.6140
  22       -1.2134
  23        5.1772
  24        5.3386
  25        6.1215
  26        6.3118
  27        6.8863
  28        6.9594
  29        8.0236
  30        8.1242
  31       12.3468
  32       12.3867
 
  0.4444444E+00  0.2777778E-01  0.0000000E+00  0.5144033E-03
   1       -3.3547
   2       -3.2925
   3       -3.2770
   4       -3.2232
   5       -3.2218
   6       -3.1302
   7       -3.0203
   8       -3.0194
   9       -2.7079
  10       -2.7060
  11       -2.3701
  12       -2.3521
  13       -2.1709
  14       -2.1551
  15       -2.1325
  16       -2.1324
  17       -2.1315
  18       -2.0057
  19       -1.9296
  20       -1.6141
  21       -1.6140
  22       -1.4506
  23        5.4084
  24        5.5938
  25        6.0944
  26        6.3516
  27        6.6768
  28        6.6798
  29        7.9545
  30        8.0224
  31       12.6187
  32       12.6440
 
  0.4722222E+00  0.2777778E-01  0.0000000E+00  0.5144033E-03
   1       -3.3087
   2       -3.2821
   3       -3.2408
   4       -3.2084
   5       -3.2077
   6       -3.1671
   7       -2.9467
   8       -2.9467
   9       -2.7906
  10       -2.7892
  11       -2.3226
  12       -2.3045
  13       -2.2221
  14       -2.2056
  15       -2.1453
  16       -2.1448
  17       -2.0126
  18       -1.9842
  19       -1.9490
  20       -1.6650
  21       -1.6141
  22       -1.6141
  23        5.6345
  24        5.8560
  25        6.0049
  26        6.3915
  27        6.3982
  28        6.5286
  29        7.9183
  30        7.9525
  31       12.8906
  32       12.9122
 
  0.5000000E+00  0.2777778E-01  0.0000000E+00  0.2572016E-03
   1       -3.2859
   2       -3.2859
   3       -3.2040
   4       -3.2040
   5       -3.2031
   6       -3.2031
   7       -2.8703
   8       -2.8703
   9       -2.8695
  10       -2.8695
  11       -2.2729
  12       -2.2729
  13       -2.2556
  14       -2.2556
  15       -2.1495
  16       -2.1495
  17       -1.9688
  18       -1.9688
  19       -1.8523
  20       -1.8523
  21       -1.6141
  22       -1.6141
  23        5.8423
  24        5.8423
  25        6.1243
  26        6.1243
  27        6.4420
  28        6.4420
  29        7.9174
  30        7.9174
  31       13.1712
  32       13.1778
 
  0.5555556E-01  0.5555556E-01  0.0000000E+00  0.2572016E-03
   1       -4.5179
   2       -3.6414
   3       -3.6414
   4       -3.6409
   5       -3.5998
   6       -3.5998
   7       -3.5948
   8       -2.7753
   9       -2.7567
  10       -2.7523
  11       -2.1919
  12       -2.1817
  13       -1.7676
  14       -1.7636
  15       -1.7636
  16       -1.6600
  17       -1.6498
  18       -1.6498
  19       -1.6226
  20       -1.6226
  21       -1.6194
  22        2.8448
  23        2.8448
  24        3.1551
  25        5.8376
  26        6.1339
  27        6.1339
  28        9.8691
  29       10.2919
  30       10.2919
  31       10.2920
  32       10.2920
 
  0.8333333E-01  0.5555556E-01  0.0000000E+00  0.5144033E-03
   1       -4.4866
   2       -3.6310
   3       -3.6297
   4       -3.6282
   5       -3.5924
   6       -3.5880
   7       -3.5811
   8       -2.7823
   9       -2.7495
  10       -2.7438
  11       -2.1987
  12       -2.1790
  13       -1.7785
  14       -1.7771
  15       -1.7698
  16       -1.6913
  17       -1.6820
  18       -1.6616
  19       -1.6365
  20       -1.6226
  21       -1.6221
  22        2.5776
  23        2.9050
  24        3.2180
  25        5.8463
  26        6.1456
  27        6.4559
  28        9.6332
  29       10.1520
  30       10.1562
  31       10.3403
  32       10.3405
 
  0.1111111E+00  0.5555556E-01  0.0000000E+00  0.5144033E-03
   1       -4.4430
   2       -3.6167
   3       -3.6142
   4       -3.6100
   5       -3.5821
   6       -3.5715
   7       -3.5621
   8       -2.7934
   9       -2.7380
  10       -2.7318
  11       -2.2095
  12       -2.1736
  13       -1.7979
  14       -1.7936
  15       -1.7788
  16       -1.7361
  17       -1.7234
  18       -1.6776
  19       -1.6555
  20       -1.6233
  21       -1.6226
  22        2.2670
  23        2.9876
  24        3.3043
  25        5.8584
  26        6.1620
  27        6.8434
  28        9.3803
  29        9.9700
  30        9.9855
  31       10.4024
  32       10.4077
 
  0.1388889E+00  0.5555556E-01  0.0000000E+00  0.5144033E-03
   1       -4.3873
   2       -3.5985
   3       -3.5944
   4       -3.5870
   5       -3.5689
   6       -3.5503
   7       -3.5380
   8       -2.8080
   9       -2.7227
  10       -2.7166
  11       -2.2232
  12       -2.1664
  13       -1.8306
  14       -1.8127
  15       -1.7921
  16       -1.7910
  17       -1.7676
  18       -1.6969
  19       -1.6796
  20       -1.6238
  21       -1.6227
  22        1.9348
  23        3.0908
  24        3.4127
  25        5.8739
  26        6.1833
  27        7.2744
  28        9.1175
  29        9.7552
  30        9.7921
  31       10.2975
  32       10.4937
 
  0.1666667E+00  0.5555556E-01  0.0000000E+00  0.5144033E-03
   1       -4.3201
   2       -3.5768
   3       -3.5705
   4       -3.5596
   5       -3.5529
   6       -3.5244
   7       -3.5092
   8       -2.8258
   9       -2.7038
  10       -2.6982
  11       -2.2391
  12       -2.1575
  13       -1.8816
  14       -1.8574
  15       -1.8356
  16       -1.8072
  17       -1.8062
  18       -1.7185
  19       -1.7083
  20       -1.6241
  21       -1.6227
  22        1.5937
  23        3.2128
  24        3.5415
  25        5.8926
  26        6.2092
  27        7.7363
  28        8.8498
  29        9.5159
  30        9.5861
  31       10.1519
  32       10.5983
 
  0.1944444E+00  0.5555556E-01  0.0000000E+00  0.5144033E-03
   1       -4.2416
   2       -3.5517
   3       -3.5425
   4       -3.5343
   5       -3.5284
   6       -3.4939
   7       -3.4758
   8       -2.8466
   9       -2.6816
  10       -2.6767
  11       -2.2564
  12       -2.1471
  13       -1.9486
  14       -1.9303
  15       -1.8618
  16       -1.8399
  17       -1.8282
  18       -1.7413
  19       -1.7410
  20       -1.6242
  21       -1.6227
  22        1.2514
  23        3.3518
  24        3.6891
  25        5.9144
  26        6.2400
  27        8.2214
  28        8.5811
  29        9.2586
  30        9.3756
  31        9.9767
  32       10.7204
 
  0.2222222E+00  0.5555556E-01  0.0000000E+00  0.5144033E-03
   1       -4.1528
   2       -3.5239
   3       -3.5132
   4       -3.5108
   5       -3.4938
   6       -3.4588
   7       -3.4383
   8       -2.8701
   9       -2.6562
  10       -2.6523
  11       -2.2741
  12       -2.1352
  13       -2.0249
  14       -2.0091
  15       -1.8911
  16       -1.8730
  17       -1.8550
  18       -1.7782
  19       -1.7630
  20       -1.6242
  21       -1.6227
  22        0.9124
  23        3.5060
  24        3.8537
  25        5.9387
  26        6.2752
  27        8.3145
  28        8.7250
  29        8.9886
  30        9.1669
  31        9.7821
  32       10.8610
 
  0.2500000E+00  0.5555556E-01  0.0000000E+00  0.5144033E-03
   1       -4.0546
   2       -3.4935
   3       -3.4896
   4       -3.4757
   5       -3.4566
   6       -3.4190
   7       -3.3970
   8       -2.8961
   9       -2.6276
  10       -2.6255
  11       -2.2908