 running on    8 nodes
 distr:  one band on    1 nodes,    8 groups
 vasp.4.6.28 25Jul05 complex 
 POSCAR found :  1 types and    4 ions
 WARNING: PSMAXN for non-local potential too small
 LDA part: xc-table for Pade appr. of Perdew
 POSCAR, INCAR and KPOINTS ok, starting setup
 FFT: planning ...           1
 reading WAVECAR
 entering main loop
       N       E                     dE             d eps       ncg     rms          rms(c)
DAV:   1     0.553705680429E+03    0.55371E+03   -0.29904E+04 85120   0.220E+03
DAV:   2     0.963744069202E+01   -0.54407E+03   -0.49681E+03 85136   0.464E+02
DAV:   3    -0.118323414751E+02   -0.21470E+02   -0.20856E+02100560   0.105E+02
DAV:   4    -0.120760635309E+02   -0.24372E+00   -0.24350E+00 91328   0.103E+01
DAV:   5    -0.120779747618E+02   -0.19112E-02   -0.19109E-02102232   0.859E-01    0.462E+00
DAV:   6    -0.113736023867E+02    0.70437E+00   -0.20361E+00 94712   0.123E+01    0.111E+00
DAV:   7    -0.113621723031E+02    0.11430E-01   -0.63754E-02 93208   0.154E+00    0.624E-01
DAV:   8    -0.113608357682E+02    0.13365E-02   -0.63158E-03 93136   0.706E-01    0.466E-02
DAV:   9    -0.113609554145E+02   -0.11965E-03   -0.20419E-04100024   0.967E-02    0.253E-02
DAV:  10    -0.113609662108E+02   -0.10796E-04   -0.24595E-05 94000   0.304E-02    0.259E-03
DAV:  11    -0.113609671692E+02   -0.95838E-06   -0.10846E-06 99200   0.754E-03    0.144E-03
DAV:  12    -0.113609667007E+02    0.46848E-06   -0.13526E-07 95416   0.335E-03    0.135E-04
DAV:  13    -0.113609667023E+02   -0.15907E-08   -0.98971E-10 63000   0.256E-04
   1 F= -.11360967E+02 E0= -.11360928E+02  d E =-.777123E-04
