   4   4   0   0
  0.2418841E+02  0.4590808E-09  0.4590808E-09  0.4590808E-09  0.5000000E-15
  1.000000000000000E-004
  CAR 
 unknown system                          
     17.32996642     -5.72059582  301      2.04473746      1.00000000
     -5.721  0.0000E+00  0.0000E+00
     -5.644  0.0000E+00  0.0000E+00
     -5.567  0.0000E+00  0.0000E+00
     -5.490  0.0000E+00  0.0000E+00
     -5.413  0.0000E+00  0.0000E+00
     -5.336  0.0000E+00  0.0000E+00
     -5.260  0.0000E+00  0.0000E+00
     -5.183  0.0000E+00  0.0000E+00
     -5.106  0.0000E+00  0.0000E+00
     -5.029  0.0000E+00  0.0000E+00
     -4.952  0.0000E+00  0.0000E+00
     -4.875  0.0000E+00  0.0000E+00
     -4.799  0.0000E+00  0.0000E+00
     -4.722  0.1314E-14  0.1009E-15
     -4.645  0.1999E-01  0.1536E-02
     -4.568  0.1238E+00  0.1110E-01
     -4.491  0.1953E+00  0.2620E-01
     -4.414  0.2235E+00  0.4404E-01
     -4.338  0.2785E+00  0.6576E-01
     -4.261  0.3118E+00  0.9014E-01
     -4.184  0.3721E+00  0.1192E+00
     -4.107  0.3621E+00  0.1480E+00
     -4.030  0.4165E+00  0.1807E+00
     -3.953  0.4547E+00  0.2159E+00
     -3.877  0.4820E+00  0.2530E+00
     -3.800  0.5323E+00  0.2953E+00
     -3.723  0.5771E+00  0.3406E+00
     -3.646  0.5670E+00  0.3853E+00
     -3.569  0.6019E+00  0.4324E+00
     -3.492  0.6918E+00  0.4867E+00
     -3.416  0.6979E+00  0.5415E+00
     -3.339  0.7526E+00  0.6003E+00
     -3.262  0.8496E+00  0.6666E+00
     -3.185  0.8596E+00  0.7351E+00
     -3.108  0.9424E+00  0.8087E+00
     -3.031  0.1082E+01  0.8936E+00
     -2.955  0.1197E+01  0.9865E+00
     -2.878  0.1262E+01  0.1087E+01
     -2.801  0.1570E+01  0.1209E+01
     -2.724  0.2184E+01  0.1380E+01
     -2.647  0.3723E+01  0.1669E+01
     -2.570  0.3740E+01  0.1961E+01
     -2.494  0.3826E+01  0.2266E+01
     -2.417  0.5207E+01  0.2673E+01
     -2.340  0.7219E+01  0.3236E+01
     -2.263  0.9399E+01  0.3973E+01
     -2.186  0.1200E+02  0.4910E+01
     -2.109  0.1259E+02  0.5897E+01
     -2.033  0.1148E+02  0.6799E+01
     -1.956  0.1107E+02  0.7666E+01
     -1.879  0.1024E+02  0.8469E+01
     -1.802  0.9774E+01  0.9234E+01
     -1.725  0.8708E+01  0.9922E+01
     -1.648  0.7569E+01  0.1052E+02
     -1.571  0.1095E+02  0.1137E+02
     -1.495  0.1359E+02  0.1243E+02
     -1.418  0.1565E+02  0.1366E+02
     -1.341  0.1508E+02  0.1485E+02
     -1.264  0.1406E+02  0.1595E+02
     -1.187  0.1483E+02  0.1711E+02
     -1.110  0.1692E+02  0.1844E+02
     -1.034  0.2315E+02  0.2025E+02
     -0.957  0.2153E+02  0.2196E+02
     -0.880  0.1565E+02  0.2318E+02
     -0.803  0.1207E+02  0.2413E+02
     -0.726  0.1228E+02  0.2509E+02
     -0.649  0.1225E+02  0.2605E+02
     -0.573  0.1446E+02  0.2718E+02
     -0.496  0.1533E+02  0.2838E+02
     -0.419  0.1632E+02  0.2966E+02
     -0.342  0.1591E+02  0.3091E+02
     -0.265  0.1381E+02  0.3199E+02
     -0.188  0.1294E+02  0.3300E+02
     -0.112  0.1277E+02  0.3400E+02
     -0.035  0.1298E+02  0.3502E+02
      0.042  0.1342E+02  0.3607E+02
      0.119  0.1537E+02  0.3728E+02
      0.196  0.2213E+02  0.3901E+02
      0.273  0.1982E+02  0.4057E+02
      0.349  0.1028E+02  0.4139E+02
      0.426  0.5183E+01  0.4179E+02
      0.503  0.1682E+01  0.4193E+02
      0.580  0.1346E+01  0.4203E+02
      0.657  0.1257E+01  0.4213E+02
      0.734  0.1520E+01  0.4225E+02
      0.810  0.1360E+01  0.4236E+02
      0.887  0.1213E+01  0.4245E+02
      0.964  0.1485E+01  0.4257E+02
      1.041  0.1149E+01  0.4266E+02
      1.118  0.1504E+01  0.4278E+02
      1.195  0.1133E+01  0.4287E+02
      1.271  0.1473E+01  0.4298E+02
      1.348  0.1106E+01  0.4307E+02
      1.425  0.1446E+01  0.4318E+02
      1.502  0.1203E+01  0.4328E+02
      1.579  0.1375E+01  0.4338E+02
      1.656  0.1220E+01  0.4348E+02
      1.732  0.1355E+01  0.4358E+02
      1.809  0.1358E+01  0.4369E+02
      1.886  0.1286E+01  0.4379E+02
      1.963  0.1329E+01  0.4390E+02
      2.040  0.1237E+01  0.4399E+02
      2.117  0.1417E+01  0.4410E+02
      2.193  0.1219E+01  0.4420E+02
      2.270  0.1512E+01  0.4432E+02
      2.347  0.1278E+01  0.4442E+02
      2.424  0.1397E+01  0.4453E+02
      2.501  0.1364E+01  0.4463E+02
      2.578  0.1454E+01  0.4475E+02
      2.654  0.1355E+01  0.4486E+02
      2.731  0.1482E+01  0.4497E+02
      2.808  0.1376E+01  0.4508E+02
      2.885  0.1530E+01  0.4520E+02
      2.962  0.1316E+01  0.4530E+02
      3.039  0.1410E+01  0.4541E+02
      3.115  0.1387E+01  0.4552E+02
      3.192  0.1348E+01  0.4563E+02
      3.269  0.1479E+01  0.4574E+02
      3.346  0.1410E+01  0.4585E+02
      3.423  0.1493E+01  0.4597E+02
      3.500  0.1342E+01  0.4608E+02
      3.576  0.1567E+01  0.4620E+02
      3.653  0.1618E+01  0.4633E+02
      3.730  0.2018E+01  0.4648E+02
      3.807  0.1836E+01  0.4663E+02
      3.884  0.2009E+01  0.4678E+02
      3.961  0.1803E+01  0.4693E+02
      4.037  0.1823E+01  0.4707E+02
      4.114  0.1795E+01  0.4721E+02
      4.191  0.1502E+01  0.4733E+02
      4.268  0.1766E+01  0.4746E+02
      4.345  0.1677E+01  0.4759E+02
      4.422  0.1319E+01  0.4770E+02
      4.498  0.1515E+01  0.4782E+02
      4.575  0.1444E+01  0.4793E+02
      4.652  0.1524E+01  0.4805E+02
      4.729  0.1197E+01  0.4814E+02
      4.806  0.1289E+01  0.4825E+02
      4.883  0.1321E+01  0.4835E+02
      4.959  0.1286E+01  0.4845E+02
      5.036  0.1137E+01  0.4854E+02
      5.113  0.1189E+01  0.4863E+02
      5.190  0.1003E+01  0.4871E+02
      5.267  0.7076E+00  0.4877E+02
      5.344  0.9455E+00  0.4884E+02
      5.421  0.1009E+01  0.4892E+02
      5.497  0.8998E+00  0.4899E+02
      5.574  0.1204E+01  0.4909E+02
      5.651  0.1680E+01  0.4922E+02
      5.728  0.1199E+01  0.4931E+02
      5.805  0.1126E+01  0.4940E+02
      5.882  0.1239E+01  0.4950E+02
      5.958  0.1713E+01  0.4963E+02
      6.035  0.2041E+01  0.4979E+02
      6.112  0.1749E+01  0.4993E+02
      6.189  0.1594E+01  0.5006E+02
      6.266  0.1645E+01  0.5018E+02
      6.343  0.1710E+01  0.5032E+02
      6.419  0.2284E+01  0.5050E+02
      6.496  0.1655E+01  0.5063E+02
      6.573  0.1645E+01  0.5076E+02
      6.650  0.1397E+01  0.5086E+02
      6.727  0.1953E+01  0.5102E+02
      6.804  0.1690E+01  0.5115E+02
      6.880  0.1903E+01  0.5130E+02
      6.957  0.1584E+01  0.5142E+02
      7.034  0.1384E+01  0.5153E+02
      7.111  0.1343E+01  0.5164E+02
      7.188  0.1716E+01  0.5177E+02
      7.265  0.1504E+01  0.5189E+02
      7.341  0.1541E+01  0.5201E+02
      7.418  0.1253E+01  0.5211E+02
      7.495  0.1146E+01  0.5220E+02
      7.572  0.1466E+01  0.5231E+02
      7.649  0.1435E+01  0.5243E+02
      7.726  0.1519E+01  0.5254E+02
      7.802  0.1378E+01  0.5265E+02
      7.879  0.1840E+01  0.5280E+02
      7.956  0.1560E+01  0.5292E+02
      8.033  0.1432E+01  0.5303E+02
      8.110  0.1354E+01  0.5314E+02
      8.187  0.1788E+01  0.5327E+02
      8.263  0.1679E+01  0.5341E+02
      8.340  0.1615E+01  0.5353E+02
      8.417  0.1499E+01  0.5365E+02
      8.494  0.1206E+01  0.5375E+02
      8.571  0.2141E+01  0.5391E+02
      8.648  0.1512E+01  0.5403E+02
      8.724  0.1503E+01  0.5415E+02
      8.801  0.1576E+01  0.5427E+02
      8.878  0.1418E+01  0.5438E+02
      8.955  0.2169E+01  0.5455E+02
      9.032  0.1494E+01  0.5467E+02
      9.109  0.1456E+01  0.5479E+02
      9.185  0.1558E+01  0.5491E+02
      9.262  0.1638E+01  0.5504E+02
      9.339  0.1773E+01  0.5518E+02
      9.416  0.1559E+01  0.5530E+02
      9.493  0.1885E+01  0.5545E+02
      9.570  0.1264E+01  0.5555E+02
      9.646  0.1589E+01  0.5568E+02
      9.723  0.1718E+01  0.5581E+02
      9.800  0.1952E+01  0.5596E+02
      9.877  0.1700E+01  0.5610E+02
      9.954  0.1790E+01  0.5624E+02
     10.031  0.1759E+01  0.5637E+02
     10.107  0.1969E+01  0.5653E+02
     10.184  0.1978E+01  0.5668E+02
     10.261  0.2064E+01  0.5684E+02
     10.338  0.1786E+01  0.5698E+02
     10.415  0.2052E+01  0.5714E+02
     10.492  0.1994E+01  0.5730E+02
     10.568  0.2181E+01  0.5747E+02
     10.645  0.2192E+01  0.5764E+02
     10.722  0.2154E+01  0.5781E+02
     10.799  0.1822E+01  0.5795E+02
     10.876  0.2520E+01  0.5815E+02
     10.953  0.2066E+01  0.5831E+02
     11.029  0.2454E+01  0.5850E+02
     11.106  0.2549E+01  0.5870E+02
     11.183  0.2308E+01  0.5889E+02
     11.260  0.2320E+01  0.5907E+02
     11.337  0.2332E+01  0.5925E+02
     11.414  0.2112E+01  0.5941E+02
     11.490  0.2643E+01  0.5962E+02
     11.567  0.2304E+01  0.5980E+02
     11.644  0.1817E+01  0.5994E+02
     11.721  0.2303E+01  0.6012E+02
     11.798  0.2081E+01  0.6029E+02
     11.875  0.2235E+01  0.6046E+02
     11.952  0.2281E+01  0.6064E+02
     12.028  0.2029E+01  0.6080E+02
     12.105  0.1729E+01  0.6094E+02
     12.182  0.2488E+01  0.6113E+02
     12.259  0.1911E+01  0.6128E+02
     12.336  0.1986E+01  0.6144E+02
     12.413  0.1906E+01  0.6158E+02
     12.489  0.1797E+01  0.6173E+02
     12.566  0.1705E+01  0.6186E+02
     12.643  0.1506E+01  0.6198E+02
     12.720  0.1464E+01  0.6209E+02
     12.797  0.1476E+01  0.6221E+02
     12.874  0.1223E+01  0.6230E+02
     12.950  0.1075E+01  0.6239E+02
     13.027  0.1174E+01  0.6248E+02
     13.104  0.1174E+01  0.6257E+02
     13.181  0.9056E+00  0.6264E+02
     13.258  0.1114E+01  0.6273E+02
     13.335  0.1039E+01  0.6281E+02
     13.411  0.5841E+00  0.6286E+02
     13.488  0.1116E+01  0.6295E+02
     13.565  0.7363E+00  0.6300E+02
     13.642  0.6593E+00  0.6306E+02
     13.719  0.8518E+00  0.6312E+02
     13.796  0.6640E+00  0.6317E+02
     13.872  0.4945E+00  0.6321E+02
     13.949  0.7739E+00  0.6327E+02
     14.026  0.5792E+00  0.6332E+02
     14.103  0.4821E+00  0.6336E+02
     14.180  0.6673E+00  0.6341E+02
     14.257  0.4944E+00  0.6345E+02
     14.333  0.4244E+00  0.6348E+02
     14.410  0.4641E+00  0.6352E+02
     14.487  0.3803E+00  0.6355E+02
     14.564  0.5751E+00  0.6359E+02
     14.641  0.2622E+00  0.6361E+02
     14.718  0.4099E+00  0.6364E+02
     14.794  0.4490E+00  0.6368E+02
     14.871  0.2630E+00  0.6370E+02
     14.948  0.3320E+00  0.6373E+02
     15.025  0.4458E+00  0.6376E+02
     15.102  0.1762E+00  0.6377E+02
     15.179  0.3571E+00  0.6380E+02
     15.255  0.2519E+00  0.6382E+02
     15.332  0.1355E+00  0.6383E+02
     15.409  0.3898E+00  0.6386E+02
     15.486  0.9800E-01  0.6387E+02
     15.563  0.2938E+00  0.6389E+02
     15.640  0.1638E+00  0.6391E+02
     15.716  0.1243E+00  0.6392E+02
     15.793  0.2254E+00  0.6393E+02
     15.870  0.1209E+00  0.6394E+02
     15.947  0.2087E+00  0.6396E+02
     16.024  0.8715E-01  0.6397E+02
     16.101  0.1447E+00  0.6398E+02
     16.177  0.1295E+00  0.6399E+02
     16.254  0.1462E+00  0.6400E+02
     16.331  0.4463E-02  0.6400E+02
     16.408  0.0000E+00  0.6400E+02
     16.485  0.0000E+00  0.6400E+02
     16.562  0.0000E+00  0.6400E+02
     16.638  0.0000E+00  0.6400E+02
     16.715  0.0000E+00  0.6400E+02
     16.792  0.0000E+00  0.6400E+02
     16.869  0.0000E+00  0.6400E+02
     16.946  0.0000E+00  0.6400E+02
     17.023  0.0000E+00  0.6400E+02
     17.099  0.0000E+00  0.6400E+02
     17.176  0.0000E+00  0.6400E+02
     17.253  0.0000E+00  0.6400E+02
     17.330  0.0000E+00  0.6400E+02
