    4    4    1    1
  0.2418841E+02  0.4590808E-09  0.4590808E-09  0.4590808E-09  0.5000000E-15
  1.000000000000000E-004
  CAR 
 unknown system                          
   44 1330   32
 
  0.0000000E+00  0.0000000E+00  0.0000000E+00  0.2143347E-04
   1       -4.6728
   2       -2.4954
   3       -2.4954
   4       -2.4954
   5       -2.3430
   6       -2.3430
   7       -2.3430
   8       -1.2246
   9       -1.2246
  10       -1.2246
  11       -0.4200
  12       -0.4200
  13        0.1933
  14        0.1933
  15        0.1933
  16        0.3912
  17        0.3912
  18        0.3912
  19        0.3912
  20        0.3912
  21        0.3912
  22        3.9307
  23        3.9307
  24        3.9307
  25        5.5315
  26        5.5315
  27        5.5315
  28       11.0560
  29       11.0560
  30       11.0560
  31       11.0560
  32       11.0560
 
  0.2777778E-01  0.0000000E+00  0.0000000E+00  0.1286008E-03
   1       -4.6662
   2       -2.4936
   3       -2.4916
   4       -2.4916
   5       -2.3411
   6       -2.3400
   7       -2.3400
   8       -1.2270
   9       -1.2223
  10       -1.2223
  11       -0.4224
  12       -0.4188
  13        0.1900
  14        0.1900
  15        0.1921
  16        0.3788
  17        0.3788
  18        0.3870
  19        0.3870
  20        0.3912
  21        0.3912
  22        3.8108
  23        3.9487
  24        3.9487
  25        5.5286
  26        5.5286
  27        5.6633
  28       11.0374
  29       11.0375
  30       11.0375
  31       11.0376
  32       11.0678
 
  0.5555556E-01  0.0000000E+00  0.0000000E+00  0.1286008E-03
   1       -4.6463
   2       -2.4882
   3       -2.4804
   4       -2.4804
   5       -2.3353
   6       -2.3311
   7       -2.3311
   8       -1.2341
   9       -1.2153
  10       -1.2153
  11       -0.4297
  12       -0.4155
  13        0.1799
  14        0.1799
  15        0.1884
  16        0.3424
  17        0.3424
  18        0.3744
  19        0.3744
  20        0.3913
  21        0.3913
  22        3.5265
  23        4.0019
  24        4.0019
  25        5.5200
  26        5.5200
  27        5.9833
  28       10.9820
  29       10.9820
  30       10.9841
  31       10.9841
  32       11.1030
 
  0.8333333E-01  0.0000000E+00  0.0000000E+00  0.1286008E-03
   1       -4.6131
   2       -2.4795
   3       -2.4618
   4       -2.4618
   5       -2.3258
   6       -2.3163
   7       -2.3163
   8       -1.2459
   9       -1.2037
  10       -1.2037
  11       -0.4419
  12       -0.4100
  13        0.1632
  14        0.1632
  15        0.1823
  16        0.2841
  17        0.2841
  18        0.3536
  19        0.3536
  20        0.3913
  21        0.3913
  22        3.1750
  23        4.0880
  24        4.0880
  25        5.5058
  26        5.5058
  27        6.3946
  28       10.8919
  29       10.8919
  30       10.9012
  31       10.9012
  32       11.1613
 
  0.1111111E+00  0.0000000E+00  0.0000000E+00  0.1286008E-03
   1       -4.5668
   2       -2.4678
   3       -2.4361
   4       -2.4361
   5       -2.3126
   6       -2.2956
   7       -2.2956
   8       -1.2622
   9       -1.1875
  10       -1.1875
  11       -0.4586
  12       -0.4024
  13        0.1400
  14        0.1400
  15        0.1738
  16        0.2070
  17        0.2070
  18        0.3250
  19        0.3250
  20        0.3913
  21        0.3913
  22        2.8015
  23        4.2039
  24        4.2039
  25        5.4866
  26        5.4866
  27        6.8520
  28       10.7698
  29       10.7698
  30       10.7965
  31       10.7965
  32       11.2423
 
  0.1388889E+00  0.0000000E+00  0.0000000E+00  0.1286008E-03
   1       -4.5076
   2       -2.4536
   3       -2.4037
   4       -2.4037
   5       -2.2957
   6       -2.2690
   7       -2.2690
   8       -1.2829
   9       -1.1667
  10       -1.1667
  11       -0.4796
  12       -0.3926
  13        0.1105
  14        0.1105
  15        0.1146
  16        0.1146
  17        0.1631
  18        0.2890
  19        0.2890
  20        0.3914
  21        0.3914
  22        2.4245
  23        4.3461
  24        4.3461
  25        5.4629
  26        5.4629
  27        7.3372
  28       10.6191
  29       10.6191
  30       10.6778
  31       10.6778
  32       11.3455
 
  0.1666667E+00  0.0000000E+00  0.0000000E+00  0.1286008E-03
   1       -4.4356
   2       -2.4375
   3       -2.3649
   4       -2.3649
   5       -2.2752
   6       -2.2365
   7       -2.2365
   8       -1.3078
   9       -1.1415
  10       -1.1415
  11       -0.5046
  12       -0.3808
  13        0.0105
  14        0.0105
  15        0.0750
  16        0.0750
  17        0.1501
  18        0.2463
  19        0.2463
  20        0.3914
  21        0.3914
  22        2.0527
  23        4.5109
  24        4.5109
  25        5.4353
  26        5.4353
  27        7.8421
  28       10.4435
  29       10.4435
  30       10.5520
  31       10.5520
  32       11.4702
 
  0.1944444E+00  0.0000000E+00  0.0000000E+00  0.1286008E-03
   1       -4.3510
   2       -2.4207
   3       -2.3204
   4       -2.3203
   5       -2.2512
   6       -2.1981
   7       -2.1981
   8       -1.3366
   9       -1.1118
  10       -1.1118
  11       -0.5331
  12       -0.3671
  13       -0.1024
  14       -0.1024
  15        0.0340
  16        0.0340
  17        0.1351
  18        0.1975
  19        0.1975
  20        0.3915
  21        0.3915
  22        1.6908
  23        4.6950
  24        4.6950
  25        5.4048
  26        5.4048
  27        8.3625
  28       10.2465
  29       10.2465
  30       10.4250
  31       10.4250
  32       11.6155
 
  0.2222222E+00  0.0000000E+00  0.0000000E+00  0.1286008E-03
   1       -4.2543
   2       -2.4042
   3       -2.2707
   4       -2.2707
   5       -2.2240
   6       -2.1539
   7       -2.1539
   8       -1.3690
   9       -1.0779
  10       -1.0779
  11       -0.5646
  12       -0.3515
  13       -0.2212
  14       -0.2212
  15       -0.0121
  16       -0.0121
  17        0.1181
  18        0.1433
  19        0.1433
  20        0.3916
  21        0.3916
  22        1.3421
  23        4.8957
  24        4.8957
  25        5.3721
  26        5.3721
  27        8.8961
  28       10.0315
  29       10.0315
  30       10.3014
  31       10.3014
  32       11.7806
 
  0.2500000E+00  0.0000000E+00  0.0000000E+00  0.1286008E-03
   1       -4.1459
   2       -2.3897
   3       -2.2170
   4       -2.2170
   5       -2.1936
   6       -2.1038
   7       -2.1038
   8       -1.4047
   9       -1.0397
  10       -1.0397
  11       -0.5983
  12       -0.3438
  13       -0.3438
  14       -0.3341
  15       -0.0624
  16       -0.0624
  17        0.0845
  18        0.0845
  19        0.0993
  20        0.3916
  21        0.3916
  22        1.0092
  23        5.1104
  24        5.1104
  25        5.3384
  26        5.3384
  27        9.4409
  28        9.8015
  29        9.8015
  30       10.1844
  31       10.1844
  32       11.9645
 
  0.2777778E+00  0.0000000E+00  0.0000000E+00  0.1286008E-03
   1       -4.0263
   2       -2.3794
   3       -2.1602
   4       -2.1602
   5       -2.1602
   6       -2.0480
   7       -2.0480
   8       -1.4434
   9       -0.9974
  10       -0.9974
  11       -0.6334
  12       -0.4682
  13       -0.4682
  14       -0.3151
  15       -0.1161
  16       -0.1161
  17        0.0217
  18        0.0217
  19        0.0788
  20        0.3917
  21        0.3917
  22        0.6949
  23        5.3046
  24        5.3046
  25        5.3371
  26        5.3371
  27        9.5593
  28        9.5593
  29        9.9959
  30       10.0765
  31       10.0765
  32       12.1661
 
  0.3055556E+00  0.0000000E+00  0.0000000E+00  0.1286008E-03
   1       -3.8964
   2       -2.3760
   3       -2.1241
   4       -2.1016
   5       -2.1016
   6       -1.9864
   7       -1.9864
   8       -1.4846
   9       -0.9511
  10       -0.9511
  11       -0.6688
  12       -0.5931
  13       -0.5931
  14       -0.2946
  15       -0.1717
  16       -0.1717
  17       -0.0441
  18       -0.0441
  19        0.0569
  20        0.3918
  21        0.3918
  22        0.4024
  23        5.2719
  24        5.2719
  25        5.5740
  26        5.5740
  27        9.3073
  28        9.3073
  29        9.9793
  30        9.9793
  31       10.5599
  32       12.3845
 
  0.3333333E+00  0.0000000E+00  0.0000000E+00  0.1286008E-03
   1       -3.7570
   2       -2.3830
   3       -2.0854
   4       -2.0431
   5       -2.0431
   6       -1.9191
   7       -1.9191
   8       -1.5282
   9       -0.9011
  10       -0.9011
  11       -0.7171
  12       -0.7171
  13       -0.7031
  14       -0.2727
  15       -0.2278
  16       -0.2278
  17       -0.1124
  18       -0.1124
  19        0.0337
  20        0.1350
  21        0.3918
  22        0.3918
  23        5.2411
  24        5.2411
  25        5.8196
  26        5.8196
  27        9.0474
  28        9.0474
  29        9.8940
  30        9.8940
  31       11.1315
  32       12.6186
 
  0.3611111E+00  0.0000000E+00  0.0000000E+00  0.1286008E-03
   1       -3.6097
   2       -2.4045
   3       -2.0443
   4       -1.9864
   5       -1.9864
   6       -1.8462
   7       -1.8462
   8       -1.5735
   9       -0.8475
  10       -0.8475
  11       -0.8393
  12       -0.8393
  13       -0.7347
  14       -0.2823
  15       -0.2823
  16       -0.2495
  17       -0.1823
  18       -0.1823
  19       -0.1029
  20        0.0094
  21        0.3919
  22        0.3919
  23        5.2134
  24        5.2134
  25        6.0726
  26        6.0726
  27        8.7814
  28        8.7814
  29        9.8212
  30        9.8212
  31       11.7093
  32       12.8672
 
  0.3888889E+00  0.0000000E+00  0.0000000E+00  0.1286008E-03
   1       -3.4560
   2       -2.4450
   3       -2.0012
   4       -1.9341
   5       -1.9341
   6       -1.7677
   7       -1.7677
   8       -1.6204
   9       -0.9589
  10       -0.9589
  11       -0.7906
  12       -0.7906
  13       -0.7614
  14       -0.3329
  15       -0.3329
  16       -0.3073
  17       -0.2533
  18       -0.2533
  19       -0.2253
  20       -0.0158
  21        0.3919
  22        0.3919
  23        5.1895
  24        5.1895
  25        6.3318
  26        6.3318
  27        8.5110
  28        8.5110
  29        9.7615
  30        9.7615
  31       12.2914
  32       13.1292
 
  0.4166667E+00  0.0000000E+00  0.0000000E+00  0.1286008E-03
   1       -3.2985
   2       -2.5083
   3       -1.9564
   4       -1.8889
   5       -1.8889
   6       -1.6838
   7       -1.6838
   8       -1.6682
   9       -1.0754
  10       -1.0754
  11       -0.7804
  12       -0.7306
  13       -0.7306
  14       -0.4744
  15       -0.3768
  16       -0.3768
  17       -0.3246
  18       -0.3246
  19       -0.2003
  20       -0.0417
  21        0.3920
  22        0.3920
  23        5.1701
  24        5.1701
  25        6.5962
  26        6.5962
  27        8.2376
  28        8.2376
  29        9.7149
  30        9.7149
  31       12.8749
  32       13.4036
 
  0.4444444E+00  0.0000000E+00  0.0000000E+00  0.1286008E-03
   1       -3.1403
   2       -2.5962
   3       -1.9101
   4       -1.8537
   5       -1.8537
   6       -1.7168
   7       -1.5946
   8       -1.5946
   9       -1.1881
  10       -1.1881
  11       -0.7881
  12       -0.6678
  13       -0.6678
  14       -0.6026
  15       -0.4111
  16       -0.4111
  17       -0.3957
  18       -0.3957
  19       -0.1745
  20       -0.0681
  21        0.3920
  22        0.3920
  23        5.1558
  24        5.1558
  25        6.8649
  26        6.8649
  27        7.9623
  28        7.9623
  29        9.6815
  30        9.6815
  31       13.4556
  32       13.6891
 
  0.4722222E+00  0.0000000E+00  0.0000000E+00  0.1286008E-03
   1       -2.9857
   2       -2.7080
   3       -1.8626
   4       -1.8313
   5       -1.8313
   6       -1.7656
   7       -1.5002
   8       -1.5002
   9       -1.2967
  10       -1.2967
  11       -0.7799
  12       -0.6933
  13       -0.6025
  14       -0.6025
  15       -0.4660
  16       -0.4660
  17       -0.4331
  18       -0.4331
  19       -0.1482
  20       -0.0948
  21        0.3920
  22        0.3920
  23        5.1471
  24        5.1471
  25        7.1367
  26        7.1367
  27        7.6864
  28        7.6864
  29        9.6616
  30        9.6616
  31       13.9845
  32       13.9858
 
  0.5000000E+00  0.0000000E+00  0.0000000E+00  0.6430041E-04
   1       -2.8396
   2       -2.8396
   3       -1.8235
   4       -1.8235
   5       -1.8144
   6       -1.8144
   7       -1.4008
   8       -1.4008
   9       -1.4008
  10       -1.4008
  11       -0.7504
  12       -0.7504
  13       -0.5351
  14       -0.5351
  15       -0.5351
  16       -0.5351
  17       -0.4406
  18       -0.4406
  19       -0.1215
  20       -0.1215
  21        0.3920
  22        0.3920
  23        5.1441
  24        5.1441
  25        7.4109
  26        7.4109
  27        7.4109
  28        7.4109
  29        9.6549
  30        9.6549
  31       14.2886
  32       14.2886
 
  0.2777778E-01  0.2777778E-01  0.0000000E+00  0.2572016E-03
   1       -4.6596
   2       -2.4898
   3       -2.4898
   4       -2.4879
   5       -2.3381
   6       -2.3381
   7       -2.3370
   8       -1.2279
   9       -1.2214
  10       -1.2200
  11       -0.4231
  12       -0.4195
  13        0.1866
  14        0.1886
  15        0.1886
  16        0.3694
  17        0.3747
  18        0.3747
  19        0.3870
  20        0.3870
  21        0.3883
  22        3.8279
  23        3.8279
  24        3.9666
  25        5.5257
  26        5.6612
  27        5.6612
  28       10.9612
  29       11.0491
  30       11.0491
  31       11.0493
  32       11.0493
 
  0.5555556E-01  0.2777778E-01  0.0000000E+00  0.5144033E-03
   1       -4.6397
   2       -2.4844
   3       -2.4785
   4       -2.4769
   5       -2.3324
   6       -2.3292
   7       -2.3280
   8       -1.2342
   9       -1.2152
  10       -1.2130
  11       -0.4297
  12       -0.4168
  13        0.1766
  14        0.1781
  15        0.1845
  16        0.3348
  17        0.3385
  18        0.3622
  19        0.3744
  20        0.3869
  21        0.3870
  22        3.5425
  23        3.8783
  24        4.0195
  25        5.5169
  26        5.6553
  27        5.9823
  28       10.8538
  29       10.9937
  30       10.9959
  31       11.0826
  32       11.0843
 
  0.8333333E-01  0.2777778E-01  0.0000000E+00  0.5144033E-03
   1       -4.6065
   2       -2.4757
   3       -2.4600
   4       -2.4587
   5       -2.3229
   6       -2.3145
   7       -2.3129
   8       -1.2458
   9       -1.2037
  10       -1.2016
  11       -0.4417
  12       -0.4114
  13        0.1600
  14        0.1603
  15        0.1777
  16        0.2773
  17        0.2811
  18        0.3418
  19        0.3536
  20        0.3865
  21        0.3870
  22        3.1906
  23        3.9595
  24        4.1051
  25        5.5025
  26        5.6459
  27        6.3938
  28       10.7210
  29       10.9034
  30       10.9132
  31       11.0484
  32       11.1424
 
  0.1111111E+00  0.2777778E-01  0.0000000E+00  0.5144033E-03
   1       -4.5603
   2       -2.4639
   3       -2.4343
   4       -2.4336
   5       -2.3097
   6       -2.2938
   7       -2.2918
   8       -1.2621
   9       -1.1876
  10       -1.1855
  11       -0.4583
  12       -0.4037
  13        0.1337
  14        0.1369
  15        0.1681
  16        0.2010
  17        0.2072
  18        0.3139
  19        0.3250
  20        0.3864
  21        0.3871
  22        2.8173
  23        4.0675
  24        4.2205
  25        5.4830
  26        5.6341
  27        6.8508
  28       10.5683
  29       10.7811
  30       10.8088
  31       10.9818
  32       11.2236
 
  0.1388889E+00  0.2777778E-01  0.0000000E+00  0.5144033E-03
   1       -4.5011
   2       -2.4497
   3       -2.4018
   4       -2.4018
   5       -2.2928
   6       -2.2672
   7       -2.2646
   8       -1.2827
   9       -1.1669
  10       -1.1650
  11       -0.4792
  12       -0.3938
  13        0.0864
  14        0.1076
  15        0.1093
  16        0.1325
  17        0.1554
  18        0.2791
  19        0.2890
  20        0.3864
  21        0.3871
  22        2.4411
  23        4.1979
  24        4.3620
  25        5.4588
  26        5.6215
  27        7.3350
  28       10.4006
  29       10.6303
  30       10.6905
  31       10.8873
  32       11.3262
 
  0.1666667E+00  0.2777778E-01  0.0000000E+00  0.5144033E-03
   1       -4.4292
   2       -2.4336
   3       -2.3639
   4       -2.3629
   5       -2.2724
   6       -2.2348
   7       -2.2315
   8       -1.3075
   9       -1.1416
  10       -1.1400
  11       -0.5040
  12       -0.3818
  13       -0.0042
  14        0.0058
  15        0.0723
  16        0.0834
  17        0.1390
  18        0.2389
  19        0.2463
  20        0.3865
  21        0.3871
  22        2.0704
  23        4.3452
  24        4.5262
  25        5.4307
  26        5.6104
  27        7.8385
  28       10.2213
  29       10.4545
  30       10.5654
  31       10.7717
  32       11.4507
 
  0.1944444E+00  0.2777778E-01  0.0000000E+00  0.5144033E-03
   1       -4.3447
   2       -2.4167
   3       -2.3203
   4       -2.3183
   5       -2.2485
   6       -2.1964
   7       -2.1923
   8       -1.3361
   9       -1.1120
  10       -1.1107
  11       -0.5323
  12       -0.3679
  13       -0.1142
  14       -0.1064
  15        0.0314
  16        0.0395
  17        0.1171
  18        0.1955
  19        0.1975
  20        0.3865
  21        0.3872
  22        1.7101
  23        4.5031
  24        4.7097
  25        5.3994
  26        5.6048
  27        8.3571
  28       10.0323
  29       10.2573
  30       10.4393
  31       10.6423
  32       11.5977
 
  0.2222222E+00  0.2777778E-01  0.0000000E+00  0.5144033E-03
   1       -4.2481
   2       -2.4001
   3       -2.2718
   4       -2.2687
   5       -2.2213
   6       -2.1523
   7       -2.1473
   8       -1.3685
   9       -1.0780
  10       -1.0772
  11       -0.5635
  12       -0.3521
  13       -0.2319
  14       -0.2246
  15       -0.0144
  16       -0.0076
  17        0.0853
  18        0.1432
  19        0.1540
  20        0.3866
  21        0.3872
  22        1.3636
  23        4.6632
  24        4.9098
  25        5.3659
  26        5.6111
  27        8.8880
  28        9.8342
  29       10.0422
  30       10.3168
  31       10.5065
  32       11.7599
 
  0.2500000E+00  0.2777778E-01  0.0000000E+00  0.5144033E-03
   1       -4.1398
   2       -2.3855
   3       -2.2190
   4       -2.2148
   5       -2.1910
   6       -2.1023
   7       -2.0965
   8       -1.4041
   9       -1.0398
  10       -1.0396
  11       -0.5967
  12       -0.3538
  13       -0.3467
  14       -0.3345
  15       -0.0645
  16       -0.0584
  17        0.0387
  18        0.0844
  19        0.1199
  20        0.3867
  21        0.3873
  22        1.0341
  23        4.8133
  24        5.1240
  25        5.3312
  26        5.6399
  27        9.4295
  28        9.6266
  29        9.8121
  30       10.2012
  31       10.3712
  32       11.9433
 
  0.2777778E+00  0.2777778E-01  0.0000000E+00  0.5144033E-03
   1       -4.0204
   2       -2.3751
   3       -2.1631
   4       -2.1579
   5       -2.1577
   6       -2.0465
   7       -2.0402
   8       -1.4426
   9       -0.9982
  10       -0.9975
  11       -0.6311
  12       -0.4777
  13       -0.4706
  14       -0.3152
  15       -0.1179
  16       -0.1123
  17       -0.0212
  18        0.0216
  19        0.0917
  20        0.3868
  21        0.3873
  22        0.7249
  23        4.9377
  24        5.2962
  25        5.3502
  26        5.7060
  27        9.4091
  28        9.5698
  29        9.9800
  30       10.0951
  31       10.2421
  32       12.1442
 
  0.3055556E+00  0.2777778E-01  0.0000000E+00  0.5144033E-03
   1       -3.8905
   2       -2.3717
   3       -2.1216
   4       -2.1050
   5       -2.0993
   6       -1.9850
   7       -1.9785
   8       -1.4838
   9       -0.9535
  10       -0.9513
  11       -0.6652
  12       -0.6020
  13       -0.5950
  14       -0.2943
  15       -0.1732
  16       -0.1681
  17       -0.0910
  18       -0.0443
  19        0.0653
  20        0.3869
  21        0.3874
  22        0.4410
  23        5.0235
  24        5.2620
  25        5.5866
  26        5.8215
  27        9.1816
  28        9.3177
  29       10.0001
  30       10.1236
  31       10.5375
  32       12.3628
 
  0.3333333E+00  0.2777778E-01  0.0000000E+00  0.5144033E-03
   1       -3.7514
   2       -2.3786
   3       -2.0830
   4       -2.0464
   5       -2.0406
   6       -1.9178
   7       -1.9117
   8       -1.5272
   9       -0.9062
  10       -0.9013
  11       -0.7255
  12       -0.7186
  13       -0.6970
  14       -0.2721
  15       -0.2290
  16       -0.2244
  17       -0.1715
  18       -0.1125
  19        0.0373
  20        0.1909
  21        0.3870
  22        0.3874
  23        5.0716
  24        5.2296
  25        5.8318
  26        5.9850
  27        8.9447
  28        9.0577
  29        9.9174
  30       10.0185
  31       11.0997
  32       12.5957
 
  0.3611111E+00  0.2777778E-01  0.0000000E+00  0.5144033E-03
   1       -3.6042
   2       -2.4000
   3       -2.0420
   4       -1.9892
   5       -1.9838
   6       -1.8450
   7       -1.8399
   8       -1.5724
   9       -0.8590
  10       -0.8477
  11       -0.8471
  12       -0.8404
  13       -0.7226
  14       -0.2833
  15       -0.2791
  16       -0.2697
  17       -0.2486
  18       -0.1825
  19       -0.0331
  20        0.0275
  21        0.3870
  22        0.3874
  23        5.0937
  24        5.1998
  25        6.0845
  26        6.1845
  27        8.6995
  28        8.7918
  29        9.8476
  30        9.9281
  31       11.6628
  32       12.8492
 
  0.3888889E+00  0.2777778E-01  0.0000000E+00  0.5144033E-03
   1       -3.4507
   2       -2.4405
   3       -1.9991
   4       -1.9358
   5       -1.9314
   6       -1.7667
   7       -1.7631
   8       -1.6191
   9       -0.9660
  10       -0.9597
  11       -0.8214
  12       -0.7908
  13       -0.7302
  14       -0.3927
  15       -0.3335
  16       -0.3300
  17       -0.2534
  18       -0.2240
  19       -0.1753
  20       -0.0075
  21        0.3871
  22        0.3874
  23        5.1017
  24        5.1734
  25        6.3434
  26        6.4076
  27        8.4477
  28        8.5214
  29        9.7913
  30        9.8531
  31       12.2196
  32       13.1146
 
  0.4166667E+00  0.2777778E-01  0.0000000E+00  0.5144033E-03
   1       -3.2934
   2       -2.5037
   3       -1.9543
   4       -1.8894
   5       -1.8861
   6       -1.6830
   7       -1.6812
   8       -1.6669
   9       -1.0816
  10       -1.0759
  11       -0.8100
  12       -0.7308
  13       -0.7011
  14       -0.5234
  15       -0.3771
  16       -0.3743
  17       -0.3248
  18       -0.2807
  19       -0.1985
  20       -0.0355
  21        0.3872
  22        0.3874
  23        5.1035
  24        5.1510
  25        6.6076
  26        6.6460
  27        8.1910
  28        8.2480
  29        9.7488
  30        9.7936
  31       12.7563
  32       13.3762
 
  0.4444444E+00  0.2777778E-01  0.0000000E+00  0.5144033E-03
   1       -3.1354
   2       -2.5917
   3       -1.9081
   4       -1.8530
   5       -1.8509
   6       -1.7153
   7       -1.5939
   8       -1.5939
   9       -1.1934
  10       -1.1883
  11       -0.8092
  12       -0.6680
  13       -0.6472
  14       -0.6354
  15       -0.4110
  16       -0.4090
  17       -0.3959
  18       -0.3666
  19       -0.1722
  20       -0.0631
  21        0.3873
  22        0.3874
  23        5.1040
  24        5.1330
  25        6.8760
  26        6.8945
  27        7.9311
  28        7.9728
  29        9.7202
  30        9.7493
  31       13.2470
  32       13.6599
 
  0.4722222E+00  0.2777778E-01  0.0000000E+00  0.5144033E-03
   1       -2.9808
   2       -2.7033
   3       -1.8608
   4       -1.8296
   5       -1.8286
   6       -1.7640
   7       -1.5013
   8       -1.4997
   9       -1.3008
  10       -1.2966
  11       -0.7994
  12       -0.7180
  13       -0.6027
  14       -0.5842
  15       -0.4662
  16       -0.4439
  17       -0.4325
  18       -0.4314
  19       -0.1454
  20       -0.0907
  21        0.3873
  22        0.3874
  23        5.1058
  24        5.1196
  25        7.1476
  26        7.1495
  27        7.6697
  28        7.6970
  29        9.7058
  30        9.7201
  31       13.6689
  32       13.9532
 
  0.5000000E+00  0.2777778E-01  0.0000000E+00  0.2572016E-03
   1       -2.8349
   2       -2.8349
   3       -1.8212
   4       -1.8212
   5       -1.8126
   6       -1.8126
   7       -1.4036
   8       -1.4036
   9       -1.4005
  10       -1.4005
  11       -0.7711
  12       -0.7711
  13       -0.5353
  14       -0.5353
  15       -0.5162
  16       -0.5162
  17       -0.4395
  18       -0.4395
  19       -0.1181
  20       -0.1181
  21        0.3874
  22        0.3874
  23        5.1107
  24        5.1107
  25        7.4086
  26        7.4086
  27        7.4217
  28        7.4217
  29        9.7057
  30        9.7057
  31       14.0342
  32       14.0342
 
  0.5555556E-01  0.5555556E-01  0.0000000E+00  0.2572016E-03
   1       -4.6198
   2       -2.4731
   3       -2.4731
   4       -2.4666
   5       -2.3236
   6       -2.3236
   7       -2.3184
   8       -1.2376
   9       -1.2119
  10       -1.2063
  11       -0.4323
  12       -0.4179
  13        0.1668
  14        0.1727
  15        0.1727
  16        0.3067
  17        0.3269
  18        0.3269
  19        0.3744
  20        0.3744
  21        0.3797
  22        3.5894
  23        3.5894
  24        4.0715
  25        5.5077
  26        5.9795
  27        5.9795
  28       10.7002
  29       11.0285
  30       11.0285
  31       11.0313
  32       11.0313
 
  0.8333333E-01  0.5555556E-01  0.0000000E+00  0.5144033E-03
   1       -4.5868
   2       -2.4643
   3       -2.4545
   4       -2.4495
   5       -2.3141
   6       -2.3088
   7       -2.3025
   8       -1.2472
   9       -1.2024
  10       -1.1951
  11       -0.4422
  12       -0.4142
  13        0.1504
  14        0.1514
  15        0.1633
  16        0.2543
  17        0.2723
  18        0.3082
  19        0.3536
  20        0.3744
  21        0.3756
  22        3.2363
  23        3.6645
  24        4.1558
  25        5.4927
  26        5.9755
  27        6.3917
  28       10.5284
  29       10.9379
  30       10.9491
  31       11.0862
  32       11.0901
 
  0.1111111E+00  0.5555556E-01  0.0000000E+00  0.5144033E-03
   1       -4.5407
   2       -2.4525
   3       -2.4287
   4       -2.4259
   5       -2.3010
   6       -2.2883
   7       -2.2802
   8       -1.2625
   9       -1.1870
  10       -1.1796
  11       -0.4579
  12       -0.4068
  13        0.1160
  14        0.1277
  15        0.1495
  16        0.1814
  17        0.2066
  18        0.2832
  19        0.3249
  20        0.3738
  21        0.3744
  22        2.8636
  23        3.7635
  24        4.2695
  25        5.4721
  26        5.9714
  27        6.8473
  28       10.3442
  29       10.8151
  30       10.8455
  31       11.1563
  32       11.1670
 
  0.1388889E+00  0.5555556E-01  0.0000000E+00  0.5144033E-03
   1       -4.4817
   2       -2.4381
   3       -2.3961
   4       -2.3961
   5       -2.2842
   6       -2.2618
   7       -2.2516
   8       -1.2825
   9       -1.1667
  10       -1.1596
  11       -0.4783
  12       -0.3968
  13        0.0540
  14        0.0924
  15        0.0989
  16        0.1300
  17        0.1461
  18        0.2533
  19        0.2889
  20        0.3729
  21        0.3744
  22        2.4892
  23        3.8816
  24        4.4093
  25        5.4466
  26        5.9690
  27        7.3287
  28       10.1520
  29       10.6638
  30       10.7286
  31       11.1078
  32       11.2687
 
  0.1666667E+00  0.5555556E-01  0.0000000E+00  0.5144033E-03
   1       -4.4100
   2       -2.4219
   3       -2.3605
   4       -2.3571
   5       -2.2639
   6       -2.2295
   7       -2.2167
   8       -1.3068
   9       -1.1417
  10       -1.1354
  11       -0.5025
  12       -0.3844
  13       -0.0374
  14       -0.0087
  15        0.0641
  16        0.0975
  17        0.1033
  18        0.2208
  19        0.2461
  20        0.3725
  21        0.3744
  22        2.1215
  23        4.0135
  24        4.5716
  25        5.4168
  26        5.9704
  27        7.8279
  28        9.9552
  29       10.4875
  30       10.6055
  31       11.0292
  32       11.3949
 
  0.1944444E+00  0.5555556E-01  0.0000000E+00  0.5144033E-03
   1       -4.3258
   2       -2.4048
   3       -2.3195
   4       -2.3123
   5       -2.2402
   6       -2.1913
   7       -2.1757
   8       -1.3352
   9       -1.1122
  10       -1.1072
  11       -0.5302
  12       -0.3700
  13       -0.1452
  14       -0.1188
  15        0.0239
  16        0.0515
  17        0.0670
  18        0.1882
  19        0.1973
  20        0.3723
  21        0.3743
  22        1.7654
  23        4.1533
  24        4.7534
  25        5.3834
  26        5.9788
  27        8.3406
  28        9.7559
  29       10.2898
  30       10.4822
  31       10.9272
  32       11.5357
 
  0.2222222E+00  0.5555556E-01  0.0000000E+00  0.5144033E-03
   1       -4.2295
   2       -2.3880
   3       -2.2736
   4       -2.2624
   5       -2.2132
   6       -2.1474
   7       -2.1288
   8       -1.3671
   9       -1.0783
  10       -1.0750
  11       -0.5604
  12       -0.3535
  13       -0.2614
  14       -0.2352
  15       -0.0213
  16        0.0032
  17        0.0196
  18        0.1430
  19        0.1573
  20        0.3723
  21        0.3743
  22        1.4246
  23        4.2951
  24        4.9518
  25        5.3474
  26        5.9982
  27        8.8639
  28        9.5552
  29       10.0742
  30       10.3633
  31       10.8085
  32       11.6989
 
  0.2500000E+00  0.5555556E-01  0.0000000E+00  0.5144033E-03
   1       -4.1215
   2       -2.3732
   3       -2.2234
   4       -2.2083
   5       -2.1831
   6       -2.0976
   7       -2.0765
   8       -1.4023
   9       -1.0402
  10       -1.0393
  11       -0.5924