   4   4   0   0
  0.1647082E+02  0.4038856E-09  0.4038856E-09  0.4038856E-09  0.5000000E-15
  1.000000000000000E-004
  CAR 
 unknown system                          
     21.65743432     -5.41893668  301      3.88653804      1.00000000
     -5.419  0.0000E+00  0.0000E+00
     -5.329  0.0000E+00  0.0000E+00
     -5.238  0.0000E+00  0.0000E+00
     -5.148  0.0000E+00  0.0000E+00
     -5.058  0.0000E+00  0.0000E+00
     -4.968  0.0000E+00  0.0000E+00
     -4.877  0.0000E+00  0.0000E+00
     -4.787  0.0000E+00  0.0000E+00
     -4.697  0.0000E+00  0.0000E+00
     -4.607  0.0000E+00  0.0000E+00
     -4.516  0.0000E+00  0.0000E+00
     -4.426  0.0000E+00  0.0000E+00
     -4.336  0.0000E+00  0.0000E+00
     -4.246  0.1055E-18  0.9518E-20
     -4.155  0.1486E-01  0.1341E-02
     -4.065  0.8856E-01  0.1044E-01
     -3.975  0.1371E+00  0.2341E-01
     -3.885  0.1552E+00  0.4054E-01
     -3.794  0.1735E+00  0.5943E-01
     -3.704  0.2279E+00  0.8351E-01
     -3.614  0.2523E+00  0.1089E+00
     -3.524  0.3026E+00  0.1380E+00
     -3.433  0.3146E+00  0.1694E+00
     -3.343  0.3759E+00  0.2068E+00
     -3.253  0.3915E+00  0.2453E+00
     -3.163  0.4444E+00  0.2874E+00
     -3.072  0.4658E+00  0.3332E+00
     -2.982  0.4643E+00  0.3840E+00
     -2.892  0.5472E+00  0.4424E+00
     -2.802  0.1072E+01  0.5438E+00
     -2.711  0.2914E+01  0.8236E+00
     -2.621  0.5433E+01  0.1361E+01
     -2.531  0.6788E+01  0.2045E+01
     -2.441  0.8063E+01  0.2869E+01
     -2.350  0.9497E+01  0.3843E+01
     -2.260  0.1332E+02  0.5164E+01
     -2.170  0.1214E+02  0.6414E+01
     -2.080  0.1007E+02  0.7451E+01
     -1.989  0.9749E+01  0.8431E+01
     -1.899  0.8019E+01  0.9268E+01
     -1.809  0.6833E+01  0.9966E+01
     -1.718  0.7002E+01  0.1068E+02
     -1.628  0.7805E+01  0.1148E+02
     -1.538  0.8533E+01  0.1234E+02
     -1.448  0.8935E+01  0.1325E+02
     -1.357  0.8743E+01  0.1415E+02
     -1.267  0.8510E+01  0.1500E+02
     -1.177  0.8347E+01  0.1586E+02
     -1.087  0.9366E+01  0.1680E+02
     -0.996  0.1096E+02  0.1789E+02
     -0.906  0.1281E+02  0.1920E+02
     -0.816  0.1785E+02  0.2098E+02
     -0.726  0.1158E+02  0.2217E+02
     -0.635  0.9796E+01  0.2319E+02
     -0.545  0.7364E+01  0.2395E+02
     -0.455  0.9414E+01  0.2490E+02
     -0.365  0.8262E+01  0.2575E+02
     -0.274  0.8953E+01  0.2665E+02
     -0.184  0.1051E+02  0.2771E+02
     -0.094  0.1026E+02  0.2877E+02
     -0.004  0.1105E+02  0.2989E+02
      0.087  0.1033E+02  0.3095E+02
      0.177  0.9210E+01  0.3189E+02
      0.267  0.8555E+01  0.3277E+02
      0.357  0.8432E+01  0.3364E+02
      0.448  0.8406E+01  0.3449E+02
      0.538  0.8806E+01  0.3539E+02
      0.628  0.9619E+01  0.3638E+02
      0.718  0.1181E+02  0.3757E+02
      0.809  0.1566E+02  0.3914E+02
      0.899  0.1228E+02  0.4041E+02
      0.989  0.6463E+01  0.4109E+02
      1.079  0.2841E+01  0.4143E+02
      1.170  0.8963E+00  0.4152E+02
      1.260  0.5882E+00  0.4158E+02
      1.350  0.8926E+00  0.4167E+02
      1.440  0.6562E+00  0.4174E+02
      1.531  0.8652E+00  0.4182E+02
      1.621  0.6526E+00  0.4189E+02
      1.711  0.8878E+00  0.4198E+02
      1.801  0.6919E+00  0.4205E+02
      1.892  0.8595E+00  0.4213E+02
      1.982  0.6840E+00  0.4220E+02
      2.072  0.8628E+00  0.4229E+02
      2.162  0.7966E+00  0.4237E+02
      2.253  0.6051E+00  0.4243E+02
      2.343  0.9742E+00  0.4253E+02
      2.433  0.7555E+00  0.4260E+02
      2.523  0.6395E+00  0.4267E+02
      2.614  0.1043E+01  0.4277E+02
      2.704  0.7090E+00  0.4284E+02
      2.794  0.7805E+00  0.4292E+02
      2.884  0.8088E+00  0.4301E+02
      2.975  0.7223E+00  0.4309E+02
      3.065  0.8499E+00  0.4317E+02
      3.155  0.9891E+00  0.4327E+02
      3.246  0.7293E+00  0.4335E+02
      3.336  0.9266E+00  0.4343E+02
      3.426  0.9976E+00  0.4354E+02
      3.516  0.8127E+00  0.4362E+02
      3.607  0.8529E+00  0.4371E+02
      3.697  0.1099E+01  0.4382E+02
      3.787  0.7593E+00  0.4390E+02
      3.877  0.8238E+00  0.4399E+02
      3.968  0.1095E+01  0.4410E+02
      4.058  0.8736E+00  0.4419E+02
      4.148  0.7315E+00  0.4427E+02
      4.238  0.9508E+00  0.4437E+02
      4.329  0.9215E+00  0.4447E+02
      4.419  0.7843E+00  0.4455E+02
      4.509  0.1073E+01  0.4466E+02
      4.599  0.9286E+00  0.4475E+02
      4.690  0.8613E+00  0.4484E+02
      4.780  0.7940E+00  0.4492E+02
      4.870  0.1050E+01  0.4503E+02
      4.960  0.8279E+00  0.4511E+02
      5.051  0.7999E+00  0.4519E+02
      5.141  0.1011E+01  0.4530E+02
      5.231  0.9273E+00  0.4539E+02
      5.321  0.8744E+00  0.4548E+02
      5.412  0.8536E+00  0.4556E+02
      5.502  0.1140E+01  0.4568E+02
      5.592  0.7612E+00  0.4576E+02
      5.682  0.8333E+00  0.4584E+02
      5.773  0.9477E+00  0.4594E+02
      5.863  0.8897E+00  0.4604E+02
      5.953  0.8274E+00  0.4612E+02
      6.043  0.7323E+00  0.4619E+02
      6.134  0.1058E+01  0.4629E+02
      6.224  0.7876E+00  0.4638E+02
      6.314  0.8337E+00  0.4646E+02
      6.404  0.6571E+00  0.4652E+02
      6.495  0.1012E+01  0.4662E+02
      6.585  0.6486E+00  0.4669E+02
      6.675  0.6301E+00  0.4676E+02
      6.765  0.7477E+00  0.4683E+02
      6.856  0.7432E+00  0.4691E+02
      6.946  0.6430E+00  0.4698E+02
      7.036  0.6736E+00  0.4704E+02
      7.126  0.6849E+00  0.4711E+02
      7.217  0.5687E+00  0.4717E+02
      7.307  0.7148E+00  0.4724E+02
      7.397  0.5109E+00  0.4729E+02
      7.487  0.5417E+00  0.4735E+02
      7.578  0.7038E+00  0.4742E+02
      7.668  0.5046E+00  0.4747E+02
      7.758  0.1048E+01  0.4757E+02
      7.848  0.1225E+01  0.4769E+02
      7.939  0.1263E+01  0.4781E+02
      8.029  0.1166E+01  0.4794E+02
      8.119  0.1171E+01  0.4806E+02
      8.210  0.1180E+01  0.4818E+02
      8.300  0.1262E+01  0.4830E+02
      8.390  0.9753E+00  0.4841E+02
      8.480  0.1118E+01  0.4853E+02
      8.571  0.1252E+01  0.4866E+02
      8.661  0.1052E+01  0.4876E+02
      8.751  0.1131E+01  0.4888E+02
      8.841  0.1042E+01  0.4899E+02
      8.932  0.1137E+01  0.4911E+02
      9.022  0.1102E+01  0.4922E+02
      9.112  0.9059E+00  0.4932E+02
      9.202  0.1179E+01  0.4943E+02
      9.293  0.1019E+01  0.4953E+02
      9.383  0.9396E+00  0.4963E+02
      9.473  0.1033E+01  0.4974E+02
      9.563  0.9514E+00  0.4984E+02
      9.654  0.9596E+00  0.4994E+02
      9.744  0.1058E+01  0.5004E+02
      9.834  0.9324E+00  0.5014E+02
      9.924  0.9795E+00  0.5024E+02
     10.015  0.9939E+00  0.5033E+02
     10.105  0.9006E+00  0.5042E+02
     10.195  0.9462E+00  0.5052E+02
     10.285  0.9266E+00  0.5062E+02
     10.376  0.8035E+00  0.5070E+02
     10.466  0.1061E+01  0.5081E+02
     10.556  0.8582E+00  0.5090E+02
     10.646  0.8904E+00  0.5099E+02
     10.737  0.7925E+00  0.5107E+02
     10.827  0.1028E+01  0.5118E+02
     10.917  0.1164E+01  0.5129E+02
     11.007  0.1605E+01  0.5146E+02
     11.098  0.1308E+01  0.5158E+02
     11.188  0.1296E+01  0.5170E+02
     11.278  0.1403E+01  0.5186E+02
     11.368  0.1333E+01  0.5200E+02
     11.459  0.1389E+01  0.5214E+02
     11.549  0.1852E+01  0.5232E+02
     11.639  0.1430E+01  0.5248E+02
     11.729  0.1388E+01  0.5262E+02
     11.820  0.1268E+01  0.5275E+02
     11.910  0.1620E+01  0.5291E+02
     12.000  0.1748E+01  0.5310E+02
     12.090  0.1257E+01  0.5323E+02
     12.181  0.1362E+01  0.5337E+02
     12.271  0.1140E+01  0.5349E+02
     12.361  0.1743E+01  0.5366E+02
     12.451  0.1588E+01  0.5383E+02
     12.542  0.1667E+01  0.5400E+02
     12.632  0.1243E+01  0.5413E+02
     12.722  0.1307E+01  0.5425E+02
     12.812  0.1539E+01  0.5441E+02
     12.903  0.2066E+01  0.5461E+02
     12.993  0.1558E+01  0.5477E+02
     13.083  0.1375E+01  0.5490E+02
     13.174  0.1493E+01  0.5505E+02
     13.264  0.1352E+01  0.5519E+02
     13.354  0.1667E+01  0.5537E+02
     13.444  0.1747E+01  0.5555E+02
     13.535  0.1557E+01  0.5570E+02
     13.625  0.1374E+01  0.5585E+02
     13.715  0.1409E+01  0.5600E+02
     13.805  0.1758E+01  0.5617E+02
     13.896  0.1678E+01  0.5634E+02
     13.986  0.1681E+01  0.5651E+02
     14.076  0.1796E+01  0.5669E+02
     14.166  0.1424E+01  0.5683E+02
     14.257  0.1675E+01  0.5700E+02
     14.347  0.1717E+01  0.5718E+02
     14.437  0.1746E+01  0.5736E+02
     14.527  0.1622E+01  0.5753E+02
     14.618  0.1683E+01  0.5770E+02
     14.708  0.1727E+01  0.5788E+02
     14.798  0.1871E+01  0.5807E+02
     14.888  0.1748E+01  0.5825E+02
     14.979  0.1789E+01  0.5844E+02
     15.069  0.1877E+01  0.5863E+02
     15.159  0.1814E+01  0.5881E+02
     15.249  0.1746E+01  0.5900E+02
     15.340  0.1542E+01  0.5916E+02
     15.430  0.2030E+01  0.5937E+02
     15.520  0.1578E+01  0.5953E+02
     15.610  0.1735E+01  0.5970E+02
     15.701  0.1703E+01  0.5988E+02
     15.791  0.1517E+01  0.6003E+02
     15.881  0.1663E+01  0.6020E+02
     15.971  0.1733E+01  0.6038E+02
     16.062  0.1525E+01  0.6053E+02
     16.152  0.1713E+01  0.6070E+02
     16.242  0.1495E+01  0.6085E+02
     16.332  0.1551E+01  0.6101E+02
     16.423  0.1469E+01  0.6116E+02
     16.513  0.1579E+01  0.6132E+02
     16.603  0.1372E+01  0.6146E+02
     16.693  0.1527E+01  0.6162E+02
     16.784  0.1196E+01  0.6174E+02
     16.874  0.1201E+01  0.6187E+02
     16.964  0.1250E+01  0.6200E+02
     17.054  0.8936E+00  0.6210E+02
     17.145  0.1016E+01  0.6220E+02
     17.235  0.1028E+01  0.6231E+02
     17.325  0.1016E+01  0.6241E+02
     17.415  0.8550E+00  0.6249E+02
     17.506  0.8128E+00  0.6258E+02
     17.596  0.8129E+00  0.6266E+02
     17.686  0.7012E+00  0.6273E+02
     17.776  0.6406E+00  0.6281E+02
     17.867  0.6438E+00  0.6288E+02
     17.957  0.6749E+00  0.6295E+02
     18.047  0.6915E+00  0.6302E+02
     18.138  0.5601E+00  0.6308E+02
     18.228  0.5682E+00  0.6313E+02
     18.318  0.6743E+00  0.6320E+02
     18.408  0.4163E+00  0.6324E+02
     18.499  0.5968E+00  0.6330E+02
     18.589  0.4249E+00  0.6334E+02
     18.679  0.4597E+00  0.6339E+02
     18.769  0.4601E+00  0.6344E+02
     18.860  0.3067E+00  0.6347E+02
     18.950  0.5131E+00  0.6353E+02
     19.040  0.2750E+00  0.6356E+02
     19.130  0.3783E+00  0.6359E+02
     19.221  0.3319E+00  0.6363E+02
     19.311  0.3802E+00  0.6367E+02
     19.401  0.3087E+00  0.6371E+02
     19.491  0.4389E+00  0.6375E+02
     19.582  0.3328E+00  0.6378E+02
     19.672  0.3625E+00  0.6381E+02
     19.762  0.4096E+00  0.6385E+02
     19.852  0.3628E+00  0.6389E+02
     19.943  0.5058E+00  0.6394E+02
     20.033  0.2718E+00  0.6397E+02
     20.123  0.1290E+00  0.6399E+02
     20.213  0.8974E-01  0.6399E+02
     20.304  0.3884E-01  0.6400E+02
     20.394  0.1123E-01  0.6400E+02
     20.484  0.3800E-02  0.6400E+02
     20.574  0.0000E+00  0.6400E+02
     20.665  0.0000E+00  0.6400E+02
     20.755  0.0000E+00  0.6400E+02
     20.845  0.0000E+00  0.6400E+02
     20.935  0.0000E+00  0.6400E+02
     21.026  0.0000E+00  0.6400E+02
     21.116  0.0000E+00  0.6400E+02
     21.206  0.0000E+00  0.6400E+02
     21.296  0.0000E+00  0.6400E+02
     21.387  0.0000E+00  0.6400E+02
     21.477  0.0000E+00  0.6400E+02
     21.567  0.0000E+00  0.6400E+02
     21.657  0.0000E+00  0.6400E+02
