    4    4    1    1
  0.1647082E+02  0.4038856E-09  0.4038856E-09  0.4038856E-09  0.5000000E-15
  1.000000000000000E-004
  CAR 
 unknown system                          
   44 1330   32
 
  0.0000000E+00  0.0000000E+00  0.0000000E+00  0.2143347E-04
   1       -4.1882
   2       -2.8660
   3       -2.8660
   4       -2.8660
   5       -2.7155
   6       -2.7155
   7       -2.7155
   8       -1.1249
   9       -1.1249
  10       -1.1249
  11       -0.0233
  12       -0.0233
  13        0.7881
  14        0.7881
  15        0.7881
  16        1.0417
  17        1.0417
  18        1.0417
  19        1.0417
  20        1.0417
  21        1.0417
  22        5.4265
  23        5.4265
  24        5.4265
  25       10.8637
  26       10.8637
  27       10.8637
  28       14.8976
  29       14.8976
  30       14.8976
  31       14.8976
  32       14.8976
 
  0.2777778E-01  0.0000000E+00  0.0000000E+00  0.1286008E-03
   1       -4.1798
   2       -2.8625
   3       -2.8614
   4       -2.8614
   5       -2.7128
   6       -2.7114
   7       -2.7114
   8       -1.1283
   9       -1.1218
  10       -1.1218
  11       -0.0268
  12       -0.0218
  13        0.7835
  14        0.7835
  15        0.7865
  16        1.0243
  17        1.0243
  18        1.0361
  19        1.0361
  20        1.0417
  21        1.0417
  22        5.3687
  23        5.4506
  24        5.4506
  25       10.8647
  26       10.8647
  27       10.9340
  28       14.8683
  29       14.8683
  30       14.8686
  31       14.8686
  32       14.9125
 
  0.5555556E-01  0.0000000E+00  0.0000000E+00  0.1286008E-03
   1       -4.1548
   2       -2.8518
   3       -2.8477
   4       -2.8477
   5       -2.7048
   6       -2.6991
   7       -2.6991
   8       -1.1386
   9       -1.1123
  10       -1.1123
  11       -0.0371
  12       -0.0175
  13        0.7697
  14        0.7697
  15        0.7816
  16        0.9733
  17        0.9733
  18        1.0192
  19        1.0192
  20        1.0417
  21        1.0417
  22        5.2037
  23        5.5218
  24        5.5218
  25       10.8678
  26       10.8678
  27       11.1366
  28       14.7832
  29       14.7832
  30       14.7832
  31       14.7832
  32       14.9572
 
  0.8333333E-01  0.0000000E+00  0.0000000E+00  0.1286008E-03
   1       -4.1132
   2       -2.8342
   3       -2.8250
   4       -2.8250
   5       -2.6914
   6       -2.6787
   7       -2.6787
   8       -1.1555
   9       -1.0967
  10       -1.0967
  11       -0.0541
  12       -0.0102
  13        0.7469
  14        0.7469
  15        0.7736
  16        0.8920
  17        0.8920
  18        0.9915
  19        0.9915
  20        1.0418
  21        1.0418
  22        4.9524
  23        5.6366
  24        5.6366
  25       10.8731
  26       10.8731
  27       11.4505
  28       14.6460
  29       14.6460
  30       14.6502
  31       14.6502
  32       15.0313
 
  0.1111111E+00  0.0000000E+00  0.0000000E+00  0.1286008E-03
   1       -4.0554
   2       -2.8098
   3       -2.7936
   4       -2.7936
   5       -2.6727
   6       -2.6500
   7       -2.6500
   8       -1.1790
   9       -1.0749
  10       -1.0749
  11       -0.0774
  12       -0.0000
  13        0.7154
  14        0.7154
  15        0.7624
  16        0.7848
  17        0.7848
  18        0.9533
  19        0.9533
  20        1.0418
  21        1.0418
  22        4.6387
  23        5.7905
  24        5.7905
  25       10.8806
  26       10.8806
  27       11.8517
  28       14.4631
  29       14.4631
  30       14.4795
  31       14.4795
  32       15.1342
 
  0.1388889E+00  0.0000000E+00  0.0000000E+00  0.1286008E-03
   1       -3.9816
   2       -2.7792
   3       -2.7541
   4       -2.7541
   5       -2.6488
   6       -2.6132
   7       -2.6132
   8       -1.2087
   9       -1.0469
  10       -1.0469
  11       -0.1065
  12        0.0129
  13        0.6569
  14        0.6569
  15        0.6756
  16        0.6756
  17        0.7481
  18        0.9053
  19        0.9053
  20        1.0419
  21        1.0419
  22        4.2838
  23        5.9785
  24        5.9785
  25       10.8907
  26       10.8907
  27       12.3190
  28       14.2417
  29       14.2417
  30       14.2823
  31       14.2823
  32       15.2652
 
  0.1666667E+00  0.0000000E+00  0.0000000E+00  0.1286008E-03
   1       -3.8924
   2       -2.7427
   3       -2.7070
   4       -2.7070
   5       -2.6200
   6       -2.5682
   7       -2.5682
   8       -1.2444
   9       -1.0129
  10       -1.0129
  11       -0.1406
  12        0.0285
  13        0.5131
  14        0.5131
  15        0.6281
  16        0.6281
  17        0.7310
  18        0.8483
  19        0.8483
  20        1.0420
  21        1.0420
  22        3.9038
  23        6.1954
  24        6.1954
  25       10.9034
  26       10.9034
  27       12.8361
  28       13.9884
  29       13.9884
  30       14.0686
  31       14.0686
  32       15.4233
 
  0.1944444E+00  0.0000000E+00  0.0000000E+00  0.1286008E-03
   1       -3.7885
   2       -2.7010
   3       -2.6530
   4       -2.6530
   5       -2.5862
   6       -2.5152
   7       -2.5152
   8       -1.2857
   9       -0.9729
  10       -0.9729
  11       -0.1788
  12        0.0466
  13        0.3577
  14        0.3577
  15        0.5736
  16        0.5736
  17        0.7111
  18        0.7831
  19        0.7831
  20        1.0421
  21        1.0421
  22        3.5105
  23        6.4368
  24        6.4368
  25       10.9190
  26       10.9190
  27       13.3909
  28       13.7093
  29       13.7093
  30       13.8469
  31       13.8469
  32       15.6076
 
  0.2222222E+00  0.0000000E+00  0.0000000E+00  0.1286008E-03
   1       -3.6708
   2       -2.6549
   3       -2.5933
   4       -2.5933
   5       -2.5478
   6       -2.4541
   7       -2.4541
   8       -1.3322
   9       -0.9271
  10       -0.9271
  11       -0.2199
  12        0.0673
  13        0.1945
  14        0.1945
  15        0.5130
  16        0.5130
  17        0.6886
  18        0.7107
  19        0.7107
  20        1.0422
  21        1.0422
  22        3.1124
  23        6.6989
  24        6.6989
  25       10.9378
  26       10.9378
  27       13.4098
  28       13.4098
  29       13.6242
  30       13.6242
  31       13.9746
  32       15.8168
 
  0.2500000E+00  0.0000000E+00  0.0000000E+00  0.1286008E-03
   1       -3.5406
   2       -2.6054
   3       -2.5288
   4       -2.5288
   5       -2.5049
   6       -2.3850
   7       -2.3850
   8       -1.3834
   9       -0.8757
  10       -0.8757
  11       -0.2622
  12        0.0265
  13        0.0265
  14        0.0903
  15        0.4476
  16        0.4476
  17        0.6321
  18        0.6321
  19        0.6638
  20        1.0423
  21        1.0423
  22        2.7160
  23        6.9784
  24        6.9784
  25       10.9599
  26       10.9599
  27       13.0940
  28       13.0940
  29       13.4059
  30       13.4059
  31       14.5802
  32       16.0497
 
  0.2777778E+00  0.0000000E+00  0.0000000E+00  0.1286008E-03
   1       -3.3997
   2       -2.5537
   3       -2.4611
   4       -2.4611
   5       -2.4577
   6       -2.3080
   7       -2.3080
   8       -1.4387
   9       -0.8188
  10       -0.8188
  11       -0.3036
  12       -0.1438
  13       -0.1438
  14        0.1155
  15        0.3789
  16        0.3789
  17        0.5483
  18        0.5483
  19        0.6367
  20        1.0424
  21        1.0424
  22        2.3261
  23        7.2727
  24        7.2727
  25       10.9854
  26       10.9854
  27       12.7656
  28       12.7656
  29       13.1962
  30       13.1962
  31       15.2021
  32       16.3049
 
  0.3055556E+00  0.0000000E+00  0.0000000E+00  0.1286008E-03
   1       -3.2502
   2       -2.5014
   3       -2.4067
   4       -2.3920
   5       -2.3920
   6       -2.2231
   7       -2.2231
   8       -1.4978
   9       -0.7565
  10       -0.7565
  11       -0.3416
  12       -0.3145
  13       -0.3145
  14        0.1426
  15        0.3085
  16        0.3085
  17        0.4602
  18        0.4602
  19        0.6077
  20        1.0425
  21        1.0425
  22        1.9468
  23        7.5795
  24        7.5795
  25       11.0143
  26       11.0143
  27       12.4275
  28       12.4275
  29       12.9988
  30       12.9988
  31       15.8351
  32       16.5810
 
  0.3333333E+00  0.0000000E+00  0.0000000E+00  0.1286008E-03
   1       -3.0954
   2       -2.4505
   3       -2.3519
   4       -2.3234
   5       -2.3234
   6       -2.1304
   7       -2.1304
   8       -1.5600
   9       -0.6893
  10       -0.6893
  11       -0.4840
  12       -0.4840
  13       -0.3724
  14        0.1717
  15        0.2386
  16        0.2386
  17        0.3689
  18        0.3689
  19        0.5770
  20        1.0426
  21        1.0426
  22        1.5818
  23        7.8969
  24        7.8969
  25       11.0464
  26       11.0464
  27       12.0821
  28       12.0821
  29       12.8165
  30       12.8165
  31       16.4738
  32       16.8767
 
  0.3611111E+00  0.0000000E+00  0.0000000E+00  0.1286008E-03
   1       -2.9395
   2       -2.4034
   3       -2.2939
   4       -2.2577
   5       -2.2577
   6       -2.0301
   7       -2.0301
   8       -1.6248
   9       -0.6510
  10       -0.6510
  11       -0.6172
  12       -0.6172
  13       -0.3915
  14        0.1717
  15        0.1717
  16        0.2023
  17        0.2753
  18        0.2753
  19        0.5449
  20        1.0427
  21        1.0427
  22        1.2349
  23        8.2235
  24        8.2235
  25       11.0807
  26       11.0807
  27       11.7312
  28       11.7312
  29       12.6522
  30       12.6522
  31       17.1117
  32       17.1905
 
  0.3888889E+00  0.0000000E+00  0.0000000E+00  0.1286008E-03
   1       -2.7881
   2       -2.3634
   3       -2.2329
   4       -2.1978
   5       -2.1978
   6       -1.9222
   7       -1.9222
   8       -1.6916
   9       -0.8145
  10       -0.8145
  11       -0.5407
  12       -0.5407
  13       -0.3927
  14        0.1106
  15        0.1106
  16        0.1803
  17        0.1803
  18        0.2343
  19        0.5116
  20        0.9100
  21        1.0427
  22        1.0427
  23        8.5577
  24        8.5577
  25       11.1160
  26       11.1160
  27       11.3767
  28       11.3767
  29       12.5086
  30       12.5086
  31       17.5209
  32       17.5209
 
  0.4166667E+00  0.0000000E+00  0.0000000E+00  0.1286008E-03
   1       -2.6480
   2       -2.3345
   3       -2.1693
   4       -2.1467
   5       -2.1467
   6       -1.8069
   7       -1.8069
   8       -1.7599
   9       -0.9736
  10       -0.9736
  11       -0.4600
  12       -0.4600
  13       -0.3689
  14        0.0584
  15        0.0584
  16        0.0847
  17        0.0847
  18        0.2675
  19        0.4773
  20        0.6115
  21        1.0428
  22        1.0428
  23        8.8985
  24        8.8985
  25       11.0200
  26       11.0200
  27       11.1500
  28       11.1500
  29       12.3894
  30       12.3894
  31       17.8665
  32       17.8665
 
  0.4444444E+00  0.0000000E+00  0.0000000E+00  0.1286008E-03
   1       -2.5268
   2       -2.3216
   3       -2.1073
   4       -2.1073
   5       -2.1037
   6       -1.8290
   7       -1.6845
   8       -1.6845
   9       -1.1277
  10       -1.1277
  11       -0.3757
  12       -0.3757
  13       -0.3120
  14       -0.0106
  15       -0.0106
  16        0.0183
  17        0.0183
  18        0.3016
  19        0.3446
  20        0.4424
  21        1.0428
  22        1.0428
  23        9.2446
  24        9.2446
  25       10.6624
  26       10.6624
  27       11.1793
  28       11.1793
  29       12.2987
  30       12.2987
  31       18.2257
  32       18.2257
 
  0.4722222E+00  0.0000000E+00  0.0000000E+00  0.1286008E-03
   1       -2.4313
   2       -2.3303
   3       -2.0824
   4       -2.0824
   5       -2.0363
   6       -1.8985
   7       -1.5550
   8       -1.5550
   9       -1.2763
  10       -1.2763
  11       -0.2880
  12       -0.2880
  13       -0.2147
  14       -0.1049
  15       -0.1049
  16       -0.0071
  17       -0.0071
  18        0.1149
  19        0.3364
  20        0.4071
  21        1.0429
  22        1.0429
  23        9.5951
  24        9.5951
  25       10.3049
  26       10.3049
  27       11.1995
  28       11.1995
  29       12.2415
  30       12.2415
  31       18.5969
  32       18.5969
 
  0.5000000E+00  0.0000000E+00  0.0000000E+00  0.6430041E-04
   1       -2.3657
   2       -2.3657
   3       -2.0739
   4       -2.0739
   5       -1.9678
   6       -1.9678
   7       -1.4189
   8       -1.4189
   9       -1.4189
  10       -1.4189
  11       -0.1976
  12       -0.1976
  13       -0.1976
  14       -0.1976
  15       -0.0726
  16       -0.0726
  17       -0.0158
  18       -0.0158
  19        0.3717
  20        0.3717
  21        1.0429
  22        1.0429
  23        9.9489
  24        9.9489
  25        9.9489
  26        9.9489
  27       11.2068
  28       11.2068
  29       12.2218
  30       12.2218
  31       18.9785
  32       18.9785
 
  0.2777778E-01  0.2777778E-01  0.0000000E+00  0.2572016E-03
   1       -4.1715
   2       -2.8579
   3       -2.8579
   4       -2.8569
   5       -2.7087
   6       -2.7087
   7       -2.7073
   8       -1.1297
   9       -1.1206
  10       -1.1186
  11       -0.0278
  12       -0.0228
  13        0.7789
  14        0.7817
  15        0.7817
  16        1.0109
  17        1.0188
  18        1.0188
  19        1.0361
  20        1.0361
  21        1.0379
  22        5.3927
  23        5.3927
  24        5.4746
  25       10.8657
  26       10.9352
  27       10.9352
  28       14.7548
  29       14.8831
  30       14.8831
  31       14.8835
  32       14.8835
 
  0.5555556E-01  0.2777778E-01  0.0000000E+00  0.5144033E-03
   1       -4.1465
   2       -2.8472
   3       -2.8441
   4       -2.8434
   5       -2.7007
   6       -2.6965
   7       -2.6948
   8       -1.1390
   9       -1.1122
  10       -1.1093
  11       -0.0371
  12       -0.0193
  13        0.7652
  14        0.7673
  15        0.7763
  16        0.9624
  17        0.9684
  18        1.0025
  19        1.0192
  20        1.0359
  21        1.0361
  22        5.2274
  23        5.4634
  24        5.5452
  25       10.8688
  26       10.9387
  27       11.1381
  28       14.5926
  29       14.7977
  30       14.7979
  31       14.9260
  32       14.9275
 
  0.8333333E-01  0.2777778E-01  0.0000000E+00  0.5144033E-03
   1       -4.1050
   2       -2.8295
   3       -2.8214
   4       -2.8211
   5       -2.6873
   6       -2.6760
   7       -2.6739
   8       -1.1556
   9       -1.0968
  10       -1.0938
  11       -0.0539
  12       -0.0121
  13        0.7425
  14        0.7429
  15        0.7672
  16        0.8823
  17        0.8887
  18        0.9756
  19        0.9915
  20        1.0354
  21        1.0361
  22        4.9757
  23        5.5775
  24        5.6594
  25       10.8741
  26       10.9448
  27       11.4525
  28       14.3906
  29       14.6604
  30       14.6642
  31       14.8680
  32       15.0011
 
  0.1111111E+00  0.2777778E-01  0.0000000E+00  0.5144033E-03
   1       -4.0472
   2       -2.8052
   3       -2.7904
   4       -2.7900
   5       -2.6687
   6       -2.6474
   7       -2.6448
   8       -1.1790
   9       -1.0750
  10       -1.0721
  11       -0.0771
  12       -0.0019
  13        0.7057
  14        0.7112
  15        0.7544
  16        0.7762
  17        0.7872
  18        0.9390
  19        0.9533
  20        1.0353
  21        1.0362
  22        4.6618
  23        5.7305
  24        5.8125
  25       10.8817
  26       10.9534
  27       11.8541
  28       14.1578
  29       14.4773
  30       14.4930
  31       14.7582
  32       15.1040
 
  0.1388889E+00  0.2777778E-01  0.0000000E+00  0.5144033E-03
   1       -3.9735
   2       -2.7745
   3       -2.7516
   4       -2.7504
   5       -2.6449
   6       -2.6106
   7       -2.6074
   8       -1.2086
   9       -1.0471
  10       -1.0444
  11       -0.1060
  12        0.0112
  13        0.6306
  14        0.6493
  15        0.6715
  16        0.6945
  17        0.7373
  18        0.8936
  19        0.9053
  20        1.0353
  21        1.0362
  22        4.3069
  23        5.9169
  24        5.9995
  25       10.8917
  26       10.9648
  27       12.3217
  28       13.9023
  29       14.2555
  30       14.2952
  31       14.6049
  32       15.2340
 
  0.1666667E+00  0.2777778E-01  0.0000000E+00  0.5144033E-03
   1       -3.8845
   2       -2.7380
   3       -2.7053
   4       -2.7033
   5       -2.6161
   6       -2.5658
   7       -2.5618
   8       -1.2442
   9       -1.0131
  10       -1.0107
  11       -0.1399
  12        0.0270
  13        0.4980
  14        0.5064
  15        0.6242
  16        0.6359
  17        0.7151
  18        0.8414
  19        0.8483
  20        1.0354
  21        1.0363
  22        3.9270
  23        6.1320
  24        6.2155
  25       10.9043
  26       10.9792
  27       12.8390
  28       13.6307
  29       14.0020
  30       14.0810
  31       14.4178
  32       15.3897
 
  0.1944444E+00  0.2777778E-01  0.0000000E+00  0.5144033E-03
   1       -3.7808
   2       -2.6962
   3       -2.6523
   4       -2.6493
   5       -2.5824
   6       -2.5128
   7       -2.5081
   8       -1.2853
   9       -0.9731
  10       -0.9712
  11       -0.1778
  12        0.0455
  13        0.3455
  14        0.3520
  15        0.5699
  16        0.5788
  17        0.6851
  18        0.7831
  19        0.7858
  20        1.0354
  21        1.0363
  22        3.5341
  23        6.3710
  24        6.4560
  25       10.9197
  26       10.9969
  27       13.3480
  28       13.3939
  29       13.7227
  30       13.8590
  31       14.2065
  32       15.5751
 
  0.2222222E+00  0.2777778E-01  0.0000000E+00  0.5144033E-03
   1       -3.6633
   2       -2.6501
   3       -2.5934
   4       -2.5895
   5       -2.5441
   6       -2.4518
   7       -2.4464
   8       -1.3316
   9       -0.9274
  10       -0.9260
  11       -0.2184
  12        0.0664
  13        0.1836
  14        0.1897
  15        0.5096
  16        0.5172
  17        0.6417
  18        0.7107
  19        0.7338
  20        1.0356
  21        1.0364
  22        3.1366
  23        6.6302
  24        6.7173
  25       10.9381
  26       11.0180
  27       13.0573
  28       13.4229
  29       13.6360
  30       13.9776
  31       13.9801
  32       15.7816
 
  0.2500000E+00  0.2777778E-01  0.0000000E+00  0.5144033E-03
   1       -3.5334
   2       -2.6005
   3       -2.5297
   4       -2.5250
   5       -2.5013
   6       -2.3828
   7       -2.3770
   8       -1.3827
   9       -0.8759
  10       -0.8755
  11       -0.2600
  12        0.0166
  13        0.0225
  14        0.0898
  15        0.4445
  16        0.4513
  17        0.5800
  18        0.6320
  19        0.6911
  20        1.0357
  21        1.0365
  22        2.7411
  23        6.9061
  24        6.9960
  25       10.9594
  26       11.0429
  27       12.7607
  28       13.1070
  29       13.4177
  30       13.7470
  31       14.5833
  32       16.0109
 
  0.2777778E+00  0.2777778E-01  0.0000000E+00  0.5144033E-03
   1       -3.3926
   2       -2.5487
   3       -2.4624
   4       -2.4572
   5       -2.4542
   6       -2.3059
   7       -2.2999
   8       -1.4379
   9       -0.8199
  10       -0.8190
  11       -0.3003
  12       -0.1530
  13       -0.1471
  14        0.1153
  15        0.3760
  16        0.3821
  17        0.5041
  18        0.5481
  19        0.6550
  20        1.0358
  21        1.0365
  22        2.3524
  23        7.1962
  24        7.2896
  25       10.9833
  26       11.0716
  27       12.4594
  28       12.7785
  29       13.2084
  30       13.5145
  31       15.2054
  32       16.2682
 
  0.3055556E+00  0.2777778E-01  0.0000000E+00  0.5144033E-03
   1       -3.2434
   2       -2.4963
   3       -2.4033
   4       -2.3933
   5       -2.3880
   6       -2.2211
   7       -2.2153
   8       -1.4968
   9       -0.7599
  10       -0.7568
  11       -0.3363
  12       -0.3229
  13       -0.3172
  14        0.1429
  15        0.3059
  16        0.3114
  17        0.4193
  18        0.4600
  19        0.6212
  20        1.0359
  21        1.0366
  22        1.9749
  23        7.4979
  24        7.5957
  25       11.0088
  26       11.1040
  27       12.1546
  28       12.4403
  29       13.0118
  30       13.2890
  31       15.8386
  32       16.5356
 
  0.3333333E+00  0.2777778E-01  0.0000000E+00  0.5144033E-03
   1       -3.0890
   2       -2.4453
   3       -2.3487
   4       -2.3243
   5       -2.3193
   6       -2.1286
   7       -2.1235
   8       -1.5588
   9       -0.6965
  10       -0.6895
  11       -0.4916
  12       -0.4861
  13       -0.3635
  14        0.1724
  15        0.2364
  16        0.2411
  17        0.3288
  18        0.3687
  19        0.5874
  20        1.0361
  21        1.0367
  22        1.6123
  23        7.8094
  24        7.9126
  25       11.0327
  26       11.1396
  27       11.8494
  28       12.0948
  29       12.8311
  30       13.0760
  31       16.4778
  32       16.8271
 
  0.3611111E+00  0.2777778E-01  0.0000000E+00  0.5144033E-03
   1       -2.9333
   2       -2.3981
   3       -2.2908
   4       -2.2580
   5       -2.2536
   6       -2.0285
   7       -2.0243
   8       -1.6234
   9       -0.6578
  10       -0.6525
  11       -0.6317
  12       -0.6174
  13       -0.3757
  14        0.1698
  15        0.1739
  16        0.2035
  17        0.2343
  18        0.2751
  19        0.5531
  20        1.0362
  21        1.0367
  22        1.2686
  23        8.1290
  24        8.2387
  25       11.0432
  26       11.1776
  27       11.5550
  28       11.7440
  29       12.6695
  30       12.8800
  31       17.1178
  32       17.1436
 
  0.3888889E+00  0.2777778E-01  0.0000000E+00  0.5144033E-03
   1       -2.7821
   2       -2.3580
   3       -2.2299
   4       -2.1972
   5       -2.1937
   6       -1.9208
   7       -1.9179
   8       -1.6900
   9       -0.8204
  10       -0.8155
  11       -0.5684
  12       -0.5409
  13       -0.3642
  14        0.1090
  15        0.1124
  16        0.1368
  17        0.1801
  18        0.2360
  19        0.5178
  20        0.9483
  21        1.0363
  22        1.0367
  23        8.4549
  24        8.5725
  25       10.9840
  26       11.2160
  27       11.3271
  28       11.3895
  29       12.5305
  30       12.7051
  31       17.4605
  32       17.4745
 
  0.4166667E+00  0.2777778E-01  0.0000000E+00  0.5144033E-03
   1       -2.6422
   2       -2.3290
   3       -2.1665
   4       -2.1451
   5       -2.1425
   6       -1.8057
   7       -1.8042
   8       -1.7581
   9       -0.9786
  10       -0.9743
  11       -0.5077
  12       -0.4603
  13       -0.3211
  14        0.0367
  15        0.0572
  16        0.0599
  17        0.0845
  18        0.2698
  19        0.4808
  20        0.6574
  21        1.0364
  22        1.0367
  23        8.7859
  24        8.9128
  25       10.7601
  26       11.0329
  27       11.2518
  28       11.2595
  29       12.4187
  30       12.5553
  31       17.7993
  32       17.8159
 
  0.4444444E+00  0.2777778E-01  0.0000000E+00  0.5144033E-03
   1       -2.5211
   2       -2.3160
   3       -2.1049
   4       -2.1032
   5       -2.1010
   6       -1.8271
   7       -1.6835
   8       -1.6833
   9       -1.1318
  10       -1.1280
  11       -0.4428
  12       -0.3759
  13       -0.2455
  14       -0.0656
  15       -0.0108
  16        0.0174
  17        0.0192
  18        0.3046
  19        0.3881
  20        0.4554
  21        1.0365
  22        1.0367
  23        9.1203
  24        9.2586
  25       10.4539
  26       10.6754
  27       11.2677
  28       11.2806
  29       12.3396
  30       12.4347
  31       18.1501
  32       18.1698
 
  0.4722222E+00  0.2777778E-01  0.0000000E+00  0.5144033E-03
   1       -2.4257
   2       -2.3247
   3       -2.0793
   4       -2.0785
   5       -2.0338
   6       -1.8963
   7       -1.5553
   8       -1.5543
   9       -1.2792
  10       -1.2762
  11       -0.3644
  12       -0.2882
  13       -0.1692
  14       -0.1399
  15       -0.1051
  16       -0.0076
  17       -0.0066
  18        0.1746
  19        0.3402
  20        0.4134
  21        1.0366
  22        1.0367
  23        9.4566
  24        9.6088
  25       10.1270
  26       10.3182
  27       11.2868
  28       11.2975
  29       12.2993
  30       12.3485
  31       18.5110
  32       18.5341
 
  0.5000000E+00  0.2777778E-01  0.0000000E+00  0.2572016E-03
   1       -2.3601
   2       -2.3601
   3       -2.0703
   4       -2.0703
   5       -1.9654
   6       -1.9654
   7       -1.4205
   8       -1.4205
   9       -1.4185
  10       -1.4185
  11       -0.2710
  12       -0.2710
  13       -0.1978
  14       -0.1978
  15       -0.0158
  16       -0.0158
  17       -0.0019
  18       -0.0019
  19        0.3764
  20        0.3764
  21        1.0367
  22        1.0367
  23        9.7930
  24        9.7930
  25        9.9623
  26        9.9623
  27       11.2992
  28       11.2992
  29       12.3022
  30       12.3022
  31       18.8805
  32       18.8857
 
  0.5555556E-01  0.5555556E-01  0.0000000E+00  0.2572016E-03
   1       -4.1216
   2       -2.8334
   3       -2.8334
   4       -2.8307
   5       -2.6885
   6       -2.6885
   7       -2.6817
   8       -1.1441
   9       -1.1078
  10       -1.1002
  11       -0.0410
  12       -0.0210
  13        0.7517
  14        0.7599
  15        0.7599
  16        0.9228
  17        0.9539
  18        0.9539
  19        1.0192
  20        1.0192
  21        1.0264
  22        5.2971
  23        5.2971
  24        5.6145
  25       10.8720
  26       11.1428
  27       11.1428
  28       14.3635
  29       14.8411
  30       14.8411
  31       14.8419
  32       14.8419
 
  0.8333333E-01  0.5555556E-01  0.0000000E+00  0.5144033E-03
   1       -4.0803
   2       -2.8157
   3       -2.8106
   4       -2.8097
   5       -2.6752
   6       -2.6681
   7       -2.6599
   8       -1.1581
   9       -1.0949
  10       -1.0851
  11       -0.0549
  12       -0.0162
  13        0.7293
  14        0.7305
  15        0.7472
  16        0.8496
  17        0.8790
  18        0.9305
  19        0.9914
  20        1.0192
  21        1.0210
  22        5.0444
  23        5.4096
  24        5.7267
  25       10.8772
  26       11.1506
  27       11.4585
  28       14.1053
  29       14.7037
  30       14.7061
  31       14.9129
  32       14.9148
 
  0.1111111E+00  0.5555556E-01  0.0000000E+00  0.5144033E-03
   1       -4.0228
   2       -2.7913
   3       -2.7807
   4       -2.7792
   5       -2.6567
   6       -2.6396
   7       -2.6294
   8       -1.1801
   9       -1.0742
  10       -1.0639
  11       -0.0769
  12       -0.0064
  13        0.6801
  14        0.6984
  15        0.7284
  16        0.7483
  17        0.7907
  18        0.8994
  19        0.9532
  20        1.0185
  21        1.0192
  22        4.7298
  23        5.5599
  24        5.8774
  25       10.8847
  26       11.1618
  27       11.8613
  28       13.8265
  29       14.5197
  30       14.5333
  31       15.0083
  32       15.0132
 
  0.1388889E+00  0.5555556E-01  0.0000000E+00  0.5144033E-03
   1       -3.9495
   2       -2.7605
   3       -2.7440
   4       -2.7395
   5       -2.6331
   6       -2.6030
   7       -2.5904
   8       -1.2089
   9       -1.0469
  10       -1.0369
  11       -0.1050
  12        0.0069
  13        0.5898
  14        0.6253
  15        0.6593
  16        0.7022
  17        0.7135
  18        0.8626
  19        0.9052
  20        1.0173
  21        1.0192
  22        4.3745
  23        5.7428
  24        6.0617
  25       10.8946
  26       11.1766
  27       12.3298
  28       13.5340
  29       14.2970
  30       14.3339
  31       14.9211
  32       15.1398
 
  0.1666667E+00  0.5555556E-01  0.0000000E+00  0.5144033E-03
   1       -3.8609
   2       -2.7239
   3       -2.7000
   4       -2.6923
   5       -2.6044
   6       -2.5583
   7       -2.5431
   8       -1.2438
   9       -1.0132
  10       -1.0042
  11       -0.1381
  12        0.0232
  13        0.4610
  14        0.4859
  15        0.6127
  16        0.6515
  17        0.6666
  18        0.8230
  19        0.8481
  20        1.0168
  21        1.0192
  22        3.9949
  23        5.9531
  24        6.2751
  25       10.9069
  26       11.1951
  27       12.8476
  28       13.2334
  29       14.0426
  30       14.1183
  31       14.7883
  32       15.2931
 
  0.1944444E+00  0.5555556E-01  0.0000000E+00  0.5144033E-03
   1       -3.7577
   2       -2.6820
   3       -2.6494
   4       -2.6382
   5       -2.5710
   6       -2.5056
   7       -2.4877
   8       -1.2845
   9       -0.9734
  10       -0.9660
  11       -0.1751
  12        0.0424
  13        0.3122
  14        0.3345
  15        0.5591
  16        0.5913
  17        0.6198
  18        0.7828
  19        0.7832
  20        1.0165
  21        1.0192
  22        3.6029
  23        6.1863
  24        6.5130
  25       10.9215
  26       11.2177
  27       12.9290
  28       13.4029
  29       13.7625
  30       13.8951
  31       14.6192
  32       15.4733
 
  0.2222222E+00  0.5555556E-01  0.0000000E+00  0.5144033E-03
   1       -3.6408
   2       -2.6357
   3       -2.5928
   4       -2.5782
   5       -2.5329
   6       -2.4449
   7       -2.4246
   8       -1.3303
   9       -0.9278
  10       -0.9227
  11       -0.2144
  12        0.0643
  13        0.1529
  14        0.1749
  15        0.4996
  16        0.5279
  17        0.5609
  18        0.7104
  19        0.7451
  20        1.0164
  21        1.0192
  22        3.2070
  23        6.4382
  24        6.7719
  25       10.9383
  26       11.2444
  27       12.6241
  28       13.4621
  29       13.6716
  30       13.9866
  31       14.4236
  32       15.6725
 
  0.2500000E+00  0.5555556E-01  0.0000000E+00  0.5144033E-03
   1       -3.5116
   2       -2.5859
   3       -2.5309
   4       -2.5135
   5       -2.4904
   6       -2.3763
   7       -2.3543
   8       -1.3807
   9       -0.8764
  10       -0.8747
  11       -0.2540