 running on    8 nodes
 distr:  one band on    1 nodes,    8 groups
 vasp.4.6.28 25Jul05 complex 
 POSCAR found :  1 types and    4 ions
 WARNING: PSMAXN for non-local potential too small
 LDA part: xc-table for Pade appr. of Perdew
 POSCAR, INCAR and KPOINTS ok, starting setup
 FFT: planning ...           1
 reading WAVECAR
 WARNING: random wavefunctions but no delay for mixing, default for NELMDL
 entering main loop
       N       E                     dE             d eps       ncg     rms          rms(c)
DAV:   1     0.547864267530E+03    0.54786E+03   -0.32744E+04 85152   0.240E+03
DAV:   2     0.353190068230E+01   -0.54433E+03   -0.51044E+03 85208   0.503E+02
DAV:   3    -0.120215027954E+02   -0.15553E+02   -0.15412E+02 99520   0.111E+02
DAV:   4    -0.121130846459E+02   -0.91582E-01   -0.91565E-01 91232   0.731E+00
DAV:   5    -0.121134349034E+02   -0.35026E-03   -0.35025E-03100456   0.381E-01    0.599E+00
DAV:   6    -0.111699602989E+02    0.94347E+00   -0.25274E+00 96360   0.168E+01    0.114E+00
DAV:   7    -0.111348931463E+02    0.35067E-01   -0.66452E-02 91896   0.170E+00    0.527E-01
DAV:   8    -0.111209516200E+02    0.13942E-01   -0.47326E-03 92616   0.663E-01    0.491E-02
DAV:   9    -0.111210766900E+02   -0.12507E-03   -0.21016E-04 98224   0.124E-01    0.313E-02
DAV:  10    -0.111210363857E+02    0.40304E-04   -0.16366E-05 94536   0.341E-02    0.315E-03
DAV:  11    -0.111210339336E+02    0.24521E-05   -0.50072E-07 98336   0.423E-03    0.568E-04
DAV:  12    -0.111210336006E+02    0.33302E-06   -0.17118E-08 78192   0.928E-04    0.115E-04
DAV:  13    -0.111210333963E+02    0.20434E-06   -0.14623E-09 56144   0.306E-04    0.276E-05
DAV:  14    -0.111210333701E+02    0.26156E-07   -0.81778E-11 51824   0.951E-05    0.117E-05
DAV:  15    -0.111210333673E+02    0.27876E-08   -0.15862E-11 51240   0.374E-05
   1 F= -.11121033E+02 E0= -.11121005E+02  d E =-.573114E-04
