 vasp.4.6.28 25Jul05 complex 
 executed on             LinuxIFC date 2016.08.29  18:51:32
 running on    4 nodes
 distr:  one band on    1 nodes,    4 groups


--------------------------------------------------------------------------------------------------------


 INCAR:
 POTCAR:   PAW_PBE Cu 05Jan2001                   
 POTCAR:   PAW_PBE Cu 05Jan2001                   
   VRHFIN =Cu: d10 p1                                                           
   LEXCH  = PE                                                                  
   EATOM  =  1390.9800 eV,  102.2341 Ry                                         
                                                                                
   TITEL  = PAW_PBE Cu 05Jan2001                                                
   LULTRA =        F    use ultrasoft PP ?                                      
   IUNSCR =        1    unscreen: 0-lin 1-nonlin 2-no                           
   RPACOR =    2.000    partial core radius                                     
   POMASS =   63.546; ZVAL   =   11.000    mass and valenz                      
   RCORE  =    2.300    outmost cutoff radius                                   
   RWIGS  =    2.480; RWIGS  =    1.312    wigner-seitz radius (au A)           
   ENMAX  =  273.214; ENMIN  =  204.910 eV                                      
   RCLOC  =    1.712    cutoff for local pot                                    
   LCOR   =        T    correct aug charges                                     
   LPAW   =        T    paw PP                                                  
   EAUG   =  516.456                                                            
   DEXC   =    -.008                                                            
   RMAX   =    2.789    core radius for proj-oper                               
   RAUG   =    1.300    factor for augmentation sphere                          
   RDEP   =    2.302    radius for radial grids                                 
   QCUT   =   -4.481; QGAM   =    8.962    optimization parameters              
                                                                                
   Description                                                                  
     l     E      TYP  RCUT    TYP  RCUT                                        
     2   .000     23  2.300                                                     
     2   .000     23  2.300                                                     
     0   .000     23  2.300                                                     
     0   .000     23  2.300                                                     
     1  -.200     23  2.300                                                     
     1   .000     23  2.300                                                     
     3   .000      7   .000                                                     
  local pseudopotential read in
  partial core-charges read in
  atomic valenz-charges read in
  non local Contribution for L=           2  read in
    real space projection operators read in
  non local Contribution for L=           2  read in
    real space projection operators read in
  non local Contribution for L=           0  read in
    real space projection operators read in
  non local Contribution for L=           0  read in
    real space projection operators read in
  non local Contribution for L=           1  read in
    real space projection operators read in
  non local Contribution for L=           1  read in
    real space projection operators read in
    PAW grid and wavefunctions read in
 
   number of l-projection  operators is LMAX  =           6
   number of lm-projection operators is LMMAX =          18
 

 ----------------------------------------------------------------------------- 
|                                                                             |
|  ADVICE TO THIS USER RUNNING 'VASP/VAMP'   (HEAR YOUR MASTER'S VOICE ...):  |
|                                                                             |
|      You have a (more or less) 'large supercell' and for larger cells       |
|      it might be more efficient to use real space projection operators      |
|      So try LREAL= Auto  in the INCAR   file.                               |
|      Mind: If you want to do an extremely accurate calculations keep the    |
|      reciprocal projection scheme          (i.e. LREAL=.FALSE.)             |
|                                                                             |
 ----------------------------------------------------------------------------- 

 PAW_PBE Cu 05Jan2001                   :
 energy of atom  1       EATOM=-1390.9800
 kinetic energy error for atom=    0.0395 (will be added to EATOM!!)
 
 EXHCAR: internal setup
 exchange correlation table for  LEXCH =        8
   RHO(1)=    0.500       N(1)  =     2000
   RHO(2)=  100.500       N(2)  =     4000
 
 POSCAR: No title                                
  positions in direct lattice
  No initial velocities read in
 


--------------------------------------------------------------------------------------------------------


 ion  position               nearest neighbor table
   1  0.667  0.667  0.333-   5 2.65   8 2.65   9 2.65  60 2.65  43 2.65  59 2.65   3 2.65   2 2.65
                            38 2.65  19 2.65  34 2.65 101 2.65
   2  0.667  0.833  0.500-   3 2.65   9 2.65  14 2.65  10 2.65  34 2.65  39 2.65   1 2.65   6 2.65
                            61 2.65  97 2.65  60 2.65  35 2.65
   3  0.833  0.667  0.500-   2 2.65   9 2.65  14 2.65  19 2.65   1 2.65  12 2.65  39 2.65  11 2.65
                            49 2.65  87 2.65  44 2.65  43 2.65
   4  0.667  0.667  0.000-  21 2.65  83 2.65  15 2.65  66 2.65  20 2.65   8 2.65   5 2.65  38 2.65
                            59 2.65 107 2.65  82 2.65  63 2.65
   5  0.667  0.833  0.167-   1 2.65   8 2.65   9 2.65  21 2.65  60 2.65  22 2.65  59 2.65   4 2.65
                             6 2.65  16 2.65  84 2.65  83 2.65
   6  0.667  0.000  0.333-  22 2.65  17 2.65   9 2.65  23 2.65  10 2.65  84 2.65   5 2.65  61 2.65
                             2 2.65  85 2.65  60 2.65   7 2.65
   7  0.667  0.167  0.500-  24 2.65  86 2.65  23 2.65  10 2.65  18 2.65  64 2.65  62 2.65  35 2.65
                           105 2.65  61 2.65  85 2.65   6 2.65
   8  0.833  0.667  0.167-   5 2.65   1 2.65   9 2.65  43 2.65  21 2.65  38 2.65  26 2.65  11 2.65
                             4 2.65  25 2.65  70 2.65  66 2.65
   9  0.833  0.833  0.333-   1 2.65   5 2.65   8 2.65  11 2.65  22 2.65   3 2.65   2 2.65   6 2.65
                            26 2.65  27 2.65  12 2.65  10 2.65
  10  0.833  0.000  0.500-   7 2.65  35 2.65   2 2.65   6 2.65  23 2.65  27 2.65  12 2.65  39 2.65
                            28 2.65  67 2.65  64 2.65   9 2.65
  11  0.000  0.667  0.333-  26 2.65   9 2.65  29 2.65   8 2.65  30 2.65  12 2.65  70 2.65  49 2.65
                             3 2.65  75 2.65  43 2.65  13 2.65
  12  0.000  0.833  0.500-  13 2.65  44 2.65   3 2.65  11 2.65  27 2.65  30 2.65  39 2.65  10 2.65
                            31 2.65   9 2.65  71 2.65  67 2.65
  13  0.167  0.667  0.500-  33 2.65  12 2.65  32 2.65  30 2.65  81 2.65  76 2.65  71 2.65  44 2.65
                           102 2.65  49 2.65  11 2.65  75 2.65
  14  0.667  0.667  0.667-  20 2.65  39 2.65  15 2.65  63 2.65  97 2.65   3 2.65  82 2.65  87 2.65
                             2 2.65 108 2.65  34 2.65  19 2.65
  15  0.667  0.833  0.833-  20 2.65  39 2.65  14 2.65  35 2.65   4 2.65  40 2.65  21 2.65  82 2.65
                            97 2.65  83 2.65  98 2.65  16 2.65
  16  0.667  0.000  0.000-  21 2.65  40 2.65  41 2.65  22 2.65   5 2.65  36 2.65  84 2.65  99 2.65
                            83 2.65  98 2.65  17 2.65  15 2.65
  17  0.667  0.167  0.167-  23 2.65  42 2.65  18 2.65   6 2.65 100 2.65  41 2.65  22 2.65  85 2.65
                            37 2.65  84 2.65  99 2.65  16 2.65
  18  0.667  0.333  0.333-  23 2.65  42 2.65  17 2.65  38 2.65   7 2.65  43 2.65  24 2.65  85 2.65
                           100 2.65  86 2.65 101 2.65  19 2.65
  19  0.667  0.500  0.500-  24 2.65  43 2.65   3 2.65  87 2.65   1 2.65  62 2.65  34 2.65 108 2.65
                            86 2.65 101 2.65  14 2.65  18 2.65
  20  0.833  0.667  0.833-  15 2.65  39 2.65  14 2.65   4 2.65  44 2.65  63 2.65  45 2.65  21 2.65
                            87 2.65  66 2.65  89 2.65  25 2.65
  21  0.833  0.833  0.000-  46 2.64   4 2.65  25 2.65  16 2.65   5 2.65   8 2.65  15 2.65  20 2.65
                            45 2.65  40 2.65  26 2.65  22 2.65
  22  0.833  0.000  0.167-  46 2.64   6 2.65   9 2.65  17 2.65   5 2.65  27 2.65  16 2.65  23 2.65
                            41 2.65  26 2.65  47 2.65  21 2.65
  23  0.833  0.167  0.333-  18 2.65  42 2.65  17 2.65   7 2.65  47 2.65   6 2.65  48 2.65  24 2.65
                            22 2.65  27 2.65  10 2.65  28 2.65
  24  0.833  0.333  0.500-   7 2.65  28 2.65  19 2.65  62 2.65  64 2.65  18 2.65  23 2.65  43 2.65
                            48 2.65  49 2.65  88 2.65  87 2.65
  25  0.000  0.667  0.000-  21 2.65  45 2.65  51 2.65  26 2.65  50 2.65   8 2.65  70 2.65  92 2.65
                            66 2.65  20 2.65  29 2.65  89 2.65
  26  0.000  0.833  0.167-  11 2.65  29 2.65   9 2.65   8 2.65  30 2.65  25 2.65  27 2.65  22 2.65
                            51 2.65  52 2.65  21 2.65  46 2.65
  27  0.000  0.000  0.333-  47 2.65  52 2.65  22 2.65  26 2.65  12 2.65  30 2.65  10 2.65  23 2.65
                             9 2.65  53 2.65  31 2.65  28 2.65
  28  0.000  0.167  0.500-  24 2.65  48 2.65  54 2.65  88 2.65  31 2.65  64 2.65  67 2.65  53 2.65
                            10 2.65  23 2.65  90 2.65  27 2.65
  29  0.167  0.667  0.167-  32 2.65  56 2.65  30 2.65  26 2.65  75 2.65  55 2.65  11 2.65  51 2.65
                            96 2.65  70 2.65  25 2.65  92 2.65
  30  0.167  0.833  0.333-  32 2.65  56 2.65  29 2.65  52 2.65  13 2.65  57 2.65  11 2.65  26 2.65
                            33 2.65  12 2.65  27 2.65  31 2.65
  31  0.167  0.000  0.500-  33 2.65  57 2.65  58 2.65  93 2.65  53 2.65  67 2.65  71 2.65  28 2.65
                            12 2.65  27 2.65  90 2.65  30 2.65
  32  0.333  0.667  0.333-  30 2.65  56 2.65  29 2.65  13 2.65  59 2.65  75 2.65  60 2.65  33 2.65
                            96 2.65  81 2.65 101 2.65  34 2.65
  33  0.333  0.833  0.500-  13 2.65  34 2.65  31 2.65  71 2.65  76 2.65  30 2.65  32 2.65  57 2.65
                            60 2.65  61 2.65  97 2.65  93 2.65
  34  0.500  0.667  0.500-  33 2.65  60 2.65   2 2.65  97 2.65  19 2.65  76 2.65   1 2.65 108 2.65
                            81 2.65  14 2.65  32 2.65 101 2.65
  35  0.667  0.000  0.667-  40 2.65  15 2.65  39 2.65  10 2.65  98 2.65  64 2.65  36 2.65   7 2.65
                           105 2.65  97 2.65  61 2.65   2 2.65
  36  0.667  0.167  0.833-  62 2.65  64 2.65  65 2.65 106 2.65  40 2.65 105 2.65  41 2.65  37 2.65
                            35 2.65  16 2.65  99 2.65  98 2.65
  37  0.667  0.333  0.000-  41 2.65  17 2.65  65 2.65  66 2.65  42 2.65  99 2.65  36 2.65  63 2.65
                           100 2.65 107 2.65 106 2.65  38 2.65
  38  0.667  0.500  0.167-  43 2.65  18 2.65  42 2.65  66 2.65 101 2.65   8 2.65   1 2.65   4 2.65
                            59 2.65 100 2.65 107 2.65  37 2.65
  39  0.833  0.833  0.667-  20 2.65  15 2.65  14 2.65  44 2.65  35 2.65   2 2.65  45 2.65   3 2.65
                            40 2.65  12 2.65  10 2.65  67 2.65
  40  0.833  0.000  0.833-  46 2.64  35 2.65  64 2.65  16 2.65  36 2.65  67 2.65  15 2.65  39 2.65
                            45 2.65  21 2.65  68 2.65  41 2.65
  41  0.833  0.167  0.000-  46 2.64  37 2.65  17 2.65  65 2.65  16 2.65  36 2.65  69 2.65  42 2.65
                            68 2.65  22 2.65  47 2.65  40 2.65
  42  0.833  0.333  0.167-  23 2.65  18 2.65  17 2.65  47 2.65  38 2.65  37 2.65  48 2.65  41 2.65
                            43 2.65  66 2.65  69 2.65  70 2.65
  43  0.833  0.500  0.333-  38 2.65   8 2.65  19 2.65   1 2.65  70 2.65  18 2.65  42 2.65  48 2.65
                            24 2.65  11 2.65  49 2.65   3 2.65
  44  0.000  0.667  0.667-  45 2.65  39 2.65  89 2.65  20 2.65  12 2.65  71 2.65  50 2.65  13 2.65
                           102 2.65  87 2.65   3 2.65  49 2.65
  45  0.000  0.833  0.833-  44 2.65  50 2.65  67 2.65  25 2.65  71 2.65  20 2.65  39 2.65  21 2.65
                            40 2.65  72 2.65  51 2.65  46 2.65
  46  0.998  0.000  0.000-  22 2.64  41 2.64  40 2.64  21 2.64  26 2.65  68 2.65  45 2.65  47 2.65
                            51 2.66  72 2.66  52 2.66  73 2.66
  47  0.000  0.167  0.167-  48 2.65  42 2.65  27 2.65  23 2.65  69 2.65  53 2.65  74 2.65  73 2.65
                            52 2.65  22 2.65  41 2.65  46 2.65
  48  0.000  0.333  0.333-  47 2.65  53 2.65  70 2.65  28 2.65  74 2.65  23 2.65  42 2.65  24 2.65
                            43 2.65  75 2.65  54 2.65  49 2.65
  49  0.000  0.500  0.500-   3 2.65  11 2.65  54 2.65  75 2.65  87 2.65  88 2.65  13 2.65  24 2.65
                            43 2.65 102 2.65  48 2.65  44 2.65
  50  0.167  0.667  0.833-  71 2.65  76 2.65  77 2.65  45 2.65 104 2.65  44 2.65  55 2.65  51 2.65
                           102 2.65  25 2.65  92 2.65  89 2.65
  51  0.167  0.833  0.000-  55 2.65  29 2.65  77 2.65  78 2.65  25 2.65  56 2.65  50 2.65  26 2.65
                            72 2.65  45 2.65  52 2.65  46 2.66
  52  0.167  0.000  0.167-  57 2.65  30 2.65  56 2.65  27 2.65  78 2.65  79 2.65  53 2.65  47 2.65
                            73 2.65  26 2.65  51 2.65  46 2.66
  53  0.167  0.167  0.333-  74 2.65  79 2.65  80 2.65  48 2.65  57 2.65  58 2.65  47 2.65  54 2.65
                            52 2.65  31 2.65  28 2.65  27 2.65
  54  0.167  0.333  0.500-  58 2.65  80 2.65  90 2.65  81 2.65  28 2.65 103 2.65  53 2.65  88 2.65
                            49 2.65  75 2.65  48 2.65 102 2.65
  55  0.333  0.667  0.000-  51 2.65  29 2.65  77 2.65  92 2.65  83 2.65  50 2.65  56 2.65  82 2.65
                            96 2.65 107 2.65  59 2.65 104 2.65
  56  0.333  0.833  0.167-  32 2.65  30 2.65  29 2.65  59 2.65  52 2.65  51 2.65  60 2.65  55 2.65
                            57 2.65  78 2.65  83 2.65  84 2.65
  57  0.333  0.000  0.333-  52 2.65  79 2.65  53 2.65  31 2.65  84 2.65  30 2.65  56 2.65  33 2.65
                            60 2.65  85 2.65  61 2.65  58 2.65
  58  0.333  0.167  0.500-  54 2.65  80 2.65  90 2.65  31 2.65  86 2.65  53 2.65 103 2.65  85 2.65
                            93 2.65  61 2.65 105 2.65  57 2.65
  59  0.500  0.667  0.167-  60 2.65  56 2.65 101 2.65  83 2.65  32 2.65   5 2.65   1 2.65   4 2.65
                            38 2.65  96 2.65  55 2.65 107 2.65
  60  0.500  0.833  0.333-  59 2.65   1 2.65  84 2.65   5 2.65  34 2.65  32 2.65  56 2.65  33 2.65
                            57 2.65   6 2.65   2 2.65  61 2.65
  61  0.500  0.000  0.500-   2 2.65   6 2.65  58 2.65  85 2.65  93 2.65  97 2.65   7 2.65  33 2.65
                            35 2.65  57 2.65  60 2.65 105 2.65
  62  0.667  0.333  0.667-  36 2.65  64 2.65  65 2.65  24 2.65 106 2.65  87 2.65 105 2.65   7 2.65
                            63 2.65  19 2.65 108 2.65  86 2.65
  63  0.667  0.500  0.833-  87 2.65  14 2.65  65 2.65  20 2.65  66 2.65 108 2.65  62 2.65  37 2.65
                           107 2.65  82 2.65 106 2.65   4 2.65
  64  0.833  0.167  0.667-  62 2.65  36 2.65  65 2.65  40 2.65  24 2.65  35 2.65   7 2.65  68 2.65
                            88 2.65  28 2.65  67 2.65  10 2.65
  65  0.833  0.333  0.833-  36 2.65  62 2.65  64 2.65  68 2.65  87 2.65  41 2.65  37 2.65  63 2.65
                            88 2.65  89 2.65  69 2.65  66 2.65
  66  0.833  0.500  0.000-   4 2.65  38 2.65  37 2.65  63 2.65  42 2.65  20 2.65  69 2.65  89 2.65
                            25 2.65  70 2.65  65 2.65   8 2.65
  67  0.000  0.000  0.667-  45 2.65  40 2.65  72 2.65  68 2.65  64 2.65  28 2.65  71 2.65  31 2.65
                            39 2.65  90 2.65  10 2.65  12 2.65
  68  0.000  0.167  0.833-  88 2.65  65 2.65  90 2.65  64 2.65  91 2.65  69 2.65  67 2.65  72 2.65
                            41 2.65  40 2.65  73 2.65  46 2.65
  69  0.000  0.333  0.000-  73 2.65  47 2.65  41 2.65  68 2.65  42 2.65  66 2.65  89 2.65  91 2.65
                            92 2.65  74 2.65  65 2.65  70 2.65
  70  0.000  0.500  0.167-  48 2.65  43 2.65  75 2.65  11 2.65  25 2.65  74 2.65   8 2.65  92 2.65
                            42 2.65  29 2.65  66 2.65  69 2.65
  71  0.167  0.833  0.667-  50 2.65  76 2.65  77 2.65  45 2.65  33 2.65  93 2.65  44 2.65  13 2.65
                            72 2.65  31 2.65  67 2.65  12 2.65
  72  0.167  0.000  0.833-  93 2.65  90 2.65  77 2.65  94 2.65  78 2.65  67 2.65  71 2.65  51 2.65
                            68 2.65  45 2.65  73 2.65  46 2.66
  73  0.167  0.167  0.000-  95 2.65  69 2.65  91 2.65  94 2.65  78 2.65  79 2.65  74 2.65  52 2.65
                            47 2.65  68 2.65  72 2.65  46 2.66
  74  0.167  0.333  0.167-  53 2.65  79 2.65  80 2.65  48 2.65  95 2.65  96 2.65  47 2.65  73 2.65
                            75 2.65  70 2.65  92 2.65  69 2.65
  75  0.167  0.500  0.333-  96 2.65  29 2.65  80 2.65  32 2.65  81 2.65  70 2.65  74 2.65  54 2.65
                            11 2.65  49 2.65  48 2.65  13 2.65
  76  0.333  0.667  0.667-  71 2.65  50 2.65  77 2.65 104 2.65  33 2.65 102 2.65  97 2.65  13 2.65
                            82 2.65  34 2.65 108 2.65  81 2.65
  77  0.333  0.833  0.833-  50 2.65  71 2.65  76 2.65  82 2.65  93 2.65  55 2.65  51 2.65  72 2.65
                            97 2.65  98 2.65  83 2.65  78 2.65
  78  0.333  0.000  0.000-  52 2.65  73 2.65  51 2.65  72 2.65  56 2.65  83 2.65  94 2.65  98 2.65
                            99 2.65  84 2.65  79 2.65  77 2.65
  79  0.333  0.167  0.167-  74 2.65  53 2.65  80 2.65  57 2.65  95 2.65  52 2.65  85 2.65  73 2.65
                           100 2.65  99 2.65  84 2.65  78 2.65
  80  0.333  0.333  0.333-  53 2.65  74 2.65  79 2.65  85 2.65  96 2.65  58 2.65  54 2.65  75 2.65
                           100 2.65 101 2.65  86 2.65  81 2.65
  81  0.333  0.500  0.500-  13 2.65 102 2.65  54 2.65  75 2.65  86 2.65 101 2.65  32 2.65 103 2.65
                            34 2.65 108 2.65  80 2.65  76 2.65
  82  0.500  0.667  0.833-  97 2.65  77 2.65  14 2.65  15 2.65  76 2.65  83 2.65 108 2.65  63 2.65
                           107 2.65  55 2.65 104 2.65   4 2.65
  83  0.500  0.833  0.000-   4 2.65  59 2.65  55 2.65  82 2.65  15 2.65  78 2.65  56 2.65  98 2.65
                            16 2.65  77 2.65   5 2.65  84 2.65
  84  0.500  0.000  0.167-  60 2.65  57 2.65   6 2.65  85 2.65  16 2.65  79 2.65   5 2.65  99 2.65
                            56 2.65  17 2.65  78 2.65  83 2.65
  85  0.500  0.167  0.333- 100 2.65  80 2.65  17 2.65  18 2.65  79 2.65  86 2.65  84 2.65  61 2.65
                             6 2.65  58 2.65  57 2.65   7 2.65
  86  0.500  0.333  0.500-   7 2.65 105 2.65  58 2.65  85 2.65  18 2.65 101 2.65 103 2.65  81 2.65
                            19 2.65  80 2.65  62 2.65 108 2.65
  87  0.833  0.500  0.667-  63 2.65  65 2.65  14 2.65  62 2.65  19 2.65  89 2.65  20 2.65   3 2.65
                            88 2.65  49 2.65  44 2.65  24 2.65
  88  0.000  0.333  0.667-  68 2.65  90 2.65  65 2.65  64 2.65  91 2.65  28 2.65  89 2.65  54 2.65
                            49 2.65  87 2.65 102 2.65  24 2.65
  89  0.000  0.500  0.833-  44 2.65 102 2.65  87 2.65  88 2.65  20 2.65  66 2.65  91 2.65  69 2.65
                            50 2.65  65 2.65  92 2.65  25 2.65
  90  0.167  0.167  0.667-  94 2.65 103 2.65  91 2.65  88 2.65  72 2.65  68 2.65  93 2.65  54 2.65
                            58 2.65  67 2.65  28 2.65  31 2.65
  91  0.167  0.333  0.833-  94 2.65 103 2.65  90 2.65 102 2.65  73 2.65 104 2.65  68 2.65  88 2.65
                            95 2.65  69 2.65  89 2.65  92 2.65
  92  0.167  0.500  0.000-  95 2.65 104 2.65  55 2.65  96 2.65  74 2.65  50 2.65  25 2.65  70 2.65
                            69 2.65  89 2.65  91 2.65  29 2.65
  93  0.333  0.000  0.667-  72 2.65  77 2.65  90 2.65  71 2.65  31 2.65  98 2.65  94 2.65  58 2.65
                            97 2.65  61 2.65 105 2.65  33 2.65
  94  0.333  0.167  0.833-  91 2.65 103 2.65  90 2.65  73 2.65 105 2.65  72 2.65 106 2.65  95 2.65
                            93 2.65  98 2.65  78 2.65  99 2.65
  95  0.333  0.333  0.000-  73 2.65  99 2.65  79 2.65  92 2.65  74 2.65  91 2.65  94 2.65 104 2.65
                           106 2.65 107 2.65 100 2.65  96 2.65
  96  0.333  0.500  0.167-  75 2.65  80 2.65  29 2.65  74 2.65  92 2.65 101 2.65  32 2.65 100 2.65
                            55 2.65 107 2.65  59 2.65  95 2.65
  97  0.500  0.833  0.667-  82 2.65  14 2.65  77 2.65  15 2.65  76 2.65  34 2.65  98 2.65   2 2.65
                            93 2.65  61 2.65  35 2.65  33 2.65
  98  0.500  0.000  0.833- 105 2.65  35 2.65  93 2.65  97 2.65  15 2.65  94 2.65  78 2.65  83 2.65
                            36 2.65  77 2.65  16 2.65  99 2.65
  99  0.500  0.167  0.000-  95 2.65 106 2.65  37 2.65 100 2.65  84 2.65  36 2.65  16 2.65  79 2.65
                            78 2.65  94 2.65  17 2.65  98 2.65
 100  0.500  0.333  0.167-  85 2.65  17 2.65  80 2.65  18 2.65  79 2.65  99 2.65 101 2.65  37 2.65
                            96 2.65 107 2.65  38 2.65  95 2.65
 101  0.500  0.500  0.333-  59 2.65  38 2.65  96 2.65 100 2.65  81 2.65  86 2.65  18 2.65  32 2.65
                             1 2.65  80 2.65  19 2.65  34 2.65
 102  0.167  0.500  0.667- 104 2.65  91 2.65  81 2.65 103 2.65  89 2.65  76 2.65  50 2.65  44 2.65
                            13 2.65  88 2.65  49 2.65  54 2.65
 103  0.333  0.333  0.667-  94 2.65  91 2.65  90 2.65 105 2.65 102 2.65  54 2.65 106 2.65  58 2.65
                           104 2.65  86 2.65  81 2.65 108 2.65
 104  0.333  0.500  0.833- 102 2.65  76 2.65  92 2.65  50 2.65 108 2.65  91 2.65 103 2.65 106 2.65
                            95 2.65  82 2.65 107 2.65  55 2.65
 105  0.500  0.167  0.667- 106 2.65 103 2.65  98 2.65  94 2.65  86 2.65  62 2.65  36 2.65  35 2.65
                             7 2.65  93 2.65  58 2.65  61 2.65
 106  0.500  0.333  0.833- 105 2.65  36 2.65 108 2.65  62 2.65  99 2.65  94 2.65 103 2.65  95 2.65
                           104 2.65  63 2.65  37 2.65 107 2.65
 107  0.500  0.500  0.000-  37 2.65  55 2.65  63 2.65  82 2.65  96 2.65 100 2.65   4 2.65  95 2.65
                            38 2.65 104 2.65  59 2.65 106 2.65
 108  0.500  0.500  0.667- 106 2.65 104 2.65  63 2.65  82 2.65  76 2.65  34 2.65  62 2.65  19 2.65
                            14 2.65 103 2.65  81 2.65  86 2.65
 
  LATTYP: Found a simple cubic cell.
 ALAT       =    11.2395184800
  
  Lattice vectors:
  
 A1 = (  11.2395184800,   0.0000000000,   0.0000000000)
 A2 = (   0.0000002100,  11.2395184800,   0.0000000000)
 A3 = (   0.0000002100,   0.0000002100,  11.2395184800)
 Subroutine PRICEL returns:
 Original cell was already a primitive cell.
 

Analysis of symmetry for initial positions (statically):

 Routine SETGRP: Setting up the symmetry group for a 
 simple cubic supercell.


 Subroutine GETGRP returns: Found  8 space group operations
 (whereof  8 operations were pure point group operations)
 out of a pool of 48 trial point group operations.


The static configuration has the point symmetry C_4v.

Analysis of symmetry for dynamics (positions and initial velocities):

 Subroutine DYNSYM returns: Found  8 space group operations
 (whereof  8 operations were pure point group operations)
 out of a pool of  8 trial space group operations
 (whereof  8 operations were pure point group operations)
 and found also     1 'primitive' translations


The dynamic configuration has the point symmetry C_4v.
 
 
 KPOINTS: Automatic mesh                          

Automatic generation of k-mesh.
 
 Subroutine IBZKPT returns following result:
 ===========================================
 
 Found      1 irreducible k-points:
 
 Following reciprocal coordinates:
            Coordinates               Weight
  0.250000  0.250000  0.250000      8.000000
 
 Following cartesian coordinates:
            Coordinates               Weight
  0.022243  0.022243  0.022243      8.000000
 


--------------------------------------------------------------------------------------------------------




 Dimension of arrays:
   k-Points           NKPTS =      1   number of bands    NBANDS=    712
   number of dos      NEDOS =    301   number of ions     NIONS =    108
   non local maximal  LDIM  =      6   non local SUM 2l+1 LMDIM =     18
   total plane-waves  NPLWV = 110592
   max r-space proj   IRMAX =      1   max aug-charges    IRDMAX=   2933
   dimension x,y,z NGX =    48 NGY =   48 NGZ =   48
   dimension x,y,z NGXF=    96 NGYF=   96 NGZF=   96
   support grid    NGXF=    96 NGYF=   96 NGZF=   96
   ions per type =             108
 NGX,Y,Z   is equivalent  to a cutoff of   7.10,  7.10,  7.10 a.u.
 NGXF,Y,Z  is equivalent  to a cutoff of  14.20, 14.20, 14.20 a.u.


 I would recommend the setting:
   dimension x,y,z NGX =    45 NGY =   45 NGZ =   45
 SYSTEM =  No title                                
 POSCAR =  No title                                

 Startparameter for this run:
   NWRITE =      2    write-flag & timer
   PREC   = normal    medium, high low
   ISTART =      1    job   : 0-new  1-cont  2-samecut
   ICHARG =      0    charge: 1-file 2-atom 10-const
   ISPIN  =      1    spin polarized calculation?
   LNONCOLLINEAR =      F non collinear calculations
   LSORBIT =      F    spin-orbit coupling
   INIWAV =      1    electr: 0-lowe 1-rand  2-diag
   LASPH  =      F    aspherical Exc in radial PAW
   METAGGA=      F    non-selfconsistent MetaGGA calc.

 Electronic Relaxation 1
   ENCUT  =  273.2 eV  20.08 Ry    4.48 a.u.  15.15 15.15 15.15*2*pi/ulx,y,z
   ENINI  =  273.2     initial cutoff
   ENAUG  =  516.5 eV  augmentation charge cutoff
   NELM   =     60;   NELMIN=  2; NELMDL=  0     # of ELM steps 
   EDIFF  = 0.1E-04   stopping-criterion for ELM
   LREAL  =      F    real-space projection
   LCOMPAT=      F    compatible to vasp.4.4
   LREAL_COMPAT= F    compatible to vasp.4.5.1-3
   GGA_COMPAT  = T    GGA compatible to vasp.4.4-vasp.4.6
   LMAXPAW     = -100 max onsite density
   LMAXMIX     =    2 max onsite mixed and CHGCAR
   VOSKOWN=      1    Vosko Wilk Nusair interpolation
   ROPT   =    0.00000
 Ionic relaxation
   EDIFFG = -.2E-01   stopping-criterion for IOM
   NSW    =      0    number of steps for IOM
   NBLOCK =      1;   KBLOCK =      1    inner block; outer block 
   IBRION =     -1    ionic relax: 0-MD 1-quasi-New 2-CG
   NFREE  =      0    steps in history (QN), initial steepest desc. (CG)
   ISIF   =      2    stress and relaxation
   IWAVPR =     10    prediction:  0-non 1-charg 2-wave 3-comb
   ISYM   =      2    0-nonsym 1-usesym 2-fastsym
   LCORR  =      T    Harris-Foulkes like correction to forces

   POTIM  =   0.50    time-step for ionic-motion
   TEIN   =    0.0    initial temperature
   TEBEG  =    0.0;   TEEND  =   0.0 temperature during run
   SMASS  =  -3.00    Nose mass-parameter (am)
   estimated Nose-frequenzy (Omega)   =  0.10E-29 period in steps =****** mass=  -0.289E-26a.u.
   NPACO  =    256;   APACO  = 16.0  distance and # of slots for P.C.
   PSTRESS=    0.0 pullay stress

  Mass of Ions in am
   POMASS =  63.55
  Ionic Valenz
   ZVAL   =  11.00
  Atomic Wigner-Seitz radii
   RWIGS  =   1.17
   NELECT =    1188.0000    total number of electrons
   NUPDOWN=      -1.0000    fix difference up-down

 DOS related values:
   EMIN   =  10.00;   EMAX   =-10.00  energy-range for DOS
   ISMEAR =     1;   SIGMA  =   0.20  broadening in eV -4-tet -1-fermi 0-gaus

 Electronic relaxation 2 (details)
   IALGO  =     38    algorithm
   LDIAG  =      T    sub-space diagonalisation
   IMIX   =      4    mixing-type and parameters
     AMIX     =   0.40;   BMIX     =  1.00
     AMIX_MAG =   1.60;   BMIX_MAG =  1.00
     AMIN     =   0.10
     WC   =   100.;   INIMIX=   1;  MIXPRE=   1

 Intra band minimization:
   WEIMIN = 0.0000     energy-eigenvalue tresh-hold
   EBREAK =  0.35E-08  absolut break condition
   DEPER  =   0.30     relativ break condition  

   TIME   =   0.10     timestep for ELM

  volume/ion in A,a.u.               =      13.15        88.72
  Fermi-wavevector in a.u.,eV,Ry     =   1.542645 32.378505  2.379753

 Second variation
   LSECVAR=     F    do a second variation
 
 Write flags
   LWAVE  =      F    write WAVECAR
   LCHARG =      F    write CHGCAR
   LVTOT  =      F    write LOCPOT, local potential
   LELF   =      F    write electronic localiz. function (ELF)
   LORBIT =      0    0 simple, 1 ext, 2 COOP (PROOUT)


 Dipole corrections
   IDIPOL =      0    1-x, 2-y, 3-z
   LDIPOL =      F    correct potential



--------------------------------------------------------------------------------------------------------


 Static calculation
 charge density will be updated during run
 non-spin polarized calculation
 Variant of blocked Davidson
 Davidson routine will perform the subspace rotation
 performe sub-space diagonalisation
    after iterative eigenvector-optimisation
 modified Broyden-mixing scheme, WC =      100.0
 initial mixing is a Kerker type mixing with AMIX =  0.4000 and BMIX =      1.0000
 Hartree-type preconditioning will be used
 using additional bands          118
 reciprocal scheme for non local part
 use partial core corrections
 calculate Harris-corrections to forces 
   (improved forces if not selfconsistent)
 use gradient corrections 
 use of overlap-Matrix (Vanderbilt PP)
 Methfessel and Paxton  Order N= 1 SIGMA  =   0.20


--------------------------------------------------------------------------------------------------------


  energy-cutoff  :      273.21
  volume of cell :     1419.85
      direct lattice vectors                 reciprocal lattice vectors
    11.239518480  0.000000000  0.000000000     0.088971783 -0.000000002 -0.000000002
     0.000000210 11.239518480  0.000000000     0.000000000  0.088971783 -0.000000002
     0.000000210  0.000000210 11.239518480     0.000000000  0.000000000  0.088971783

  length of vectors
    11.239518480 11.239518480 11.239518480     0.088971783  0.088971783  0.088971783


 
 old parameters found on file WAVECAR:
  energy-cutoff  :      273.21
  volume of cell :     1419.85
      direct lattice vectors                 reciprocal lattice vectors
    11.239518480  0.000000000  0.000000000     0.088971783 -0.000000002 -0.000000002
     0.000000210 11.239518480  0.000000000     0.000000000  0.088971783 -0.000000002
     0.000000210  0.000000210 11.239518480     0.000000000  0.000000000  0.088971783

  length of vectors

 
 k-points in units of 2pi/SCALE and weight: Automatic mesh                          
   0.02224295  0.02224295  0.02224294       1.000
 
 k-points in reciprocal lattice and weights: Automatic mesh                          
   0.25000000  0.25000000  0.25000000       1.000
 
 position of ions in fractional coordinates (direct lattice) 
   0.66666667  0.66666667  0.33333333
   0.66666667  0.83333333  0.50000000
   0.83333333  0.66666667  0.50000000
   0.66666667  0.66666667  0.00000000
   0.66666667  0.83333333  0.16666667
   0.66666667  0.00000000  0.33333333
   0.66666667  0.16666667  0.50000000
   0.83333333  0.66666667  0.16666667
   0.83333333  0.83333333  0.33333333
   0.83333333  0.00000000  0.50000000
   0.00000000  0.66666667  0.33333333
   0.00000000  0.83333333  0.50000000
   0.16666667  0.66666667  0.50000000
   0.66666667  0.66666667  0.66666667
   0.66666667  0.83333333  0.83333333
   0.66666667  0.00000000  0.00000000
   0.66666667  0.16666667  0.16666667
   0.66666667  0.33333333  0.33333333
   0.66666667  0.50000000  0.50000000
   0.83333333  0.66666667  0.83333333
   0.83333333  0.83333333  0.00000000
   0.83333333  0.00000000  0.16666667
   0.83333333  0.16666667  0.33333333
   0.83333333  0.33333333  0.50000000
   0.00000000  0.66666667  0.00000000
   0.00000000  0.83333333  0.16666667
   0.00000000  0.00000000  0.33333333
   0.00000000  0.16666667  0.50000000
   0.16666667  0.66666667  0.16666667
   0.16666667  0.83333333  0.33333333
   0.16666667  0.00000000  0.50000000
   0.33333333  0.66666667  0.33333333
   0.33333333  0.83333333  0.50000000
   0.50000000  0.66666667  0.50000000
   0.66666667  0.00000000  0.66666667
   0.66666667  0.16666667  0.83333333
   0.66666667  0.33333333  0.00000000
   0.66666667  0.50000000  0.16666667
   0.83333333  0.83333333  0.66666667
   0.83333333  0.00000000  0.83333333
   0.83333333  0.16666667  0.00000000
   0.83333333  0.33333333  0.16666667
   0.83333333  0.50000000  0.33333333
   0.00000000  0.66666667  0.66666667
   0.00000000  0.83333333  0.83333333
   0.99822100  0.00000000  0.00000000
   0.00000000  0.16666667  0.16666667
   0.00000000  0.33333333  0.33333333
   0.00000000  0.50000000  0.50000000
   0.16666667  0.66666667  0.83333333
   0.16666667  0.83333333  0.00000000
   0.16666667  0.00000000  0.16666667
   0.16666667  0.16666667  0.33333333
   0.16666667  0.33333333  0.50000000
   0.33333333  0.66666667  0.00000000
   0.33333333  0.83333333  0.16666667
   0.33333333  0.00000000  0.33333333
   0.33333333  0.16666667  0.50000000
   0.50000000  0.66666667  0.16666667
   0.50000000  0.83333333  0.33333333
   0.50000000  0.00000000  0.50000000
   0.66666667  0.33333333  0.66666667
   0.66666667  0.50000000  0.83333333
   0.83333333  0.16666667  0.66666667
   0.83333333  0.33333333  0.83333333
   0.83333333  0.50000000  0.00000000
   0.00000000  0.00000000  0.66666667
   0.00000000  0.16666667  0.83333333
   0.00000000  0.33333333  0.00000000
   0.00000000  0.50000000  0.16666667
   0.16666667  0.83333333  0.66666667
   0.16666667  0.00000000  0.83333333
   0.16666667  0.16666667  0.00000000
   0.16666667  0.33333333  0.16666667
   0.16666667  0.50000000  0.33333333
   0.33333333  0.66666667  0.66666667
   0.33333333  0.83333333  0.83333333
   0.33333333  0.00000000  0.00000000
   0.33333333  0.16666667  0.16666667
   0.33333333  0.33333333  0.33333333
   0.33333333  0.50000000  0.50000000
   0.50000000  0.66666667  0.83333333
   0.50000000  0.83333333  0.00000000
   0.50000000  0.00000000  0.16666667
   0.50000000  0.16666667  0.33333333
   0.50000000  0.33333333  0.50000000
   0.83333333  0.50000000  0.66666667
   0.00000000  0.33333333  0.66666667
   0.00000000  0.50000000  0.83333333
   0.16666667  0.16666667  0.66666667
   0.16666667  0.33333333  0.83333333
   0.16666667  0.50000000  0.00000000
   0.33333333  0.00000000  0.66666667
   0.33333333  0.16666667  0.83333333
   0.33333333  0.33333333  0.00000000
   0.33333333  0.50000000  0.16666667
   0.50000000  0.83333333  0.66666667
   0.50000000  0.00000000  0.83333333
   0.50000000  0.16666667  0.00000000
   0.50000000  0.33333333  0.16666667
   0.50000000  0.50000000  0.33333333
   0.16666667  0.50000000  0.66666667
   0.33333333  0.33333333  0.66666667
   0.33333333  0.50000000  0.83333333
   0.50000000  0.16666667  0.66666667
   0.50000000  0.33333333  0.83333333
   0.50000000  0.50000000  0.00000000
   0.50000000  0.50000000  0.66666667
 
 position of ions in cartesian coordinates  (Angst):
   7.49301257  7.49301243  3.74650612
   7.49301264  9.36626547  5.61975924
   9.36626561  7.49301246  5.61975924
   7.49301250  7.49301236  0.00000000
   7.49301257  9.36626540  1.87325312
   7.49301243  0.00000007  3.74650612
   7.49301250  1.87325322  5.61975924
   9.36626554  7.49301239  1.87325312
   9.36626561  9.36626543  3.74650612
   9.36626547  0.00000011  5.61975924
   0.00000021  7.49301243  3.74650612
   0.00000028  9.36626547  5.61975924
   1.87325336  7.49301246  5.61975924
   7.49301264  7.49301250  7.49301236
   7.49301271  9.36626554  9.36626536
   7.49301236  0.00000000  0.00000000
   7.49301243  1.87325315  1.87325312
   7.49301250  3.74650619  3.74650612
   7.49301257  5.61975934  5.61975924
   9.36626568  7.49301253  9.36626536
   9.36626554  9.36626536  0.00000000
   9.36626540  0.00000004  1.87325312
   9.36626547  1.87325319  3.74650612
   9.36626554  3.74650623  5.61975924
   0.00000014  7.49301236  0.00000000
   0.00000021  9.36626540  1.87325312
   0.00000007  0.00000007  3.74650612
   0.00000014  1.87325322  5.61975924
   1.87325329  7.49301239  1.87325312
   1.87325336  9.36626543  3.74650612
   1.87325322  0.00000011  5.61975924
   3.74650633  7.49301243  3.74650612
   3.74650640  9.36626547  5.61975924
   5.61975949  7.49301246  5.61975924
   7.49301250  0.00000014  7.49301236
   7.49301257  1.87325329  9.36626536
   7.49301243  3.74650612  0.00000000
   7.49301250  5.61975928  1.87325312
   9.36626568  9.36626550  7.49301236
   9.36626554  0.00000017  9.36626536
   9.36626540  1.87325312  0.00000000
   9.36626547  3.74650616  1.87325312
   9.36626554  5.61975931  3.74650612
   0.00000028  7.49301250  7.49301236
   0.00000035  9.36626554  9.36626536
  11.21952338  0.00000000  0.00000000
   0.00000007  1.87325315  1.87325312
   0.00000014  3.74650619  3.74650612
   0.00000021  5.61975934  5.61975924
   1.87325343  7.49301253  9.36626536
   1.87325329  9.36626536  0.00000000
   1.87325315  0.00000004  1.87325312
   1.87325322  1.87325319  3.74650612
   1.87325329  3.74650623  5.61975924
   3.74650626  7.49301236  0.00000000
   3.74650633  9.36626540  1.87325312
   3.74650619  0.00000007  3.74650612
   3.74650626  1.87325322  5.61975924
   5.61975942  7.49301239  1.87325312
   5.61975948  9.36626543  3.74650612
   5.61975934  0.00000011  5.61975924
   7.49301257  3.74650626  7.49301236
   7.49301264  5.61975941  9.36626536
   9.36626554  1.87325326  7.49301236
   9.36626561  3.74650630  9.36626536
   9.36626547  5.61975924  0.00000000
   0.00000014  0.00000014  7.49301236
   0.00000021  1.87325329  9.36626536
   0.00000007  3.74650612  0.00000000
   0.00000014  5.61975928  1.87325312
   1.87325343  9.36626550  7.49301236
   1.87325329  0.00000017  9.36626536
   1.87325315  1.87325312  0.00000000
   1.87325322  3.74650616  1.87325312
   1.87325329  5.61975931  3.74650612
   3.74650640  7.49301250  7.49301236
   3.74650647  9.36626554  9.36626536
   3.74650612  0.00000000  0.00000000
   3.74650619  1.87325315  1.87325312
   3.74650626  3.74650619  3.74650612
   3.74650633  5.61975934  5.61975924
   5.61975955  7.49301253  9.36626536
   5.61975941  9.36626536  0.00000000
   5.61975928  0.00000004  1.87325312
   5.61975935  1.87325319  3.74650612
   5.61975941  3.74650623  5.61975924
   9.36626561  5.61975938  7.49301236
   0.00000021  3.74650626  7.49301236
   0.00000028  5.61975941  9.36626536
   1.87325329  1.87325326  7.49301236
   1.87325336  3.74650630  9.36626536
   1.87325322  5.61975924  0.00000000
   3.74650626  0.00000014  7.49301236
   3.74650633  1.87325329  9.36626536
   3.74650619  3.74650612  0.00000000
   3.74650626  5.61975928  1.87325312
   5.61975955  9.36626550  7.49301236
   5.61975941  0.00000017  9.36626536
   5.61975928  1.87325312  0.00000000
   5.61975935  3.74650616  1.87325312
   5.61975941  5.61975931  3.74650612
   1.87325336  5.61975938  7.49301236
   3.74650633  3.74650626  7.49301236
   3.74650640  5.61975941  9.36626536
   5.61975942  1.87325326  7.49301236
   5.61975948  3.74650630  9.36626536
   5.61975934  5.61975924  0.00000000
   5.61975949  5.61975938  7.49301236
 


--------------------------------------------------------------------------------------------------------


 k-point  1 :  0.25000.25000.2500  plane waves:  14558

 maximum and minimum number of plane-waves per node :  14558 14558

 maximum number of plane-waves:  14558
 maximal index in each direction: 
   IXMAX= 14   IYMAX= 14   IZMAX= 14
   IXMIN=-15   IYMIN=-15   IZMIN=-15

 WARNING: wrap around error must be expected set NGX to  60
 WARNING: wrap around error must be expected set NGY to  60
 WARNING: wrap around error must be expected set NGZ to  60

 parallel 3dFFT wavefunction:
    minimum data exchange during FFTs selected (reduces bandwidth)
 parallel 3dFFT charge:
    minimum data exchange during FFTs selected (reduces bandwidth)

 For storing wavefunctions  165.84 MBYTES are necessary
 For predicting wavefunctions  378.88 MBYTES are necessary
Broyden mixing: mesh for mixing (old mesh)
   NGX = 31   NGY = 31   NGZ = 31
  (NGX  = 96   NGY  = 96   NGZ  = 96)
 gives a total of  29791 points
 charge density for first step will be calculated from the start-wavefunctions


--------------------------------------------------------------------------------------------------------


 Maximum index for augmentation-charges          653 (set IRDMAX)


--------------------------------------------------------------------------------------------------------


 initial charge from wavefunction
 First call to EWALD:  gamma=   0.158
 Maximum number of real-space cells 3x 3x 3
 Maximum number of reciprocal cells 3x 3x 3

    FEWALD:  VPU time    0.05: CPU time    0.05


----------------------------------------- Iteration    1(   1)  ---------------------------------------


    POTLOK:  VPU time    0.10: CPU time    0.10
    SETDIJ:  VPU time    0.04: CPU time    0.04
    EDDAV :  VPU time   30.47: CPU time   30.48
    DOS   :  VPU time    0.00: CPU time   -0.00
    CHARGE:  VPU time    0.25: CPU time    0.25
    MIXING:  VPU time    0.00: CPU time    0.00
    ------------------------------------------
      LOOP:  VPU time   30.88: CPU time   30.90

 eigenvalue-minimisations  :  1472
 total energy-change (2. order) :-0.3962406E+03  (-0.2204643E+00)
 number of electron 1187.9992185 magnetization 
 augmentation part   778.9832812 magnetization 

 Broyden mixing:
  rms(total) = 0.73949E-01    rms(broyden)= 0.73853E-01
  rms(prec ) = 0.16266E+00
  weight for this iteration     100.00

 Free energy of the ion-electron system (eV)
  ---------------------------------------------------
  alpha Z        PSCENC =     10495.61291596
  Ewald energy   TEWEN  =   -115142.24879156
  -1/2 Hartree   DENC   =    -35195.48041634
  -V(xc)+E(xc)   XCENC  =      4600.29195082
  PAW double counting   =    117113.80407857  -132691.51059683
  entropy T*S    EENTRO =        -0.33267900
  eigenvalues    EBANDS =       202.04782458
  atomic energy  EATOM  =    150221.57506482
  ---------------------------------------------------
  free energy    TOTEN  =      -396.24064897 eV

  energy without entropy =     -395.90796998  energy(sigma->0) =     -396.12975597


--------------------------------------------------------------------------------------------------------




----------------------------------------- Iteration    1(   2)  ---------------------------------------


    POTLOK:  VPU time    0.10: CPU time    0.10
    SETDIJ:  VPU time    0.04: CPU time    0.04
    EDDAV :  VPU time   32.33: CPU time   32.32
    DOS   :  VPU time    0.00: CPU time   -0.00
    CHARGE:  VPU time    0.25: CPU time    0.25
    MIXING:  VPU time    0.00: CPU time    0.00
    ------------------------------------------
      LOOP:  VPU time   32.74: CPU time   32.74

 eigenvalue-minimisations  :  1584
 total energy-change (2. order) :-0.1187019E-01  (-0.1356796E-01)
 number of electron 1187.9992185 magnetization 
 augmentation part   778.9595108 magnetization 

 Broyden mixing:
  rms(total) = 0.13164E+00    rms(broyden)= 0.13161E+00
  rms(prec ) = 0.22820E+00
  weight for this iteration     100.00

 eigenvalues of (default mixing * dielectric matrix)
  average eigenvalue GAMMA=   0.3095
  0.3095

 Free energy of the ion-electron system (eV)
  ---------------------------------------------------
  alpha Z        PSCENC =     10495.61291596
  Ewald energy   TEWEN  =   -115142.24879156
  -1/2 Hartree   DENC   =    -35196.14323441
  -V(xc)+E(xc)   XCENC  =      4600.32350556
  PAW double counting   =    117115.04749337  -132693.09644773
  entropy T*S    EENTRO =        -0.33147767
  eigenvalues    EBANDS =       203.00845248
  atomic energy  EATOM  =    150221.57506482
  ---------------------------------------------------
  free energy    TOTEN  =      -396.25251916 eV

  energy without entropy =     -395.92104150  energy(sigma->0) =     -396.14202661


--------------------------------------------------------------------------------------------------------




----------------------------------------- Iteration    1(   3)  ---------------------------------------


    POTLOK:  VPU time    0.10: CPU time    0.10
    SETDIJ:  VPU time    0.04: CPU time    0.04
    EDDAV :  VPU time   32.27: CPU time   32.26
    DOS   :  VPU time    0.00: CPU time   -0.00
    CHARGE:  VPU time    0.24: CPU time    0.24
    MIXING:  VPU time    0.00: CPU time    0.00
    ------------------------------------------
      LOOP:  VPU time   32.68: CPU time   32.67

 eigenvalue-minimisations  :  1576
 total energy-change (2. order) : 0.3895407E-01  (-0.7796510E-02)
 number of electron 1187.9992185 magnetization 
 augmentation part   778.9781156 magnetization 

 Broyden mixing:
  rms(total) = 0.32590E-01    rms(broyden)= 0.32544E-01
  rms(prec ) = 0.54433E-01
  weight for this iteration     100.00

 eigenvalues of (default mixing * dielectric matrix)
  average eigenvalue GAMMA=   0.6178
  0.8733  0.3623

 Free energy of the ion-electron system (eV)
  ---------------------------------------------------
  alpha Z        PSCENC =     10495.61291596
  Ewald energy   TEWEN  =   -115142.24879156
  -1/2 Hartree   DENC   =    -35195.96135511
  -V(xc)+E(xc)   XCENC  =      4600.31455063
  PAW double counting   =    117114.64465327  -132692.63720022
  entropy T*S    EENTRO =        -0.33604538
  eigenvalues    EBANDS =       202.82264248
  atomic energy  EATOM  =    150221.57506482
  ---------------------------------------------------
  free energy    TOTEN  =      -396.21356510 eV

  energy without entropy =     -395.87751972  energy(sigma->0) =     -396.10154997


--------------------------------------------------------------------------------------------------------




----------------------------------------- Iteration    1(   4)  ---------------------------------------


    POTLOK:  VPU time    0.10: CPU time    0.10
    SETDIJ:  VPU time    0.04: CPU time    0.04
    EDDAV :  VPU time   39.21: CPU time   39.20
    DOS   :  VPU time    0.00: CPU time   -0.00
    CHARGE:  VPU time    0.25: CPU time    0.25
    MIXING:  VPU time    0.00: CPU time    0.00
    ------------------------------------------
      LOOP:  VPU time   39.63: CPU time   39.62

 eigenvalue-minimisations  :  2000
 total energy-change (2. order) : 0.4224305E-04  (-0.2471023E-02)
 number of electron 1187.9992185 magnetization 
 augmentation part   778.9700124 magnetization 

 Broyden mixing:
  rms(total) = 0.26389E-01    rms(broyden)= 0.26381E-01
  rms(prec ) = 0.38535E-01
  weight for this iteration     100.00

 eigenvalues of (default mixing * dielectric matrix)
  average eigenvalue GAMMA=   0.8549
  1.8148  0.3750  0.3750

 Free energy of the ion-electron system (eV)
  ---------------------------------------------------
  alpha Z        PSCENC =     10495.61291596
  Ewald energy   TEWEN  =   -115142.24879156
  -1/2 Hartree   DENC   =    -35196.17845613
  -V(xc)+E(xc)   XCENC  =      4600.32513341
  PAW double counting   =    117114.99105737  -132693.08877385
  entropy T*S    EENTRO =        -0.33650327
  eigenvalues    EBANDS =       203.13483039
  atomic energy  EATOM  =    150221.57506482
  ---------------------------------------------------
  free energy    TOTEN  =      -396.21352286 eV

  energy without entropy =     -395.87701958  energy(sigma->0) =     -396.10135510


--------------------------------------------------------------------------------------------------------




----------------------------------------- Iteration    1(   5)  ---------------------------------------


    POTLOK:  VPU time    0.10: CPU time    0.10
    SETDIJ:  VPU time    0.04: CPU time    0.04
    EDDAV :  VPU time   33.38: CPU time   33.37
    DOS   :  VPU time    0.00: CPU time   -0.00
    CHARGE:  VPU time    0.25: CPU time    0.26
    MIXING:  VPU time    0.00: CPU time    0.00
    ------------------------------------------
      LOOP:  VPU time   33.80: CPU time   33.79

 eigenvalue-minimisations  :  1648
 total energy-change (2. order) : 0.8244457E-03  (-0.7885102E-03)
 number of electron 1187.9992185 magnetization 
 augmentation part   778.9686772 magnetization 

 Broyden mixing:
  rms(total) = 0.70313E-02    rms(broyden)= 0.70223E-02
  rms(prec ) = 0.94178E-02
  weight for this iteration     100.00

 eigenvalues of (default mixing * dielectric matrix)
  average eigenvalue GAMMA=   0.8660
  1.8782  0.8112  0.3255  0.4492

 Free energy of the ion-electron system (eV)
  ---------------------------------------------------
  alpha Z        PSCENC =     10495.61291596
  Ewald energy   TEWEN  =   -115142.24879156
  -1/2 Hartree   DENC   =    -35196.19784036
  -V(xc)+E(xc)   XCENC  =      4600.32589801
  PAW double counting   =    117114.99529885  -132693.09810100
  entropy T*S    EENTRO =        -0.33656970
  eigenvalues    EBANDS =       203.15942655
  atomic energy  EATOM  =    150221.57506482
  ---------------------------------------------------
  free energy    TOTEN  =      -396.21269841 eV

  energy without entropy =     -395.87612871  energy(sigma->0) =     -396.10050851


--------------------------------------------------------------------------------------------------------




----------------------------------------- Iteration    1(   6)  ---------------------------------------


    POTLOK:  VPU time    0.10: CPU time    0.10
    SETDIJ:  VPU time    0.04: CPU time    0.04
    EDDAV :  VPU time   31.27: CPU time   31.26
    DOS   :  VPU time    0.00: CPU time   -0.00
    CHARGE:  VPU time    0.25: CPU time    0.25
    MIXING:  VPU time    0.01: CPU time    0.01
    ------------------------------------------
      LOOP:  VPU time   31.69: CPU time   31.68

 eigenvalue-minimisations  :  1520
 total energy-change (2. order) :-0.1316940E-03  (-0.1871649E-03)
 number of electron 1187.9992185 magnetization 
 augmentation part   778.9716030 magnetization 

 Broyden mixing:
  rms(total) = 0.63926E-02    rms(broyden)= 0.63913E-02
  rms(prec ) = 0.86537E-02
  weight for this iteration     100.00

 eigenvalues of (default mixing * dielectric matrix)
  average eigenvalue GAMMA=   0.9359
  1.7509  1.7509  0.4545  0.4045  0.3188

 Free energy of the ion-electron system (eV)
  ---------------------------------------------------
  alpha Z        PSCENC =     10495.61291596
  Ewald energy   TEWEN  =   -115142.24879156
  -1/2 Hartree   DENC   =    -35196.07714115
  -V(xc)+E(xc)   XCENC  =      4600.31975958
  PAW double counting   =    117114.77090597  -132692.80366478
  entropy T*S    EENTRO =        -0.33643470
  eigenvalues    EBANDS =       202.97455575
  atomic energy  EATOM  =    150221.57506482
  ---------------------------------------------------
  free energy    TOTEN  =      -396.21283010 eV

  energy without entropy =     -395.87639541  energy(sigma->0) =     -396.10068520


--------------------------------------------------------------------------------------------------------




----------------------------------------- Iteration    1(   7)  ---------------------------------------


    POTLOK:  VPU time    0.10: CPU time    0.10
    SETDIJ:  VPU time    0.04: CPU time    0.04
    EDDAV :  VPU time   31.42: CPU time   31.42
    DOS   :  VPU time    0.00: CPU time   -0.00
    CHARGE:  VPU time    0.25: CPU time    0.25
    MIXING:  VPU time    0.00: CPU time    0.00
    ------------------------------------------
      LOOP:  VPU time   31.84: CPU time   31.84

 eigenvalue-minimisations  :  1520
 total energy-change (2. order) :-0.9008800E-06  (-0.7733507E-04)
 number of electron 1187.9992185 magnetization 
 augmentation part   778.9717951 magnetization 

 Broyden mixing:
  rms(total) = 0.40900E-02    rms(broyden)= 0.40886E-02
  rms(prec ) = 0.55065E-02
  weight for this iteration     100.00

 eigenvalues of (default mixing * dielectric matrix)
  average eigenvalue GAMMA=   0.9506
  2.3253  1.3472  0.9584  0.4232  0.3225  0.3271

 Free energy of the ion-electron system (eV)
  ---------------------------------------------------
  alpha Z        PSCENC =     10495.61291596
  Ewald energy   TEWEN  =   -115142.24879156
  -1/2 Hartree   DENC   =    -35196.06699019
  -V(xc)+E(xc)   XCENC  =      4600.31924522
  PAW double counting   =    117114.76345310  -132692.78609601
  entropy T*S    EENTRO =        -0.33642323
  eigenvalues    EBANDS =       202.95479088
  atomic energy  EATOM  =    150221.57506482
  ---------------------------------------------------
  free energy    TOTEN  =      -396.21283100 eV

  energy without entropy =     -395.87640777  energy(sigma->0) =     -396.10068993


--------------------------------------------------------------------------------------------------------




----------------------------------------- Iteration    1(   8)  ---------------------------------------


    POTLOK:  VPU time    0.10: CPU time    0.10
    SETDIJ:  VPU time    0.04: CPU time    0.04
    EDDAV :  VPU time   31.85: CPU time   31.84
    DOS   :  VPU time    0.00: CPU time   -0.00
    CHARGE:  VPU time    0.25: CPU time    0.25
    MIXING:  VPU time    0.01: CPU time    0.01
    ------------------------------------------
      LOOP:  VPU time   32.27: CPU time   32.26

 eigenvalue-minimisations  :  1544
 total energy-change (2. order) : 0.6423215E-06  (-0.1890694E-04)
 number of electron 1187.9992185 magnetization 
 augmentation part   778.9708119 magnetization 

 Broyden mixing:
  rms(total) = 0.24605E-02    rms(broyden)= 0.24599E-02
  rms(prec ) = 0.35354E-02
  weight for this iteration     100.00

 eigenvalues of (default mixing * dielectric matrix)
  average eigenvalue GAMMA=   0.9104
  2.4934  1.2095  1.2095  0.4293  0.3585  0.3364  0.3364

 Free energy of the ion-electron system (eV)
  ---------------------------------------------------
  alpha Z        PSCENC =     10495.61291596
  Ewald energy   TEWEN  =   -115142.24879156
  -1/2 Hartree   DENC   =    -35196.10346312
  -V(xc)+E(xc)   XCENC  =      4600.32108883
  PAW double counting   =    117114.85513061  -132692.88951749
  entropy T*S    EENTRO =        -0.33645741
  eigenvalues    EBANDS =       203.00119900
  atomic energy  EATOM  =    150221.57506482
  ---------------------------------------------------
  free energy    TOTEN  =      -396.21283036 eV

  energy without entropy =     -395.87637295  energy(sigma->0) =     -396.10067789


--------------------------------------------------------------------------------------------------------




----------------------------------------- Iteration    1(   9)  ---------------------------------------


    POTLOK:  VPU time    0.10: CPU time    0.10
    SETDIJ:  VPU time    0.04: CPU time    0.04
    EDDAV :  VPU time   31.32: CPU time   31.31
    DOS   :  VPU time    0.00: CPU time   -0.00
    ------------------------------------------
      LOOP:  VPU time   31.48: CPU time   31.47

 eigenvalue-minimisations  :  1504
 total energy-change (2. order) : 0.6419286E-05  (-0.6844096E-05)
 number of electron 1187.9992185 magnetization 
 augmentation part   778.9708119 magnetization 

 Free energy of the ion-electron system (eV)
  ---------------------------------------------------
  alpha Z        PSCENC =     10495.61291596
  Ewald energy   TEWEN  =   -115142.24879156
  -1/2 Hartree   DENC   =    -35196.10601052
  -V(xc)+E(xc)   XCENC  =      4600.32120566
  PAW double counting   =    117114.86528310  -132692.89969447
  entropy T*S    EENTRO =        -0.33646012
  eigenvalues    EBANDS =       203.00366318
  atomic energy  EATOM  =    150221.57506482
  ---------------------------------------------------
  free energy    TOTEN  =      -396.21282394 eV

  energy without entropy =     -395.87636382  energy(sigma->0) =     -396.10067057


--------------------------------------------------------------------------------------------------------




 average (electrostatic) potential at core
  the test charge radii are     1.0053
  (the norm of the test charge is              1.0000)
       1 -40.5708       2 -40.5708       3 -40.5707       4 -40.5710       5 -40.5708
       6 -40.5710       7 -40.5708       8 -40.5709       9 -40.5709      10 -40.5710
      11 -40.5710      12 -40.5710      13 -40.5712      14 -40.5708      15 -40.5708
      16 -40.5711      17 -40.5708      18 -40.5708      19 -40.5707      20 -40.5709
      21 -40.5731      22 -40.5731      23 -40.5709      24 -40.5707      25 -40.5711
      26 -40.5711      27 -40.5711      28 -40.5710      29 -40.5711      30 -40.5711
      31 -40.5711      32 -40.5712      33 -40.5712      34 -40.5711      35 -40.5710
      36 -40.5708      37 -40.5710      38 -40.5708      39 -40.5709      40 -40.5731
      41 -40.5731      42 -40.5709      43 -40.5707      44 -40.5710      45 -40.5711
      46 -40.5707      47 -40.5711      48 -40.5710      49 -40.5710      50 -40.5711
      51 -40.5693      52 -40.5693      53 -40.5711      54 -40.5712      55 -40.5711
      56 -40.5712      57 -40.5711      58 -40.5712      59 -40.5710      60 -40.5710
      61 -40.5711      62 -40.5708      63 -40.5708      64 -40.5709      65 -40.5709
      66 -40.5710      67 -40.5711      68 -40.5711      69 -40.5711      70 -40.5710
      71 -40.5711      72 -40.5693      73 -40.5693      74 -40.5711      75 -40.5712
      76 -40.5712      77 -40.5712      78 -40.5712      79 -40.5712      80 -40.5712
      81 -40.5714      82 -40.5710      83 -40.5710      84 -40.5710      85 -40.5710
      86 -40.5711      87 -40.5707      88 -40.5710      89 -40.5710      90 -40.5711
      91 -40.5711      92 -40.5711      93 -40.5711      94 -40.5712      95 -40.5711
      96 -40.5712      97 -40.5710      98 -40.5710      99 -40.5710     100 -40.5710
     101 -40.5711     102 -40.5712     103 -40.5712     104 -40.5712     105 -40.5710
     106 -40.5710     107 -40.5711     108 -40.5711
 
 
 
 E-fermi :   2.7497     XC(G=0): -12.1829     alpha+bet : -8.6517
   add alpha+bet to get absolut eigen values

 k-point   1 :       0.2500    0.2500    0.2500
  band No.  band energies     occupation 
      1      -5.4065      2.00000
      2      -4.7960      2.00000
      3      -4.7951      2.00000
      4      -4.7942      2.00000
      5      -4.2087      2.00000
      6      -4.2079      2.00000
      7      -4.2070      2.00000
      8      -3.6622      2.00000
      9      -3.6418      2.00000
     10      -3.6409      2.00000
     11      -3.6401      2.00000
     12      -3.1168      2.00000
     13      -3.1154      2.00000
     14      -3.1150      2.00000
     15      -3.1150      2.00000
     16      -3.1146      2.00000
     17      -3.1133      2.00000
     18      -2.6842      2.00000
     19      -2.6835      2.00000
     20      -2.6828      2.00000
     21      -2.2307      2.00000
     22      -2.2300      2.00000
     23      -2.2294      2.00000
     24      -2.1941      2.00000
     25      -2.1933      2.00000
     26      -2.1925      2.00000
     27      -2.0078      2.00000
     28      -2.0073      2.00000
     29      -2.0068      2.00000
     30      -1.8271      2.00000
     31      -1.8260      2.00000
     32      -1.8257      2.00000
     33      -1.8257      2.00000
     34      -1.8253      2.00000
     35      -1.8243      2.00000
     36      -1.7646      2.00000
     37      -1.6211      2.00000
     38      -1.6204      2.00000
     39      -1.6196      2.00000
     40      -1.4965      2.00000
     41      -1.4965      2.00000
     42      -1.4964      2.00000
     43      -1.4248      2.00000
     44      -1.4244      2.00000
     45      -1.4240      2.00000
     46      -1.3879      2.00000
     47      -1.3879      2.00000
     48      -1.3873      2.00000
     49      -1.3873      2.00000
     50      -1.3867      2.00000
     51      -1.3867      2.00000
     52      -1.3168      2.00000
     53      -1.3167      2.00000
     54      -1.3167      2.00000
     55      -1.2426      2.00000
     56      -1.2423      2.00000
     57      -1.2418      2.00000
     58      -1.2417      2.00000
     59      -1.2412      2.00000
     60      -1.2409      2.00000
     61      -1.1729      2.00000
     62      -1.1723      2.00000
     63      -1.1717      2.00000
     64      -1.1308      2.00000
     65      -1.1303      2.00000
     66      -1.1300      2.00000
     67      -1.1300      2.00000
     68      -1.1297      2.00000
     69      -1.1293      2.00000
     70      -1.0717      2.00000
     71      -1.0711      2.00000
     72      -1.0709      2.00000
     73      -1.0709      2.00000
     74      -1.0706      2.00000
     75      -1.0701      2.00000
     76      -1.0168      2.00000
     77      -1.0168      2.00000
     78      -1.0168      2.00000
     79      -0.9395      2.00000
     80      -0.9394      2.00000
     81      -0.9394      2.00000
     82      -0.9330      2.00000
     83      -0.9329      2.00000
     84      -0.9325      2.00000
     85      -0.9325      2.00000
     86      -0.9322      2.00000
     87      -0.9320      2.00000
     88      -0.8900      2.00000
     89      -0.8896      2.00000
     90      -0.8891      2.00000
     91      -0.8389      2.00000
     92      -0.8385      2.00000
     93      -0.8383      2.00000
     94      -0.7985      2.00000
     95      -0.7982      2.00000
     96      -0.7979      2.00000
     97      -0.7842      2.00000
     98      -0.7842      2.00000
     99      -0.7838      2.00000
    100      -0.7838      2.00000
    101      -0.7835      2.00000
    102      -0.7834      2.00000
    103      -0.7499      2.00000
    104      -0.7491      2.00000
    105      -0.7490      2.00000
    106      -0.7490      2.00000
    107      -0.7489      2.00000
    108      -0.7482      2.00000
    109      -0.7335      2.00000
    110      -0.7327      2.00000
    111      -0.7325      2.00000
    112      -0.7324      2.00000
    113      -0.7322      2.00000
    114      -0.7314      2.00000
    115      -0.6698      2.00000
    116      -0.6696      2.00000
    117      -0.6694      2.00000
    118      -0.6615      2.00000
    119      -0.6613      2.00000
    120      -0.6609      2.00000
    121      -0.6609      2.00000
    122      -0.6606      2.00000
    123      -0.6604      2.00000
    124      -0.6444      2.00000
    125      -0.6441      2.00000
    126      -0.6438      2.00000
    127      -0.6438      2.00000
    128      -0.6435      2.00000
    129      -0.6432      2.00000
    130      -0.5500      2.00000
    131      -0.5496      2.00000
    132      -0.5493      2.00000
    133      -0.5168      2.00000
    134      -0.5161      2.00000
    135      -0.5160      2.00000
    136      -0.5160      2.00000
    137      -0.5159      2.00000
    138      -0.5153      2.00000
    139      -0.5081      2.00000
    140      -0.5079      2.00000
    141      -0.5078      2.00000
    142      -0.4837      2.00000
    143      -0.4837      2.00000
    144      -0.4833      2.00000
    145      -0.4833      2.00000
    146      -0.4829      2.00000
    147      -0.4829      2.00000
    148      -0.4490      2.00000
    149      -0.4484      2.00000
    150      -0.4482      2.00000
    151      -0.4481      2.00000
    152      -0.4479      2.00000
    153      -0.4474      2.00000
    154      -0.4324      2.00000
    155      -0.4319      2.00000
    156      -0.4317      2.00000
    157      -0.4317      2.00000
    158      -0.4315      2.00000
    159      -0.4310      2.00000
    160      -0.3161      2.00000
    161      -0.3154      2.00000
    162      -0.3153      2.00000
    163      -0.3153      2.00000
    164      -0.3152      2.00000
    165      -0.3145      2.00000
    166      -0.2625      2.00000
    167      -0.2621      2.00000
    168      -0.2618      2.00000
    169      -0.2585      2.00000
    170      -0.2582      2.00000
    171      -0.2579      2.00000
    172      -0.2473      2.00000
    173      -0.2468      2.00000
    174      -0.2466      2.00000
    175      -0.2465      2.00000
    176      -0.2463      2.00000
    177      -0.2459      2.00000
    178      -0.2385      2.00000
    179      -0.2382      2.00000
    180      -0.2379      2.00000
    181      -0.2209      2.00000
    182      -0.2203      2.00000
    183      -0.2201      2.00000
    184      -0.2201      2.00000
    185      -0.2199      2.00000
    186      -0.2192      2.00000
    187      -0.1947      2.00000
    188      -0.1944      2.00000
    189      -0.1941      2.00000
    190      -0.1390      2.00000
    191      -0.1384      2.00000
    192      -0.1381      2.00000
    193      -0.1381      2.00000
    194      -0.1378      2.00000
    195      -0.1372      2.00000
    196      -0.1006      2.00000
    197      -0.1003      2.00000
    198      -0.1000      2.00000
    199      -0.0800      2.00000
    200      -0.0798      2.00000
    201      -0.0794      2.00000
    202      -0.0794      2.00000
    203      -0.0791      2.00000
    204      -0.0789      2.00000
    205      -0.0593      2.00000
    206      -0.0589      2.00000
    207      -0.0584      2.00000
    208      -0.0538      2.00000
    209      -0.0535      2.00000
    210      -0.0532      2.00000
    211      -0.0477      2.00000
    212      -0.0475      2.00000
    213      -0.0472      2.00000
    214      -0.0232      2.00000
    215      -0.0177      2.00000
    216      -0.0173      2.00000
    217      -0.0171      2.00000
    218      -0.0171      2.00000
    219      -0.0169      2.00000
    220      -0.0165      2.00000
    221      -0.0031      2.00000
    222      -0.0029      2.00000
    223      -0.0026      2.00000
    224       0.0106      2.00000
    225       0.0107      2.00000
    226       0.0109      2.00000
    227       0.0110      2.00000
    228       0.0112      2.00000
    229       0.0113      2.00000
    230       0.0159      2.00000
    231       0.0160      2.00000
    232       0.0162      2.00000
    233       0.0163      2.00000
    234       0.0165      2.00000
    235       0.0166      2.00000
    236       0.0867      2.00000
    237       0.0868      2.00000
    238       0.0869      2.00000
    239       0.1180      2.00000
    240       0.1183      2.00000
    241       0.1186      2.00000
    242       0.1246      2.00000
    243       0.1251      2.00000
    244       0.1254      2.00000
    245       0.1254      2.00000
    246       0.1256      2.00000
    247       0.1261      2.00000
    248       0.1355      2.00000
    249       0.1360      2.00000
    250       0.1360      2.00000
    251       0.1363      2.00000
    252       0.1363      2.00000
    253       0.1367      2.00000
    254       0.1367      2.00000
    255       0.1489      2.00000
    256       0.1492      2.00000
    257       0.1494      2.00000
    258       0.1790      2.00000
    259       0.1793      2.00000
    260       0.1795      2.00000
    261       0.1816      2.00000
    262       0.1816      2.00000
    263       0.2138      2.00000
    264       0.2139      2.00000
    265       0.2141      2.00000
    266       0.2174      2.00000
    267       0.2174      2.00000
    268       0.2276      2.00000
    269       0.2276      2.00000
    270       0.2276      2.00000
    271       0.2373      2.00000
    272       0.2375      2.00000
    273       0.2376      2.00000
    274       0.2387      2.00000
    275       0.2392      2.00000
    276       0.2396      2.00000
    277       0.2499      2.00000
    278       0.2503      2.00000
    279       0.2505      2.00000
    280       0.2505      2.00000
    281       0.2508      2.00000
    282       0.2512      2.00000
    283       0.2618      2.00000
    284       0.2619      2.00000
    285       0.2620      2.00000
    286       0.2621      2.00000
    287       0.2622      2.00000
    288       0.2624      2.00000
    289       0.2809      2.00000
    290       0.2809      2.00000
    291       0.2810      2.00000
    292       0.3141      2.00000
    293       0.3141      2.00000
    294       0.3175      2.00000
    295       0.3175      2.00000
    296       0.3179      2.00000
    297       0.3179      2.00000
    298       0.3182      2.00000
    299       0.3183      2.00000
    300       0.3252      2.00000
    301       0.3256      2.00000
    302       0.3257      2.00000
    303       0.3258      2.00000
    304       0.3260      2.00000
    305       0.3264      2.00000
    306       0.3311      2.00000
    307       0.3314      2.00000
    308       0.3317      2.00000
    309       0.3453      2.00000
    310       0.3454      2.00000
    311       0.3455      2.00000
    312       0.3600      2.00000
    313       0.3602      2.00000
    314       0.3605      2.00000
    315       0.3707      2.00000
    316       0.3709      2.00000
    317       0.3711      2.00000
    318       0.3918      2.00000
    319       0.3919      2.00000
    320       0.3922      2.00000
    321       0.3923      2.00000
    322       0.3927      2.00000
    323       0.3927      2.00000
    324       0.3940      2.00000
    325       0.3942      2.00000
    326       0.3946      2.00000
    327       0.4012      2.00000
    328       0.4014      2.00000
    329       0.4018      2.00000
    330       0.4019      2.00000
    331       0.4022      2.00000
    332       0.4025      2.00000
    333       0.4177      2.00000
    334       0.4179      2.00000
    335       0.4181      2.00000
    336       0.4946      2.00000
    337       0.4952      2.00000
    338       0.4956      2.00000
    339       0.4967      2.00000
    340       0.4970      2.00000
    341       0.4975      2.00000
    342       0.5112      2.00000
    343       0.5116      2.00000
    344       0.5120      2.00000
    345       0.5120      2.00000
    346       0.5123      2.00000
    347       0.5127      2.00000
    348       0.5458      2.00000
    349       0.5463      2.00000
    350       0.5467      2.00000
    351       0.5888      2.00000
    352       0.5889      2.00000
    353       0.5892      2.00000
    354       0.5892      2.00000
    355       0.5894      2.00000
    356       0.5894      2.00000
    357       0.6318      2.00000
    358       0.6318      2.00000
    359       0.6320      2.00000
    360       0.6347      2.00000
    361       0.6350      2.00000
    362       0.6351      2.00000
    363       0.6351      2.00000
    364       0.6353      2.00000
    365       0.6355      2.00000
    366       0.6369      2.00000
    367       0.6370      2.00000
    368       0.6372      2.00000
    369       0.6373      2.00000
    370       0.6376      2.00000
    371       0.6376      2.00000
    372       0.7255      2.00000
    373       0.7256      2.00000
    374       0.7256      2.00000
    375       0.7406      2.00000
    376       0.7408      2.00000
    377       0.7411      2.00000
    378       0.7411      2.00000
    379       0.7412      2.00000
    380       0.7414      2.00000
    381       0.7422      2.00000
    382       0.7425      2.00000
    383       0.7427      2.00000
    384       0.7432      2.00000
    385       0.7436      2.00000
    386       0.7438      2.00000
    387       0.7444      2.00000
    388       0.7446      2.00000
    389       0.7447      2.00000
    390       0.7877      2.00000
    391       0.7879      2.00000
    392       0.7881      2.00000
    393       0.7881      2.00000
    394       0.7883      2.00000
    395       0.7885      2.00000
    396       0.8035      2.00000
    397       0.8037      2.00000
    398       0.8039      2.00000
    399       0.8039      2.00000
    400       0.8041      2.00000
    401       0.8043      2.00000
    402       0.8071      2.00000
    403       0.8073      2.00000
    404       0.8074      2.00000
    405       0.8275      2.00000
    406       0.8280      2.00000
    407       0.8281      2.00000
    408       0.8282      2.00000
    409       0.8283      2.00000
    410       0.8286      2.00000
    411       0.8291      2.00000
    412       0.8292      2.00000
    413       0.8295      2.00000
    414       0.8428      2.00000
    415       0.8431      2.00000
    416       0.8434      2.00000
    417       0.8667      2.00000
    418       0.8667      2.00000
    419       0.8903      2.00000
    420       0.8905      2.00000
    421       0.8907      2.00000
    422       0.8907      2.00000
    423       0.8908      2.00000
    424       0.8912      2.00000
    425       0.8969      2.00000
    426       0.8973      2.00000
    427       0.8978      2.00000
    428       0.9419      2.00000
    429       0.9422      2.00000
    430       0.9424      2.00000
    431       0.9492      2.00000
    432       0.9492      2.00000
    433       0.9508      2.00000
    434       0.9511      2.00000
    435       0.9515      2.00000
    436       0.9996      2.00000
    437       0.9996      2.00000
    438       0.9999      2.00000
    439       0.9999      2.00000
    440       1.0002      2.00000
    441       1.0002      2.00000
    442       1.0102      2.00000
    443       1.0103      2.00000
    444       1.0105      2.00000
    445       1.0220      2.00000
    446       1.0221      2.00000
    447       1.0225      2.00000
    448       1.0225      2.00000
    449       1.0228      2.00000
    450       1.0229      2.00000
    451       1.0698      2.00000
    452       1.0699      2.00000
    453       1.0701      2.00000
    454       1.0873      2.00000
    455       1.0877      2.00000
    456       1.0881      2.00000
    457       1.0904      2.00000
    458       1.0908      2.00000
    459       1.0911      2.00000
    460       1.1022      2.00000
    461       1.1028      2.00000
    462       1.1028      2.00000
    463       1.1029      2.00000
    464       1.1030      2.00000
    465       1.1034      2.00000
    466       1.1065      2.00000
    467       1.1068      2.00000
    468       1.1073      2.00000
    469       1.1127      2.00000
    470       1.1131      2.00000
    471       1.1135      2.00000
    472       1.1171      2.00000
    473       1.1173      2.00000
    474       1.1175      2.00000
    475       1.1175      2.00000
    476       1.1176      2.00000
    477       1.1178      2.00000
    478       1.1618      2.00000
    479       1.1622      2.00000
    480       1.1627      2.00000
    481       1.1744      2.00000
    482       1.1747      2.00000
    483       1.1750      2.00000
    484       1.2190      2.00000
    485       1.2192      2.00000
    486       1.2194      2.00000
    487       1.2313      2.00000
    488       1.2315      2.00000
    489       1.2315      2.00000
    490       1.2329      2.00000
    491       1.2601      2.00000
    492       1.2604      2.00000
    493       1.2605      2.00000
    494       1.2606      2.00000
    495       1.2607      2.00000
    496       1.2609      2.00000
    497       1.2610      2.00000
    498       1.2610      2.00000
    499       1.2611      2.00000
    500       1.2612      2.00000
    501       1.2614      2.00000
    502       1.2615      2.00000
    503       1.2663      2.00000
    504       1.2664      2.00000
    505       1.2666      2.00000
    506       1.2666      2.00000
    507       1.2668      2.00000
    508       1.2669      2.00000
    509       1.2682      2.00000
    510       1.2684      2.00000
    511       1.2685      2.00000
    512       1.2685      2.00000
    513       1.2687      2.00000
    514       1.2689      2.00000
    515       1.2750      2.00000
    516       1.2751      2.00000
    517       1.2751      2.00000
    518       1.2765      2.00000
    519       1.2766      2.00000
    520       1.2767      2.00000
    521       1.2953      2.00000
    522       1.2954      2.00000
    523       1.3160      2.00000
    524       1.3162      2.00000
    525       1.3163      2.00000
    526       1.3163      2.00000
    527       1.3164      2.00000
    528       1.3166      2.00000
    529       1.3271      2.00000
    530       1.3272      2.00000
    531       1.3273      2.00000
    532       1.3273      2.00000
    533       1.3274      2.00000
    534       1.3275      2.00000
    535       1.3345      2.00000
    536       1.3346      2.00000
    537       1.3347      2.00000
    538       1.3395      2.00000
    539       1.3396      2.00000
    540       1.3397      2.00000
    541       1.3529      2.00000
    542       1.3529      2.00000
    543       1.3529      2.00000
    544       1.3610      2.00000
    545       1.3610      2.00000
    546       1.3610      2.00000
    547       1.3914      2.00000
    548       1.3914      2.00000
    549       1.3915      2.00000
    550       1.4219      2.00000
    551       1.4220      2.00000
    552       1.4221      2.00000
    553       1.4221      2.00000
    554       1.4222      2.00000
    555       1.4222      2.00000
    556       1.4265      2.00000
    557       1.4266      2.00000
    558       1.4266      2.00000
    559       1.4266      2.00000
    560       1.4267      2.00000
    561       1.4268      2.00000
    562       1.4445      2.00000
    563       1.4445      2.00000
    564       1.4445      2.00000
    565       1.5780      2.00000
    566       1.5784      2.00000
    567       1.5787      2.00000
    568       1.7210      2.00000
    569       1.7212      2.00000
    570       1.7213      2.00000
    571       1.7757      2.00000
    572       1.7761      2.00000
    573       1.7763      2.00000
    574       1.7763      2.00000
    575       1.7764      2.00000
    576       1.7769      2.00000
    577       1.9656      2.00000
    578       1.9659      2.00000
    579       1.9662      2.00000
    580       2.2720      2.00375
    581       2.2725      2.00379
    582       2.2730      2.00383
    583       2.6160      1.89708
    584       2.6160      1.89675
    585       2.6165      1.89508
    586       2.6165      1.89505
    587       2.6169      1.89341
[...]
   -.179E+01 0.117E-01 0.117E-01   0.179E+01 -.149E-01 -.149E-01   -.126E-01 -.478E-03 -.478E-03   0.138E-01 0.369E-02 0.369E-02
   -.203E+00 -.135E-02 -.135E-02   0.212E+00 -.724E-03 -.724E-03   0.257E-02 -.184E-03 -.184E-03   -.114E-01 0.237E-02 0.237E-02
   -.975E-01 0.496E-08 0.496E-08   0.110E+00 -.524E-08 -.524E-08   0.269E-02 -.543E-21 0.000E+00   -.152E-01 -.574E-10 -.576E-10
   -.105E+00 -.313E+00 -.169E+00   0.108E+00 0.310E+00 0.169E+00   0.340E-02 -.385E-02 -.923E-03   -.702E-02 0.740E-02 0.458E-03
   0.106E+01 -.277E+01 0.329E-08   -.106E+01 0.276E+01 -.546E-09   -.175E-01 0.405E-02 0.000E+00   0.561E-02 0.131E-01 0.511E-09
   0.106E+01 0.425E-07 0.277E+01   -.106E+01 -.520E-07 -.276E+01   -.175E-01 -.756E-10 -.405E-02   0.561E-02 -.394E-09 -.131E-01
   -.105E+00 0.169E+00 0.313E+00   0.108E+00 -.169E+00 -.310E+00   0.340E-02 0.923E-03 0.385E-02   -.702E-02 -.458E-03 -.740E-02
   -.553E-01 0.460E-01 -.905E-09   0.621E-01 -.473E-01 0.807E-09   0.131E-02 0.194E-03 0.678E-20   -.795E-02 0.119E-02 0.126E-09
   0.263E+00 -.260E+00 -.111E-09   -.261E+00 0.251E+00 0.309E-09   -.604E-02 0.428E-02 0.678E-20   0.360E-02 0.418E-02 -.251E-09
   0.528E+00 -.310E+00 0.310E+00   -.528E+00 0.308E+00 -.308E+00   0.549E-02 -.342E-02 0.342E-02   -.579E-02 0.673E-02 -.673E-02
   0.263E+00 0.390E-08 0.260E+00   -.261E+00 -.420E-08 -.251E+00   -.604E-02 -.800E-10 -.428E-02   0.360E-02 -.561E-09 -.418E-02
   0.101E+00 0.464E-01 -.108E-07   -.108E+00 -.471E-01 0.110E-07   0.130E-02 -.365E-03 -.136E-19   0.645E-02 0.103E-02 0.486E-09
   0.248E+00 0.282E-02 -.269E-02   -.263E+00 -.933E-03 0.474E-03   0.172E-02 0.401E-03 -.161E-03   0.143E-01 -.242E-02 0.247E-02
   0.248E+00 0.269E-02 -.282E-02   -.263E+00 -.474E-03 0.933E-03   0.172E-02 0.161E-03 -.401E-03   0.143E-01 -.247E-02 0.242E-02
   0.199E+00 -.495E-09 -.123E-07   -.209E+00 0.724E-09 0.125E-07   -.592E-02 0.261E-20 0.000E+00   0.159E-01 -.714E-09 0.561E-09
   0.970E-01 -.792E-01 0.792E-01   -.102E+00 0.748E-01 -.748E-01   -.180E-03 -.269E-03 0.269E-03   0.574E-02 0.466E-02 -.466E-02
   0.992E-01 -.990E-08 0.511E-01   -.107E+00 0.100E-07 -.474E-01   0.173E-02 -.140E-11 -.750E-04   0.594E-02 0.588E-09 -.380E-02
   -.107E+00 -.174E+00 0.317E+00   0.113E+00 0.169E+00 -.310E+00   0.348E-02 -.869E-03 0.382E-02   -.979E-02 0.543E-02 -.118E-01
   -.107E+00 -.317E+00 0.174E+00   0.113E+00 0.310E+00 -.169E+00   0.348E-02 -.382E-02 0.869E-03   -.979E-02 0.118E-01 -.543E-02
   -.913E-01 0.526E-08 0.106E-09   0.103E+00 -.571E-08 -.366E-09   -.143E-02 -.108E-19 0.678E-20   -.990E-02 -.438E-10 0.325E-09
   -.610E+00 0.104E-08 -.230E-02   0.616E+00 -.703E-09 0.490E-02   -.361E-02 -.781E-11 -.418E-03   -.303E-02 0.535E-09 -.215E-02
   -.179E+01 0.117E-01 -.117E-01   0.179E+01 -.149E-01 0.149E-01   -.126E-01 -.478E-03 0.478E-03   0.138E-01 0.369E-02 -.369E-02
   -.610E+00 0.230E-02 0.108E-08   0.616E+00 -.490E-02 -.794E-09   -.361E-02 0.418E-03 0.000E+00   -.303E-02 0.215E-02 0.542E-09
   -.208E+00 0.144E-07 -.197E-02   0.219E+00 -.149E-07 -.472E-03   0.492E-03 -.372E-11 -.199E-03   -.121E-01 -.535E-09 0.275E-02
   -.105E+00 -.169E+00 -.313E+00   0.108E+00 0.169E+00 0.310E+00   0.340E-02 -.923E-03 -.385E-02   -.702E-02 0.458E-03 0.740E-02
   0.106E+01 -.485E-07 -.277E+01   -.106E+01 0.511E-07 0.276E+01   -.175E-01 0.756E-10 0.405E-02   0.561E-02 0.757E-09 0.131E-01
   0.106E+01 0.277E+01 -.907E-08   -.106E+01 -.276E+01 -.350E-09   -.175E-01 -.405E-02 -.508E-20   0.561E-02 -.131E-01 -.149E-09
   -.105E+00 0.313E+00 0.169E+00   0.108E+00 -.310E+00 -.169E+00   0.340E-02 0.385E-02 0.923E-03   -.702E-02 -.740E-02 -.458E-03
   -.553E-01 -.498E-10 0.460E-01   0.621E-01 -.766E-10 -.473E-01   0.131E-02 0.363E-11 0.194E-03   -.795E-02 0.148E-09 0.119E-02
   0.985E-01 -.749E-01 -.749E-01   -.103E+00 0.740E-01 0.740E-01   -.605E-03 0.338E-03 0.338E-03   0.605E-02 0.221E-03 0.221E-03
   0.528E+00 -.310E+00 -.310E+00   -.528E+00 0.308E+00 0.308E+00   0.549E-02 -.342E-02 -.342E-02   -.579E-02 0.673E-02 0.673E-02
   0.153E+01 -.181E-08 -.191E-08   -.153E+01 0.498E-09 0.498E-09   0.269E-01 -.121E-20 0.000E+00   -.242E-01 -.457E-09 -.457E-09
   0.528E+00 0.310E+00 0.310E+00   -.528E+00 -.308E+00 -.308E+00   0.549E-02 0.342E-02 0.342E-02   -.579E-02 -.673E-02 -.673E-02
   0.985E-01 0.749E-01 0.749E-01   -.103E+00 -.740E-01 -.740E-01   -.605E-03 -.338E-03 -.338E-03   0.605E-02 -.221E-03 -.221E-03
   0.481E-01 -.251E-08 -.262E-08   -.553E-01 0.262E-08 0.262E-08   -.523E-04 -.144E-21 0.000E+00   0.732E-02 0.676E-10 0.674E-10
   0.248E+00 0.282E-02 0.269E-02   -.263E+00 -.933E-03 -.474E-03   0.172E-02 0.401E-03 0.161E-03   0.143E-01 -.242E-02 -.247E-02
   0.632E+00 0.445E-02 -.114E-08   -.629E+00 -.179E-02 0.907E-09   -.430E-02 0.143E-03 0.678E-20   0.260E-02 -.291E-02 -.908E-09
   0.632E+00 -.105E-08 -.445E-02   -.629E+00 0.942E-09 0.179E-02   -.430E-02 -.266E-11 -.143E-03   0.260E-02 -.918E-09 0.291E-02
   0.248E+00 -.269E-02 -.282E-02   -.263E+00 0.474E-03 0.933E-03   0.172E-02 -.161E-03 -.401E-03   0.143E-01 0.247E-02 0.242E-02
   0.109E+00 -.182E-02 -.603E-08   -.127E+00 0.288E-03 0.627E-08   -.480E-03 -.302E-03 -.169E-20   0.184E-01 0.196E-02 0.819E-10
   -.547E-01 -.317E-10 0.497E-01   0.637E-01 -.173E-09 -.472E-01   0.157E-02 0.165E-10 0.885E-03   -.104E-01 0.262E-09 -.365E-02
   -.203E+00 -.135E-02 0.135E-02   0.212E+00 -.724E-03 0.724E-03   0.257E-02 -.184E-03 0.184E-03   -.114E-01 0.237E-02 -.237E-02
   -.208E+00 0.144E-07 0.197E-02   0.219E+00 -.150E-07 0.472E-03   0.492E-03 0.372E-11 0.199E-03   -.121E-01 -.473E-09 -.275E-02
   -.105E+00 0.169E+00 -.313E+00   0.108E+00 -.169E+00 0.310E+00   0.340E-02 0.923E-03 -.385E-02   -.702E-02 -.458E-03 0.740E-02
   -.105E+00 0.313E+00 -.169E+00   0.108E+00 -.310E+00 0.169E+00   0.340E-02 0.385E-02 -.923E-03   -.702E-02 -.740E-02 0.458E-03
   -.911E-01 0.512E-08 0.335E-09   0.997E-01 -.549E-08 -.357E-09   -.189E-02 0.722E-20 0.000E+00   -.665E-02 -.168E-09 0.303E-09
   0.263E+00 -.497E-08 -.260E+00   -.261E+00 0.500E-08 0.251E+00   -.604E-02 0.800E-10 0.428E-02   0.360E-02 -.173E-09 0.418E-02
   0.528E+00 0.310E+00 -.310E+00   -.528E+00 -.308E+00 0.308E+00   0.549E-02 0.342E-02 -.342E-02   -.579E-02 -.673E-02 0.673E-02
   0.263E+00 0.260E+00 -.117E-08   -.261E+00 -.251E+00 0.491E-09   -.604E-02 -.428E-02 0.000E+00   0.360E-02 -.418E-02 -.483E-09
   0.101E+00 -.992E-08 0.464E-01   -.108E+00 0.101E-07 -.471E-01   0.130E-02 -.682E-11 -.365E-03   0.645E-02 0.505E-09 0.103E-02
   0.248E+00 0.269E-02 0.282E-02   -.263E+00 -.474E-03 -.933E-03   0.172E-02 0.161E-03 0.401E-03   0.143E-01 -.247E-02 -.242E-02
   0.632E+00 -.967E-09 0.445E-02   -.629E+00 0.874E-09 -.179E-02   -.430E-02 0.266E-11 0.143E-03   0.260E-02 -.962E-09 -.291E-02
   0.632E+00 -.445E-02 -.867E-09   -.629E+00 0.179E-02 0.908E-09   -.430E-02 -.143E-03 0.000E+00   0.260E-02 0.291E-02 -.972E-09
   0.248E+00 -.282E-02 -.269E-02   -.263E+00 0.933E-03 0.474E-03   0.172E-02 -.401E-03 -.161E-03   0.143E-01 0.242E-02 0.247E-02
   0.109E+00 -.596E-08 -.182E-02   -.127E+00 0.627E-08 0.288E-03   -.480E-03 -.565E-11 -.302E-03   0.184E-01 0.119E-09 0.196E-02
   -.553E-01 0.574E-08 -.460E-01   0.621E-01 -.598E-08 0.473E-01   0.131E-02 -.363E-11 -.194E-03   -.795E-02 -.219E-09 -.119E-02
   0.985E-01 0.749E-01 -.749E-01   -.103E+00 -.740E-01 0.740E-01   -.605E-03 -.338E-03 0.338E-03   0.605E-02 -.221E-03 0.221E-03
   0.101E+00 -.421E-08 -.464E-01   -.108E+00 0.423E-08 0.471E-01   0.130E-02 0.682E-11 0.365E-03   0.645E-02 0.160E-09 -.103E-02
   0.248E+00 -.269E-02 0.282E-02   -.263E+00 0.474E-03 -.933E-03   0.172E-02 -.161E-03 0.401E-03   0.143E-01 0.247E-02 -.242E-02
   0.248E+00 -.282E-02 0.269E-02   -.263E+00 0.933E-03 -.474E-03   0.172E-02 -.401E-03 0.161E-03   0.143E-01 0.242E-02 -.247E-02
   0.199E+00 -.123E-07 -.496E-09   -.209E+00 0.125E-07 0.724E-09   -.592E-02 0.104E-20 0.678E-20   0.159E-01 0.561E-09 -.714E-09
   0.109E+00 -.599E-08 0.182E-02   -.127E+00 0.630E-08 -.288E-03   -.480E-03 0.565E-11 0.302E-03   0.184E-01 0.131E-09 -.196E-02
 -----------------------------------------------------------------------------------------------
   -.366E-02 -.150E-10 -.497E-04   -.814E-11 -.109E-11 0.123E-11   -.649E-03 0.534E-17 -.195E-17   0.104E-01 0.486E-10 0.442E-10
 
 
 POSITION                                       TOTAL-FORCE (eV/Angst)
 -----------------------------------------------------------------------------------
      7.49301      7.49301      3.74651         0.000326      0.000022     -0.000022
      7.49301      9.36627      5.61976        -0.000198     -0.000175     -0.000000
      9.36627      7.49301      5.61976         0.000058     -0.000202      0.000000
      7.49301      7.49301      0.00000         0.000099      0.000112      0.000000
      7.49301      9.36627      1.87325        -0.001059     -0.000523      0.000523
      7.49301      0.00000      3.74651         0.000099     -0.000000     -0.000112
      7.49301      1.87325      5.61976        -0.000198      0.000175     -0.000000
      9.36627      7.49301      1.87325        -0.000610     -0.000539     -0.000006
      9.36627      9.36627      3.74651        -0.000610      0.000006      0.000539
      9.36627      0.00000      5.61976        -0.000074     -0.000000      0.000000
      0.00000      7.49301      3.74651        -0.000114     -0.000114      0.000114
      0.00000      9.36627      5.61976         0.000105     -0.000105     -0.000000
      1.87325      7.49301      5.61976         0.000151     -0.000071      0.000000
      7.49301      7.49301      7.49301         0.000326      0.000022      0.000022
      7.49301      9.36627      9.36627        -0.001059     -0.000523     -0.000523
      7.49301      0.00000      0.00000        -0.002979     -0.000000      0.000000
      7.49301      1.87325      1.87325        -0.001059      0.000523      0.000523
      7.49301      3.74651      3.74651         0.000326     -0.000022     -0.000022
      7.49301      5.61976      5.61976        -0.000168     -0.000000     -0.000000
      9.36627      7.49301      9.36627        -0.000610     -0.000539      0.000006
      9.36627      9.36627      0.00000        -0.009612     -0.010906     -0.000000
      9.36627      0.00000      1.87325        -0.009612      0.000000      0.010906
      9.36627      1.87325      3.74651        -0.000610     -0.000006      0.000539
      9.36627      3.74651      5.61976         0.000058      0.000202      0.000000
      0.00000      7.49301      0.00000        -0.000216      0.000030      0.000000
      0.00000      9.36627      1.87325         0.001691     -0.000027      0.000027
      0.00000      0.00000      3.74651        -0.000216     -0.000000     -0.000030
      0.00000      1.87325      5.61976         0.000105      0.000105     -0.000000
      1.87325      7.49301      1.87325        -0.000558      0.000381      0.000139
      1.87325      9.36627      3.74651        -0.000558     -0.000139     -0.000381
      1.87325      0.00000      5.61976         0.000025     -0.000000     -0.000000
      3.74651      7.49301      3.74651         0.000482     -0.000271      0.000271
      3.74651      9.36627      5.61976        -0.000009     -0.000015      0.000000
      5.61976      7.49301      5.61976        -0.000112     -0.000122      0.000000
      7.49301      0.00000      7.49301         0.000099      0.000000      0.000112
      7.49301      1.87325      9.36627        -0.001059      0.000523     -0.000523
      7.49301      3.74651      0.00000         0.000099     -0.000112      0.000000
      7.49301      5.61976      1.87325        -0.000198      0.000000      0.000175
      9.36627      9.36627      7.49301        -0.000610      0.000006     -0.000539
      9.36627      0.00000      9.36627        -0.009612     -0.000000     -0.010906
      9.36627      1.87325      0.00000        -0.009612      0.010906     -0.000000
      9.36627      3.74651      1.87325        -0.000610      0.000539     -0.000006
      9.36627      5.61976      3.74651         0.000058      0.000000      0.000202
      0.00000      7.49301      7.49301        -0.000114     -0.000114     -0.000114
      0.00000      9.36627      9.36627         0.001691     -0.000027     -0.000027
     11.21952      0.00000      0.00000         0.084293      0.000000     -0.000000
      0.00000      1.87325      1.87325         0.001691      0.000027      0.000027
      0.00000      3.74651      3.74651        -0.000114      0.000114      0.000114
      0.00000      5.61976      5.61976        -0.000194     -0.000000      0.000000
      1.87325      7.49301      9.36627        -0.000558      0.000381     -0.000139
      1.87325      9.36627      0.00000        -0.008827      0.009714     -0.000000
      1.87325      0.00000      1.87325        -0.008827     -0.000000     -0.009714
      1.87325      1.87325      3.74651        -0.000558      0.000139     -0.000381
      1.87325      3.74651      5.61976         0.000151      0.000071      0.000000
      3.74651      7.49301      0.00000         0.000214     -0.000346      0.000000
      3.74651      9.36627      1.87325        -0.001010      0.000357     -0.000357
      3.74651      0.00000      3.74651         0.000214      0.000000      0.000346
      3.74651      1.87325      5.61976        -0.000009      0.000015     -0.000000
      5.61976      7.49301      1.87325         0.000068     -0.000135      0.000093
      5.61976      9.36627      3.74651         0.000068     -0.000093      0.000135
      5.61976      0.00000      5.61976        -0.000333      0.000000     -0.000000
      7.49301      3.74651      7.49301         0.000326     -0.000022      0.000022
      7.49301      5.61976      9.36627        -0.000198     -0.000000     -0.000175
      9.36627      1.87325      7.49301        -0.000610     -0.000006     -0.000539
      9.36627      3.74651      9.36627        -0.000610      0.000539      0.000006
      9.36627      5.61976      0.00000        -0.000074      0.000000     -0.000000
      0.00000      0.00000      7.49301        -0.000216      0.000000      0.000030
      0.00000      1.87325      9.36627         0.001691      0.000027     -0.000027
      0.00000      3.74651      0.00000        -0.000216     -0.000030      0.000000
      0.00000      5.61976      1.87325         0.000105      0.000000      0.000105
      1.87325      9.36627      7.49301        -0.000558     -0.000139      0.000381
      1.87325      0.00000      9.36627        -0.008827      0.000000      0.009714
      1.87325      1.87325      0.00000        -0.008827     -0.009714     -0.000000
      1.87325      3.74651      1.87325        -0.000558     -0.000381      0.000139
      1.87325      5.61976      3.74651         0.000151      0.000000      0.000071
      3.74651      7.49301      7.49301         0.000482     -0.000271     -0.000271
      3.74651      9.36627      9.36627        -0.001010      0.000357      0.000357
      3.74651      0.00000      0.00000        -0.002996      0.000000      0.000000
      3.74651      1.87325      1.87325        -0.001010     -0.000357     -0.000357
      3.74651      3.74651      3.74651         0.000482      0.000271      0.000271
      3.74651      5.61976      5.61976         0.000004     -0.000000      0.000000
      5.61976      7.49301      9.36627         0.000068     -0.000135     -0.000093
      5.61976      9.36627      0.00000         0.000934     -0.000097     -0.000000
      5.61976      0.00000      1.87325         0.000934      0.000000      0.000097
      5.61976      1.87325      3.74651         0.000068      0.000093      0.000135
      5.61976      3.74651      5.61976        -0.000112      0.000122     -0.000000
      9.36627      5.61976      7.49301         0.000058     -0.000000     -0.000202
      0.00000      3.74651      7.49301        -0.000114      0.000114     -0.000114
      0.00000      5.61976      9.36627         0.000105     -0.000000     -0.000105
      1.87325      1.87325      7.49301        -0.000558      0.000139      0.000381
      1.87325      3.74651      9.36627        -0.000558     -0.000381     -0.000139
      1.87325      5.61976      0.00000         0.000025     -0.000000      0.000000
      3.74651      0.00000      7.49301         0.000214     -0.000000     -0.000346
      3.74651      1.87325      9.36627        -0.001010     -0.000357      0.000357
      3.74651      3.74651      0.00000         0.000214      0.000346     -0.000000
      3.74651      5.61976      1.87325        -0.000009      0.000000      0.000015
      5.61976      9.36627      7.49301         0.000068     -0.000093     -0.000135
      5.61976      0.00000      9.36627         0.000934     -0.000000     -0.000097
      5.61976      1.87325      0.00000         0.000934      0.000097      0.000000
      5.61976      3.74651      1.87325         0.000068      0.000135      0.000093
      5.61976      5.61976      3.74651        -0.000112      0.000000      0.000122
      1.87325      5.61976      7.49301         0.000151     -0.000000     -0.000071
      3.74651      3.74651      7.49301         0.000482      0.000271     -0.000271
      3.74651      5.61976      9.36627        -0.000009     -0.000000     -0.000015
      5.61976      1.87325      7.49301         0.000068      0.000093     -0.000135
      5.61976      3.74651      9.36627         0.000068      0.000135     -0.000093
      5.61976      5.61976      0.00000        -0.000333     -0.000000     -0.000000
      5.61976      5.61976      7.49301        -0.000112     -0.000000     -0.000122
 -----------------------------------------------------------------------------------
    total drift:                                0.006074      0.000000     -0.000050


--------------------------------------------------------------------------------------------------------



 mean value of Nose-termostat <S>:     1.000 mean value of <T> :     0.000
 mean temperature <T/S>/<1/S>  :     0.000

     LOOP+:  VPU time  355.70: CPU time  355.66

 ----------------------------------------------------------------------------- 
|                                                                             |
|           W    W    AA    RRRRR   N    N  II  N    N   GGGG   !!!           |
|           W    W   A  A   R    R  NN   N  II  NN   N  G    G  !!!           |
|           W    W  A    A  R    R  N N  N  II  N N  N  G       !!!           |
|           W WW W  AAAAAA  RRRRR   N  N N  II  N  N N  G  GGG   !            |
|           WW  WW  A    A  R   R   N   NN  II  N   NN  G    G                |
|           W    W  A    A  R    R  N    N  II  N    N   GGGG   !!!           |
|                                                                             |
|      The partial DOS and the PROCAR file are not evaluated for NPAR/=1      |
|      please rerun with NPAR=1                                               |
|                                                                             |
 ----------------------------------------------------------------------------- 

  
  
 General timing and accounting informations for this job:
 ========================================================
  
                  Total CPU time used (sec):      362.460
                            User time (sec):      356.598
                          System time (sec):        5.862
                         Elapsed time (sec):      362.429
  
                   Maximum memory used (kb):      340816.
                   Average memory used (kb):           0.
  
                          Minor page faults:        61367
                          Major page faults:            0
                 Voluntary context switches:          900
