   4   4   0   0
  0.1596664E+02  0.3997218E-09  0.3997218E-09  0.3997218E-09  0.5000000E-15
  1.000000000000000E-004
  CAR 
 unknown system                          
     22.12771656     -5.38048638  301      4.19666081      1.00000000
     -5.380  0.0000E+00  0.0000E+00
     -5.289  0.0000E+00  0.0000E+00
     -5.197  0.0000E+00  0.0000E+00
     -5.105  0.0000E+00  0.0000E+00
     -5.014  0.0000E+00  0.0000E+00
     -4.922  0.0000E+00  0.0000E+00
     -4.830  0.0000E+00  0.0000E+00
     -4.739  0.0000E+00  0.0000E+00
     -4.647  0.0000E+00  0.0000E+00
     -4.555  0.0000E+00  0.0000E+00
     -4.464  0.0000E+00  0.0000E+00
     -4.372  0.0000E+00  0.0000E+00
     -4.280  0.0000E+00  0.0000E+00
     -4.188  0.2595E-19  0.2380E-20
     -4.097  0.1438E-01  0.1319E-02
     -4.005  0.8610E-01  0.1034E-01
     -3.913  0.1293E+00  0.2288E-01
     -3.822  0.1466E+00  0.3997E-01
     -3.730  0.1640E+00  0.5880E-01
     -3.638  0.2345E+00  0.8241E-01
     -3.547  0.2408E+00  0.1081E+00
     -3.455  0.2880E+00  0.1359E+00
     -3.363  0.3058E+00  0.1680E+00
     -3.272  0.3767E+00  0.2043E+00
     -3.180  0.3849E+00  0.2422E+00
     -3.088  0.4179E+00  0.2845E+00
     -2.996  0.4212E+00  0.3265E+00
     -2.905  0.4923E+00  0.3780E+00
     -2.813  0.5876E+00  0.4376E+00
     -2.721  0.1049E+01  0.5381E+00
     -2.630  0.2629E+01  0.7966E+00
     -2.538  0.4980E+01  0.1298E+01
     -2.446  0.6249E+01  0.1948E+01
     -2.355  0.7382E+01  0.2726E+01
     -2.263  0.8878E+01  0.3664E+01
     -2.171  0.1182E+02  0.4877E+01
     -2.080  0.1169E+02  0.6134E+01
     -1.988  0.9707E+01  0.7191E+01
     -1.896  0.9036E+01  0.8144E+01
     -1.804  0.8037E+01  0.8997E+01
     -1.713  0.6920E+01  0.9739E+01
     -1.621  0.6148E+01  0.1039E+02
     -1.529  0.7579E+01  0.1116E+02
     -1.438  0.6909E+01  0.1191E+02
     -1.346  0.8549E+01  0.1280E+02
     -1.254  0.8428E+01  0.1369E+02
     -1.163  0.7411E+01  0.1449E+02
     -1.071  0.8112E+01  0.1535E+02
     -0.979  0.7891E+01  0.1618E+02
     -0.887  0.8524E+01  0.1709E+02
     -0.796  0.1098E+02  0.1821E+02
     -0.704  0.1278E+02  0.1954E+02
     -0.612  0.1631E+02  0.2125E+02
     -0.521  0.1046E+02  0.2238E+02
     -0.429  0.8484E+01  0.2330E+02
     -0.337  0.6967E+01  0.2404E+02
     -0.246  0.8649E+01  0.2496E+02
     -0.154  0.7679E+01  0.2577E+02
     -0.062  0.8143E+01  0.2663E+02
      0.029  0.9720E+01  0.2764E+02
      0.121  0.9535E+01  0.2865E+02
      0.213  0.9874E+01  0.2969E+02
      0.305  0.9839E+01  0.3076E+02
      0.396  0.8673E+01  0.3169E+02
      0.488  0.7969E+01  0.3253E+02
      0.580  0.7967E+01  0.3337E+02
      0.671  0.7937E+01  0.3421E+02
      0.763  0.7944E+01  0.3505E+02
      0.855  0.8703E+01  0.3595E+02
      0.946  0.9572E+01  0.3693E+02
      1.038  0.1271E+02  0.3823E+02
      1.130  0.1505E+02  0.3982E+02
      1.221  0.7911E+01  0.4070E+02
      1.313  0.5659E+01  0.4130E+02
      1.405  0.1484E+01  0.4148E+02
      1.497  0.7888E+00  0.4157E+02
      1.588  0.7395E+00  0.4164E+02
      1.680  0.7141E+00  0.4172E+02
      1.772  0.7043E+00  0.4180E+02
      1.863  0.7765E+00  0.4188E+02
      1.955  0.6982E+00  0.4195E+02
      2.047  0.7808E+00  0.4203E+02
      2.138  0.6928E+00  0.4210E+02
      2.230  0.7982E+00  0.4218E+02
      2.322  0.6245E+00  0.4225E+02
      2.414  0.8676E+00  0.4234E+02
      2.505  0.6104E+00  0.4241E+02
      2.597  0.7269E+00  0.4249E+02
      2.689  0.9568E+00  0.4259E+02
      2.780  0.5530E+00  0.4264E+02
      2.872  0.1022E+01  0.4274E+02
      2.964  0.7725E+00  0.4282E+02
      3.055  0.5985E+00  0.4289E+02
      3.147  0.1043E+01  0.4299E+02
      3.239  0.7536E+00  0.4307E+02
      3.330  0.6087E+00  0.4313E+02
      3.422  0.1194E+01  0.4325E+02
      3.514  0.6910E+00  0.4333E+02
      3.606  0.7038E+00  0.4340E+02
      3.697  0.1144E+01  0.4352E+02
      3.789  0.8552E+00  0.4361E+02
      3.881  0.6679E+00  0.4368E+02
      3.972  0.1121E+01  0.4380E+02
      4.064  0.7810E+00  0.4388E+02
      4.156  0.7396E+00  0.4396E+02
      4.247  0.1023E+01  0.4407E+02
      4.339  0.9161E+00  0.4417E+02
      4.431  0.8445E+00  0.4425E+02
      4.522  0.8212E+00  0.4434E+02
      4.614  0.9011E+00  0.4444E+02
      4.706  0.8686E+00  0.4453E+02
      4.798  0.7927E+00  0.4461E+02
      4.889  0.9499E+00  0.4472E+02
      4.981  0.8486E+00  0.4480E+02
      5.073  0.7950E+00  0.4489E+02
      5.164  0.1015E+01  0.4499E+02
      5.256  0.8415E+00  0.4508E+02
      5.348  0.8576E+00  0.4517E+02
      5.439  0.8487E+00  0.4526E+02
      5.531  0.9816E+00  0.4535E+02
      5.623  0.8267E+00  0.4545E+02
      5.714  0.8522E+00  0.4553E+02
      5.806  0.1034E+01  0.4564E+02
      5.898  0.8700E+00  0.4573E+02
      5.990  0.8392E+00  0.4581E+02
      6.081  0.8255E+00  0.4590E+02
      6.173  0.9337E+00  0.4600E+02
      6.265  0.7721E+00  0.4608E+02
      6.356  0.7811E+00  0.4616E+02
      6.448  0.8262E+00  0.4625E+02
      6.540  0.8582E+00  0.4634E+02
      6.631  0.6352E+00  0.4642E+02
      6.723  0.7092E+00  0.4649E+02
      6.815  0.9500E+00  0.4658E+02
      6.907  0.6937E+00  0.4666E+02
      6.998  0.6587E+00  0.4673E+02
      7.090  0.7075E+00  0.4680E+02
      7.182  0.6708E+00  0.4687E+02
      7.273  0.8649E+00  0.4696E+02
      7.365  0.5352E+00  0.4702E+02
      7.457  0.4533E+00  0.4707E+02
      7.548  0.7052E+00  0.4714E+02
      7.640  0.5985E+00  0.4721E+02
      7.732  0.6582E+00  0.4727E+02
      7.823  0.4892E+00  0.4732E+02
      7.915  0.5829E+00  0.4738E+02
      8.007  0.5878E+00  0.4744E+02
      8.099  0.4448E+00  0.4749E+02
      8.190  0.7340E+00  0.4756E+02
      8.282  0.1225E+01  0.4769E+02
      8.374  0.1187E+01  0.4781E+02
      8.465  0.1051E+01  0.4792E+02
      8.557  0.1224E+01  0.4805E+02
      8.649  0.1238E+01  0.4818E+02
      8.740  0.1142E+01  0.4830E+02
      8.832  0.1170E+01  0.4842E+02
      8.924  0.1117E+01  0.4854E+02
      9.015  0.1248E+01  0.4866E+02
      9.107  0.9637E+00  0.4876E+02
      9.199  0.1036E+01  0.4888E+02
      9.291  0.1071E+01  0.4900E+02
      9.382  0.1076E+01  0.4911E+02
      9.474  0.1227E+01  0.4923E+02
      9.566  0.8769E+00  0.4932E+02
      9.657  0.9769E+00  0.4943E+02
      9.749  0.9718E+00  0.4954E+02
      9.841  0.9257E+00  0.4964E+02
      9.932  0.9463E+00  0.4975E+02
     10.024  0.9506E+00  0.4985E+02
     10.116  0.8861E+00  0.4994E+02
     10.207  0.1089E+01  0.5005E+02
     10.299  0.8799E+00  0.5014E+02
     10.391  0.8653E+00  0.5024E+02
     10.483  0.9238E+00  0.5034E+02
     10.574  0.9084E+00  0.5043E+02
     10.666  0.8954E+00  0.5053E+02
     10.758  0.8784E+00  0.5062E+02
     10.849  0.7949E+00  0.5071E+02
     10.941  0.1064E+01  0.5082E+02
     11.033  0.8501E+00  0.5090E+02
     11.124  0.8990E+00  0.5099E+02
     11.216  0.8327E+00  0.5108E+02
     11.308  0.8447E+00  0.5118E+02
     11.400  0.8577E+00  0.5127E+02
     11.491  0.1312E+01  0.5140E+02
     11.583  0.1649E+01  0.5157E+02
     11.675  0.9956E+00  0.5167E+02
     11.766  0.1460E+01  0.5183E+02
     11.858  0.1480E+01  0.5198E+02
     11.950  0.1488E+01  0.5212E+02
     12.041  0.1543E+01  0.5228E+02
     12.133  0.1624E+01  0.5245E+02
     12.225  0.1567E+01  0.5261E+02
     12.316  0.1270E+01  0.5275E+02
     12.408  0.1318E+01  0.5288E+02
     12.500  0.1876E+01  0.5307E+02
     12.592  0.1299E+01  0.5322E+02
     12.683  0.1307E+01  0.5337E+02
     12.775  0.1144E+01  0.5349E+02
     12.867  0.1349E+01  0.5364E+02
     12.958  0.1842E+01  0.5383E+02
     13.050  0.1610E+01  0.5399E+02
     13.142  0.1204E+01  0.5412E+02
     13.233  0.1191E+01  0.5426E+02
     13.325  0.1498E+01  0.5441E+02
     13.417  0.1751E+01  0.5459E+02
     13.508  0.1650E+01  0.5477E+02
     13.600  0.1359E+01  0.5491E+02
     13.692  0.1451E+01  0.5506E+02
     13.784  0.1283E+01  0.5520E+02
     13.875  0.1680E+01  0.5537E+02
     13.967  0.1536E+01  0.5554E+02
     14.059  0.1785E+01  0.5572E+02
     14.150  0.1342E+01  0.5586E+02
     14.242  0.1366E+01  0.5601E+02
     14.334  0.1796E+01  0.5619E+02
     14.425  0.1449E+01  0.5635E+02
     14.517  0.1664E+01  0.5652E+02
     14.609  0.1782E+01  0.5670E+02
     14.701  0.1358E+01  0.5686E+02
     14.792  0.1700E+01  0.5703E+02
     14.884  0.1685E+01  0.5720E+02
     14.976  0.1828E+01  0.5738E+02
     15.067  0.1508E+01  0.5754E+02
     15.159  0.1670E+01  0.5772E+02
     15.251  0.1767E+01  0.5791E+02
     15.342  0.1627E+01  0.5809E+02
     15.434  0.1851E+01  0.5828E+02
     15.526  0.1811E+01  0.5847E+02
     15.617  0.1839E+01  0.5866E+02
     15.709  0.1727E+01  0.5883E+02
     15.801  0.1761E+01  0.5902E+02
     15.893  0.1503E+01  0.5918E+02
     15.984  0.2050E+01  0.5939E+02
     16.076  0.1528E+01  0.5954E+02
     16.168  0.1635E+01  0.5972E+02
     16.259  0.1627E+01  0.5989E+02
     16.351  0.1500E+01  0.6005E+02
     16.443  0.1690E+01  0.6022E+02
     16.534  0.1723E+01  0.6040E+02
     16.626  0.1312E+01  0.6054E+02
     16.718  0.1764E+01  0.6072E+02
     16.809  0.1427E+01  0.6088E+02
     16.901  0.1401E+01  0.6103E+02
     16.993  0.1466E+01  0.6118E+02
     17.085  0.1528E+01  0.6134E+02
     17.176  0.1427E+01  0.6148E+02
     17.268  0.1442E+01  0.6163E+02
     17.360  0.1227E+01  0.6176E+02
     17.451  0.1207E+01  0.6189E+02
     17.543  0.1184E+01  0.6202E+02
     17.635  0.9428E+00  0.6212E+02
     17.726  0.9572E+00  0.6222E+02
     17.818  0.1064E+01  0.6232E+02
     17.910  0.8827E+00  0.6242E+02
     18.001  0.9405E+00  0.6251E+02
     18.093  0.7806E+00  0.6259E+02
     18.185  0.8598E+00  0.6268E+02
     18.277  0.6715E+00  0.6276E+02
     18.368  0.6702E+00  0.6283E+02
     18.460  0.6095E+00  0.6290E+02
     18.552  0.7799E+00  0.6297E+02
     18.643  0.5627E+00  0.6303E+02
     18.735  0.5448E+00  0.6309E+02
     18.827  0.5363E+00  0.6315E+02
     18.918  0.6581E+00  0.6322E+02
     19.010  0.4196E+00  0.6326E+02
     19.102  0.6139E+00  0.6332E+02
     19.194  0.3622E+00  0.6336E+02
     19.285  0.6165E+00  0.6343E+02
     19.377  0.2901E+00  0.6346E+02
     19.469  0.5588E+00  0.6351E+02
     19.560  0.3631E+00  0.6355E+02
     19.652  0.4018E+00  0.6359E+02
     19.744  0.3593E+00  0.6363E+02
     19.835  0.4615E+00  0.6367E+02
     19.927  0.2259E+00  0.6371E+02
     20.019  0.3755E+00  0.6375E+02
     20.110  0.3695E+00  0.6379E+02
     20.202  0.4160E+00  0.6384E+02
     20.294  0.5090E+00  0.6389E+02
     20.386  0.4503E+00  0.6394E+02
     20.477  0.2032E+00  0.6396E+02
     20.569  0.1427E+00  0.6398E+02
     20.661  0.6401E-01  0.6399E+02
     20.752  0.5955E-01  0.6400E+02
     20.844  0.2239E-01  0.6400E+02
     20.936  0.3740E-02  0.6400E+02
     21.027  0.0000E+00  0.6400E+02
     21.119  0.0000E+00  0.6400E+02
     21.211  0.0000E+00  0.6400E+02
     21.302  0.0000E+00  0.6400E+02
     21.394  0.0000E+00  0.6400E+02
     21.486  0.0000E+00  0.6400E+02
     21.578  0.0000E+00  0.6400E+02
     21.669  0.0000E+00  0.6400E+02
     21.761  0.0000E+00  0.6400E+02
     21.853  0.0000E+00  0.6400E+02
     21.944  0.0000E+00  0.6400E+02
     22.036  0.0000E+00  0.6400E+02
     22.128  0.0000E+00  0.6400E+02
