    4    4    1    1
  0.1596664E+02  0.3997218E-09  0.3997218E-09  0.3997218E-09  0.5000000E-15
  1.000000000000000E-004
  CAR 
 unknown system                          
   44 1330   32
 
  0.0000000E+00  0.0000000E+00  0.0000000E+00  0.2143347E-04
   1       -4.1301
   2       -2.7911
   3       -2.7911
   4       -2.7911
   5       -2.6286
   6       -2.6286
   7       -2.6286
   8       -0.9509
   9       -0.9509
  10       -0.9509
  11        0.2129
  12        0.2129
  13        1.0700
  14        1.0700
  15        1.0700
  16        1.3374
  17        1.3374
  18        1.3374
  19        1.3374
  20        1.3374
  21        1.3374
  22        5.6965
  23        5.6965
  24        5.6965
  25       11.4160
  26       11.4160
  27       11.4160
  28       15.3748
  29       15.3748
  30       15.3748
  31       15.3748
  32       15.3748
 
  0.2777778E-01  0.0000000E+00  0.0000000E+00  0.1286008E-03
   1       -4.1216
   2       -2.7874
   3       -2.7863
   4       -2.7863
   5       -2.6258
   6       -2.6243
   7       -2.6243
   8       -0.9545
   9       -0.9476
  10       -0.9476
  11        0.2092
  12        0.2144
  13        1.0651
  14        1.0651
  15        1.0683
  16        1.3186
  17        1.3186
  18        1.3314
  19        1.3314
  20        1.3374
  21        1.3374
  22        5.6391
  23        5.7221
  24        5.7221
  25       11.4169
  26       11.4169
  27       11.4859
  28       15.3457
  29       15.3458
  30       15.3462
  31       15.3462
  32       15.3903
 
  0.5555556E-01  0.0000000E+00  0.0000000E+00  0.1286008E-03
   1       -4.0959
   2       -2.7762
   3       -2.7719
   4       -2.7719
   5       -2.6173
   6       -2.6114
   7       -2.6114
   8       -0.9654
   9       -0.9377
  10       -0.9377
  11        0.1982
  12        0.2190
  13        1.0504
  14        1.0504
  15        1.0631
  16        1.2635
  17        1.2635
  18        1.3135
  19        1.3135
  20        1.3375
  21        1.3375
  22        5.4750
  23        5.7975
  24        5.7975
  25       11.4196
  26       11.4196
  27       11.6877
  28       15.2613
  29       15.2613
  30       15.2617
  31       15.2617
  32       15.4367
 
  0.8333333E-01  0.0000000E+00  0.0000000E+00  0.1286008E-03
   1       -4.0532
   2       -2.7576
   3       -2.7482
   4       -2.7482
   5       -2.6032
   6       -2.5899
   7       -2.5899
   8       -0.9834
   9       -0.9213
  10       -0.9213
  11        0.1801
  12        0.2267
  13        1.0261
  14        1.0261
  15        1.0545
  16        1.1758
  17        1.1758
  18        1.2840
  19        1.2840
  20        1.3375
  21        1.3375
  22        5.2240
  23        5.9189
  24        5.9189
  25       11.4243
  26       11.4243
  27       12.0013
  28       15.1256
  29       15.1256
  30       15.1290
  31       15.1290
  32       15.5135
 
  0.1111111E+00  0.0000000E+00  0.0000000E+00  0.1286008E-03
   1       -3.9938
   2       -2.7321
   3       -2.7153
   4       -2.7153
   5       -2.5836
   6       -2.5598
   7       -2.5598
   8       -1.0083
   9       -0.8983
  10       -0.8983
  11        0.1553
  12        0.2374
  13        0.9925
  14        0.9925
  15        1.0427
  16        1.0607
  17        1.0607
  18        1.2434
  19        1.2434
  20        1.3376
  21        1.3376
  22        4.9095
  23        6.0813
  24        6.0813
  25       11.4311
  26       11.4311
  27       12.4034
  28       14.9440
  29       14.9440
  30       14.9592
  31       14.9592
  32       15.6202
 
  0.1388889E+00  0.0000000E+00  0.0000000E+00  0.1286008E-03
   1       -3.9182
   2       -2.6999
   3       -2.6740
   4       -2.6740
   5       -2.5586
   6       -2.5212
   7       -2.5212
   8       -1.0398
   9       -0.8689
  10       -0.8689
  11        0.1244
  12        0.2510
  13        0.9238
  14        0.9238
  15        0.9501
  16        0.9501
  17        1.0276
  18        1.1925
  19        1.1925
  20        1.3376
  21        1.3376
  22        4.5522
  23        6.2787
  24        6.2787
  25       11.4401
  26       11.4401
  27       12.8729
  28       14.7233
  29       14.7233
  30       14.7627
  31       14.7627
  32       15.7560
 
  0.1666667E+00  0.0000000E+00  0.0000000E+00  0.1286008E-03
   1       -3.8267
   2       -2.6615
   3       -2.6246
   4       -2.6246
   5       -2.5283
   6       -2.4740
   7       -2.4740
   8       -1.0776
   9       -0.8331
  10       -0.8331
  11        0.0881
  12        0.2675
  13        0.7703
  14        0.7703
  15        0.8995
  16        0.8995
  17        1.0095
  18        1.1319
  19        1.1319
  20        1.3377
  21        1.3377
  22        4.1684
  23        6.5059
  24        6.5059
  25       11.4516
  26       11.4516
  27       13.3935
  28       14.4703
  29       14.4703
  30       14.5495
  31       14.5495
  32       15.9200
 
  0.1944444E+00  0.0000000E+00  0.0000000E+00  0.1286008E-03
   1       -3.7201
   2       -2.6177
   3       -2.5682
   4       -2.5682
   5       -2.4928
   6       -2.4183
   7       -2.4183
   8       -1.1214
   9       -0.7911
  10       -0.7911
  11        0.0474
  12        0.2866
  13        0.6051
  14        0.6051
  15        0.8415
  16        0.8415
  17        0.9885
  18        1.0628
  19        1.0628
  20        1.3378
  21        1.3378
  22        3.7703
  23        6.7580
  24        6.7580
  25       11.4658
  26       11.4658
  27       13.9527
  28       14.1908
  29       14.1908
  30       14.3283
  31       14.3283
  32       16.1108
 
  0.2222222E+00  0.0000000E+00  0.0000000E+00  0.1286008E-03
   1       -3.5995
   2       -2.5693
   3       -2.5056
   4       -2.5056
   5       -2.4525
   6       -2.3542
   7       -2.3542
   8       -1.1706
   9       -0.7429
  10       -0.7429
  11        0.0036
  12        0.3084
  13        0.4320
  14        0.4320
  15        0.7770
  16        0.7770
  17        0.9647
  18        0.9860
  19        0.9860
  20        1.3379
  21        1.3379
  22        3.3666
  23        7.0309
  24        7.0309
  25       11.4831
  26       11.4831
  27       13.8901
  28       13.8901
  29       14.1058
  30       14.1058
  31       14.5412
  32       16.3274
 
  0.2500000E+00  0.0000000E+00  0.0000000E+00  0.1286008E-03
   1       -3.4662
   2       -2.5173
   3       -2.4381
   4       -2.4381
   5       -2.4074
   6       -2.2816
   7       -2.2816
   8       -1.2248
   9       -0.6888
  10       -0.6888
  11       -0.0416
  12        0.2541
  13        0.2541
  14        0.3327
  15        0.7075
  16        0.7075
  17        0.9026
  18        0.9026
  19        0.9384
  20        1.3380
  21        1.3380
  22        2.9639
  23        7.3211
  24        7.3211
  25       11.5036
  26       11.5036
  27       13.5723
  28       13.5723
  29       13.8878
  30       13.8878
  31       15.1516
  32       16.5683
 
  0.2777778E+00  0.0000000E+00  0.0000000E+00  0.1286008E-03
   1       -3.3218
   2       -2.4630
   3       -2.3672
   4       -2.3672
   5       -2.3578
   6       -2.2008
   7       -2.2008
   8       -1.2834
   9       -0.6289
  10       -0.6289
  11       -0.0861
  12        0.0741
  13        0.0741
  14        0.3592
  15        0.6344
  16        0.6344
  17        0.8138
  18        0.8138
  19        0.9098
  20        1.3382
  21        1.3382
  22        2.5674
  23        7.6261
  24        7.6261
  25       11.5275
  26       11.5275
  27       13.2411
  28       13.2411
  29       13.6785
  30       13.6785
  31       15.7779
  32       16.8321
 
  0.3055556E+00  0.0000000E+00  0.0000000E+00  0.1286008E-03
   1       -3.1688
   2       -2.4080
   3       -2.3041
   4       -2.2947
   5       -2.2947
   6       -2.1117
   7       -2.1117
   8       -1.3459
   9       -0.5634
  10       -0.5634
  11       -0.1271
  12       -0.1060
  13       -0.1060
  14        0.3879
  15        0.5596
  16        0.5596
  17        0.7205
  18        0.7205
  19        0.8791
  20        1.3383
  21        1.3383
  22        2.1816
  23        7.9433
  24        7.9433
  25       11.5548
  26       11.5548
  27       12.8994
  28       12.8994
  29       13.4813
  30       13.4813
  31       16.4143
  32       17.1173
 
  0.3333333E+00  0.0000000E+00  0.0000000E+00  0.1286008E-03
   1       -3.0105
   2       -2.3545
   3       -2.2466
   4       -2.2228
   5       -2.2228
   6       -2.0144
   7       -2.0144
   8       -1.4117
   9       -0.4925
  10       -0.4925
  11       -0.2846
  12       -0.2846
  13       -0.1608
  14        0.4185
  15        0.4854
  16        0.4854
  17        0.6239
  18        0.6239
  19        0.8466
  20        1.3383
  21        1.3383
  22        1.8102
  23        8.2710
  24        8.2710
  25       11.5853
  26       11.5853
  27       12.5496
  28       12.5496
  29       13.2993
  30       13.2993
  31       17.0545
  32       17.4225
 
  0.3611111E+00  0.0000000E+00  0.0000000E+00  0.1286008E-03
   1       -2.8511
   2       -2.3051
   3       -2.1855
   4       -2.1540
   5       -2.1540
   6       -1.9091
   7       -1.9091
   8       -1.4801
   9       -0.4604
  10       -0.4604
  11       -0.4167
  12       -0.4167
  13       -0.1825
  14        0.4143
  15        0.4143
  16        0.4508
  17        0.5249
  18        0.5249
  19        0.8126
  20        1.3384
  21        1.3384
  22        1.4571
  23        8.6076
  24        8.6076
  25       11.6183
  26       11.6183
  27       12.1938
  28       12.1938
  29       13.1352
  30       13.1352
  31       17.6920
  32       17.7460
 
  0.3888889E+00  0.0000000E+00  0.0000000E+00  0.1286008E-03
   1       -2.6963
   2       -2.2631
   3       -2.1214
   4       -2.0913
   5       -2.0913
   6       -1.7959
   7       -1.7959
   8       -1.5507
   9       -0.6324
  10       -0.6324
  11       -0.3361
  12       -0.3361
  13       -0.1860
  14        0.3495
  15        0.3495
  16        0.4245
  17        0.4245
  18        0.4846
  19        0.7774
  20        1.1266
  21        1.3385
  22        1.3385
  23        8.9515
  24        8.9515
  25       11.6526
  26       11.6526
  27       11.8336
  28       11.8336
  29       12.9918
  30       12.9918
  31       18.0865
  32       18.0865
 
  0.4166667E+00  0.0000000E+00  0.0000000E+00  0.1286008E-03
   1       -2.5530
   2       -2.2327
   3       -2.0545
   4       -2.0377
   5       -2.0377
   6       -1.6749
   7       -1.6749
   8       -1.6228
   9       -0.7997
  10       -0.7997
  11       -0.2511
  12       -0.2511
  13       -0.1640
  14        0.2942
  15        0.2942
  16        0.3235
  17        0.3235
  18        0.5196
  19        0.7412
  20        0.8234
  21        1.3386
  22        1.3386
  23        9.3016
  24        9.3016
  25       11.4707
  26       11.4707
  27       11.6858
  28       11.6858
  29       12.8726
  30       12.8726
  31       18.4421
  32       18.4421
 
  0.4444444E+00  0.0000000E+00  0.0000000E+00  0.1286008E-03
   1       -2.4291
   2       -2.2190
   3       -1.9964
   4       -1.9964
   5       -1.9853
   6       -1.6957
   7       -1.5463
   8       -1.5463
   9       -0.9617
  10       -0.9617
  11       -0.1622
  12       -0.1622
  13       -0.1083
  14        0.2229
  15        0.2229
  16        0.2516
  17        0.2516
  18        0.5527
  19        0.5557
  20        0.7043
  21        1.3386
  22        1.3386
  23        9.6567
  24        9.6567
  25       11.1063
  26       11.1063
  27       11.7147
  28       11.7147
  29       12.7818
  30       12.7818
  31       18.8114
  32       18.8114
 
  0.4722222E+00  0.0000000E+00  0.0000000E+00  0.1286008E-03
   1       -2.3313
   2       -2.2277
   3       -1.9703
   4       -1.9703
   5       -1.9144
   6       -1.7690
   7       -1.4105
   8       -1.4105
   9       -1.1178
  10       -1.1178
  11       -0.0698
  12       -0.0698
  13       -0.0114
  14        0.1234
  15        0.1234
  16        0.2247
  17        0.2247
  18        0.3202
  19        0.5924
  20        0.6670
  21        1.3386
  22        1.3386
  23       10.0158
  24       10.0158
  25       10.7416
  26       10.7416
  27       11.7348
  28       11.7348
  29       12.7243
  30       12.7243
  31       19.1926
  32       19.1926
 
  0.5000000E+00  0.0000000E+00  0.0000000E+00  0.6430041E-04
   1       -2.2641
   2       -2.2641
   3       -1.9614
   4       -1.9614
   5       -1.8421
   6       -1.8421
   7       -1.2675
   8       -1.2675
   9       -1.2675
  10       -1.2675
  11        0.0256
  12        0.0256
  13        0.0256
  14        0.0256
  15        0.1312
  16        0.1312
  17        0.2155
  18        0.2155
  19        0.6296
  20        0.6296
  21        1.3386
  22        1.3386
  23       10.3777
  24       10.3777
  25       10.3777
  26       10.3777
  27       11.7421
  28       11.7421
  29       12.7045
  30       12.7045
  31       19.5840
  32       19.5840
 
  0.2777778E-01  0.2777778E-01  0.0000000E+00  0.2572016E-03
   1       -4.1130
   2       -2.7825
   3       -2.7825
   4       -2.7816
   5       -2.6215
   6       -2.6215
   7       -2.6199
   8       -0.9561
   9       -0.9464
  10       -0.9443
  11        0.2081
  12        0.2134
  13        1.0602
  14        1.0632
  15        1.0632
  16        1.3041
  17        1.3128
  18        1.3128
  19        1.3314
  20        1.3314
  21        1.3334
  22        5.6646
  23        5.6646
  24        5.7475
  25       11.4178
  26       11.4870
  27       11.4870
  28       15.2320
  29       15.3611
  30       15.3611
  31       15.3616
  32       15.3616
 
  0.5555556E-01  0.2777778E-01  0.0000000E+00  0.5144033E-03
   1       -4.0873
   2       -2.7713
   3       -2.7681
   4       -2.7674
   5       -2.6130
   6       -2.6086
   7       -2.6068
   8       -0.9659
   9       -0.9376
  10       -0.9345
  11        0.1982
  12        0.2170
  13        1.0455
  14        1.0478
  15        1.0574
  16        1.2517
  17        1.2583
  18        1.2954
  19        1.3135
  20        1.3312
  21        1.3314
  22        5.5002
  23        5.7396
  24        5.8224
  25       11.4206
  26       11.4902
  27       11.6891
  28       15.0697
  29       15.2763
  30       15.2770
  31       15.4061
  32       15.4074
 
  0.8333333E-01  0.2777778E-01  0.0000000E+00  0.5144033E-03
   1       -4.0447
   2       -2.7528
   3       -2.7444
   4       -2.7441
   5       -2.5990
   6       -2.5871
   7       -2.5850
   8       -0.9836
   9       -0.9214
  10       -0.9182
  11        0.1803
  12        0.2247
  13        1.0214
  14        1.0217
  15        1.0478
  16        1.1653
  17        1.1724
  18        1.2668
  19        1.2840
  20        1.3307
  21        1.3315
  22        5.2489
  23        5.8604
  24        5.9430
  25       11.4252
  26       11.4956
  27       12.0032
  28       14.8677
  29       15.1407
  30       15.1436
  31       15.3495
  32       15.4839
 
  0.1111111E+00  0.2777778E-01  0.0000000E+00  0.5144033E-03
   1       -3.9855
   2       -2.7272
   3       -2.7119
   4       -2.7115
   5       -2.5794
   6       -2.5571
   7       -2.5544
   8       -1.0083
   9       -0.8985
  10       -0.8954
  11        0.1557
  12        0.2354
  13        0.9816
  14        0.9880
  15        1.0341
  16        1.0514
  17        1.0638
  18        1.2279
  19        1.2434
  20        1.3306
  21        1.3315
  22        4.9341
  23        6.0217
  24        6.1044
  25       11.4320
  26       11.5033
  27       12.4057
  28       14.6347
  29       14.9587
  30       14.9732
  31       15.2417
  32       15.5900
 
  0.1388889E+00  0.2777778E-01  0.0000000E+00  0.5144033E-03
   1       -3.9099
   2       -2.6950
   3       -2.6713
   4       -2.6701
   5       -2.5545
   6       -2.5185
   7       -2.5152
   8       -1.0397
   9       -0.8691
  10       -0.8663
  11        0.1249
  12        0.2492
  13        0.8979
  14        0.9156
  15        0.9458
  16        0.9682
  17        1.0160
  18        1.1797
  19        1.1924
  20        1.3306
  21        1.3316
  22        4.5768
  23        6.2177
  24        6.3008
  25       11.4410
  26       11.5137
  27       12.8756
  28       14.3789
  29       14.7378
  30       14.7760
  31       15.0903
  32       15.7239
 
  0.1666667E+00  0.2777778E-01  0.0000000E+00  0.5144033E-03
   1       -3.8186
   2       -2.6566
   3       -2.6228
   4       -2.6207
   5       -2.5242
   6       -2.4714
   7       -2.4674
   8       -1.0774
   9       -0.8333
  10       -0.8309
  11        0.0889
  12        0.2659
  13        0.7549
  14        0.7632
  15        0.8954
  16        0.9073
  17        0.9924
  18        1.1243
  19        1.1319
  20        1.3307
  21        1.3317
  22        4.1933
  23        6.4431
  24        6.5270
  25       11.4524
  26       11.5269
  27       13.3964
  28       14.1067
  29       14.4844
  30       14.5623
  31       14.9046
  32       15.8865
 
  0.1944444E+00  0.2777778E-01  0.0000000E+00  0.5144033E-03
   1       -3.7122
   2       -2.6127
   3       -2.5673
   4       -2.5642
   5       -2.4888
   6       -2.4158
   7       -2.4110
   8       -1.1210
   9       -0.7913
  10       -0.7893
  11        0.0485
  12        0.2854
  13        0.5923
  14        0.5990
  15        0.8376
  16        0.8468
  17        0.9603
  18        1.0627
  19        1.0657
  20        1.3308
  21        1.3317
  22        3.7956
  23        6.6928
  24        6.7781
  25       11.4664
  26       11.5432
  27       13.8229
  28       13.9557
  29       14.2047
  30       14.3406
  31       14.6944
  32       16.0782
 
  0.2222222E+00  0.2777778E-01  0.0000000E+00  0.5144033E-03
   1       -3.5919
   2       -2.5642
   3       -2.5055
   4       -2.5016
   5       -2.4486
   6       -2.3517
   7       -2.3463
   8       -1.1701
   9       -0.7432
  10       -0.7418
  11        0.0052
  12        0.3075
  13        0.4206
  14        0.4268
  15        0.7735
  16        0.7814
  17        0.9136
  18        0.9859
  19        1.0112
  20        1.3309
  21        1.3318
  22        3.3926
  23        6.9627
  24        7.0500
  25       11.4833
  26       11.5628
  27       13.5308
  28       13.9037
  29       14.1180
  30       14.4686
  31       14.5443
  32       16.2916
 
  0.2500000E+00  0.2777778E-01  0.0000000E+00  0.5144033E-03
   1       -3.4587
   2       -2.5121
   3       -2.4387
   4       -2.4340
   5       -2.4036
   6       -2.2793
   7       -2.2734
   8       -1.2241
   9       -0.6890
  10       -0.6886
  11       -0.0393
  12        0.2437
  13        0.2498
  14        0.3321
  15        0.7042
  16        0.7112
  17        0.8475
  18        0.9025
  19        0.9666
  20        1.3310
  21        1.3319
  22        2.9909
  23        7.2495
  24        7.3395
  25       11.5030
  26       11.5861
  27       13.2324
  28       13.5858
  29       13.8999
  30       14.2357
  31       15.1549
  32       16.5297
 
  0.2777778E+00  0.2777778E-01  0.0000000E+00  0.5144033E-03
   1       -3.3146
   2       -2.4578
   3       -2.3683
   4       -2.3631
   5       -2.3542
   6       -2.1986
   7       -2.1925
   8       -1.2825
   9       -0.6301
  10       -0.6291
  11       -0.0826
  12        0.0645
  13        0.0706
  14        0.3590
  15        0.6314
  16        0.6377
  17        0.7666
  18        0.8136
  19        0.9287
  20        1.3312
  21        1.3319
  22        2.5960
  23        7.5502
  24        7.6437
  25       11.5252
  26       11.6132
  27       12.9288
  28       13.2544
  29       13.6908
  30       14.0030
  31       15.7814
  32       16.7907
 
  0.3055556E+00  0.2777778E-01  0.0000000E+00  0.5144033E-03
   1       -3.1619
   2       -2.4027
   3       -2.3006
   4       -2.2959
   5       -2.2905
   6       -2.1096
   7       -2.1038
   8       -1.3448
   9       -0.5669
  10       -0.5636
  11       -0.1215
  12       -0.1148
  13       -0.1088
  14        0.3881
  15        0.5569
  16        0.5626
  17        0.6765
  18        0.7203
  19        0.8931
  20        1.3313
  21        1.3320
  22        2.2121
  23        7.8625
  24        7.9602
  25       11.5489
  26       11.6439
  27       12.6212
  28       12.9126
  29       13.4944
  30       13.7772
  31       16.4182
  32       17.0789
 
  0.3333333E+00  0.2777778E-01  0.0000000E+00  0.5144033E-03
   1       -3.0039
   2       -2.3491
   3       -2.2432
   4       -2.2236
   5       -2.2186
   6       -2.0125
   7       -2.0073
   8       -1.4104
   9       -0.5002
  10       -0.4928
  11       -0.2926
  12       -0.2868
  13       -0.1514
  14        0.4192
  15        0.4830
  16        0.4880
  17        0.5805
  18        0.6237
  19        0.8574
  20        1.3314
  21        1.3321
  22        1.8434
  23        8.1843
  24        8.2873
  25       11.5703
  26       11.6781
  27       12.3132
  28       12.5628
  29       13.3139
  30       13.5638
  31       17.0590
  32       17.3726
 
  0.3611111E+00  0.2777778E-01  0.0000000E+00  0.5144033E-03
   1       -2.8447
   2       -2.2996
   3       -2.1823
   4       -2.1542
   5       -2.1497
   6       -1.9074
   7       -1.9032
   8       -1.4787
   9       -0.4676
  10       -0.4621
  11       -0.4321
  12       -0.4169
  13       -0.1658
  14        0.4123
  15        0.4167
  16        0.4521
  17        0.4802
  18        0.5247
  19        0.8211
  20        1.3316
  21        1.3321
  22        1.4942
  23        8.5139
  24        8.6233
  25       11.5742
  26       11.7146
  27       12.0197
  28       12.2070
  29       13.1525
  30       13.3675
  31       17.6776
  32       17.7031
 
  0.3888889E+00  0.2777778E-01  0.0000000E+00  0.5144033E-03
   1       -2.6901
   2       -2.2574
   3       -2.1182
   4       -2.0905
   5       -2.0869
   6       -1.7944
   7       -1.7915
   8       -1.5491
   9       -0.6387
  10       -0.6336
  11       -0.3659
  12       -0.3363
  13       -0.1555
  14        0.3479
  15        0.3515
  16        0.3766
  17        0.4243
  18        0.4864
  19        0.7837
  20        1.1693
  21        1.3317
  22        1.3321
  23        8.8496
  24        8.9668
  25       11.4835
  26       11.7519
  27       11.8172
  28       11.8469
  29       13.0136
  30       13.1923
  31       18.0233
  32       18.0400
 
  0.4166667E+00  0.2777778E-01  0.0000000E+00  0.5144033E-03
   1       -2.5471
   2       -2.2270
   3       -2.0515
   4       -2.0360
   5       -2.0333
   6       -1.6736
   7       -1.6721
   8       -1.6209
   9       -0.8051
  10       -0.8004
  11       -0.3031
  12       -0.2514
  13       -0.1120
  14        0.2701
  15        0.2929
  16        0.2957
  17        0.3233
  18        0.5221
  19        0.7434
  20        0.8758
  21        1.3318
  22        1.3321
  23        9.1900
  24        9.3165
  25       11.2239
  26       11.4841
  27       11.7789
  28       11.7868
  29       12.9018
  30       13.0419
  31       18.3718
  32       18.3913
 
  0.4444444E+00  0.2777778E-01  0.0000000E+00  0.5144033E-03
   1       -2.4232
   2       -2.2132
   3       -1.9938
   4       -1.9921
   5       -1.9825
   6       -1.6937
   7       -1.5453
   8       -1.5451
   9       -0.9660
  10       -0.9620
  11       -0.2366
  12       -0.1624
  13       -0.0346
  14        0.1611
  15        0.2227
  16        0.2508
  17        0.2527
  18        0.5588
  19        0.6053
  20        0.7149
  21        1.3319
  22        1.3321
  23        9.5335
  24        9.6712
  25       10.9032
  26       11.1198
  27       11.7950
  28       11.8148
  29       12.8228
  30       12.9206
  31       18.7319
  32       18.7551
 
  0.4722222E+00  0.2777778E-01  0.0000000E+00  0.5144033E-03
   1       -2.3254
   2       -2.2219
   3       -1.9671
   4       -1.9662
   5       -1.9118
   6       -1.7668
   7       -1.4108
   8       -1.4097
   9       -1.1209
  10       -1.1177
  11       -0.1557
  12       -0.0700
  13        0.0505
  14        0.0727
  15        0.1231
  16        0.2243
  17        0.2253
  18        0.3884
  19        0.5964
  20        0.6734
  21        1.3320
  22        1.3321
  23        9.8787
  24       10.0300
  25       10.5666
  26       10.7553
  27       11.8171
  28       11.8308
  29       12.7828
  30       12.8335
  31       19.1014
  32       19.1290
 
  0.5000000E+00  0.2777778E-01  0.0000000E+00  0.2572016E-03
   1       -2.2582
   2       -2.2582
   3       -1.9576
   4       -1.9576
   5       -1.8397
   6       -1.8397
   7       -1.2693
   8       -1.2693
   9       -1.2671
  10       -1.2671
  11       -0.0578
  12       -0.0578
  13        0.0253
  14        0.0253
  15        0.2115
  16        0.2115
  17        0.2155
  18        0.2155
  19        0.6346
  20        0.6346
  21        1.3321
  22        1.3321
  23       10.2238
  24       10.2238
  25       10.3917
  26       10.3917
  27       11.8312
  28       11.8312
  29       12.7863
  30       12.7863
  31       19.4797
  32       19.4848
 
  0.5555556E-01  0.5555556E-01  0.0000000E+00  0.2572016E-03
   1       -4.0618
   2       -2.7569
   3       -2.7569
   4       -2.7541
   5       -2.6002
   6       -2.6002
   7       -2.5931
   8       -0.9714
   9       -0.9329
  10       -0.9250
  11        0.1941
  12        0.2152
  13        1.0311
  14        1.0399
  15        1.0399
  16        1.2087
  17        1.2429
  18        1.2429
  19        1.3135
  20        1.3135
  21        1.3212
  22        5.5743
  23        5.5743
  24        5.8957
  25       11.4233
  26       11.6934
  27       11.6934
  28       14.8395
  29       15.3213
  30       15.3213
  31       15.3226
  32       15.3226
 
  0.8333333E-01  0.5555556E-01  0.0000000E+00  0.5144033E-03
   1       -4.0194
   2       -2.7383
   3       -2.7331
   4       -2.7321
   5       -2.5863
   6       -2.5788
   7       -2.5703
   8       -0.9862
   9       -0.9194
  10       -0.9090
  11        0.1793
  12        0.2203
  13        1.0073
  14        1.0084
  15        1.0264
  16        1.1300
  17        1.1623
  18        1.2180
  19        1.2840
  20        1.3135
  21        1.3155
  22        5.3220
  23        5.6934
  24        6.0141
  25       11.4280
  26       11.7006
  27       12.0088
  28       14.5802
  29       15.1856
  30       15.1870
  31       15.3958
  32       15.3983
 
  0.1111111E+00  0.5555556E-01  0.0000000E+00  0.5144033E-03
   1       -3.9604
   2       -2.7126
   3       -2.7016
   4       -2.7002
   5       -2.5668
   6       -2.5489
   7       -2.5384
   8       -1.0096
   9       -0.8977
  10       -0.8868
  11        0.1559
  12        0.2306
  13        0.9536
  14        0.9744
  15        1.0063
  16        1.0213
  17        1.0684
  18        1.1851
  19        1.2433
  20        1.3128
  21        1.3135
  22        5.0065
  23        5.8522
  24        6.1727
  25       11.4347
  26       11.7110
  27       12.4126
  28       14.3000
  29       15.0027
  30       15.0149
  31       15.4948
  32       15.4997
 
  0.1388889E+00  0.5555556E-01  0.0000000E+00  0.5144033E-03
   1       -3.8852
   2       -2.6803
   3       -2.6631
   4       -2.6586
   5       -2.5420
   6       -2.5105
   7       -2.4976
   8       -1.0401
   9       -0.8689
  10       -0.8585
  11        0.1259
  12        0.2446
  13        0.8549
  14        0.8898
  15        0.9328
  16        0.9782
  17        0.9880
  18        1.1463
  19        1.1923
  20        1.3115
  21        1.3135
  22        4.6489
  23        6.0447
  24        6.3662
  25       11.4436
  26       11.7247
  27       12.8834
  28       14.0060
  29       14.7809
  30       14.8160
  31       15.4109
  32       15.6308
 
  0.1666667E+00  0.5555556E-01  0.0000000E+00  0.5144033E-03
   1       -3.7944
   2       -2.6418
   3       -2.6170
   4       -2.6092
   5       -2.5120
   6       -2.4636
   7       -2.4480
   8       -1.0772
   9       -0.8334
  10       -0.8241
  11        0.0907
  12        0.2619
  13        0.7162
  14        0.7411
  15        0.8831
  16        0.9232
  17        0.9400
  18        1.1045
  19        1.1317
  20        1.3109
  21        1.3135
  22        4.2658
  23        6.2653
  24        6.5894
  25       11.4547
  26       11.7421
  27       13.4049
  28       13.7037
  29       14.5267
  30       14.6007
  31       15.2806
  32       15.7894
 
  0.1944444E+00  0.5555556E-01  0.0000000E+00  0.5144033E-03
   1       -3.6886
   2       -2.5978
   3       -2.5639
   4       -2.5525
   5       -2.4769
   6       -2.4083
   7       -2.3900
   8       -1.1202
   9       -0.7916
  10       -0.7839
  11        0.0513
  12        0.2821
  13        0.5575
  14        0.5802
  15        0.8261
  16        0.8596
  17        0.8897
  18        1.0625
  19        1.0628
  20        1.3107
  21        1.3135
  22        3.8692
  23        6.5091
  24        6.8377
  25       11.4680
  26       11.7633
  27       13.3973
  28       13.9647
  29       14.2461
  30       14.3778
  31       15.1136
  32       15.9738
 
  0.2222222E+00  0.5555556E-01  0.0000000E+00  0.5144033E-03
   1       -3.5688
   2       -2.5491
   3       -2.5044
   4       -2.4897
   5       -2.4369
   6       -2.3445
   7       -2.3239
   8       -1.1687
   9       -0.7436
  10       -0.7383
  11        0.0094
  12        0.3051
  13        0.3883
  14        0.4110
  15        0.7628
  16        0.7924
  17        0.8267
  18        0.9856
  19        1.0229
  20        1.3106
  21        1.3135
  22        3.4680
  23        6.7718
  24        7.1070
  25       11.4833
  26       11.7885
  27       13.0902
  28       13.9445
  29       14.1543
  30       14.5535
  31       14.9196
  32       16.1825
 
  0.2500000E+00  0.5555556E-01  0.0000000E+00  0.5144033E-03
   1       -3.4364
   2       -2.4968
   3       -2.4395
   4       -2.4220
   5       -2.3922
   6       -2.2724
   7       -2.2501
   8       -1.2221
   9       -0.6895
  10       -0.6878
  11       -0.0330