 running on    8 nodes
 distr:  one band on    1 nodes,    8 groups
 vasp.4.6.28 25Jul05 complex 
 POSCAR found :  1 types and    4 ions
 WARNING: PSMAXN for non-local potential too small
 LDA part: xc-table for Pade appr. of Perdew
 POSCAR, INCAR and KPOINTS ok, starting setup
 FFT: planning ...           1
 reading WAVECAR
 entering main loop
       N       E                     dE             d eps       ncg     rms          rms(c)
DAV:   1     0.552173232746E+03    0.55217E+03   -0.32885E+04 85128   0.242E+03
DAV:   2     0.387749569218E+01   -0.54830E+03   -0.51443E+03 85208   0.508E+02
DAV:   3    -0.118851353917E+02   -0.15763E+02   -0.15621E+02 99640   0.112E+02
DAV:   4    -0.119786756298E+02   -0.93540E-01   -0.93523E-01 91312   0.742E+00
DAV:   5    -0.119790378105E+02   -0.36218E-03   -0.36218E-03100072   0.388E-01    0.610E+00
DAV:   6    -0.110140527728E+02    0.96499E+00   -0.24914E+00 96376   0.168E+01    0.119E+00
DAV:   7    -0.109731979782E+02    0.40855E-01   -0.70622E-02 92200   0.179E+00    0.525E-01
DAV:   8    -0.109578022932E+02    0.15396E-01   -0.48845E-03 92000   0.668E-01    0.502E-02
DAV:   9    -0.109579160439E+02   -0.11375E-03   -0.19746E-04 98512   0.121E-01    0.311E-02
DAV:  10    -0.109578752004E+02    0.40843E-04   -0.15641E-05 94456   0.335E-02    0.290E-03
DAV:  11    -0.109578727786E+02    0.24219E-05   -0.42560E-07 98216   0.388E-03    0.537E-04
DAV:  12    -0.109578725603E+02    0.21826E-06   -0.15104E-08 77304   0.868E-04    0.129E-04
DAV:  13    -0.109578723244E+02    0.23594E-06   -0.14629E-09 56080   0.305E-04    0.232E-05
DAV:  14    -0.109578722905E+02    0.33891E-07   -0.99082E-11 52000   0.111E-04    0.143E-05
DAV:  15    -0.109578722884E+02    0.20455E-08   -0.23389E-11 50984   0.464E-05
   1 F= -.10957872E+02 E0= -.10957850E+02  d E =-.442977E-04
