 vasp.4.6.28 25Jul05 complex 
 executed on             LinuxIFC date 2017.01.14  06:20:37
 running on    8 nodes
 distr:  one band on    1 nodes,    8 groups


--------------------------------------------------------------------------------------------------------


 INCAR:
 POTCAR:   PAW_PBE Ag 06Sep2000                   
 POTCAR:   PAW_PBE Ag 06Sep2000                   
   VRHFIN =Ag : s1 d10                                                          
   LEXCH  = PE                                                                  
   EATOM  =  1037.4134 eV,   76.2477 Ry                                         
                                                                                
   TITEL  = PAW_PBE Ag 06Sep2000                                                
   LULTRA =        F    use ultrasoft PP ?                                      
   IUNSCR =        1    unscreen: 0-lin 1-nonlin 2-no                           
   RPACOR =    2.000    partial core radius                                     
   POMASS =  107.868; ZVAL   =   11.000    mass and valenz                      
   RCORE  =    2.400    outmost cutoff radius                                   
   RWIGS  =    2.840; RWIGS  =    1.503    wigner-seitz radius (au A)           
   ENMAX  =  249.846; ENMIN  =  187.385 eV                                      
   RCLOC  =    1.962    cutoff for local pot                                    
   LCOR   =        T    correct aug charges                                     
   LPAW   =        T    paw PP                                                  
   EAUG   =  412.496                                                            
   DEXC   =    -.047                                                            
   RMAX   =    2.917    core radius for proj-oper                               
   RAUG   =    1.300    factor for augmentation sphere                          
   RDEP   =    2.416    radius for radial grids                                 
   QCUT   =   -4.285; QGAM   =    8.570    optimization parameters              
                                                                                
   Description                                                                  
     l     E      TYP  RCUT    TYP  RCUT                                        
     2   .000     23  2.400                                                     
     2   .000     23  2.400                                                     
     0   .000     23  2.400                                                     
     0   .000     23  2.400                                                     
     1  -.200     23  2.400                                                     
     1  1.500     23  2.400                                                     
     3   .000      7   .000                                                     
  local pseudopotential read in
  partial core-charges read in
  atomic valenz-charges read in
  non local Contribution for L=           2  read in
    real space projection operators read in
  non local Contribution for L=           2  read in
    real space projection operators read in
  non local Contribution for L=           0  read in
    real space projection operators read in
  non local Contribution for L=           0  read in
    real space projection operators read in
  non local Contribution for L=           1  read in
    real space projection operators read in
  non local Contribution for L=           1  read in
    real space projection operators read in
    PAW grid and wavefunctions read in
 
   number of l-projection  operators is LMAX  =           6
   number of lm-projection operators is LMMAX =          18
 
 WARNING: PSMAXN for non-local potential too small
          PSMAXN should be >   16.2007969712021       NTYP=           1
 PAW_PBE Ag 06Sep2000                   :
 energy of atom  1       EATOM=-1037.4134
 kinetic energy error for atom=    0.0003 (will be added to EATOM!!)
 
 EXHCAR: internal setup
 exchange correlation table for  LEXCH =        8
   RHO(1)=    0.500       N(1)  =     2000
   RHO(2)=  100.500       N(2)  =     4000
 
 POSCAR: Ag                                      
  positions in direct lattice
  velocities in cartesian coordinates
 


--------------------------------------------------------------------------------------------------------


 ion  position               nearest neighbor table
   1  0.000  0.000  0.000-   2 2.83   3 2.83   4 2.83   3 2.83   4 2.83   2 2.83   4 2.83   4 2.83
                             2 2.83   3 2.83   3 2.83   2 2.83
   2  0.500  0.500  0.000-   1 2.83   3 2.83   4 2.83   3 2.83   4 2.83   1 2.83   3 2.83   3 2.83
                             1 2.83   4 2.83   4 2.83   1 2.83
   3  0.500  0.000  0.500-   1 2.83   2 2.83   4 2.83   1 2.83   2 2.83   2 2.83   4 2.83   2 2.83
                             1 2.83   4 2.83   1 2.83   4 2.83
   4  0.000  0.500  0.500-   1 2.83   2 2.83   3 2.83   1 2.83   2 2.83   1 2.83   3 2.83   1 2.83
                             2 2.83   3 2.83   2 2.83   3 2.83
 
  LATTYP: Found a simple cubic cell.
 ALAT       =     3.9972183612
  
  Lattice vectors:
  
 A1 = (   3.9972183612,   0.0000000000,   0.0000000000)
 A2 = (   0.0000000000,   3.9972183612,   0.0000000000)
 A3 = (   0.0000000000,   0.0000000000,   3.9972183612)
 Subroutine PRICEL returns following result:
 
  LATTYP: Found a face centered cubic cell.
 ALAT       =     3.9972183612
  
  Lattice vectors:
  
 A1 = (   1.9986091806,   1.9986091806,  -0.0000000000)
 A2 = (   1.9986091806,   0.0000000000,  -1.9986091806)
 A3 = (   0.0000000000,   1.9986091806,  -1.9986091806)
 
   4 primitive cells build up your supercell.
 

Analysis of symmetry for initial positions (statically):

 Routine SETGRP: Setting up the symmetry group for a 
 simple cubic supercell.


 Subroutine GETGRP returns: Found 48 space group operations
 (whereof 48 operations were pure point group operations)
 out of a pool of 48 trial point group operations.


The static configuration has the point symmetry O_h .

Analysis of symmetry for dynamics (positions and initial velocities):

 Subroutine DYNSYM returns: Found 48 space group operations
 (whereof 48 operations were pure point group operations)
 out of a pool of 48 trial space group operations
 (whereof 48 operations were pure point group operations)
 and found also     4 'primitive' translations


The dynamic configuration has the point symmetry O_h .
 
 
 KPOINTS: Automatic mesh                          

Automatic generation of k-mesh.
 
 Subroutine IBZKPT returns following result:
 ===========================================
 
 Found   1330 irreducible k-points:
 
 Following reciprocal coordinates:
            Coordinates               Weight
  0.000000  0.000000  0.000000      1.000000
  0.027778  0.000000  0.000000      6.000000
  0.055556  0.000000  0.000000      6.000000
  0.083333  0.000000  0.000000      6.000000
  0.111111  0.000000  0.000000      6.000000
  0.138889  0.000000  0.000000      6.000000
  0.166667  0.000000  0.000000      6.000000
  0.194444  0.000000  0.000000      6.000000
  0.222222  0.000000  0.000000      6.000000
  0.250000  0.000000  0.000000      6.000000
  0.277778  0.000000  0.000000      6.000000
  0.305556  0.000000  0.000000      6.000000
  0.333333  0.000000  0.000000      6.000000
  0.361111  0.000000  0.000000      6.000000
  0.388889  0.000000  0.000000      6.000000
  0.416667  0.000000  0.000000      6.000000
  0.444444  0.000000  0.000000      6.000000
  0.472222  0.000000  0.000000      6.000000
  0.500000  0.000000  0.000000      3.000000
  0.027778  0.027778  0.000000     12.000000
  0.055556  0.027778  0.000000     24.000000
  0.083333  0.027778  0.000000     24.000000
  0.111111  0.027778  0.000000     24.000000
  0.138889  0.027778  0.000000     24.000000
  0.166667  0.027778  0.000000     24.000000
  0.194444  0.027778  0.000000     24.000000
  0.222222  0.027778  0.000000     24.000000
  0.250000  0.027778  0.000000     24.000000
  0.277778  0.027778  0.000000     24.000000
  0.305556  0.027778  0.000000     24.000000
  0.333333  0.027778  0.000000     24.000000
  0.361111  0.027778  0.000000     24.000000
  0.388889  0.027778  0.000000     24.000000
  0.416667  0.027778  0.000000     24.000000
  0.444444  0.027778  0.000000     24.000000
  0.472222  0.027778  0.000000     24.000000
  0.500000  0.027778  0.000000     12.000000
  0.055556  0.055556  0.000000     12.000000
  0.083333  0.055556  0.000000     24.000000
  0.111111  0.055556  0.000000     24.000000
  0.138889  0.055556  0.000000     24.000000
  0.166667  0.055556  0.000000     24.000000
  0.194444  0.055556  0.000000     24.000000
  0.222222  0.055556  0.000000     24.000000
  0.250000  0.055556  0.000000     24.000000
  0.277778  0.055556  0.000000     24.000000
  0.305556  0.055556  0.000000     24.000000
  0.333333  0.055556  0.000000     24.000000
  0.361111  0.055556  0.000000     24.000000
  0.388889  0.055556  0.000000     24.000000
  0.416667  0.055556  0.000000     24.000000
  0.444444  0.055556  0.000000     24.000000
  0.472222  0.055556  0.000000     24.000000
  0.500000  0.055556  0.000000     12.000000
  0.083333  0.083333  0.000000     12.000000
  0.111111  0.083333  0.000000     24.000000
  0.138889  0.083333  0.000000     24.000000
  0.166667  0.083333  0.000000     24.000000
  0.194444  0.083333  0.000000     24.000000
  0.222222  0.083333  0.000000     24.000000
  0.250000  0.083333  0.000000     24.000000
  0.277778  0.083333  0.000000     24.000000
  0.305556  0.083333  0.000000     24.000000
  0.333333  0.083333  0.000000     24.000000
  0.361111  0.083333  0.000000     24.000000
  0.388889  0.083333  0.000000     24.000000
  0.416667  0.083333  0.000000     24.000000
  0.444444  0.083333  0.000000     24.000000
  0.472222  0.083333  0.000000     24.000000
  0.500000  0.083333  0.000000     12.000000
  0.111111  0.111111  0.000000     12.000000
  0.138889  0.111111  0.000000     24.000000
  0.166667  0.111111  0.000000     24.000000
  0.194444  0.111111  0.000000     24.000000
  0.222222  0.111111  0.000000     24.000000
  0.250000  0.111111  0.000000     24.000000
  0.277778  0.111111  0.000000     24.000000
  0.305556  0.111111  0.000000     24.000000
  0.333333  0.111111  0.000000     24.000000
  0.361111  0.111111  0.000000     24.000000
  0.388889  0.111111  0.000000     24.000000
  0.416667  0.111111  0.000000     24.000000
  0.444444  0.111111  0.000000     24.000000
  0.472222  0.111111  0.000000     24.000000
  0.500000  0.111111  0.000000     12.000000
  0.138889  0.138889  0.000000     12.000000
  0.166667  0.138889  0.000000     24.000000
  0.194444  0.138889  0.000000     24.000000
  0.222222  0.138889  0.000000     24.000000
  0.250000  0.138889  0.000000     24.000000
  0.277778  0.138889  0.000000     24.000000
  0.305556  0.138889  0.000000     24.000000
  0.333333  0.138889  0.000000     24.000000
  0.361111  0.138889  0.000000     24.000000
  0.388889  0.138889  0.000000     24.000000
  0.416667  0.138889  0.000000     24.000000
  0.444444  0.138889  0.000000     24.000000
  0.472222  0.138889  0.000000     24.000000
  0.500000  0.138889  0.000000     12.000000
  0.166667  0.166667  0.000000     12.000000
  0.194444  0.166667  0.000000     24.000000
  0.222222  0.166667  0.000000     24.000000
  0.250000  0.166667  0.000000     24.000000
  0.277778  0.166667  0.000000     24.000000
  0.305556  0.166667  0.000000     24.000000
  0.333333  0.166667  0.000000     24.000000
  0.361111  0.166667  0.000000     24.000000
  0.388889  0.166667  0.000000     24.000000
  0.416667  0.166667  0.000000     24.000000
  0.444444  0.166667  0.000000     24.000000
  0.472222  0.166667  0.000000     24.000000
  0.500000  0.166667  0.000000     12.000000
  0.194444  0.194444  0.000000     12.000000
  0.222222  0.194444  0.000000     24.000000
  0.250000  0.194444  0.000000     24.000000
  0.277778  0.194444  0.000000     24.000000
  0.305556  0.194444  0.000000     24.000000
  0.333333  0.194444  0.000000     24.000000
  0.361111  0.194444  0.000000     24.000000
  0.388889  0.194444  0.000000     24.000000
  0.416667  0.194444  0.000000     24.000000
  0.444444  0.194444  0.000000     24.000000
  0.472222  0.194444  0.000000     24.000000
  0.500000  0.194444  0.000000     12.000000
  0.222222  0.222222  0.000000     12.000000
  0.250000  0.222222  0.000000     24.000000
  0.277778  0.222222  0.000000     24.000000
  0.305556  0.222222  0.000000     24.000000
  0.333333  0.222222  0.000000     24.000000
  0.361111  0.222222  0.000000     24.000000
  0.388889  0.222222  0.000000     24.000000
  0.416667  0.222222  0.000000     24.000000
  0.444444  0.222222  0.000000     24.000000
  0.472222  0.222222  0.000000     24.000000
  0.500000  0.222222  0.000000     12.000000
  0.250000  0.250000  0.000000     12.000000
  0.277778  0.250000  0.000000     24.000000
  0.305556  0.250000  0.000000     24.000000
  0.333333  0.250000  0.000000     24.000000
  0.361111  0.250000  0.000000     24.000000
  0.388889  0.250000  0.000000     24.000000
  0.416667  0.250000  0.000000     24.000000
  0.444444  0.250000  0.000000     24.000000
  0.472222  0.250000  0.000000     24.000000
  0.500000  0.250000  0.000000     12.000000
  0.277778  0.277778  0.000000     12.000000
  0.305556  0.277778  0.000000     24.000000
  0.333333  0.277778  0.000000     24.000000
  0.361111  0.277778  0.000000     24.000000
  0.388889  0.277778  0.000000     24.000000
  0.416667  0.277778  0.000000     24.000000
  0.444444  0.277778  0.000000     24.000000
  0.472222  0.277778  0.000000     24.000000
  0.500000  0.277778  0.000000     12.000000
  0.305556  0.305556  0.000000     12.000000
  0.333333  0.305556  0.000000     24.000000
  0.361111  0.305556  0.000000     24.000000
  0.388889  0.305556  0.000000     24.000000
  0.416667  0.305556  0.000000     24.000000
  0.444444  0.305556  0.000000     24.000000
  0.472222  0.305556  0.000000     24.000000
  0.500000  0.305556  0.000000     12.000000
  0.333333  0.333333  0.000000     12.000000
  0.361111  0.333333  0.000000     24.000000
  0.388889  0.333333  0.000000     24.000000
  0.416667  0.333333  0.000000     24.000000
  0.444444  0.333333  0.000000     24.000000
  0.472222  0.333333  0.000000     24.000000
  0.500000  0.333333  0.000000     12.000000
  0.361111  0.361111  0.000000     12.000000
  0.388889  0.361111  0.000000     24.000000
  0.416667  0.361111  0.000000     24.000000
  0.444444  0.361111  0.000000     24.000000
  0.472222  0.361111  0.000000     24.000000
  0.500000  0.361111  0.000000     12.000000
  0.388889  0.388889  0.000000     12.000000
  0.416667  0.388889  0.000000     24.000000
  0.444444  0.388889  0.000000     24.000000
  0.472222  0.388889  0.000000     24.000000
  0.500000  0.388889  0.000000     12.000000
  0.416667  0.416667  0.000000     12.000000
  0.444444  0.416667  0.000000     24.000000
  0.472222  0.416667  0.000000     24.000000
  0.500000  0.416667  0.000000     12.000000
  0.444444  0.444444  0.000000     12.000000
  0.472222  0.444444  0.000000     24.000000
  0.500000  0.444444  0.000000     12.000000
  0.472222  0.472222  0.000000     12.000000
  0.500000  0.472222  0.000000     12.000000
  0.500000  0.500000  0.000000      3.000000
  0.027778  0.027778  0.027778      8.000000
  0.055556  0.027778  0.027778     24.000000
  0.083333  0.027778  0.027778     24.000000
  0.111111  0.027778  0.027778     24.000000
  0.138889  0.027778  0.027778     24.000000
  0.166667  0.027778  0.027778     24.000000
  0.194444  0.027778  0.027778     24.000000
  0.222222  0.027778  0.027778     24.000000
  0.250000  0.027778  0.027778     24.000000
  0.277778  0.027778  0.027778     24.000000
  0.305556  0.027778  0.027778     24.000000
  0.333333  0.027778  0.027778     24.000000
  0.361111  0.027778  0.027778     24.000000
  0.388889  0.027778  0.027778     24.000000
  0.416667  0.027778  0.027778     24.000000
  0.444444  0.027778  0.027778     24.000000
  0.472222  0.027778  0.027778     24.000000
  0.500000  0.027778  0.027778     12.000000
  0.055556  0.055556  0.027778     24.000000
  0.083333  0.055556  0.027778     48.000000
  0.111111  0.055556  0.027778     48.000000
  0.138889  0.055556  0.027778     48.000000
  0.166667  0.055556  0.027778     48.000000
  0.194444  0.055556  0.027778     48.000000
  0.222222  0.055556  0.027778     48.000000
  0.250000  0.055556  0.027778     48.000000
  0.277778  0.055556  0.027778     48.000000
  0.305556  0.055556  0.027778     48.000000
  0.333333  0.055556  0.027778     48.000000
  0.361111  0.055556  0.027778     48.000000
  0.388889  0.055556  0.027778     48.000000
  0.416667  0.055556  0.027778     48.000000
  0.444444  0.055556  0.027778     48.000000
  0.472222  0.055556  0.027778     48.000000
  0.500000  0.055556  0.027778     24.000000
  0.083333  0.083333  0.027778     24.000000
  0.111111  0.083333  0.027778     48.000000
  0.138889  0.083333  0.027778     48.000000
  0.166667  0.083333  0.027778     48.000000
  0.194444  0.083333  0.027778     48.000000
  0.222222  0.083333  0.027778     48.000000
  0.250000  0.083333  0.027778     48.000000
  0.277778  0.083333  0.027778     48.000000
  0.305556  0.083333  0.027778     48.000000
  0.333333  0.083333  0.027778     48.000000
  0.361111  0.083333  0.027778     48.000000
  0.388889  0.083333  0.027778     48.000000
  0.416667  0.083333  0.027778     48.000000
  0.444444  0.083333  0.027778     48.000000
  0.472222  0.083333  0.027778     48.000000
  0.500000  0.083333  0.027778     24.000000
  0.111111  0.111111  0.027778     24.000000
  0.138889  0.111111  0.027778     48.000000
  0.166667  0.111111  0.027778     48.000000
  0.194444  0.111111  0.027778     48.000000
  0.222222  0.111111  0.027778     48.000000
  0.250000  0.111111  0.027778     48.000000
  0.277778  0.111111  0.027778     48.000000
  0.305556  0.111111  0.027778     48.000000
  0.333333  0.111111  0.027778     48.000000
  0.361111  0.111111  0.027778     48.000000
  0.388889  0.111111  0.027778     48.000000
  0.416667  0.111111  0.027778     48.000000
  0.444444  0.111111  0.027778     48.000000
  0.472222  0.111111  0.027778     48.000000
  0.500000  0.111111  0.027778     24.000000
  0.138889  0.138889  0.027778     24.000000
  0.166667  0.138889  0.027778     48.000000
  0.194444  0.138889  0.027778     48.000000
  0.222222  0.138889  0.027778     48.000000
  0.250000  0.138889  0.027778     48.000000
  0.277778  0.138889  0.027778     48.000000
  0.305556  0.138889  0.027778     48.000000
  0.333333  0.138889  0.027778     48.000000
  0.361111  0.138889  0.027778     48.000000
  0.388889  0.138889  0.027778     48.000000
  0.416667  0.138889  0.027778     48.000000
  0.444444  0.138889  0.027778     48.000000
  0.472222  0.138889  0.027778     48.000000
  0.500000  0.138889  0.027778     24.000000
  0.166667  0.166667  0.027778     24.000000
  0.194444  0.166667  0.027778     48.000000
  0.222222  0.166667  0.027778     48.000000
  0.250000  0.166667  0.027778     48.000000
  0.277778  0.166667  0.027778     48.000000
  0.305556  0.166667  0.027778     48.000000
  0.333333  0.166667  0.027778     48.000000
  0.361111  0.166667  0.027778     48.000000
  0.388889  0.166667  0.027778     48.000000
  0.416667  0.166667  0.027778     48.000000
  0.444444  0.166667  0.027778     48.000000
  0.472222  0.166667  0.027778     48.000000
  0.500000  0.166667  0.027778     24.000000
  0.194444  0.194444  0.027778     24.000000
  0.222222  0.194444  0.027778     48.000000
  0.250000  0.194444  0.027778     48.000000
  0.277778  0.194444  0.027778     48.000000
  0.305556  0.194444  0.027778     48.000000
  0.333333  0.194444  0.027778     48.000000
  0.361111  0.194444  0.027778     48.000000
  0.388889  0.194444  0.027778     48.000000
  0.416667  0.194444  0.027778     48.000000
  0.444444  0.194444  0.027778     48.000000
  0.472222  0.194444  0.027778     48.000000
  0.500000  0.194444  0.027778     24.000000
  0.222222  0.222222  0.027778     24.000000
  0.250000  0.222222  0.027778     48.000000
  0.277778  0.222222  0.027778     48.000000
  0.305556  0.222222  0.027778     48.000000
  0.333333  0.222222  0.027778     48.000000
  0.361111  0.222222  0.027778     48.000000
  0.388889  0.222222  0.027778     48.000000
  0.416667  0.222222  0.027778     48.000000
  0.444444  0.222222  0.027778     48.000000
  0.472222  0.222222  0.027778     48.000000
  0.500000  0.222222  0.027778     24.000000
  0.250000  0.250000  0.027778     24.000000
  0.277778  0.250000  0.027778     48.000000
  0.305556  0.250000  0.027778     48.000000
  0.333333  0.250000  0.027778     48.000000
  0.361111  0.250000  0.027778     48.000000
  0.388889  0.250000  0.027778     48.000000
  0.416667  0.250000  0.027778     48.000000
  0.444444  0.250000  0.027778     48.000000
  0.472222  0.250000  0.027778     48.000000
  0.500000  0.250000  0.027778     24.000000
  0.277778  0.277778  0.027778     24.000000
  0.305556  0.277778  0.027778     48.000000
  0.333333  0.277778  0.027778     48.000000
  0.361111  0.277778  0.027778     48.000000
  0.388889  0.277778  0.027778     48.000000
  0.416667  0.277778  0.027778     48.000000
  0.444444  0.277778  0.027778     48.000000
  0.472222  0.277778  0.027778     48.000000
  0.500000  0.277778  0.027778     24.000000
  0.305556  0.305556  0.027778     24.000000
  0.333333  0.305556  0.027778     48.000000
  0.361111  0.305556  0.027778     48.000000
  0.388889  0.305556  0.027778     48.000000
  0.416667  0.305556  0.027778     48.000000
  0.444444  0.305556  0.027778     48.000000
  0.472222  0.305556  0.027778     48.000000
  0.500000  0.305556  0.027778     24.000000
  0.333333  0.333333  0.027778     24.000000
  0.361111  0.333333  0.027778     48.000000
  0.388889  0.333333  0.027778     48.000000
  0.416667  0.333333  0.027778     48.000000
  0.444444  0.333333  0.027778     48.000000
  0.472222  0.333333  0.027778     48.000000
  0.500000  0.333333  0.027778     24.000000
  0.361111  0.361111  0.027778     24.000000
  0.388889  0.361111  0.027778     48.000000
  0.416667  0.361111  0.027778     48.000000
  0.444444  0.361111  0.027778     48.000000
  0.472222  0.361111  0.027778     48.000000
  0.500000  0.361111  0.027778     24.000000
  0.388889  0.388889  0.027778     24.000000
  0.416667  0.388889  0.027778     48.000000
  0.444444  0.388889  0.027778     48.000000
  0.472222  0.388889  0.027778     48.000000
  0.500000  0.388889  0.027778     24.000000
  0.416667  0.416667  0.027778     24.000000
  0.444444  0.416667  0.027778     48.000000
  0.472222  0.416667  0.027778     48.000000
  0.500000  0.416667  0.027778     24.000000
  0.444444  0.444444  0.027778     24.000000
  0.472222  0.444444  0.027778     48.000000
  0.500000  0.444444  0.027778     24.000000
  0.472222  0.472222  0.027778     24.000000
  0.500000  0.472222  0.027778     24.000000
  0.500000  0.500000  0.027778      6.000000
  0.055556  0.055556  0.055556      8.000000
  0.083333  0.055556  0.055556     24.000000
  0.111111  0.055556  0.055556     24.000000
  0.138889  0.055556  0.055556     24.000000
  0.166667  0.055556  0.055556     24.000000
  0.194444  0.055556  0.055556     24.000000
  0.222222  0.055556  0.055556     24.000000
  0.250000  0.055556  0.055556     24.000000
  0.277778  0.055556  0.055556     24.000000
  0.305556  0.055556  0.055556     24.000000
  0.333333  0.055556  0.055556     24.000000
  0.361111  0.055556  0.055556     24.000000
  0.388889  0.055556  0.055556     24.000000
  0.416667  0.055556  0.055556     24.000000
  0.444444  0.055556  0.055556     24.000000
  0.472222  0.055556  0.055556     24.000000
  0.500000  0.055556  0.055556     12.000000
  0.083333  0.083333  0.055556     24.000000
  0.111111  0.083333  0.055556     48.000000
  0.138889  0.083333  0.055556     48.000000
  0.166667  0.083333  0.055556     48.000000
  0.194444  0.083333  0.055556     48.000000
  0.222222  0.083333  0.055556     48.000000
  0.250000  0.083333  0.055556     48.000000
  0.277778  0.083333  0.055556     48.000000
  0.305556  0.083333  0.055556     48.000000
  0.333333  0.083333  0.055556     48.000000
  0.361111  0.083333  0.055556     48.000000
  0.388889  0.083333  0.055556     48.000000
  0.416667  0.083333  0.055556     48.000000
  0.444444  0.083333  0.055556     48.000000
  0.472222  0.083333  0.055556     48.000000
  0.500000  0.083333  0.055556     24.000000
  0.111111  0.111111  0.055556     24.000000
  0.138889  0.111111  0.055556     48.000000
  0.166667  0.111111  0.055556     48.000000
  0.194444  0.111111  0.055556     48.000000
  0.222222  0.111111  0.055556     48.000000
  0.250000  0.111111  0.055556     48.000000
  0.277778  0.111111  0.055556     48.000000
  0.305556  0.111111  0.055556     48.000000
  0.333333  0.111111  0.055556     48.000000
  0.361111  0.111111  0.055556     48.000000
  0.388889  0.111111  0.055556     48.000000
  0.416667  0.111111  0.055556     48.000000
  0.444444  0.111111  0.055556     48.000000
  0.472222  0.111111  0.055556     48.000000
  0.500000  0.111111  0.055556     24.000000
  0.138889  0.138889  0.055556     24.000000
  0.166667  0.138889  0.055556     48.000000
  0.194444  0.138889  0.055556     48.000000
  0.222222  0.138889  0.055556     48.000000
  0.250000  0.138889  0.055556     48.000000
  0.277778  0.138889  0.055556     48.000000
  0.305556  0.138889  0.055556     48.000000
  0.333333  0.138889  0.055556     48.000000
  0.361111  0.138889  0.055556     48.000000
  0.388889  0.138889  0.055556     48.000000
  0.416667  0.138889  0.055556     48.000000
  0.444444  0.138889  0.055556     48.000000
  0.472222  0.138889  0.055556     48.000000
  0.500000  0.138889  0.055556     24.000000
  0.166667  0.166667  0.055556     24.000000
  0.194444  0.166667  0.055556     48.000000
  0.222222  0.166667  0.055556     48.000000
  0.250000  0.166667  0.055556     48.000000
  0.277778  0.166667  0.055556     48.000000
  0.305556  0.166667  0.055556     48.000000
  0.333333  0.166667  0.055556     48.000000
  0.361111  0.166667  0.055556     48.000000
  0.388889  0.166667  0.055556     48.000000
  0.416667  0.166667  0.055556     48.000000
  0.444444  0.166667  0.055556     48.000000
  0.472222  0.166667  0.055556     48.000000
  0.500000  0.166667  0.055556     24.000000
  0.194444  0.194444  0.055556     24.000000
  0.222222  0.194444  0.055556     48.000000
  0.250000  0.194444  0.055556     48.000000
  0.277778  0.194444  0.055556     48.000000
  0.305556  0.194444  0.055556     48.000000
  0.333333  0.194444  0.055556     48.000000
  0.361111  0.194444  0.055556     48.000000
  0.388889  0.194444  0.055556     48.000000
  0.416667  0.194444  0.055556     48.000000
  0.444444  0.194444  0.055556     48.000000
  0.472222  0.194444  0.055556     48.000000
  0.500000  0.194444  0.055556     24.000000
  0.222222  0.222222  0.055556     24.000000
  0.250000  0.222222  0.055556     48.000000
  0.277778  0.222222  0.055556     48.000000
  0.305556  0.222222  0.055556     48.000000
  0.333333  0.222222  0.055556     48.000000
  0.361111  0.222222  0.055556     48.000000
  0.388889  0.222222  0.055556     48.000000
  0.416667  0.222222  0.055556     48.000000
  0.444444  0.222222  0.055556     48.000000
  0.472222  0.222222  0.055556     48.000000
  0.500000  0.222222  0.055556     24.000000
  0.250000  0.250000  0.055556     24.000000
  0.277778  0.250000  0.055556     48.000000
  0.305556  0.250000  0.055556     48.000000
  0.333333  0.250000  0.055556     48.000000
  0.361111  0.250000  0.055556     48.000000
  0.388889  0.250000  0.055556     48.000000
  0.416667  0.250000  0.055556     48.000000
  0.444444  0.250000  0.055556     48.000000
  0.472222  0.250000  0.055556     48.000000
  0.500000  0.250000  0.055556     24.000000
  0.277778  0.277778  0.055556     24.000000
  0.305556  0.277778  0.055556     48.000000
  0.333333  0.277778  0.055556     48.000000
  0.361111  0.277778  0.055556     48.000000
  0.388889  0.277778  0.055556     48.000000
  0.416667  0.277778  0.055556     48.000000
  0.444444  0.277778  0.055556     48.000000
  0.472222  0.277778  0.055556     48.000000
  0.500000  0.277778  0.055556     24.000000
  0.305556  0.305556  0.055556     24.000000
  0.333333  0.305556  0.055556     48.000000
  0.361111  0.305556  0.055556     48.000000
  0.388889  0.305556  0.055556     48.000000
  0.416667  0.305556  0.055556     48.000000
  0.444444  0.305556  0.055556     48.000000
  0.472222  0.305556  0.055556     48.000000
  0.500000  0.305556  0.055556     24.000000
  0.333333  0.333333  0.055556     24.000000
  0.361111  0.333333  0.055556     48.000000
  0.388889  0.333333  0.055556     48.000000
  0.416667  0.333333  0.055556     48.000000
  0.444444  0.333333  0.055556     48.000000
  0.472222  0.333333  0.055556     48.000000
  0.500000  0.333333  0.055556     24.000000
  0.361111  0.361111  0.055556     24.000000
  0.388889  0.361111  0.055556     48.000000
  0.416667  0.361111  0.055556     48.000000
  0.444444  0.361111  0.055556     48.000000
  0.472222  0.361111  0.055556     48.000000
  0.500000  0.361111  0.055556     24.000000
  0.388889  0.388889  0.055556     24.000000
  0.416667  0.388889  0.055556     48.000000
  0.444444  0.388889  0.055556     48.000000
  0.472222  0.388889  0.055556     48.000000
  0.500000  0.388889  0.055556     24.000000
  0.416667  0.416667  0.055556     24.000000
  0.444444  0.416667  0.055556     48.000000
  0.472222  0.416667  0.055556     48.000000
  0.500000  0.416667  0.055556     24.000000
  0.444444  0.444444  0.055556     24.000000
  0.472222  0.444444  0.055556     48.000000
  0.500000  0.444444  0.055556     24.000000
  0.472222  0.472222  0.055556     24.000000
  0.500000  0.472222  0.055556     24.000000
  0.500000  0.500000  0.055556      6.000000
  0.083333  0.083333  0.083333      8.000000
  0.111111  0.083333  0.083333     24.000000
  0.138889  0.083333  0.083333     24.000000
  0.166667  0.083333  0.083333     24.000000
  0.194444  0.083333  0.083333     24.000000
  0.222222  0.083333  0.083333     24.000000
  0.250000  0.083333  0.083333     24.000000
  0.277778  0.083333  0.083333     24.000000
  0.305556  0.083333  0.083333     24.000000
  0.333333  0.083333  0.083333     24.000000
  0.361111  0.083333  0.083333     24.000000
  0.388889  0.083333  0.083333     24.000000
  0.416667  0.083333  0.083333     24.000000
  0.444444  0.083333  0.083333     24.000000
  0.472222  0.083333  0.083333     24.000000
  0.500000  0.083333  0.083333     12.000000
  0.111111  0.111111  0.083333     24.000000
  0.138889  0.111111  0.083333     48.000000
  0.166667  0.111111  0.083333     48.000000
  0.194444  0.111111  0.083333     48.000000
  0.222222  0.111111  0.083333     48.000000
  0.250000  0.111111  0.083333     48.000000
  0.277778  0.111111  0.083333     48.000000
  0.305556  0.111111  0.083333     48.000000
  0.333333  0.111111  0.083333     48.000000
  0.361111  0.111111  0.083333     48.000000
  0.388889  0.111111  0.083333     48.000000
  0.416667  0.111111  0.083333     48.000000
  0.444444  0.111111  0.083333     48.000000
  0.472222  0.111111  0.083333     48.000000
  0.500000  0.111111  0.083333     24.000000
  0.138889  0.138889  0.083333     24.000000
  0.166667  0.138889  0.083333     48.000000
  0.194444  0.138889  0.083333     48.000000
  0.222222  0.138889  0.083333     48.000000
  0.250000  0.138889  0.083333     48.000000
  0.277778  0.138889  0.083333     48.000000
  0.305556  0.138889  0.083333     48.000000
  0.333333  0.138889  0.083333     48.000000
  0.361111  0.138889  0.083333     48.000000
  0.388889  0.138889  0.083333     48.000000
  0.416667  0.138889  0.083333     48.000000
  0.444444  0.138889  0.083333     48.000000
  0.472222  0.138889  0.083333     48.000000
  0.500000  0.138889  0.083333     24.000000
  0.166667  0.166667  0.083333     24.000000
  0.194444  0.166667  0.083333     48.000000
  0.222222  0.166667  0.083333     48.000000
  0.250000  0.166667  0.083333     48.000000
  0.277778  0.166667  0.083333     48.000000
  0.305556  0.166667  0.083333     48.000000
  0.333333  0.166667  0.083333     48.000000
  0.361111  0.166667  0.083333     48.000000
  0.388889  0.166667  0.083333     48.000000
  0.416667  0.166667  0.083333     48.000000
  0.444444  0.166667  0.083333     48.000000
  0.472222  0.166667  0.083333     48.000000
  0.500000  0.166667  0.083333     24.000000
  0.194444  0.194444  0.083333     24.000000
  0.222222  0.194444  0.083333     48.000000
  0.250000  0.194444  0.083333     48.000000
  0.277778  0.194444  0.083333     48.000000
  0.305556  0.194444  0.083333     48.000000
  0.333333  0.194444  0.083333     48.000000
  0.361111  0.194444  0.083333     48.000000
  0.388889  0.194444  0.083333     48.000000
  0.416667  0.194444  0.083333     48.000000
  0.444444  0.194444  0.083333     48.000000
  0.472222  0.194444  0.083333     48.000000
  0.500000  0.194444  0.083333     24.000000
  0.222222  0.222222  0.083333     24.000000
  0.250000  0.222222  0.083333     48.000000
  0.277778  0.222222  0.083333     48.000000
  0.305556  0.222222  0.083333     48.000000
  0.333333  0.222222  0.083333     48.000000
  0.361111  0.222222  0.083333     48.000000
  0.388889  0.222222  0.083333     48.000000
  0.416667  0.222222  0.083333     48.000000
  0.444444  0.222222  0.083333     48.000000
  0.472222  0.222222  0.083333     48.000000
  0.500000  0.222222  0.083333     24.000000
  0.250000  0.250000  0.083333     24.000000
  0.277778  0.250000  0.083333     48.000000
  0.305556  0.250000  0.083333     48.000000
  0.333333  0.250000  0.083333     48.000000
  0.361111  0.250000  0.083333     48.000000
  0.388889  0.250000  0.083333     48.000000
  0.416667  0.250000  0.083333     48.000000
  0.444444  0.250000  0.083333     48.000000
  0.472222  0.250000  0.083333     48.000000
  0.500000  0.250000  0.083333     24.000000
  0.277778  0.277778  0.083333     24.000000
  0.305556  0.277778  0.083333     48.000000
  0.333333  0.277778  0.083333     48.000000
  0.361111  0.277778  0.083333     48.000000
  0.388889  0.277778  0.083333     48.000000
  0.416667  0.277778  0.083333     48.000000
  0.444444  0.277778  0.083333     48.000000
  0.472222  0.277778  0.083333     48.000000
  0.500000  0.277778  0.083333     24.000000
  0.305556  0.305556  0.083333     24.000000
  0.333333  0.305556  0.083333     48.000000
  0.361111  0.305556  0.083333     48.000000
  0.388889  0.305556  0.083333     48.000000
  0.416667  0.305556  0.083333     48.000000
  0.444444  0.305556  0.083333     48.000000
  0.472222  0.305556  0.083333     48.000000
  0.500000  0.305556  0.083333     24.000000
  0.333333  0.333333  0.083333     24.000000
  0.361111  0.333333  0.083333     48.000000
  0.388889  0.333333  0.083333     48.000000
  0.416667  0.333333  0.083333     48.000000
  0.444444  0.333333  0.083333     48.000000
  0.472222  0.333333  0.083333     48.000000
  0.500000  0.333333  0.083333     24.000000
  0.361111  0.361111  0.083333     24.000000
  0.388889  0.361111  0.083333     48.000000
  0.416667  0.361111  0.083333     48.000000
  0.444444  0.361111  0.083333     48.000000
  0.472222  0.361111  0.083333     48.000000
  0.500000  0.361111  0.083333     24.000000
  0.388889  0.388889  0.083333     24.000000
  0.416667  0.388889  0.083333     48.000000
  0.444444  0.388889  0.083333     48.000000
  0.472222  0.388889  0.083333     48.000000
  0.500000  0.388889  0.083333     24.000000
  0.416667  0.416667  0.083333     24.000000
  0.444444  0.416667  0.083333     48.000000
  0.472222  0.416667  0.083333     48.000000
  0.500000  0.416667  0.083333     24.000000
  0.444444  0.444444  0.083333     24.000000
  0.472222  0.444444  0.083333     48.000000
  0.500000  0.444444  0.083333     24.000000
  0.472222  0.472222  0.083333     24.000000
  0.500000  0.472222  0.083333     24.000000
  0.500000  0.500000  0.083333      6.000000
  0.111111  0.111111  0.111111      8.000000
  0.138889  0.111111  0.111111     24.000000
  0.166667  0.111111  0.111111     24.000000
  0.194444  0.111111  0.111111     24.000000
  0.222222  0.111111  0.111111     24.000000
  0.250000  0.111111  0.111111     24.000000
  0.277778  0.111111  0.111111     24.000000
  0.305556  0.111111  0.111111     24.000000
  0.333333  0.111111  0.111111     24.000000
  0.361111  0.111111  0.111111     24.000000
  0.388889  0.111111  0.111111     24.000000
  0.416667  0.111111  0.111111     24.000000
  0.444444  0.111111  0.111111     24.000000
  0.472222  0.111111  0.111111     24.000000
  0.500000  0.111111  0.111111     12.000000
  0.138889  0.138889  0.111111     24.000000
  0.166667  0.138889  0.111111     48.000000
  0.194444  0.138889  0.111111     48.000000
  0.222222  0.138889  0.111111     48.000000
  0.250000  0.138889  0.111111     48.000000
  0.277778  0.138889  0.111111     48.000000
  0.305556  0.138889  0.111111     48.000000
  0.333333  0.138889  0.111111     48.000000
  0.361111  0.138889  0.111111     48.000000
  0.388889  0.138889  0.111111     48.000000
  0.416667  0.138889  0.111111     48.000000
  0.444444  0.138889  0.111111     48.000000
  0.472222  0.138889  0.111111     48.000000
  0.500000  0.138889  0.111111     24.000000
  0.166667  0.166667  0.111111     24.000000
  0.194444  0.166667  0.111111     48.000000
  0.222222  0.166667  0.111111     48.000000
  0.250000  0.166667  0.111111     48.000000
  0.277778  0.166667  0.111111     48.000000
  0.305556  0.166667  0.111111     48.000000
  0.333333  0.166667  0.111111     48.000000
  0.361111  0.166667  0.111111     48.000000
  0.388889  0.166667  0.111111     48.000000
  0.416667  0.166667  0.111111     48.000000
  0.444444  0.166667  0.111111     48.000000
  0.472222  0.166667  0.111111     48.000000
  0.500000  0.166667  0.111111     24.000000
  0.194444  0.194444  0.111111     24.000000
  0.222222  0.194444  0.111111     48.000000
  0.250000  0.194444  0.111111     48.000000
  0.277778  0.194444  0.111111     48.000000
  0.305556  0.194444  0.111111     48.000000
  0.333333  0.194444  0.111111     48.000000
  0.361111  0.194444  0.111111     48.000000
  0.388889  0.194444  0.111111     48.000000
  0.416667  0.194444  0.111111     48.000000
  0.444444  0.194444  0.111111     48.000000
  0.472222  0.194444  0.111111     48.000000
  0.500000  0.194444  0.111111     24.000000
  0.222222  0.222222  0.111111     24.000000
  0.250000  0.222222  0.111111     48.000000
  0.277778  0.222222  0.111111     48.000000
  0.305556  0.222222  0.111111     48.000000
  0.333333  0.222222  0.111111     48.000000
  0.361111  0.222222  0.111111     48.000000
  0.388889  0.222222  0.111111     48.000000
  0.416667  0.222222  0.111111     48.000000
  0.444444  0.222222  0.111111     48.000000
  0.472222  0.222222  0.111111     48.000000
  0.500000  0.222222  0.111111     24.000000
  0.250000  0.250000  0.111111     24.000000
  0.277778  0.250000  0.111111     48.000000
  0.305556  0.250000  0.111111     48.000000
  0.333333  0.250000  0.111111     48.000000
  0.361111  0.250000  0.111111     48.000000
  0.388889  0.250000  0.111111     48.000000
  0.416667  0.250000  0.111111     48.000000
  0.444444  0.250000  0.111111     48.000000
  0.472222  0.250000  0.111111     48.000000
  0.500000  0.250000  0.111111     24.000000
  0.277778  0.277778  0.111111     24.000000
  0.305556  0.277778  0.111111     48.000000
  0.333333  0.277778  0.111111     48.000000
  0.361111  0.277778  0.111111     48.000000
  0.388889  0.277778  0.111111     48.000000
  0.416667  0.277778  0.111111     48.000000
  0.444444  0.277778  0.111111     48.000000
  0.472222  0.277778  0.111111     48.000000
  0.500000  0.277778  0.111111     24.000000
  0.305556  0.305556  0.111111     24.000000
  0.333333  0.305556  0.111111     48.000000
  0.361111  0.305556  0.111111     48.000000
  0.388889  0.305556  0.111111     48.000000
  0.416667  0.305556  0.111111     48.000000
  0.444444  0.305556  0.111111     48.000000
  0.472222  0.305556  0.111111     48.000000
  0.500000  0.305556  0.111111     24.000000
  0.333333  0.333333  0.111111     24.000000
  0.361111  0.333333  0.111111     48.000000
  0.388889  0.333333  0.111111     48.000000
  0.416667  0.333333  0.111111     48.000000
  0.444444  0.333333  0.111111     48.000000
  0.472222  0.333333  0.111111     48.000000
  0.500000  0.333333  0.111111     24.000000
  0.361111  0.361111  0.111111     24.000000
  0.388889  0.361111  0.111111     48.000000
  0.416667  0.361111  0.111111     48.000000
  0.444444  0.361111  0.111111     48.000000
  0.472222  0.361111  0.111111     48.000000
  0.500000  0.361111  0.111111     24.000000
  0.388889  0.388889  0.111111     24.000000
  0.416667  0.388889  0.111111     48.000000
  0.444444  0.388889  0.111111     48.000000
  0.472222  0.388889  0.111111     48.000000
  0.500000  0.388889  0.111111     24.000000
  0.416667  0.416667  0.111111     24.000000
  0.444444  0.416667  0.111111     48.000000
  0.472222  0.416667  0.111111     48.000000
  0.500000  0.416667  0.111111     24.000000
  0.444444  0.444444  0.111111     24.000000
  0.472222  0.444444  0.111111     48.000000
  0.500000  0.444444  0.111111     24.000000
  0.472222  0.472222  0.111111     24.000000
  0.500000  0.472222  0.111111     24.000000
  0.500000  0.500000  0.111111      6.000000
  0.138889  0.138889  0.138889      8.000000
  0.166667  0.138889  0.138889     24.000000
  0.194444  0.138889  0.138889     24.000000
  0.222222  0.138889  0.138889     24.000000
  0.250000  0.138889  0.138889     24.000000
  0.277778  0.138889  0.138889     24.000000
  0.305556  0.138889  0.138889     24.000000
  0.333333  0.138889  0.138889     24.000000
  0.361111  0.138889  0.138889     24.000000
  0.388889  0.138889  0.138889     24.000000
  0.416667  0.138889  0.138889     24.000000
  0.444444  0.138889  0.138889     24.000000
  0.472222  0.138889  0.138889     24.000000
  0.500000  0.138889  0.138889     12.000000
  0.166667  0.166667  0.138889     24.000000
  0.194444  0.166667  0.138889     48.000000
  0.222222  0.166667  0.138889     48.000000
  0.250000  0.166667  0.138889     48.000000
  0.277778  0.166667  0.138889     48.000000
  0.305556  0.166667  0.138889     48.000000
  0.333333  0.166667  0.138889     48.000000
  0.361111  0.166667  0.138889     48.000000
  0.388889  0.166667  0.138889     48.000000
  0.416667  0.166667  0.138889     48.000000
  0.444444  0.166667  0.138889     48.000000
  0.472222  0.166667  0.138889     48.000000
  0.500000  0.166667  0.138889     24.000000
  0.194444  0.194444  0.138889     24.000000
  0.222222  0.194444  0.138889     48.000000
  0.250000  0.194444  0.138889     48.000000
  0.277778  0.194444  0.138889     48.000000
  0.305556  0.194444  0.138889     48.000000
  0.333333  0.194444  0.138889     48.000000
  0.361111  0.194444  0.138889     48.000000
  0.388889  0.194444  0.138889     48.000000
  0.416667  0.194444  0.138889     48.000000
  0.444444  0.194444  0.138889     48.000000
  0.472222  0.194444  0.138889     48.000000
  0.500000  0.194444  0.138889     24.000000
  0.222222  0.222222  0.138889     24.000000
  0.250000  0.222222  0.138889     48.000000
  0.277778  0.222222  0.138889     48.000000
  0.305556  0.222222  0.138889     48.000000
  0.333333  0.222222  0.138889     48.000000
  0.361111  0.222222  0.138889     48.000000
  0.388889  0.222222  0.138889     48.000000
  0.416667  0.222222  0.138889     48.000000
  0.444444  0.222222  0.138889     48.000000
  0.472222  0.222222  0.138889     48.000000
  0.500000  0.222222  0.138889     24.000000
  0.250000  0.250000  0.138889     24.000000
  0.277778  0.250000  0.138889     48.000000
  0.305556  0.250000  0.138889     48.000000
  0.333333  0.250000  0.138889     48.000000
  0.361111  0.250000  0.138889     48.000000
  0.388889  0.250000  0.138889     48.000000
  0.416667  0.250000  0.138889     48.000000
  0.444444  0.250000  0.138889     48.000000
  0.472222  0.250000  0.138889     48.000000
  0.500000  0.250000  0.138889     24.000000
  0.277778  0.277778  0.138889     24.000000
  0.305556  0.277778  0.138889     48.000000
  0.333333  0.277778  0.138889     48.000000
  0.361111  0.277778  0.138889     48.000000
  0.388889  0.277778  0.138889     48.000000
  0.416667  0.277778  0.138889     48.000000
  0.444444  0.277778  0.138889     48.000000
  0.472222  0.277778  0.138889     48.000000
  0.500000  0.277778  0.138889     24.000000
  0.305556  0.305556  0.138889     24.000000
  0.333333  0.305556  0.138889     48.000000
  0.361111  0.305556  0.138889     48.000000
  0.388889  0.305556  0.138889     48.000000
  0.416667  0.305556  0.138889     48.000000
  0.444444  0.305556  0.138889     48.000000
  0.472222  0.305556  0.138889     48.000000
  0.500000  0.305556  0.138889     24.000000
  0.333333  0.333333  0.138889     24.000000
  0.361111  0.333333  0.138889     48.000000
  0.388889  0.333333  0.138889     48.000000
  0.416667  0.333333  0.138889     48.000000
  0.444444  0.333333  0.138889     48.000000
  0.472222  0.333333  0.138889     48.000000
  0.500000  0.333333  0.138889     24.000000
  0.361111  0.361111  0.138889     24.000000
  0.388889  0.361111  0.138889     48.000000
  0.416667  0.361111  0.138889     48.000000
  0.444444  0.361111  0.138889     48.000000
  0.472222  0.361111  0.138889     48.000000
  0.500000  0.361111  0.138889     24.000000
  0.388889  0.388889  0.138889     24.000000
  0.416667  0.388889  0.138889     48.000000
  0.444444  0.388889  0.138889     48.000000
  0.472222  0.388889  0.138889     48.000000
  0.500000  0.388889  0.138889     24.000000
  0.416667  0.416667  0.138889     24.000000
  0.444444  0.416667  0.138889     48.000000
  0.472222  0.416667  0.138889     48.000000
  0.500000  0.416667  0.138889     24.000000
  0.444444  0.444444  0.138889     24.000000
  0.472222  0.444444  0.138889     48.000000
  0.500000  0.444444  0.138889     24.000000
  0.472222  0.472222  0.138889     24.000000
  0.500000  0.472222  0.138889     24.000000
  0.500000  0.500000  0.138889      6.000000
  0.166667  0.166667  0.166667      8.000000
  0.194444  0.166667  0.166667     24.000000
  0.222222  0.166667  0.166667     24.000000
  0.250000  0.166667  0.166667     24.000000
  0.277778  0.166667  0.166667     24.000000
  0.305556  0.166667  0.166667     24.000000
  0.333333  0.166667  0.166667     24.000000
  0.361111  0.166667  0.166667     24.000000
  0.388889  0.166667  0.166667     24.000000
  0.416667  0.166667  0.166667     24.000000
  0.444444  0.166667  0.166667     24.000000
  0.472222  0.166667  0.166667     24.000000
  0.500000  0.166667  0.166667     12.000000
  0.194444  0.194444  0.166667     24.000000
  0.222222  0.194444  0.166667     48.000000
  0.250000  0.194444  0.166667     48.000000
  0.277778  0.194444  0.166667     48.000000
  0.305556  0.194444  0.166667     48.000000
  0.333333  0.194444  0.166667     48.000000
  0.361111  0.194444  0.166667     48.000000
  0.388889  0.194444  0.166667     48.000000
  0.416667  0.194444  0.166667     48.000000
  0.444444  0.194444  0.166667     48.000000
  0.472222  0.194444  0.166667     48.000000
  0.500000  0.194444  0.166667     24.000000
  0.222222  0.222222  0.166667     24.000000
  0.250000  0.222222  0.166667     48.000000
  0.277778  0.222222  0.166667     48.000000
  0.305556  0.222222  0.166667     48.000000
  0.333333  0.222222  0.166667     48.000000
  0.361111  0.222222  0.166667     48.000000
  0.388889  0.222222  0.166667     48.000000
  0.416667  0.222222  0.166667     48.000000
  0.444444  0.222222  0.166667     48.000000
  0.472222  0.222222  0.166667     48.000000
  0.500000  0.222222  0.166667     24.000000
  0.250000  0.250000  0.166667     24.000000
  0.277778  0.250000  0.166667     48.000000
  0.305556  0.250000  0.166667     48.000000
  0.333333  0.250000  0.166667     48.000000
  0.361111  0.250000  0.166667     48.000000
  0.388889  0.250000  0.166667     48.000000
  0.416667  0.250000  0.166667     48.000000
  0.444444  0.250000  0.166667     48.000000
  0.472222  0.250000  0.166667     48.000000
  0.500000  0.250000  0.166667     24.000000
  0.277778  0.277778  0.166667     24.000000
  0.305556  0.277778  0.166667     48.000000
  0.333333  0.277778  0.166667     48.000000
  0.361111  0.277778  0.166667     48.000000
  0.388889  0.277778  0.166667     48.000000
  0.416667  0.277778  0.166667     48.000000
  0.444444  0.277778  0.166667     48.000000
  0.472222  0.277778  0.166667     48.000000
  0.500000  0.277778  0.166667     24.000000
  0.305556  0.305556  0.166667     24.000000
  0.333333  0.305556  0.166667     48.000000
  0.361111  0.305556  0.166667     48.000000
  0.388889  0.305556  0.166667     48.000000
  0.416667  0.305556  0.166667     48.000000
  0.444444  0.305556  0.166667     48.000000
  0.472222  0.305556  0.166667     48.000000
  0.500000  0.305556  0.166667     24.000000
  0.333333  0.333333  0.166667     24.000000
  0.361111  0.333333  0.166667     48.000000
  0.388889  0.333333  0.166667     48.000000
  0.416667  0.333333  0.166667     48.000000
  0.444444  0.333333  0.166667     48.000000
  0.472222  0.333333  0.166667     48.000000
  0.500000  0.333333  0.166667     24.000000
  0.361111  0.361111  0.166667     24.000000
  0.388889  0.361111  0.166667     48.000000
  0.416667  0.361111  0.166667     48.000000
  0.444444  0.361111  0.166667     48.000000
  0.472222  0.361111  0.166667     48.000000
  0.500000  0.361111  0.166667     24.000000
  0.388889  0.388889  0.166667     24.000000
  0.416667  0.388889  0.166667     48.000000
  0.444444  0.388889  0.166667     48.000000
  0.472222  0.388889  0.166667     48.000000
  0.500000  0.388889  0.166667     24.000000
  0.416667  0.416667  0.166667     24.000000
  0.444444  0.416667  0.166667     48.000000
  0.472222  0.416667  0.166667     48.000000
  0.500000  0.416667  0.166667     24.000000
  0.444444  0.444444  0.166667     24.000000
  0.472222  0.444444  0.166667     48.000000
  0.500000  0.444444  0.166667     24.000000
  0.472222  0.472222  0.166667     24.000000
  0.500000  0.472222  0.166667     24.000000
  0.500000  0.500000  0.166667      6.000000
  0.194444  0.194444  0.194444      8.000000
  0.222222  0.194444  0.194444     24.000000
  0.250000  0.194444  0.194444     24.000000
  0.277778  0.194444  0.194444     24.000000
  0.305556  0.194444  0.194444     24.000000
  0.333333  0.194444  0.194444     24.000000
  0.361111  0.194444  0.194444     24.000000
  0.388889  0.194444  0.194444     24.000000
  0.416667  0.194444  0.194444     24.000000
  0.444444  0.194444  0.194444     24.000000
  0.472222  0.194444  0.194444     24.000000
  0.500000  0.194444  0.194444     12.000000
  0.222222  0.222222  0.194444     24.000000
  0.250000  0.222222  0.194444     48.000000
  0.277778  0.222222  0.194444     48.000000
  0.305556  0.222222  0.194444     48.000000
  0.333333  0.222222  0.194444     48.000000
  0.361111  0.222222  0.194444     48.000000
  0.388889  0.222222  0.194444     48.000000
  0.416667  0.222222  0.194444     48.000000
  0.444444  0.222222  0.194444     48.000000
  0.472222  0.222222  0.194444     48.000000
  0.500000  0.222222  0.194444     24.000000
  0.250000  0.250000  0.194444     24.000000
  0.277778  0.250000  0.194444     48.000000
  0.305556  0.250000  0.194444     48.000000
  0.333333  0.250000  0.194444     48.000000
  0.361111  0.250000  0.194444     48.000000
  0.388889  0.250000  0.194444     48.000000
  0.416667  0.250000  0.194444     48.000000
  0.444444  0.250000  0.194444     48.000000
  0.472222  0.250000  0.194444     48.000000
  0.500000  0.250000  0.194444     24.000000
  0.277778  0.277778  0.194444     24.000000
  0.305556  0.277778  0.194444     48.000000
  0.333333  0.277778  0.194444     48.000000
  0.361111  0.277778  0.194444     48.000000
  0.388889  0.277778  0.194444     48.000000
  0.416667  0.277778  0.194444     48.000000
  0.444444  0.277778  0.194444     48.000000
  0.472222  0.277778  0.194444     48.000000
  0.500000  0.277778  0.194444     24.000000
  0.305556  0.305556  0.194444     24.000000
  0.333333  0.305556  0.194444     48.000000
  0.361111  0.305556  0.194444     48.000000
  0.388889  0.305556  0.194444     48.000000
  0.416667  0.305556  0.194444     48.000000
  0.444444  0.305556  0.194444     48.000000
  0.472222  0.305556  0.194444     48.000000
  0.500000  0.305556  0.194444     24.000000
  0.333333  0.333333  0.194444     24.000000
  0.361111  0.333333  0.194444     48.000000
  0.388889  0.333333  0.194444     48.000000
  0.416667  0.333333  0.194444     48.000000
  0.444444  0.333333  0.194444     48.000000
  0.472222  0.333333  0.194444     48.000000
  0.500000  0.333333  0.194444     24.000000
  0.361111  0.361111  0.194444     24.000000
  0.388889  0.361111  0.194444     48.000000
  0.416667  0.361111  0.194444     48.000000
  0.444444  0.361111  0.194444     48.000000
  0.472222  0.361111  0.194444     48.000000
  0.500000  0.361111  0.194444     24.000000
  0.388889  0.388889  0.194444     24.000000
  0.416667  0.388889  0.194444     48.000000
  0.444444  0.388889  0.194444     48.000000
  0.472222  0.388889  0.194444     48.000000
  0.500000  0.388889  0.194444     24.000000
  0.416667  0.416667  0.194444     24.000000
  0.444444  0.416667  0.194444     48.000000
  0.472222  0.416667  0.194444     48.000000
  0.500000  0.416667  0.194444     24.000000
  0.444444  0.444444  0.194444     24.000000
  0.472222  0.444444  0.194444     48.000000
  0.500000  0.444444  0.194444     24.000000
  0.472222  0.472222  0.194444     24.000000
  0.500000  0.472222  0.194444     24.000000
  0.500000  0.500000  0.194444      6.000000
  0.222222  0.222222  0.222222      8.000000
  0.250000  0.222222  0.222222     24.000000
  0.277778  0.222222  0.222222     24.000000
  0.305556  0.222222  0.222222     24.000000
  0.333333  0.222222  0.222222     24.000000
  0.361111  0.222222  0.222222     24.000000
  0.388889  0.222222  0.222222     24.000000
  0.416667  0.222222  0.222222     24.000000
  0.444444  0.222222  0.222222     24.000000
  0.472222  0.222222  0.222222     24.000000
  0.500000  0.222222  0.222222     12.000000
  0.250000  0.250000  0.222222     24.000000
  0.277778  0.250000  0.222222     48.000000
  0.305556  0.250000  0.222222     48.000000
  0.333333  0.250000  0.222222     48.000000
  0.361111  0.250000  0.222222     48.000000
  0.388889  0.250000  0.222222     48.000000
  0.416667  0.250000  0.222222     48.000000
  0.444444  0.250000  0.222222     48.000000
  0.472222  0.250000  0.222222     48.000000
  0.500000  0.250000  0.222222     24.000000
  0.277778  0.277778  0.222222     24.000000
  0.305556  0.277778  0.222222     48.000000
  0.333333  0.277778  0.222222     48.000000
  0.361111  0.277778  0.222222     48.000000
  0.388889  0.277778  0.222222     48.000000
  0.416667  0.277778  0.222222     48.000000
  0.444444  0.277778  0.222222     48.000000
  0.472222  0.277778  0.222222     48.000000
  0.500000  0.277778  0.222222     24.000000
  0.305556  0.305556  0.222222     24.000000
  0.333333  0.305556  0.222222     48.000000
  0.361111  0.305556  0.222222     48.000000
  0.388889  0.305556  0.222222     48.000000
  0.416667  0.305556  0.222222     48.000000
  0.444444  0.305556  0.222222     48.000000
  0.472222  0.305556  0.222222     48.000000
  0.500000  0.305556  0.222222     24.000000
  0.333333  0.333333  0.222222     24.000000
  0.361111  0.333333  0.222222     48.000000
  0.388889  0.333333  0.222222     48.000000
  0.416667  0.333333  0.222222     48.000000
  0.444444  0.333333  0.222222     48.000000
  0.472222  0.333333  0.222222     48.000000
  0.500000  0.333333  0.222222     24.000000
  0.361111  0.361111  0.222222     24.000000
  0.388889  0.361111  0.222222     48.000000
  0.416667  0.361111  0.222222     48.000000
  0.444444  0.361111  0.222222     48.000000
  0.472222  0.361111  0.222222     48.000000
  0.500000  0.361111  0.222222     24.000000
  0.388889  0.388889  0.222222     24.000000
  0.416667  0.388889  0.222222     48.000000
  0.444444  0.388889  0.222222     48.000000
  0.472222  0.388889  0.222222     48.000000
  0.500000  0.388889  0.222222     24.000000
  0.416667  0.416667  0.222222     24.000000
  0.444444  0.416667  0.222222     48.000000
  0.472222  0.416667  0.222222     48.000000
  0.500000  0.416667  0.222222     24.000000
  0.444444  0.444444  0.222222     24.000000
  0.472222  0.444444  0.222222     48.000000
  0.500000  0.444444  0.222222     24.000000
  0.472222  0.472222  0.222222     24.000000
  0.500000  0.472222  0.222222     24.000000
  0.500000  0.500000  0.222222      6.000000
  0.250000  0.250000  0.250000      8.000000
  0.277778  0.250000  0.250000     24.000000
  0.305556  0.250000  0.250000     24.000000
  0.333333  0.250000  0.250000     24.000000
  0.361111  0.250000  0.250000     24.000000
  0.388889  0.250000  0.250000     24.000000
  0.416667  0.250000  0.250000     24.000000
  0.444444  0.250000  0.250000     24.000000
  0.472222  0.250000  0.250000     24.000000
  0.500000  0.250000  0.250000     12.000000
  0.277778  0.277778  0.250000     24.000000
  0.305556  0.277778  0.250000     48.000000
  0.333333  0.277778  0.250000     48.000000
  0.361111  0.277778  0.250000     48.000000
  0.388889  0.277778  0.250000     48.000000
  0.416667  0.277778  0.250000     48.000000
  0.444444  0.277778  0.250000     48.000000
  0.472222  0.277778  0.250000     48.000000
  0.500000  0.277778  0.250000     24.000000
  0.305556  0.305556  0.250000     24.000000
  0.333333  0.305556  0.250000     48.000000
  0.361111  0.305556  0.250000     48.000000
  0.388889  0.305556  0.250000     48.000000
  0.416667  0.305556  0.250000     48.000000
  0.444444  0.305556  0.250000     48.000000
  0.472222  0.305556  0.250000     48.000000
  0.500000  0.305556  0.250000     24.000000
  0.333333  0.333333  0.250000     24.000000
  0.361111  0.333333  0.250000     48.000000
  0.388889  0.333333  0.250000     48.000000
  0.416667  0.333333  0.250000     48.000000
  0.444444  0.333333  0.250000     48.000000
  0.472222  0.333333  0.250000     48.000000
  0.500000  0.333333  0.250000     24.000000
  0.361111  0.361111  0.250000     24.000000
  0.388889  0.361111  0.250000     48.000000
  0.416667  0.361111  0.250000     48.000000
  0.444444  0.361111  0.250000     48.000000
  0.472222  0.361111  0.250000     48.000000
  0.500000  0.361111  0.250000     24.000000
  0.388889  0.388889  0.250000     24.000000
  0.416667  0.388889  0.250000     48.000000
  0.444444  0.388889  0.250000     48.000000
  0.472222  0.388889  0.250000     48.000000
  0.500000  0.388889  0.250000     24.000000
  0.416667  0.416667  0.250000     24.000000
  0.444444  0.416667  0.250000     48.000000
  0.472222  0.416667  0.250000     48.000000
  0.500000  0.416667  0.250000     24.000000
  0.444444  0.444444  0.250000     24.000000
  0.472222  0.444444  0.250000     48.000000
  0.500000  0.444444  0.250000     24.000000
  0.472222  0.472222  0.250000     24.000000
  0.500000  0.472222  0.250000     24.000000
  0.500000  0.500000  0.250000      6.000000
  0.277778  0.277778  0.277778      8.000000
  0.305556  0.277778  0.277778     24.000000
  0.333333  0.277778  0.277778     24.000000
  0.361111  0.277778  0.277778     24.000000
  0.388889  0.277778  0.277778     24.000000
  0.416667  0.277778  0.277778     24.000000
  0.444444  0.277778  0.277778     24.000000
  0.472222  0.277778  0.277778     24.000000
  0.500000  0.277778  0.277778     12.000000
  0.305556  0.305556  0.277778     24.000000
  0.333333  0.305556  0.277778     48.000000
  0.361111  0.305556  0.277778     48.000000
  0.388889  0.305556  0.277778     48.000000
  0.416667  0.305556  0.277778     48.000000
  0.444444  0.305556  0.277778     48.000000
  0.472222  0.305556  0.277778     48.000000
  0.500000  0.305556  0.277778     24.000000
  0.333333  0.333333  0.277778     24.000000
  0.361111  0.333333  0.277778     48.000000
  0.388889  0.333333  0.277778     48.000000
  0.416667  0.333333  0.277778     48.000000
  0.444444  0.333333  0.277778     48.000000
  0.472222  0.333333  0.277778     48.000000
  0.500000  0.333333  0.277778     24.000000
  0.361111  0.361111  0.277778     24.000000
  0.388889  0.361111  0.277778     48.000000
  0.416667  0.361111  0.277778     48.000000
  0.444444  0.361111  0.277778     48.000000
  0.472222  0.361111  0.277778     48.000000
  0.500000  0.361111  0.277778     24.000000
  0.388889  0.388889  0.277778     24.000000
  0.416667  0.388889  0.277778     48.000000
  0.444444  0.388889  0.277778     48.000000
  0.472222  0.388889  0.277778     48.000000
  0.500000  0.388889  0.277778     24.000000
  0.416667  0.416667  0.277778     24.000000
  0.444444  0.416667  0.277778     48.000000
  0.472222  0.416667  0.277778     48.000000
  0.500000  0.416667  0.277778     24.000000
  0.444444  0.444444  0.277778     24.000000
  0.472222  0.444444  0.277778     48.000000
  0.500000  0.444444  0.277778     24.000000
  0.472222  0.472222  0.277778     24.000000
  0.500000  0.472222  0.277778     24.000000
  0.500000  0.500000  0.277778      6.000000
  0.305556  0.305556  0.305556      8.000000
  0.333333  0.305556  0.305556     24.000000
  0.361111  0.305556  0.305556     24.000000
  0.388889  0.305556  0.305556     24.000000
  0.416667  0.305556  0.305556     24.000000
  0.444444  0.305556  0.305556     24.000000
  0.472222  0.305556  0.305556     24.000000
  0.500000  0.305556  0.305556     12.000000
  0.333333  0.333333  0.305556     24.000000
  0.361111  0.333333  0.305556     48.000000
  0.388889  0.333333  0.305556     48.000000
  0.416667  0.333333  0.305556     48.000000
  0.444444  0.333333  0.305556     48.000000
  0.472222  0.333333  0.305556     48.000000
  0.500000  0.333333  0.305556     24.000000
  0.361111  0.361111  0.305556     24.000000
  0.388889  0.361111  0.305556     48.000000
  0.416667  0.361111  0.305556     48.000000
  0.444444  0.361111  0.305556     48.000000
  0.472222  0.361111  0.305556     48.000000
  0.500000  0.361111  0.305556     24.000000
  0.388889  0.388889  0.305556     24.000000
  0.416667  0.388889  0.305556     48.000000
  0.444444  0.388889  0.305556     48.000000
  0.472222  0.388889  0.305556     48.000000
  0.500000  0.388889  0.305556     24.000000
  0.416667  0.416667  0.305556     24.000000
  0.444444  0.416667  0.305556     48.000000
  0.472222  0.416667  0.305556     48.000000
  0.500000  0.416667  0.305556     24.000000
  0.444444  0.444444  0.305556     24.000000
  0.472222  0.444444  0.305556     48.000000
  0.500000  0.444444  0.305556     24.000000
  0.472222  0.472222  0.305556     24.000000
  0.500000  0.472222  0.305556     24.000000
  0.500000  0.500000  0.305556      6.000000
  0.333333  0.333333  0.333333      8.000000
  0.361111  0.333333  0.333333     24.000000
  0.388889  0.333333  0.333333     24.000000
  0.416667  0.333333  0.333333     24.000000
  0.444444  0.333333  0.333333     24.000000
  0.472222  0.333333  0.333333     24.000000
  0.500000  0.333333  0.333333     12.000000
  0.361111  0.361111  0.333333     24.000000
  0.388889  0.361111  0.333333     48.000000
  0.416667  0.361111  0.333333     48.000000
  0.444444  0.361111  0.333333     48.000000
  0.472222  0.361111  0.333333     48.000000
  0.500000  0.361111  0.333333     24.000000
  0.388889  0.388889  0.333333     24.000000
  0.416667  0.388889  0.333333     48.000000
  0.444444  0.388889  0.333333     48.000000
  0.472222  0.388889  0.333333     48.000000
  0.500000  0.388889  0.333333     24.000000
  0.416667  0.416667  0.333333     24.000000
  0.444444  0.416667  0.333333     48.000000
  0.472222  0.416667  0.333333     48.000000
  0.500000  0.416667  0.333333     24.000000
  0.444444  0.444444  0.333333     24.000000
  0.472222  0.444444  0.333333     48.000000
  0.500000  0.444444  0.333333     24.000000
  0.472222  0.472222  0.333333     24.000000
  0.500000  0.472222  0.333333     24.000000
  0.500000  0.500000  0.333333      6.000000
  0.361111  0.361111  0.361111      8.000000
  0.388889  0.361111  0.361111     24.000000
  0.416667  0.361111  0.361111     24.000000
  0.444444  0.361111  0.361111     24.000000
  0.472222  0.361111  0.361111     24.000000
  0.500000  0.361111  0.361111     12.000000
  0.388889  0.388889  0.361111     24.000000
  0.416667  0.388889  0.361111     48.000000
  0.444444  0.388889  0.361111     48.000000
  0.472222  0.388889  0.361111     48.000000
  0.500000  0.388889  0.361111     24.000000
  0.416667  0.416667  0.361111     24.000000
  0.444444  0.416667  0.361111     48.000000
  0.472222  0.416667  0.361111     48.000000
  0.500000  0.416667  0.361111     24.000000
  0.444444  0.444444  0.361111     24.000000
  0.472222  0.444444  0.361111     48.000000
  0.500000  0.444444  0.361111     24.000000
  0.472222  0.472222  0.361111     24.000000
  0.500000  0.472222  0.361111     24.000000
  0.500000  0.500000  0.361111      6.000000
  0.388889  0.388889  0.388889      8.000000
  0.416667  0.388889  0.388889     24.000000
  0.444444  0.388889  0.388889     24.000000
  0.472222  0.388889  0.388889     24.000000
  0.500000  0.388889  0.388889     12.000000
  0.416667  0.416667  0.388889     24.000000
  0.444444  0.416667  0.388889     48.000000
  0.472222  0.416667  0.388889     48.000000
  0.500000  0.416667  0.388889     24.000000
  0.444444  0.444444  0.388889     24.000000
  0.472222  0.444444  0.388889     48.000000
  0.500000  0.444444  0.388889     24.000000
  0.472222  0.472222  0.388889     24.000000
  0.500000  0.472222  0.388889     24.000000
  0.500000  0.500000  0.388889      6.000000
  0.416667  0.416667  0.416667      8.000000
  0.444444  0.416667  0.416667     24.000000
  0.472222  0.416667  0.416667     24.000000
  0.500000  0.416667  0.416667     12.000000
  0.444444  0.444444  0.416667     24.000000
  0.472222  0.444444  0.416667     48.000000
  0.500000  0.444444  0.416667     24.000000
  0.472222  0.472222  0.416667     24.000000
  0.500000  0.472222  0.416667     24.000000
  0.500000  0.500000  0.416667      6.000000
  0.444444  0.444444  0.444444      8.000000
  0.472222  0.444444  0.444444     24.000000
  0.500000  0.444444  0.444444     12.000000
  0.472222  0.472222  0.444444     24.000000
  0.500000  0.472222  0.444444     24.000000
  0.500000  0.500000  0.444444      6.000000
  0.472222  0.472222  0.472222      8.000000
  0.500000  0.472222  0.472222     12.000000
  0.500000  0.500000  0.472222      6.000000
  0.500000  0.500000  0.500000      1.000000
 
 Following cartesian coordinates:
            Coordinates               Weight
  0.000000  0.000000  0.000000      1.000000
  0.006671  0.000000  0.000000      6.000000
  0.013343  0.000000  0.000000      6.000000
  0.020014  0.000000  0.000000      6.000000
  0.026685  0.000000  0.000000      6.000000
  0.033357  0.000000  0.000000      6.000000
  0.040028  0.000000  0.000000      6.000000
  0.046699  0.000000  0.000000      6.000000
  0.053370  0.000000  0.000000      6.000000
  0.060042  0.000000  0.000000      6.000000
  0.066713  0.000000  0.000000      6.000000
  0.073384  0.000000  0.000000      6.000000
  0.080056  0.000000  0.000000      6.000000
  0.086727  0.000000  0.000000      6.000000
  0.093398  0.000000  0.000000      6.000000
  0.100070  0.000000  0.000000      6.000000
  0.106741  0.000000  0.000000      6.000000
  0.113412  0.000000  0.000000      6.000000
  0.120084  0.000000  0.000000      3.000000
  0.006671  0.006671  0.000000     12.000000
  0.013343  0.006671  0.000000     24.000000
  0.020014  0.006671  0.000000     24.000000
  0.026685  0.006671  0.000000     24.000000
  0.033357  0.006671  0.000000     24.000000
  0.040028  0.006671  0.000000     24.000000
  0.046699  0.006671  0.000000     24.000000
  0.053370  0.006671  0.000000     24.000000
  0.060042  0.006671  0.000000     24.000000
  0.066713  0.006671  0.000000     24.000000
  0.073384  0.006671  0.000000     24.000000
  0.080056  0.006671  0.000000     24.000000
  0.086727  0.006671  0.000000     24.000000
  0.093398  0.006671  0.000000     24.000000
  0.100070  0.006671  0.000000     24.000000
  0.106741  0.006671  0.000000     24.000000
  0.113412  0.006671  0.000000     24.000000
  0.120084  0.006671  0.000000     12.000000
  0.013343  0.013343  0.000000     12.000000
  0.020014  0.013343  0.000000     24.000000
  0.026685  0.013343  0.000000     24.000000
  0.033357  0.013343  0.000000     24.000000
  0.040028  0.013343  0.000000     24.000000
  0.046699  0.013343  0.000000     24.000000
  0.053370  0.013343  0.000000     24.000000
  0.060042  0.013343  0.000000     24.000000
  0.066713  0.013343  0.000000     24.000000
  0.073384  0.013343  0.000000     24.000000
  0.080056  0.013343  0.000000     24.000000
  0.086727  0.013343  0.000000     24.000000
  0.093398  0.013343  0.000000     24.000000
  0.100070  0.013343  0.000000     24.000000
  0.106741  0.013343  0.000000     24.000000
  0.113412  0.013343  0.000000     24.000000
  0.120084  0.013343  0.000000     12.000000
  0.020014  0.020014  0.000000     12.000000
  0.026685  0.020014  0.000000     24.000000
  0.033357  0.020014  0.000000     24.000000
  0.040028  0.020014  0.000000     24.000000
  0.046699  0.020014  0.000000     24.000000
  0.053370  0.020014  0.000000     24.000000
  0.060042  0.020014  0.000000     24.000000
  0.066713  0.020014  0.000000     24.000000
  0.073384  0.020014  0.000000     24.000000
  0.080056  0.020014  0.000000     24.000000
  0.086727  0.020014  0.000000     24.000000
  0.093398  0.020014  0.000000     24.000000
  0.100070  0.020014  0.000000     24.000000
  0.106741  0.020014  0.000000     24.000000
  0.113412  0.020014  0.000000     24.000000
  0.120084  0.020014  0.000000     12.000000
  0.026685  0.026685  0.000000     12.000000
  0.033357  0.026685  0.000000     24.000000
  0.040028  0.026685  0.000000     24.000000
  0.046699  0.026685  0.000000     24.000000
  0.053370  0.026685  0.000000     24.000000
  0.060042  0.026685  0.000000     24.000000
  0.066713  0.026685  0.000000     24.000000
  0.073384  0.026685  0.000000     24.000000
  0.080056  0.026685  0.000000     24.000000
  0.086727  0.026685  0.000000     24.000000
  0.093398  0.026685  0.000000     24.000000
  0.100070  0.026685  0.000000     24.000000
  0.106741  0.026685  0.000000     24.000000
  0.113412  0.026685  0.000000     24.000000
  0.120084  0.026685  0.000000     12.000000
  0.033357  0.033357  0.000000     12.000000
  0.040028  0.033357  0.000000     24.000000
  0.046699  0.033357  0.000000     24.000000
  0.053370  0.033357  0.000000     24.000000
  0.060042  0.033357  0.000000     24.000000
  0.066713  0.033357  0.000000     24.000000
  0.073384  0.033357  0.000000     24.000000
  0.080056  0.033357  0.000000     24.000000
  0.086727  0.033357  0.000000     24.000000
  0.093398  0.033357  0.000000     24.000000
  0.100070  0.033357  0.000000     24.000000
  0.106741  0.033357  0.000000     24.000000
  0.113412  0.033357  0.000000     24.000000
  0.120084  0.033357  0.000000     12.000000
  0.040028  0.040028  0.000000     12.000000
  0.046699  0.040028  0.000000     24.000000
  0.053370  0.040028  0.000000     24.000000
  0.060042  0.040028  0.000000     24.000000
  0.066713  0.040028  0.000000     24.000000
  0.073384  0.040028  0.000000     24.000000
  0.080056  0.040028  0.000000     24.000000
  0.086727  0.040028  0.000000     24.000000
  0.093398  0.040028  0.000000     24.000000
  0.100070  0.040028  0.000000     24.000000
  0.106741  0.040028  0.000000     24.000000
  0.113412  0.040028  0.000000     24.000000
  0.120084  0.040028  0.000000     12.000000
  0.046699  0.046699  0.000000     12.000000
  0.053370  0.046699  0.000000     24.000000
  0.060042  0.046699  0.000000     24.000000
  0.066713  0.046699  0.000000     24.000000
  0.073384  0.046699  0.000000     24.000000
  0.080056  0.046699  0.000000     24.000000
  0.086727  0.046699  0.000000     24.000000
  0.093398  0.046699  0.000000     24.000000
  0.100070  0.046699  0.000000     24.000000
  0.106741  0.046699  0.000000     24.000000
  0.113412  0.046699  0.000000     24.000000
  0.120084  0.046699  0.000000     12.000000
  0.053370  0.053370  0.000000     12.000000
  0.060042  0.053370  0.000000     24.000000
  0.066713  0.053370  0.000000     24.000000
  0.073384  0.053370  0.000000     24.000000
  0.080056  0.053370  0.000000     24.000000
  0.086727  0.053370  0.000000     24.000000
  0.093398  0.053370  0.000000     24.000000
  0.100070  0.053370  0.000000     24.000000
  0.106741  0.053370  0.000000     24.000000
  0.113412  0.053370  0.000000     24.000000
  0.120084  0.053370  0.000000     12.000000
  0.060042  0.060042  0.000000     12.000000
  0.066713  0.060042  0.000000     24.000000
  0.073384  0.060042  0.000000     24.000000
  0.080056  0.060042  0.000000     24.000000
  0.086727  0.060042  0.000000     24.000000
  0.093398  0.060042  0.000000     24.000000
  0.100070  0.060042  0.000000     24.000000
  0.106741  0.060042  0.000000     24.000000
  0.113412  0.060042  0.000000     24.000000
  0.120084  0.060042  0.000000     12.000000
  0.066713  0.066713  0.000000     12.000000
  0.073384  0.066713  0.000000     24.000000
  0.080056  0.066713  0.000000     24.000000
  0.086727  0.066713  0.000000     24.000000
  0.093398  0.066713  0.000000     24.000000
  0.100070  0.066713  0.000000     24.000000
  0.106741  0.066713  0.000000     24.000000
  0.113412  0.066713  0.000000     24.000000
  0.120084  0.066713  0.000000     12.000000
  0.073384  0.073384  0.000000     12.000000
  0.080056  0.073384  0.000000     24.000000
  0.086727  0.073384  0.000000     24.000000
  0.093398  0.073384  0.000000     24.000000
  0.100070  0.073384  0.000000     24.000000
  0.106741  0.073384  0.000000     24.000000
  0.113412  0.073384  0.000000     24.000000
  0.120084  0.073384  0.000000     12.000000
  0.080056  0.080056  0.000000     12.000000
  0.086727  0.080056  0.000000     24.000000
  0.093398  0.080056  0.000000     24.000000
  0.100070  0.080056  0.000000     24.000000
  0.106741  0.080056  0.000000     24.000000
  0.113412  0.080056  0.000000     24.000000
  0.120084  0.080056  0.000000     12.000000
  0.086727  0.086727  0.000000     12.000000
  0.093398  0.086727  0.000000     24.000000
  0.100070  0.086727  0.000000     24.000000
  0.106741  0.086727  0.000000     24.000000
  0.113412  0.086727  0.000000     24.000000
  0.120084  0.086727  0.000000     12.000000
  0.093398  0.093398  0.000000     12.000000
  0.100070  0.093398  0.000000     24.000000
  0.106741  0.093398  0.000000     24.000000
  0.113412  0.093398  0.000000     24.000000
  0.120084  0.093398  0.000000     12.000000
  0.100070  0.100070  0.000000     12.000000
  0.106741  0.100070  0.000000     24.000000
  0.113412  0.100070  0.000000     24.000000
  0.120084  0.100070  0.000000     12.000000
  0.106741  0.106741  0.000000     12.000000
  0.113412  0.106741  0.000000     24.000000
  0.120084  0.106741  0.000000     12.000000
  0.113412  0.113412  0.000000     12.000000
  0.120084  0.113412  0.000000     12.000000
  0.120084  0.120084  0.000000      3.000000
  0.006671  0.006671  0.006671      8.000000
  0.013343  0.006671  0.006671     24.000000
  0.020014  0.006671  0.006671     24.000000
  0.026685  0.006671  0.006671     24.000000
  0.033357  0.006671  0.006671     24.000000
  0.040028  0.006671  0.006671     24.000000
  0.046699  0.006671  0.006671     24.000000
  0.053370  0.006671  0.006671     24.000000
  0.060042  0.006671  0.006671     24.000000
  0.066713  0.006671  0.006671     24.000000
  0.073384  0.006671  0.006671     24.000000
  0.080056  0.006671  0.006671     24.000000
  0.086727  0.006671  0.006671     24.000000
  0.093398  0.006671  0.006671     24.000000
  0.100070  0.006671  0.006671     24.000000
  0.106741  0.006671  0.006671     24.000000
  0.113412  0.006671  0.006671     24.000000
  0.120084  0.006671  0.006671     12.000000
  0.013343  0.013343  0.006671     24.000000
  0.020014  0.013343  0.006671     48.000000
  0.026685  0.013343  0.006671     48.000000
  0.033357  0.013343  0.006671     48.000000
  0.040028  0.013343  0.006671     48.000000
  0.046699  0.013343  0.006671     48.000000
  0.053370  0.013343  0.006671     48.000000
  0.060042  0.013343  0.006671     48.000000
  0.066713  0.013343  0.006671     48.000000
  0.073384  0.013343  0.006671     48.000000
  0.080056  0.013343  0.006671     48.000000
  0.086727  0.013343  0.006671     48.000000
  0.093398  0.013343  0.006671     48.000000
  0.100070  0.013343  0.006671     48.000000
  0.106741  0.013343  0.006671     48.000000
  0.113412  0.013343  0.006671     48.000000
  0.120084  0.013343  0.006671     24.000000
  0.020014  0.020014  0.006671     24.000000
  0.026685  0.020014  0.006671     48.000000
  0.033357  0.020014  0.006671     48.000000
  0.040028  0.020014  0.006671     48.000000
  0.046699  0.020014  0.006671     48.000000
  0.053370  0.020014  0.006671     48.000000
  0.060042  0.020014  0.006671     48.000000
  0.066713  0.020014  0.006671     48.000000
  0.073384  0.020014  0.006671     48.000000
  0.080056  0.020014  0.006671     48.000000
  0.086727  0.020014  0.006671     48.000000
  0.093398  0.020014  0.006671     48.000000
  0.100070  0.020014  0.006671     48.000000
  0.106741  0.020014  0.006671     48.000000
  0.113412  0.020014  0.006671     48.000000
  0.120084  0.020014  0.006671     24.000000
  0.026685  0.026685  0.006671     24.000000
  0.033357  0.026685  0.006671     48.000000
  0.040028  0.026685  0.006671     48.000000
  0.046699  0.026685  0.006671     48.000000
  0.053370  0.026685  0.006671     48.000000
  0.060042  0.026685  0.006671     48.000000
  0.066713  0.026685  0.006671     48.000000
  0.073384  0.026685  0.006671     48.000000
  0.080056  0.026685  0.006671     48.000000
  0.086727  0.026685  0.006671     48.000000
  0.093398  0.026685  0.006671     48.000000
  0.100070  0.026685  0.006671     48.000000
  0.106741  0.026685  0.006671     48.000000
  0.113412  0.026685  0.006671     48.000000
  0.120084  0.026685  0.006671     24.000000
  0.033357  0.033357  0.006671     24.000000
  0.040028  0.033357  0.006671     48.000000
  0.046699  0.033357  0.006671     48.000000
  0.053370  0.033357  0.006671     48.000000
  0.060042  0.033357  0.006671     48.000000
  0.066713  0.033357  0.006671     48.000000
  0.073384  0.033357  0.006671     48.000000
  0.080056  0.033357  0.006671     48.000000
  0.086727  0.033357  0.006671     48.000000
  0.093398  0.033357  0.006671     48.000000
  0.100070  0.033357  0.006671     48.000000
  0.106741  0.033357  0.006671     48.000000
  0.113412  0.033357  0.006671     48.000000
  0.120084  0.033357  0.006671     24.000000
  0.040028  0.040028  0.006671     24.000000
  0.046699  0.040028  0.006671     48.000000
  0.053370  0.040028  0.006671     48.000000
  0.060042  0.040028  0.006671     48.000000
  0.066713  0.040028  0.006671     48.000000
  0.073384  0.040028  0.006671     48.000000
  0.080056  0.040028  0.006671     48.000000
  0.086727  0.040028  0.006671     48.000000
  0.093398  0.040028  0.006671     48.000000
  0.100070  0.040028  0.006671     48.000000
  0.106741  0.040028  0.006671     48.000000
  0.113412  0.040028  0.006671     48.000000
  0.120084  0.040028  0.006671     24.000000
  0.046699  0.046699  0.006671     24.000000
  0.053370  0.046699  0.006671     48.000000
  0.060042  0.046699  0.006671     48.000000
  0.066713  0.046699  0.006671     48.000000
  0.073384  0.046699  0.006671     48.000000
  0.080056  0.046699  0.006671     48.000000
  0.086727  0.046699  0.006671     48.000000
  0.093398  0.046699  0.006671     48.000000
  0.100070  0.046699  0.006671     48.000000
  0.106741  0.046699  0.006671     48.000000
  0.113412  0.046699  0.006671     48.000000
  0.120084  0.046699  0.006671     24.000000
[...]
     24       3.7854      2.00000
     25       8.2405      0.00000
     26       8.2405      0.00000
     27       8.2405      0.00000
     28       8.8900      0.00000
     29      20.2404      0.00000
     30      20.2404      0.00000
     31      20.2404      0.00000
     32      20.4143      0.00000

 k-point *** :       0.4722    0.4444    0.4444
  band No.  band energies     occupation 
      1      -2.7001      2.00000
      2      -2.6800      2.00000
      3      -2.6701      2.00000
      4      -2.6701      2.00000
      5      -1.0105      2.00000
      6      -1.0105      2.00000
      7      -0.9980      2.00000
      8      -0.9688      2.00000
      9      -0.9605      2.00000
     10      -0.9433      2.00000
     11      -0.9371      2.00000
     12      -0.9371      2.00000
     13       0.9068      2.00000
     14       0.9068      2.00000
     15       0.9327      2.00000
     16       1.0377      2.00000
     17       1.0768      2.00000
     18       1.1021      2.00000
     19       1.1021      2.00000
     20       1.1059      2.00000
     21       3.1355      2.00000
     22       3.5632      2.00000
     23       3.7890      2.00000
     24       3.7890      2.00000
     25       8.1650      0.00000
     26       8.1650      0.00000
     27       8.3489      0.00000
     28       8.6777      0.00000
     29      20.2503      0.00000
     30      20.2503      0.00000
     31      20.3006      0.00000
     32      20.3813      0.00000

 k-point *** :       0.5000    0.4444    0.4444
  band No.  band energies     occupation 
      1      -2.6943      2.00000
      2      -2.6943      2.00000
      3      -2.6743      2.00000
      4      -2.6743      2.00000
      5      -1.0081      2.00000
      6      -1.0081      2.00000
      7      -0.9818      2.00000
      8      -0.9818      2.00000
      9      -0.9552      2.00000
     10      -0.9552      2.00000
     11      -0.9414      2.00000
     12      -0.9414      2.00000
     13       0.9277      2.00000
     14       0.9277      2.00000
     15       0.9966      2.00000
     16       0.9966      2.00000
     17       1.0956      2.00000
     18       1.0956      2.00000
     19       1.0980      2.00000
     20       1.0980      2.00000
     21       3.3434      2.00000
     22       3.3434      2.00000
     23       3.7903      2.00000
     24       3.7903      2.00000
     25       8.1396      0.00000
     26       8.1396      0.00000
     27       8.4962      0.00000
     28       8.4962      0.00000
     29      20.2530      0.00000
     30      20.2530      0.00000
     31      20.3445      0.00000
     32      20.3445      0.00000

 k-point *** :       0.4722    0.4722    0.4444
  band No.  band energies     occupation 
      1      -2.7056      2.00000
      2      -2.6904      2.00000
      3      -2.6904      2.00000
      4      -2.6855      2.00000
      5      -1.0006      2.00000
      6      -0.9944      2.00000
      7      -0.9944      2.00000
      8      -0.9711      2.00000
      9      -0.9678      2.00000
     10      -0.9538      2.00000
     11      -0.9538      2.00000
     12      -0.9508      2.00000
     13       0.9687      2.00000
     14       0.9829      2.00000
     15       0.9829      2.00000
     16       1.0703      2.00000
     17       1.0716      2.00000
     18       1.0995      2.00000
     19       1.1016      2.00000
     20       1.1016      2.00000
     21       3.2806      2.00000
     22       3.6161      2.00000
     23       3.6161      2.00000
     24       3.7326      2.00000
     25       8.1370      0.00000
     26       8.2311      0.00000
     27       8.2311      0.00000
     28       8.4917      0.00000
     29      20.2721      0.00000
     30      20.2963      0.00000
     31      20.2963      0.00000
     32      20.3574      0.00000

 k-point *** :       0.5000    0.4722    0.4444
  band No.  band energies     occupation 
      1      -2.7023      2.00000
      2      -2.7023      2.00000
      3      -2.6923      2.00000
      4      -2.6923      2.00000
      5      -0.9949      2.00000
      6      -0.9949      2.00000
      7      -0.9811      2.00000
      8      -0.9811      2.00000
      9      -0.9642      2.00000
     10      -0.9642      2.00000
     11      -0.9567      2.00000
     12      -0.9567      2.00000
     13       0.9981      2.00000
     14       0.9981      2.00000
     15       1.0389      2.00000
     16       1.0389      2.00000
     17       1.0915      2.00000
     18       1.0915      2.00000
     19       1.0960      2.00000
     20       1.0960      2.00000
     21       3.4436      2.00000
     22       3.4436      2.00000
     23       3.6737      2.00000
     24       3.6737      2.00000
     25       8.1596      0.00000
     26       8.1596      0.00000
     27       8.3415      0.00000
     28       8.3415      0.00000
     29      20.2864      0.00000
     30      20.2864      0.00000
     31      20.3296      0.00000
     32      20.3296      0.00000

 k-point *** :       0.5000    0.5000    0.4444
  band No.  band energies     occupation 
      1      -2.7016      2.00000
      2      -2.7016      2.00000
      3      -2.7016      2.00000
      4      -2.7016      2.00000
      5      -0.9851      2.00000
      6      -0.9851      2.00000
      7      -0.9851      2.00000
      8      -0.9851      2.00000
      9      -0.9651      2.00000
     10      -0.9651      2.00000
     11      -0.9651      2.00000
     12      -0.9651      2.00000
     13       1.0432      2.00000
     14       1.0432      2.00000
     15       1.0432      2.00000
     16       1.0432      2.00000
     17       1.0869      2.00000
     18       1.0869      2.00000
     19       1.0869      2.00000
     20       1.0869      2.00000
     21       3.5559      2.00000
     22       3.5559      2.00000
     23       3.5559      2.00000
     24       3.5559      2.00000
     25       8.2281      0.00000
     26       8.2281      0.00000
     27       8.2281      0.00000
     28       8.2281      0.00000
     29      20.3103      0.00000
     30      20.3103      0.00000
     31      20.3103      0.00000
     32      20.3103      0.00000

 k-point *** :       0.4722    0.4722    0.4722
  band No.  band energies     occupation 
      1      -2.7137      2.00000
      2      -2.7036      2.00000
      3      -2.7036      2.00000
      4      -2.7036      2.00000
      5      -0.9884      2.00000
      6      -0.9884      2.00000
      7      -0.9884      2.00000
      8      -0.9736      2.00000
      9      -0.9736      2.00000
     10      -0.9650      2.00000
     11      -0.9650      2.00000
     12      -0.9650      2.00000
     13       1.0353      2.00000
     14       1.0353      2.00000
     15       1.0353      2.00000
     16       1.0904      2.00000
     17       1.0904      2.00000
     18       1.1050      2.00000
     19       1.1050      2.00000
     20       1.1050      2.00000
     21       3.3796      2.00000
     22       3.6126      2.00000
     23       3.6126      2.00000
     24       3.6126      2.00000
     25       8.1568      0.00000
     26       8.1568      0.00000
     27       8.1568      0.00000
     28       8.3377      0.00000
     29      20.3045      0.00000
     30      20.3045      0.00000
     31      20.3045      0.00000
     32      20.3441      0.00000

 k-point *** :       0.5000    0.4722    0.4722
  band No.  band energies     occupation 
      1      -2.7130      2.00000
      2      -2.7130      2.00000
      3      -2.7080      2.00000
      4      -2.7080      2.00000
      5      -0.9860      2.00000
      6      -0.9860      2.00000
      7      -0.9794      2.00000
      8      -0.9794      2.00000
      9      -0.9727      2.00000
     10      -0.9727      2.00000
     11      -0.9692      2.00000
     12      -0.9692      2.00000
     13       1.0567      2.00000
     14       1.0567      2.00000
     15       1.0772      2.00000
     16       1.0772      2.00000
     17       1.1020      2.00000
     18       1.1020      2.00000
     19       1.1026      2.00000
     20       1.1026      2.00000
     21       3.4925      2.00000
     22       3.4925      2.00000
     23       3.6113      2.00000
     24       3.6113      2.00000
     25       8.1319      0.00000
     26       8.1319      0.00000
     27       8.2249      0.00000
     28       8.2249      0.00000
     29      20.3065      0.00000
     30      20.3065      0.00000
     31      20.3266      0.00000
     32      20.3266      0.00000

 k-point *** :       0.5000    0.5000    0.4722
  band No.  band energies     occupation 
      1      -2.7149      2.00000
      2      -2.7149      2.00000
      3      -2.7149      2.00000
      4      -2.7149      2.00000
      5      -0.9802      2.00000
      6      -0.9802      2.00000
      7      -0.9802      2.00000
      8      -0.9802      2.00000
      9      -0.9752      2.00000
     10      -0.9752      2.00000
     11      -0.9752      2.00000
     12      -0.9752      2.00000
     13       1.0887      2.00000
     14       1.0887      2.00000
     15       1.0887      2.00000
     16       1.0887      2.00000
     17       1.0998      2.00000
     18       1.0998      2.00000
     19       1.0998      2.00000
     20       1.0998      2.00000
     21       3.5495      2.00000
     22       3.5495      2.00000
     23       3.5495      2.00000
     24       3.5495      2.00000
     25       8.1542      0.00000
     26       8.1542      0.00000
     27       8.1542      0.00000
     28       8.1542      0.00000
     29      20.3186      0.00000
     30      20.3186      0.00000
     31      20.3186      0.00000
     32      20.3186      0.00000

 k-point *** :       0.5000    0.5000    0.5000
  band No.  band energies     occupation 
      1      -2.7193      2.00000
      2      -2.7193      2.00000
      3      -2.7193      2.00000
      4      -2.7193      2.00000
      5      -0.9785      2.00000
      6      -0.9785      2.00000
      7      -0.9785      2.00000
      8      -0.9785      2.00000
      9      -0.9785      2.00000
     10      -0.9785      2.00000
     11      -0.9785      2.00000
     12      -0.9785      2.00000
     13       1.1041      2.00000
     14       1.1041      2.00000
     15       1.1041      2.00000
     16       1.1041      2.00000
     17       1.1041      2.00000
     18       1.1041      2.00000
     19       1.1041      2.00000
     20       1.1041      2.00000
     21       3.5473      2.00000
     22       3.5473      2.00000
     23       3.5473      2.00000
     24       3.5473      2.00000
     25       8.1294      0.00000
     26       8.1294      0.00000
     27       8.1294      0.00000
     28       8.1294      0.00000
     29      20.3205      0.00000
     30      20.3205      0.00000
     31      20.3205      0.00000
     32      20.3205      0.00000


--------------------------------------------------------------------------------------------------------


 soft charge-density along one line, spin component           1
         0         1         2         3         4         5         6         7         8         9
 total charge-density along one line
 
 pseudopotential strength for first ion, spin component:           1
-11.738  -0.000   0.000  -0.000   0.000   0.048   0.000  -0.000
 -0.000 -11.738   0.000  -0.000   0.000   0.000   0.048  -0.000
  0.000   0.000 -11.727   0.000  -0.000  -0.000  -0.000   0.046
 -0.000  -0.000   0.000 -11.738  -0.000   0.000   0.000  -0.000
  0.000   0.000  -0.000  -0.000 -11.727  -0.000  -0.000   0.000
  0.048   0.000  -0.000   0.000  -0.000   0.473  -0.000   0.000
  0.000   0.048  -0.000   0.000  -0.000  -0.000   0.473   0.000
 -0.000  -0.000   0.046  -0.000   0.000   0.000   0.000   0.473
  0.000   0.000  -0.000   0.048   0.000  -0.000  -0.000   0.000
 -0.000  -0.000   0.000   0.000   0.046   0.000   0.000  -0.000
  0.000   0.000  -0.000   0.000  -0.000  -0.000  -0.000   0.000
 -0.000  -0.000   0.000  -0.000   0.000   0.000   0.000  -0.000
 -0.000   0.000   0.000  -0.000   0.000   0.000  -0.000  -0.000
 -0.000  -0.000   0.000  -0.000   0.000   0.000   0.000  -0.000
 -0.000  -0.000   0.000   0.000   0.000   0.000   0.000  -0.000
  0.000  -0.000  -0.000   0.000  -0.000  -0.000   0.000   0.000
  0.000   0.000  -0.000   0.000  -0.000  -0.000  -0.000   0.000
  0.000   0.000   0.000  -0.000  -0.000  -0.000  -0.000   0.000
 total augmentation occupancy for first ion, spin component:           1
  1.902  -0.009  -0.003  -0.003  -0.012   0.012   0.008  -0.014   0.001   0.014   0.024  -0.016   0.000   0.000   0.000   0.000
 -0.009   1.969  -0.002  -0.010  -0.001   0.008  -0.037   0.005   0.011  -0.008   0.049  -0.001  -0.000   0.000  -0.000  -0.000
 -0.003  -0.002   1.936   0.004  -0.022  -0.014   0.005  -0.013  -0.002   0.026  -0.051  -0.054  -0.000   0.000   0.000   0.000
 -0.003  -0.010   0.004   1.945  -0.002   0.001   0.011  -0.002   0.004   0.010   0.022  -0.005   0.000  -0.000  -0.000   0.000
 -0.012  -0.001  -0.022  -0.002   1.988   0.014  -0.008   0.026   0.010  -0.065   0.082   0.030   0.000  -0.000   0.000   0.000
  0.012   0.008  -0.014   0.001   0.014   0.138  -0.004   0.032   0.004  -0.014   0.023   0.032   0.000  -0.000  -0.000   0.000
  0.008  -0.037   0.005   0.011  -0.008  -0.004   0.118  -0.008  -0.008   0.016  -0.024   0.020   0.000  -0.000  -0.000   0.000
 -0.014   0.005  -0.013  -0.002   0.026   0.032  -0.008   0.112  -0.000  -0.006   0.126  -0.011   0.000   0.000  -0.000   0.000
  0.001   0.011  -0.002   0.004   0.010   0.004  -0.008  -0.000   0.084  -0.016   0.000   0.017   0.000  -0.000  -0.000   0.000
  0.014  -0.008   0.026   0.010  -0.065  -0.014   0.016  -0.006  -0.016   0.079  -0.099   0.022  -0.000   0.000   0.000  -0.000
  0.024   0.049  -0.051   0.022   0.082   0.023  -0.024   0.126   0.000  -0.099   1.123  -0.417   0.000   0.000  -0.000   0.000
 -0.016  -0.001  -0.054  -0.005   0.030   0.032   0.020  -0.011   0.017   0.022  -0.417   0.235   0.000  -0.000  -0.000  -0.000
  0.000  -0.000  -0.000   0.000   0.000   0.000   0.000   0.000   0.000  -0.000   0.000   0.000   0.123   0.022  -0.011  -0.007
  0.000   0.000   0.000  -0.000  -0.000  -0.000  -0.000   0.000  -0.000   0.000   0.000  -0.000   0.022   0.093  -0.001  -0.001
  0.000  -0.000   0.000  -0.000   0.000  -0.000  -0.000  -0.000  -0.000   0.000  -0.000  -0.000  -0.011  -0.001   0.206  -0.001
  0.000  -0.000   0.000   0.000   0.000   0.000   0.000   0.000   0.000  -0.000   0.000  -0.000  -0.007  -0.001  -0.001   0.001
  0.000   0.000   0.000  -0.000  -0.000  -0.000  -0.000   0.000  -0.000   0.000   0.000  -0.000  -0.001  -0.006  -0.001   0.000
  0.000  -0.000   0.000   0.000   0.000  -0.000  -0.000  -0.000  -0.000  -0.000  -0.000   0.000  -0.001  -0.001  -0.011   0.000


------------------------ aborting loop because EDIFF is reached ----------------------------------------




--------------------------------------------------------------------------------------------------------


    CHARGE:  VPU time    4.58: CPU time    4.58
    FORLOC:  VPU time    0.00: CPU time    0.00
    FORNL :  VPU time   11.79: CPU time   11.79
    STRESS:  VPU time   34.11: CPU time   34.14
    FORCOR:  VPU time    0.05: CPU time    0.05
    FORHAR:  VPU time    0.01: CPU time    0.01
    MIXING:  VPU time    0.00: CPU time    0.00


--------------------------------------------------------------------------------------------------------



  FREE ENERGIE OF THE ION-ELECTRON SYSTEM (eV)
  ---------------------------------------------------
  free  energy   TOTEN  =       -10.957872 eV

  energy  without entropy=      -10.957828  energy(sigma->0) =      -10.957850
 

  FORCE on cell =-STRESS in cart. coord.  units (eV/reduce length):
  Direction    X        Y        Z        XY       YZ       ZX
  --------------------------------------------------------------------------------------
  Alpha Z    444.87    444.87    444.87
  Ewald    -1332.35  -1332.35  -1332.35      0.00     -0.00     -0.00
  Hartree    239.90    239.90    239.90     -0.00     -0.00     -0.00
  E(xc)     -233.67   -233.67   -233.67      0.00     -0.00     -0.00
  Local      429.51    429.51    429.51      0.00      0.00      0.00
  n-local   -249.38   -258.24   -260.79      0.36      2.59      0.80
  augment    167.97    167.97    167.97     -0.00     -0.00     -0.00
  Kinetic    554.06    544.78    539.45     -3.48      0.06     -1.61
  -------------------------------------------------------------------------------------
  Total        6.20      6.20      6.20     -0.00     -0.00      0.00
  in kB      155.44    155.44    155.44     -0.00     -0.00      0.00
  external pressure =      155.44 kB  Pullay stress =        0.00 kB


 VOLUME and BASIS-vectors are now :
 -----------------------------------------------------------------------------
  energy-cutoff  :     1000.00
  volume of cell :       63.87
      direct lattice vectors                 reciprocal lattice vectors
     3.997218361  0.000000000  0.000000000     0.250173973  0.000000000  0.000000000
     0.000000000  3.997218361  0.000000000     0.000000000  0.250173973  0.000000000
     0.000000000  0.000000000  3.997218361     0.000000000  0.000000000  0.250173973

  length of vectors
     3.997218361  3.997218361  3.997218361     0.250173973  0.250173973  0.250173973


 FORCES acting on ions
    electron-ion (+dipol)            ewald-force                    non-local-force                 convergence-correction
 -----------------------------------------------------------------------------------------------
   0.483E-14 -.582E-14 -.586E-13   -.712E-14 -.901E-14 -.144E-13   0.134E-25 -.130E-25 0.285E-27   0.317E-13 0.193E-13 0.140E-13
   0.304E-12 -.160E-11 0.246E-12   0.109E-13 -.480E-14 -.144E-13   -.196E-25 0.476E-26 0.652E-26   -.649E-13 -.312E-13 0.141E-13
   0.304E-12 -.672E-14 -.443E-12   0.955E-16 0.474E-14 0.140E-13   -.840E-26 -.451E-26 -.784E-26   -.587E-13 0.261E-13 -.431E-13
   0.454E-14 0.288E-12 0.239E-12   -.315E-15 0.895E-14 0.139E-13   -.654E-26 0.861E-26 0.830E-26   0.367E-13 -.418E-13 -.407E-13
 -----------------------------------------------------------------------------------------------
   0.617E-12 -.133E-11 -.168E-13   0.356E-14 -.119E-15 -.907E-15   -.212E-25 -.418E-26 0.727E-26   -.551E-13 -.276E-13 -.558E-13
 
 
 POSITION                                       TOTAL-FORCE (eV/Angst)
 -----------------------------------------------------------------------------------
      0.00000      0.00000      0.00000         0.000000      0.000000     -0.000000
      1.99861      1.99861      0.00000         0.000000      0.000000      0.000000
      1.99861      0.00000      1.99861        -0.000000      0.000000     -0.000000
      0.00000      1.99861      1.99861        -0.000000     -0.000000      0.000000
 -----------------------------------------------------------------------------------
    total drift:                                0.000000     -0.000000     -0.000000


--------------------------------------------------------------------------------------------------------



 mean value of Nose-termostat <S>:     1.000 mean value of <T> :     0.000
 mean temperature <T/S>/<1/S>  :     0.000

     LOOP+:  VPU time 1375.81: CPU time 1376.03
  
  
 General timing and accounting informations for this job:
 ========================================================
  
                  Total CPU time used (sec):     1414.588
                            User time (sec):      970.637
                          System time (sec):      443.951
                         Elapsed time (sec):     1414.836
  
                   Maximum memory used (kb):     7133312.
                   Average memory used (kb):           0.
  
                          Minor page faults:      1999609
                          Major page faults:            0
                 Voluntary context switches:          983
