<?xml version="1.0" encoding="ISO-8859-1"?>
<modeling>
 <generator>
  <i name="program" type="string">vasp</i>
  <i name="version" type="string">4.6.28 </i>
  <i name="subversion" type="string">25Jul05 complex  parallel</i>
  <i name="platform" type="string">LinuxIFC</i>
  <i name="date" type="string">2017 01 14</i>
  <i name="time" type="string">06:20:37</i>
 </generator>
 <incar>
  <i type="string" name="PREC">accurate</i>
  <i type="int" name="IALGO">    38</i>
  <i type="logical" name="ADDGRID"> T  </i>
  <i name="EDIFF">      0.00000001</i>
  <i type="int" name="IBRION">    -1</i>
  <i name="ENCUT">   1000.00000000</i>
  <i type="logical" name="LREAL"> F  </i>
  <i type="int" name="ISMEAR">     0</i>
  <i name="SIGMA">      0.01000000</i>
  <i type="logical" name="LWAVE"> F  </i>
  <i type="logical" name="LCHARG"> F  </i>
 </incar>
 <kpoints>
  <generation param="Gamma">
   <v type="int" name="divisions">      36      36      36</v>
   <v name="usershift">      0.00000000      0.00000000      0.00000000</v>
   <v name="genvec1">      0.02777778      0.00000000      0.00000000</v>
   <v name="genvec2">      0.00000000      0.02777778      0.00000000</v>
   <v name="genvec3">      0.00000000      0.00000000      0.02777778</v>
   <v name="shift">      0.00000000      0.00000000      0.00000000</v>
  </generation>
  <varray name="kpointlist" >
   <v>       0.00000000      0.00000000      0.00000000</v>
   <v>       0.02777778      0.00000000      0.00000000</v>
   <v>       0.05555556      0.00000000      0.00000000</v>
   <v>       0.08333333      0.00000000      0.00000000</v>
   <v>       0.11111111      0.00000000      0.00000000</v>
   <v>       0.13888889      0.00000000      0.00000000</v>
   <v>       0.16666667      0.00000000      0.00000000</v>
   <v>       0.19444444      0.00000000      0.00000000</v>
   <v>       0.22222222      0.00000000      0.00000000</v>
   <v>       0.25000000      0.00000000      0.00000000</v>
   <v>       0.27777778      0.00000000      0.00000000</v>
   <v>       0.30555556      0.00000000      0.00000000</v>
   <v>       0.33333333      0.00000000      0.00000000</v>
   <v>       0.36111111      0.00000000      0.00000000</v>
   <v>       0.38888889      0.00000000      0.00000000</v>
   <v>       0.41666667      0.00000000      0.00000000</v>
   <v>       0.44444444      0.00000000      0.00000000</v>
   <v>       0.47222222      0.00000000      0.00000000</v>
   <v>       0.50000000      0.00000000      0.00000000</v>
   <v>       0.02777778      0.02777778      0.00000000</v>
   <v>       0.05555556      0.02777778      0.00000000</v>
   <v>       0.08333333      0.02777778      0.00000000</v>
   <v>       0.11111111      0.02777778      0.00000000</v>
   <v>       0.13888889      0.02777778      0.00000000</v>
   <v>       0.16666667      0.02777778      0.00000000</v>
   <v>       0.19444444      0.02777778      0.00000000</v>
   <v>       0.22222222      0.02777778      0.00000000</v>
   <v>       0.25000000      0.02777778      0.00000000</v>
   <v>       0.27777778      0.02777778      0.00000000</v>
   <v>       0.30555556      0.02777778      0.00000000</v>
   <v>       0.33333333      0.02777778      0.00000000</v>
   <v>       0.36111111      0.02777778      0.00000000</v>
   <v>       0.38888889      0.02777778      0.00000000</v>
   <v>       0.41666667      0.02777778      0.00000000</v>
   <v>       0.44444444      0.02777778      0.00000000</v>
   <v>       0.47222222      0.02777778      0.00000000</v>
   <v>       0.50000000      0.02777778      0.00000000</v>
   <v>       0.05555556      0.05555556      0.00000000</v>
   <v>       0.08333333      0.05555556      0.00000000</v>
   <v>       0.11111111      0.05555556      0.00000000</v>
   <v>       0.13888889      0.05555556      0.00000000</v>
   <v>       0.16666667      0.05555556      0.00000000</v>
   <v>       0.19444444      0.05555556      0.00000000</v>
   <v>       0.22222222      0.05555556      0.00000000</v>
   <v>       0.25000000      0.05555556      0.00000000</v>
   <v>       0.27777778      0.05555556      0.00000000</v>
   <v>       0.30555556      0.05555556      0.00000000</v>
   <v>       0.33333333      0.05555556      0.00000000</v>
   <v>       0.36111111      0.05555556      0.00000000</v>
   <v>       0.38888889      0.05555556      0.00000000</v>
   <v>       0.41666667      0.05555556      0.00000000</v>
   <v>       0.44444444      0.05555556      0.00000000</v>
   <v>       0.47222222      0.05555556      0.00000000</v>
   <v>       0.50000000      0.05555556      0.00000000</v>
   <v>       0.08333333      0.08333333      0.00000000</v>
   <v>       0.11111111      0.08333333      0.00000000</v>
   <v>       0.13888889      0.08333333      0.00000000</v>
   <v>       0.16666667      0.08333333      0.00000000</v>
   <v>       0.19444444      0.08333333      0.00000000</v>
   <v>       0.22222222      0.08333333      0.00000000</v>
   <v>       0.25000000      0.08333333      0.00000000</v>
   <v>       0.27777778      0.08333333      0.00000000</v>
   <v>       0.30555556      0.08333333      0.00000000</v>
   <v>       0.33333333      0.08333333      0.00000000</v>
   <v>       0.36111111      0.08333333      0.00000000</v>
   <v>       0.38888889      0.08333333      0.00000000</v>
   <v>       0.41666667      0.08333333      0.00000000</v>
   <v>       0.44444444      0.08333333      0.00000000</v>
   <v>       0.47222222      0.08333333      0.00000000</v>
   <v>       0.50000000      0.08333333      0.00000000</v>
   <v>       0.11111111      0.11111111      0.00000000</v>
   <v>       0.13888889      0.11111111      0.00000000</v>
   <v>       0.16666667      0.11111111      0.00000000</v>
   <v>       0.19444444      0.11111111      0.00000000</v>
   <v>       0.22222222      0.11111111      0.00000000</v>
   <v>       0.25000000      0.11111111      0.00000000</v>
   <v>       0.27777778      0.11111111      0.00000000</v>
   <v>       0.30555556      0.11111111      0.00000000</v>
   <v>       0.33333333      0.11111111      0.00000000</v>
   <v>       0.36111111      0.11111111      0.00000000</v>
   <v>       0.38888889      0.11111111      0.00000000</v>
   <v>       0.41666667      0.11111111      0.00000000</v>
   <v>       0.44444444      0.11111111      0.00000000</v>
   <v>       0.47222222      0.11111111      0.00000000</v>
   <v>       0.50000000      0.11111111      0.00000000</v>
   <v>       0.13888889      0.13888889      0.00000000</v>
   <v>       0.16666667      0.13888889      0.00000000</v>
   <v>       0.19444444      0.13888889      0.00000000</v>
   <v>       0.22222222      0.13888889      0.00000000</v>
   <v>       0.25000000      0.13888889      0.00000000</v>
   <v>       0.27777778      0.13888889      0.00000000</v>
   <v>       0.30555556      0.13888889      0.00000000</v>
   <v>       0.33333333      0.13888889      0.00000000</v>
   <v>       0.36111111      0.13888889      0.00000000</v>
   <v>       0.38888889      0.13888889      0.00000000</v>
   <v>       0.41666667      0.13888889      0.00000000</v>
   <v>       0.44444444      0.13888889      0.00000000</v>
   <v>       0.47222222      0.13888889      0.00000000</v>
   <v>       0.50000000      0.13888889      0.00000000</v>
   <v>       0.16666667      0.16666667      0.00000000</v>
   <v>       0.19444444      0.16666667      0.00000000</v>
   <v>       0.22222222      0.16666667      0.00000000</v>
   <v>       0.25000000      0.16666667      0.00000000</v>
   <v>       0.27777778      0.16666667      0.00000000</v>
   <v>       0.30555556      0.16666667      0.00000000</v>
   <v>       0.33333333      0.16666667      0.00000000</v>
   <v>       0.36111111      0.16666667      0.00000000</v>
   <v>       0.38888889      0.16666667      0.00000000</v>
   <v>       0.41666667      0.16666667      0.00000000</v>
   <v>       0.44444444      0.16666667      0.00000000</v>
   <v>       0.47222222      0.16666667      0.00000000</v>
   <v>       0.50000000      0.16666667      0.00000000</v>
   <v>       0.19444444      0.19444444      0.00000000</v>
   <v>       0.22222222      0.19444444      0.00000000</v>
   <v>       0.25000000      0.19444444      0.00000000</v>
   <v>       0.27777778      0.19444444      0.00000000</v>
   <v>       0.30555556      0.19444444      0.00000000</v>
   <v>       0.33333333      0.19444444      0.00000000</v>
   <v>       0.36111111      0.19444444      0.00000000</v>
   <v>       0.38888889      0.19444444      0.00000000</v>
   <v>       0.41666667      0.19444444      0.00000000</v>
   <v>       0.44444444      0.19444444      0.00000000</v>
   <v>       0.47222222      0.19444444      0.00000000</v>
   <v>       0.50000000      0.19444444      0.00000000</v>
   <v>       0.22222222      0.22222222      0.00000000</v>
   <v>       0.25000000      0.22222222      0.00000000</v>
   <v>       0.27777778      0.22222222      0.00000000</v>
   <v>       0.30555556      0.22222222      0.00000000</v>
   <v>       0.33333333      0.22222222      0.00000000</v>
   <v>       0.36111111      0.22222222      0.00000000</v>
   <v>       0.38888889      0.22222222      0.00000000</v>
   <v>       0.41666667      0.22222222      0.00000000</v>
   <v>       0.44444444      0.22222222      0.00000000</v>
   <v>       0.47222222      0.22222222      0.00000000</v>
   <v>       0.50000000      0.22222222      0.00000000</v>
   <v>       0.25000000      0.25000000      0.00000000</v>
   <v>       0.27777778      0.25000000      0.00000000</v>
   <v>       0.30555556      0.25000000      0.00000000</v>
   <v>       0.33333333      0.25000000      0.00000000</v>
   <v>       0.36111111      0.25000000      0.00000000</v>
   <v>       0.38888889      0.25000000      0.00000000</v>
   <v>       0.41666667      0.25000000      0.00000000</v>
   <v>       0.44444444      0.25000000      0.00000000</v>
   <v>       0.47222222      0.25000000      0.00000000</v>
   <v>       0.50000000      0.25000000      0.00000000</v>
   <v>       0.27777778      0.27777778      0.00000000</v>
   <v>       0.30555556      0.27777778      0.00000000</v>
   <v>       0.33333333      0.27777778      0.00000000</v>
   <v>       0.36111111      0.27777778      0.00000000</v>
   <v>       0.38888889      0.27777778      0.00000000</v>
   <v>       0.41666667      0.27777778      0.00000000</v>
   <v>       0.44444444      0.27777778      0.00000000</v>
   <v>       0.47222222      0.27777778      0.00000000</v>
   <v>       0.50000000      0.27777778      0.00000000</v>
   <v>       0.30555556      0.30555556      0.00000000</v>
   <v>       0.33333333      0.30555556      0.00000000</v>
   <v>       0.36111111      0.30555556      0.00000000</v>
   <v>       0.38888889      0.30555556      0.00000000</v>
   <v>       0.41666667      0.30555556      0.00000000</v>
   <v>       0.44444444      0.30555556      0.00000000</v>
   <v>       0.47222222      0.30555556      0.00000000</v>
   <v>       0.50000000      0.30555556      0.00000000</v>
   <v>       0.33333333      0.33333333      0.00000000</v>
   <v>       0.36111111      0.33333333      0.00000000</v>
   <v>       0.38888889      0.33333333      0.00000000</v>
   <v>       0.41666667      0.33333333      0.00000000</v>
   <v>       0.44444444      0.33333333      0.00000000</v>
   <v>       0.47222222      0.33333333      0.00000000</v>
   <v>       0.50000000      0.33333333      0.00000000</v>
   <v>       0.36111111      0.36111111      0.00000000</v>
   <v>       0.38888889      0.36111111      0.00000000</v>
   <v>       0.41666667      0.36111111      0.00000000</v>
   <v>       0.44444444      0.36111111      0.00000000</v>
   <v>       0.47222222      0.36111111      0.00000000</v>
   <v>       0.50000000      0.36111111      0.00000000</v>
   <v>       0.38888889      0.38888889      0.00000000</v>
   <v>       0.41666667      0.38888889      0.00000000</v>
   <v>       0.44444444      0.38888889      0.00000000</v>
   <v>       0.47222222      0.38888889      0.00000000</v>
   <v>       0.50000000      0.38888889      0.00000000</v>
   <v>       0.41666667      0.41666667      0.00000000</v>
   <v>       0.44444444      0.41666667      0.00000000</v>
   <v>       0.47222222      0.41666667      0.00000000</v>
   <v>       0.50000000      0.41666667      0.00000000</v>
   <v>       0.44444444      0.44444444      0.00000000</v>
   <v>       0.47222222      0.44444444      0.00000000</v>
   <v>       0.50000000      0.44444444      0.00000000</v>
   <v>       0.47222222      0.47222222      0.00000000</v>
   <v>       0.50000000      0.47222222      0.00000000</v>
   <v>       0.50000000      0.50000000      0.00000000</v>
   <v>       0.02777778      0.02777778      0.02777778</v>
   <v>       0.05555556      0.02777778      0.02777778</v>
   <v>       0.08333333      0.02777778      0.02777778</v>
   <v>       0.11111111      0.02777778      0.02777778</v>
   <v>       0.13888889      0.02777778      0.02777778</v>
   <v>       0.16666667      0.02777778      0.02777778</v>
   <v>       0.19444444      0.02777778      0.02777778</v>
   <v>       0.22222222      0.02777778      0.02777778</v>
   <v>       0.25000000      0.02777778      0.02777778</v>
   <v>       0.27777778      0.02777778      0.02777778</v>
   <v>       0.30555556      0.02777778      0.02777778</v>
   <v>       0.33333333      0.02777778      0.02777778</v>
   <v>       0.36111111      0.02777778      0.02777778</v>
   <v>       0.38888889      0.02777778      0.02777778</v>
   <v>       0.41666667      0.02777778      0.02777778</v>
   <v>       0.44444444      0.02777778      0.02777778</v>
   <v>       0.47222222      0.02777778      0.02777778</v>
   <v>       0.50000000      0.02777778      0.02777778</v>
   <v>       0.05555556      0.05555556      0.02777778</v>
   <v>       0.08333333      0.05555556      0.02777778</v>
   <v>       0.11111111      0.05555556      0.02777778</v>
   <v>       0.13888889      0.05555556      0.02777778</v>
   <v>       0.16666667      0.05555556      0.02777778</v>
   <v>       0.19444444      0.05555556      0.02777778</v>
   <v>       0.22222222      0.05555556      0.02777778</v>
   <v>       0.25000000      0.05555556      0.02777778</v>
   <v>       0.27777778      0.05555556      0.02777778</v>
   <v>       0.30555556      0.05555556      0.02777778</v>
   <v>       0.33333333      0.05555556      0.02777778</v>
   <v>       0.36111111      0.05555556      0.02777778</v>
   <v>       0.38888889      0.05555556      0.02777778</v>
   <v>       0.41666667      0.05555556      0.02777778</v>
   <v>       0.44444444      0.05555556      0.02777778</v>
   <v>       0.47222222      0.05555556      0.02777778</v>
   <v>       0.50000000      0.05555556      0.02777778</v>
   <v>       0.08333333      0.08333333      0.02777778</v>
   <v>       0.11111111      0.08333333      0.02777778</v>
   <v>       0.13888889      0.08333333      0.02777778</v>
   <v>       0.16666667      0.08333333      0.02777778</v>
   <v>       0.19444444      0.08333333      0.02777778</v>
   <v>       0.22222222      0.08333333      0.02777778</v>
   <v>       0.25000000      0.08333333      0.02777778</v>
   <v>       0.27777778      0.08333333      0.02777778</v>
   <v>       0.30555556      0.08333333      0.02777778</v>
   <v>       0.33333333      0.08333333      0.02777778</v>
   <v>       0.36111111      0.08333333      0.02777778</v>
   <v>       0.38888889      0.08333333      0.02777778</v>
   <v>       0.41666667      0.08333333      0.02777778</v>
   <v>       0.44444444      0.08333333      0.02777778</v>
   <v>       0.47222222      0.08333333      0.02777778</v>
   <v>       0.50000000      0.08333333      0.02777778</v>
   <v>       0.11111111      0.11111111      0.02777778</v>
   <v>       0.13888889      0.11111111      0.02777778</v>
   <v>       0.16666667      0.11111111      0.02777778</v>
   <v>       0.19444444      0.11111111      0.02777778</v>
   <v>       0.22222222      0.11111111      0.02777778</v>
   <v>       0.25000000      0.11111111      0.02777778</v>
   <v>       0.27777778      0.11111111      0.02777778</v>
   <v>       0.30555556      0.11111111      0.02777778</v>
   <v>       0.33333333      0.11111111      0.02777778</v>
   <v>       0.36111111      0.11111111      0.02777778</v>
   <v>       0.38888889      0.11111111      0.02777778</v>
   <v>       0.41666667      0.11111111      0.02777778</v>
   <v>       0.44444444      0.11111111      0.02777778</v>
   <v>       0.47222222      0.11111111      0.02777778</v>
   <v>       0.50000000      0.11111111      0.02777778</v>
   <v>       0.13888889      0.13888889      0.02777778</v>
   <v>       0.16666667      0.13888889      0.02777778</v>
   <v>       0.19444444      0.13888889      0.02777778</v>
   <v>       0.22222222      0.13888889      0.02777778</v>
   <v>       0.25000000      0.13888889      0.02777778</v>
   <v>       0.27777778      0.13888889      0.02777778</v>
   <v>       0.30555556      0.13888889      0.02777778</v>
   <v>       0.33333333      0.13888889      0.02777778</v>
   <v>       0.36111111      0.13888889      0.02777778</v>
   <v>       0.38888889      0.13888889      0.02777778</v>
   <v>       0.41666667      0.13888889      0.02777778</v>
   <v>       0.44444444      0.13888889      0.02777778</v>
   <v>       0.47222222      0.13888889      0.02777778</v>
   <v>       0.50000000      0.13888889      0.02777778</v>
   <v>       0.16666667      0.16666667      0.02777778</v>
   <v>       0.19444444      0.16666667      0.02777778</v>
   <v>       0.22222222      0.16666667      0.02777778</v>
   <v>       0.25000000      0.16666667      0.02777778</v>
   <v>       0.27777778      0.16666667      0.02777778</v>
   <v>       0.30555556      0.16666667      0.02777778</v>
   <v>       0.33333333      0.16666667      0.02777778</v>
   <v>       0.36111111      0.16666667      0.02777778</v>
   <v>       0.38888889      0.16666667      0.02777778</v>
   <v>       0.41666667      0.16666667      0.02777778</v>
   <v>       0.44444444      0.16666667      0.02777778</v>
   <v>       0.47222222      0.16666667      0.02777778</v>
   <v>       0.50000000      0.16666667      0.02777778</v>
   <v>       0.19444444      0.19444444      0.02777778</v>
   <v>       0.22222222      0.19444444      0.02777778</v>
   <v>       0.25000000      0.19444444      0.02777778</v>
   <v>       0.27777778      0.19444444      0.02777778</v>
   <v>       0.30555556      0.19444444      0.02777778</v>
   <v>       0.33333333      0.19444444      0.02777778</v>
   <v>       0.36111111      0.19444444      0.02777778</v>
   <v>       0.38888889      0.19444444      0.02777778</v>
   <v>       0.41666667      0.19444444      0.02777778</v>
   <v>       0.44444444      0.19444444      0.02777778</v>
   <v>       0.47222222      0.19444444      0.02777778</v>
   <v>       0.50000000      0.19444444      0.02777778</v>
   <v>       0.22222222      0.22222222      0.02777778</v>
   <v>       0.25000000      0.22222222      0.02777778</v>
   <v>       0.27777778      0.22222222      0.02777778</v>
   <v>       0.30555556      0.22222222      0.02777778</v>
   <v>       0.33333333      0.22222222      0.02777778</v>
   <v>       0.36111111      0.22222222      0.02777778</v>
   <v>       0.38888889      0.22222222      0.02777778</v>
   <v>       0.41666667      0.22222222      0.02777778</v>
   <v>       0.44444444      0.22222222      0.02777778</v>
   <v>       0.47222222      0.22222222      0.02777778</v>
   <v>       0.50000000      0.22222222      0.02777778</v>
   <v>       0.25000000      0.25000000      0.02777778</v>
   <v>       0.27777778      0.25000000      0.02777778</v>
   <v>       0.30555556      0.25000000      0.02777778</v>
   <v>       0.33333333      0.25000000      0.02777778</v>
   <v>       0.36111111      0.25000000      0.02777778</v>
   <v>       0.38888889      0.25000000      0.02777778</v>
   <v>       0.41666667      0.25000000      0.02777778</v>
   <v>       0.44444444      0.25000000      0.02777778</v>
   <v>       0.47222222      0.25000000      0.02777778</v>
   <v>       0.50000000      0.25000000      0.02777778</v>
   <v>       0.27777778      0.27777778      0.02777778</v>
   <v>       0.30555556      0.27777778      0.02777778</v>
   <v>       0.33333333      0.27777778      0.02777778</v>
   <v>       0.36111111      0.27777778      0.02777778</v>
   <v>       0.38888889      0.27777778      0.02777778</v>
   <v>       0.41666667      0.27777778      0.02777778</v>
   <v>       0.44444444      0.27777778      0.02777778</v>
   <v>       0.47222222      0.27777778      0.02777778</v>
   <v>       0.50000000      0.27777778      0.02777778</v>
   <v>       0.30555556      0.30555556      0.02777778</v>
   <v>       0.33333333      0.30555556      0.02777778</v>
   <v>       0.36111111      0.30555556      0.02777778</v>
   <v>       0.38888889      0.30555556      0.02777778</v>
   <v>       0.41666667      0.30555556      0.02777778</v>
   <v>       0.44444444      0.30555556      0.02777778</v>
   <v>       0.47222222      0.30555556      0.02777778</v>
   <v>       0.50000000      0.30555556      0.02777778</v>
   <v>       0.33333333      0.33333333      0.02777778</v>
   <v>       0.36111111      0.33333333      0.02777778</v>
   <v>       0.38888889      0.33333333      0.02777778</v>
   <v>       0.41666667      0.33333333      0.02777778</v>
   <v>       0.44444444      0.33333333      0.02777778</v>
   <v>       0.47222222      0.33333333      0.02777778</v>
   <v>       0.50000000      0.33333333      0.02777778</v>
   <v>       0.36111111      0.36111111      0.02777778</v>
   <v>       0.38888889      0.36111111      0.02777778</v>
   <v>       0.41666667      0.36111111      0.02777778</v>
   <v>       0.44444444      0.36111111      0.02777778</v>
   <v>       0.47222222      0.36111111      0.02777778</v>
   <v>       0.50000000      0.36111111      0.02777778</v>
   <v>       0.38888889      0.38888889      0.02777778</v>
   <v>       0.41666667      0.38888889      0.02777778</v>
   <v>       0.44444444      0.38888889      0.02777778</v>
   <v>       0.47222222      0.38888889      0.02777778</v>
   <v>       0.50000000      0.38888889      0.02777778</v>
   <v>       0.41666667      0.41666667      0.02777778</v>
   <v>       0.44444444      0.41666667      0.02777778</v>
   <v>       0.47222222      0.41666667      0.02777778</v>
   <v>       0.50000000      0.41666667      0.02777778</v>
   <v>       0.44444444      0.44444444      0.02777778</v>
   <v>       0.47222222      0.44444444      0.02777778</v>
   <v>       0.50000000      0.44444444      0.02777778</v>
   <v>       0.47222222      0.47222222      0.02777778</v>
   <v>       0.50000000      0.47222222      0.02777778</v>
   <v>       0.50000000      0.50000000      0.02777778</v>
   <v>       0.05555556      0.05555556      0.05555556</v>
   <v>       0.08333333      0.05555556      0.05555556</v>
   <v>       0.11111111      0.05555556      0.05555556</v>
   <v>       0.13888889      0.05555556      0.05555556</v>
   <v>       0.16666667      0.05555556      0.05555556</v>
   <v>       0.19444444      0.05555556      0.05555556</v>
   <v>       0.22222222      0.05555556      0.05555556</v>
   <v>       0.25000000      0.05555556      0.05555556</v>
   <v>       0.27777778      0.05555556      0.05555556</v>
   <v>       0.30555556      0.05555556      0.05555556</v>
   <v>       0.33333333      0.05555556      0.05555556</v>
   <v>       0.36111111      0.05555556      0.05555556</v>
   <v>       0.38888889      0.05555556      0.05555556</v>
   <v>       0.41666667      0.05555556      0.05555556</v>
   <v>       0.44444444      0.05555556      0.05555556</v>
   <v>       0.47222222      0.05555556      0.05555556</v>
   <v>       0.50000000      0.05555556      0.05555556</v>
   <v>       0.08333333      0.08333333      0.05555556</v>
   <v>       0.11111111      0.08333333      0.05555556</v>
   <v>       0.13888889      0.08333333      0.05555556</v>
   <v>       0.16666667      0.08333333      0.05555556</v>
   <v>       0.19444444      0.08333333      0.05555556</v>
   <v>       0.22222222      0.08333333      0.05555556</v>
   <v>       0.25000000      0.08333333      0.05555556</v>
   <v>       0.27777778      0.08333333      0.05555556</v>
   <v>       0.30555556      0.08333333      0.05555556</v>
   <v>       0.33333333      0.08333333      0.05555556</v>
   <v>       0.36111111      0.08333333      0.05555556</v>
   <v>       0.38888889      0.08333333      0.05555556</v>
   <v>       0.41666667      0.08333333      0.05555556</v>
   <v>       0.44444444      0.08333333      0.05555556</v>
   <v>       0.47222222      0.08333333      0.05555556</v>
   <v>       0.50000000      0.08333333      0.05555556</v>
   <v>       0.11111111      0.11111111      0.05555556</v>
   <v>       0.13888889      0.11111111      0.05555556</v>
   <v>       0.16666667      0.11111111      0.05555556</v>
   <v>       0.19444444      0.11111111      0.05555556</v>
   <v>       0.22222222      0.11111111      0.05555556</v>
   <v>       0.25000000      0.11111111      0.05555556</v>
   <v>       0.27777778      0.11111111      0.05555556</v>
   <v>       0.30555556      0.11111111      0.05555556</v>
   <v>       0.33333333      0.11111111      0.05555556</v>
   <v>       0.36111111      0.11111111      0.05555556</v>
   <v>       0.38888889      0.11111111      0.05555556</v>
   <v>       0.41666667      0.11111111      0.05555556</v>
   <v>       0.44444444      0.11111111      0.05555556</v>
   <v>       0.47222222      0.11111111      0.05555556</v>
   <v>       0.50000000      0.11111111      0.05555556</v>
   <v>       0.13888889      0.13888889      0.05555556</v>
   <v>       0.16666667      0.13888889      0.05555556</v>
   <v>       0.19444444      0.13888889      0.05555556</v>
   <v>       0.22222222      0.13888889      0.05555556</v>
   <v>       0.25000000      0.13888889      0.05555556</v>
   <v>       0.27777778      0.13888889      0.05555556</v>
   <v>       0.30555556      0.13888889      0.05555556</v>
   <v>       0.33333333      0.13888889      0.05555556</v>
   <v>       0.36111111      0.13888889      0.05555556</v>
   <v>       0.38888889      0.13888889      0.05555556</v>
   <v>       0.41666667      0.13888889      0.05555556</v>
   <v>       0.44444444      0.13888889      0.05555556</v>
   <v>       0.47222222      0.13888889      0.05555556</v>
   <v>       0.50000000      0.13888889      0.05555556</v>
   <v>       0.16666667      0.16666667      0.05555556</v>
   <v>       0.19444444      0.16666667      0.05555556</v>
   <v>       0.22222222      0.16666667      0.05555556</v>
   <v>       0.25000000      0.16666667      0.05555556</v>
   <v>       0.27777778      0.16666667      0.05555556</v>
   <v>       0.30555556      0.16666667      0.05555556</v>
   <v>       0.33333333      0.16666667      0.05555556</v>
   <v>       0.36111111      0.16666667      0.05555556</v>
   <v>       0.38888889      0.16666667      0.05555556</v>
   <v>       0.41666667      0.16666667      0.05555556</v>
   <v>       0.44444444      0.16666667      0.05555556</v>
   <v>       0.47222222      0.16666667      0.05555556</v>
   <v>       0.50000000      0.16666667      0.05555556</v>
   <v>       0.19444444      0.19444444      0.05555556</v>
   <v>       0.22222222      0.19444444      0.05555556</v>
   <v>       0.25000000      0.19444444      0.05555556</v>
   <v>       0.27777778      0.19444444      0.05555556</v>
   <v>       0.30555556      0.19444444      0.05555556</v>
   <v>       0.33333333      0.19444444      0.05555556</v>
   <v>       0.36111111      0.19444444      0.05555556</v>
   <v>       0.38888889      0.19444444      0.05555556</v>
   <v>       0.41666667      0.19444444      0.05555556</v>
   <v>       0.44444444      0.19444444      0.05555556</v>
   <v>       0.47222222      0.19444444      0.05555556</v>
   <v>       0.50000000      0.19444444      0.05555556</v>
   <v>       0.22222222      0.22222222      0.05555556</v>
   <v>       0.25000000      0.22222222      0.05555556</v>
   <v>       0.27777778      0.22222222      0.05555556</v>
   <v>       0.30555556      0.22222222      0.05555556</v>
   <v>       0.33333333      0.22222222      0.05555556</v>
   <v>       0.36111111      0.22222222      0.05555556</v>
   <v>       0.38888889      0.22222222      0.05555556</v>
   <v>       0.41666667      0.22222222      0.05555556</v>
   <v>       0.44444444      0.22222222      0.05555556</v>
   <v>       0.47222222      0.22222222      0.05555556</v>
   <v>       0.50000000      0.22222222      0.05555556</v>
   <v>       0.25000000      0.25000000      0.05555556</v>
   <v>       0.27777778      0.25000000      0.05555556</v>
   <v>       0.30555556      0.25000000      0.05555556</v>
   <v>       0.33333333      0.25000000      0.05555556</v>
   <v>       0.36111111      0.25000000      0.05555556</v>
   <v>       0.38888889      0.25000000      0.05555556</v>
   <v>       0.41666667      0.25000000      0.05555556</v>
   <v>       0.44444444      0.25000000      0.05555556</v>
   <v>       0.47222222      0.25000000      0.05555556</v>
   <v>       0.50000000      0.25000000      0.05555556</v>
   <v>       0.27777778      0.27777778      0.05555556</v>
   <v>       0.30555556      0.27777778      0.05555556</v>
   <v>       0.33333333      0.27777778      0.05555556</v>
   <v>       0.36111111      0.27777778      0.05555556</v>
   <v>       0.38888889      0.27777778      0.05555556</v>
   <v>       0.41666667      0.27777778      0.05555556</v>
   <v>       0.44444444      0.27777778      0.05555556</v>
   <v>       0.47222222      0.27777778      0.05555556</v>
   <v>       0.50000000      0.27777778      0.05555556</v>
   <v>       0.30555556      0.30555556      0.05555556</v>
   <v>       0.33333333      0.30555556      0.05555556</v>
   <v>       0.36111111      0.30555556      0.05555556</v>
   <v>       0.38888889      0.30555556      0.05555556</v>
   <v>       0.41666667      0.30555556      0.05555556</v>
   <v>       0.44444444      0.30555556      0.05555556</v>
   <v>       0.47222222      0.30555556      0.05555556</v>
   <v>       0.50000000      0.30555556      0.05555556</v>
   <v>       0.33333333      0.33333333      0.05555556</v>
   <v>       0.36111111      0.33333333      0.05555556</v>
   <v>       0.38888889      0.33333333      0.05555556</v>
   <v>       0.41666667      0.33333333      0.05555556</v>
   <v>       0.44444444      0.33333333      0.05555556</v>
   <v>       0.47222222      0.33333333      0.05555556</v>
   <v>       0.50000000      0.33333333      0.05555556</v>
   <v>       0.36111111      0.36111111      0.05555556</v>
   <v>       0.38888889      0.36111111      0.05555556</v>
   <v>       0.41666667      0.36111111      0.05555556</v>
   <v>       0.44444444      0.36111111      0.05555556</v>
   <v>       0.47222222      0.36111111      0.05555556</v>
   <v>       0.50000000      0.36111111      0.05555556</v>
   <v>       0.38888889      0.38888889      0.05555556</v>
   <v>       0.41666667      0.38888889      0.05555556</v>
   <v>       0.44444444      0.38888889      0.05555556</v>
   <v>       0.47222222      0.38888889      0.05555556</v>
   <v>       0.50000000      0.38888889      0.05555556</v>
   <v>       0.41666667      0.41666667      0.05555556</v>
   <v>       0.44444444      0.41666667      0.05555556</v>
   <v>       0.47222222      0.41666667      0.05555556</v>
   <v>       0.50000000      0.41666667      0.05555556</v>
   <v>       0.44444444      0.44444444      0.05555556</v>
   <v>       0.47222222      0.44444444      0.05555556</v>
   <v>       0.50000000      0.44444444      0.05555556</v>
   <v>       0.47222222      0.47222222      0.05555556</v>
   <v>       0.50000000      0.47222222      0.05555556</v>
   <v>       0.50000000      0.50000000      0.05555556</v>
   <v>       0.08333333      0.08333333      0.08333333</v>
   <v>       0.11111111      0.08333333      0.08333333</v>
   <v>       0.13888889      0.08333333      0.08333333</v>
   <v>       0.16666667      0.08333333      0.08333333</v>
   <v>       0.19444444      0.08333333      0.08333333</v>
   <v>       0.22222222      0.08333333      0.08333333</v>
   <v>       0.25000000      0.08333333      0.08333333</v>
   <v>       0.27777778      0.08333333      0.08333333</v>
   <v>       0.30555556      0.08333333      0.08333333</v>
   <v>       0.33333333      0.08333333      0.08333333</v>
   <v>       0.36111111      0.08333333      0.08333333</v>
   <v>       0.38888889      0.08333333      0.08333333</v>
   <v>       0.41666667      0.08333333      0.08333333</v>
   <v>       0.44444444      0.08333333      0.08333333</v>
   <v>       0.47222222      0.08333333      0.08333333</v>
   <v>       0.50000000      0.08333333      0.08333333</v>
   <v>       0.11111111      0.11111111      0.08333333</v>
   <v>       0.13888889      0.11111111      0.08333333</v>
   <v>       0.16666667      0.11111111      0.08333333</v>
   <v>       0.19444444      0.11111111      0.08333333</v>
   <v>       0.22222222      0.11111111      0.08333333</v>
   <v>       0.25000000      0.11111111      0.08333333</v>
   <v>       0.27777778      0.11111111      0.08333333</v>
   <v>       0.30555556      0.11111111      0.08333333</v>
   <v>       0.33333333      0.11111111      0.08333333</v>
   <v>       0.36111111      0.11111111      0.08333333</v>
   <v>       0.38888889      0.11111111      0.08333333</v>
   <v>       0.41666667      0.11111111      0.08333333</v>
   <v>       0.44444444      0.11111111      0.08333333</v>
   <v>       0.47222222      0.11111111      0.08333333</v>
   <v>       0.50000000      0.11111111      0.08333333</v>
   <v>       0.13888889      0.13888889      0.08333333</v>
   <v>       0.16666667      0.13888889      0.08333333</v>
   <v>       0.19444444      0.13888889      0.08333333</v>
   <v>       0.22222222      0.13888889      0.08333333</v>
   <v>       0.25000000      0.13888889      0.08333333</v>
   <v>       0.27777778      0.13888889      0.08333333</v>
   <v>       0.30555556      0.13888889      0.08333333</v>
   <v>       0.33333333      0.13888889      0.08333333</v>
   <v>       0.36111111      0.13888889      0.08333333</v>
   <v>       0.38888889      0.13888889      0.08333333</v>
   <v>       0.41666667      0.13888889      0.08333333</v>
   <v>       0.44444444      0.13888889      0.08333333</v>
   <v>       0.47222222      0.13888889      0.08333333</v>
   <v>       0.50000000      0.13888889      0.08333333</v>
   <v>       0.16666667      0.16666667      0.08333333</v>
   <v>       0.19444444      0.16666667      0.08333333</v>
   <v>       0.22222222      0.16666667      0.08333333</v>
   <v>       0.25000000      0.16666667      0.08333333</v>
   <v>       0.27777778      0.16666667      0.08333333</v>
   <v>       0.30555556      0.16666667      0.08333333</v>
   <v>       0.33333333      0.16666667      0.08333333</v>
   <v>       0.36111111      0.16666667      0.08333333</v>
   <v>       0.38888889      0.16666667      0.08333333</v>
   <v>       0.41666667      0.16666667      0.08333333</v>
   <v>       0.44444444      0.16666667      0.08333333</v>
   <v>       0.47222222      0.16666667      0.08333333</v>
   <v>       0.50000000      0.16666667      0.08333333</v>
   <v>       0.19444444      0.19444444      0.08333333</v>
   <v>       0.22222222      0.19444444      0.08333333</v>
   <v>       0.25000000      0.19444444      0.08333333</v>
   <v>       0.27777778      0.19444444      0.08333333</v>
   <v>       0.30555556      0.19444444      0.08333333</v>
   <v>       0.33333333      0.19444444      0.08333333</v>
   <v>       0.36111111      0.19444444      0.08333333</v>
   <v>       0.38888889      0.19444444      0.08333333</v>
   <v>       0.41666667      0.19444444      0.08333333</v>
   <v>       0.44444444      0.19444444      0.08333333</v>
   <v>       0.47222222      0.19444444      0.08333333</v>
   <v>       0.50000000      0.19444444      0.08333333</v>
   <v>       0.22222222      0.22222222      0.08333333</v>
   <v>       0.25000000      0.22222222      0.08333333</v>
   <v>       0.27777778      0.22222222      0.08333333</v>
   <v>       0.30555556      0.22222222      0.08333333</v>
   <v>       0.33333333      0.22222222      0.08333333</v>
   <v>       0.36111111      0.22222222      0.08333333</v>
   <v>       0.38888889      0.22222222      0.08333333</v>
   <v>       0.41666667      0.22222222      0.08333333</v>
   <v>       0.44444444      0.22222222      0.08333333</v>
   <v>       0.47222222      0.22222222      0.08333333</v>
   <v>       0.50000000      0.22222222      0.08333333</v>
   <v>       0.25000000      0.25000000      0.08333333</v>
   <v>       0.27777778      0.25000000      0.08333333</v>
   <v>       0.30555556      0.25000000      0.08333333</v>
   <v>       0.33333333      0.25000000      0.08333333</v>
   <v>       0.36111111      0.25000000      0.08333333</v>
   <v>       0.38888889      0.25000000      0.08333333</v>
   <v>       0.41666667      0.25000000      0.08333333</v>
   <v>       0.44444444      0.25000000      0.08333333</v>
   <v>       0.47222222      0.25000000      0.08333333</v>
   <v>       0.50000000      0.25000000      0.08333333</v>
   <v>       0.27777778      0.27777778      0.08333333</v>
   <v>       0.30555556      0.27777778      0.08333333</v>
   <v>       0.33333333      0.27777778      0.08333333</v>
   <v>       0.36111111      0.27777778      0.08333333</v>
   <v>       0.38888889      0.27777778      0.08333333</v>
   <v>       0.41666667      0.27777778      0.08333333</v>
   <v>       0.44444444      0.27777778      0.08333333</v>
   <v>       0.47222222      0.27777778      0.08333333</v>
   <v>       0.50000000      0.27777778      0.08333333</v>
   <v>       0.30555556      0.30555556      0.08333333</v>
   <v>       0.33333333      0.30555556      0.08333333</v>
   <v>       0.36111111      0.30555556      0.08333333</v>
   <v>       0.38888889      0.30555556      0.08333333</v>
   <v>       0.41666667      0.30555556      0.08333333</v>
   <v>       0.44444444      0.30555556      0.08333333</v>
   <v>       0.47222222      0.30555556      0.08333333</v>
   <v>       0.50000000      0.30555556      0.08333333</v>
   <v>       0.33333333      0.33333333      0.08333333</v>
   <v>       0.36111111      0.33333333      0.08333333</v>
   <v>       0.38888889      0.33333333      0.08333333</v>
   <v>       0.41666667      0.33333333      0.08333333</v>
   <v>       0.44444444      0.33333333      0.08333333</v>
   <v>       0.47222222      0.33333333      0.08333333</v>
   <v>       0.50000000      0.33333333      0.08333333</v>
   <v>       0.36111111      0.36111111      0.08333333</v>
   <v>       0.38888889      0.36111111      0.08333333</v>
   <v>       0.41666667      0.36111111      0.08333333</v>
   <v>       0.44444444      0.36111111      0.08333333</v>
   <v>       0.47222222      0.36111111      0.08333333</v>
   <v>       0.50000000      0.36111111      0.08333333</v>
   <v>       0.38888889      0.38888889      0.08333333</v>
   <v>       0.41666667      0.38888889      0.08333333</v>
   <v>       0.44444444      0.38888889      0.08333333</v>
   <v>       0.47222222      0.38888889      0.08333333</v>
   <v>       0.50000000      0.38888889      0.08333333</v>
   <v>       0.41666667      0.41666667      0.08333333</v>
   <v>       0.44444444      0.41666667      0.08333333</v>
   <v>       0.47222222      0.41666667      0.08333333</v>
   <v>       0.50000000      0.41666667      0.08333333</v>
   <v>       0.44444444      0.44444444      0.08333333</v>
   <v>       0.47222222      0.44444444      0.08333333</v>
   <v>       0.50000000      0.44444444      0.08333333</v>
   <v>       0.47222222      0.47222222      0.08333333</v>
   <v>       0.50000000      0.47222222      0.08333333</v>
   <v>       0.50000000      0.50000000      0.08333333</v>
   <v>       0.11111111      0.11111111      0.11111111</v>
   <v>       0.13888889      0.11111111      0.11111111</v>
   <v>       0.16666667      0.11111111      0.11111111</v>
   <v>       0.19444444      0.11111111      0.11111111</v>
   <v>       0.22222222      0.11111111      0.11111111</v>
   <v>       0.25000000      0.11111111      0.11111111</v>
   <v>       0.27777778      0.11111111      0.11111111</v>
   <v>       0.30555556      0.11111111      0.11111111</v>
   <v>       0.33333333      0.11111111      0.11111111</v>
   <v>       0.36111111      0.11111111      0.11111111</v>
   <v>       0.38888889      0.11111111      0.11111111</v>
   <v>       0.41666667      0.11111111      0.11111111</v>
   <v>       0.44444444      0.11111111      0.11111111</v>
   <v>       0.47222222      0.11111111      0.11111111</v>
   <v>       0.50000000      0.11111111      0.11111111</v>
   <v>       0.13888889      0.13888889      0.11111111</v>
   <v>       0.16666667      0.13888889      0.11111111</v>
   <v>       0.19444444      0.13888889      0.11111111</v>
   <v>       0.22222222      0.13888889      0.11111111</v>
   <v>       0.25000000      0.13888889      0.11111111</v>
   <v>       0.27777778      0.13888889      0.11111111</v>
   <v>       0.30555556      0.13888889      0.11111111</v>
   <v>       0.33333333      0.13888889      0.11111111</v>
   <v>       0.36111111      0.13888889      0.11111111</v>
   <v>       0.38888889      0.13888889      0.11111111</v>
   <v>       0.41666667      0.13888889      0.11111111</v>
   <v>       0.44444444      0.13888889      0.11111111</v>
   <v>       0.47222222      0.13888889      0.11111111</v>
   <v>       0.50000000      0.13888889      0.11111111</v>
   <v>       0.16666667      0.16666667      0.11111111</v>
   <v>       0.19444444      0.16666667      0.11111111</v>
   <v>       0.22222222      0.16666667      0.11111111</v>
   <v>       0.25000000      0.16666667      0.11111111</v>
   <v>       0.27777778      0.16666667      0.11111111</v>
   <v>       0.30555556      0.16666667      0.11111111</v>
   <v>       0.33333333      0.16666667      0.11111111</v>
   <v>       0.36111111      0.16666667      0.11111111</v>
   <v>       0.38888889      0.16666667      0.11111111</v>
   <v>       0.41666667      0.16666667      0.11111111</v>
   <v>       0.44444444      0.16666667      0.11111111</v>
   <v>       0.47222222      0.16666667      0.11111111</v>
   <v>       0.50000000      0.16666667      0.11111111</v>
   <v>       0.19444444      0.19444444      0.11111111</v>
   <v>       0.22222222      0.19444444      0.11111111</v>
   <v>       0.25000000      0.19444444      0.11111111</v>
   <v>       0.27777778      0.19444444      0.11111111</v>
   <v>       0.30555556      0.19444444      0.11111111</v>
   <v>       0.33333333      0.19444444      0.11111111</v>
   <v>       0.36111111      0.19444444      0.11111111</v>
   <v>       0.38888889      0.19444444      0.11111111</v>
   <v>       0.41666667      0.19444444      0.11111111</v>
   <v>       0.44444444      0.19444444      0.11111111</v>
   <v>       0.47222222      0.19444444      0.11111111</v>
   <v>       0.50000000      0.19444444      0.11111111</v>
   <v>       0.22222222      0.22222222      0.11111111</v>
   <v>       0.25000000      0.22222222      0.11111111</v>
   <v>       0.27777778      0.22222222      0.11111111</v>
   <v>       0.30555556      0.22222222      0.11111111</v>
   <v>       0.33333333      0.22222222      0.11111111</v>
   <v>       0.36111111      0.22222222      0.11111111</v>
   <v>       0.38888889      0.22222222      0.11111111</v>
   <v>       0.41666667      0.22222222      0.11111111</v>
   <v>       0.44444444      0.22222222      0.11111111</v>
   <v>       0.47222222      0.22222222      0.11111111</v>
   <v>       0.50000000      0.22222222      0.11111111</v>
   <v>       0.25000000      0.25000000      0.11111111</v>
   <v>       0.27777778      0.25000000      0.11111111</v>
   <v>       0.30555556      0.25000000      0.11111111</v>
   <v>       0.33333333      0.25000000      0.11111111</v>
   <v>       0.36111111      0.25000000      0.11111111</v>
   <v>       0.38888889      0.25000000      0.11111111</v>
   <v>       0.41666667      0.25000000      0.11111111</v>
   <v>       0.44444444      0.25000000      0.11111111</v>
   <v>       0.47222222      0.25000000      0.11111111</v>
   <v>       0.50000000      0.25000000      0.11111111</v>
   <v>       0.27777778      0.27777778      0.11111111</v>
   <v>       0.30555556      0.27777778      0.11111111</v>
   <v>       0.33333333      0.27777778      0.11111111</v>
   <v>       0.36111111      0.27777778      0.11111111</v>
   <v>       0.38888889      0.27777778      0.11111111</v>
   <v>       0.41666667      0.27777778      0.11111111</v>
   <v>       0.44444444      0.27777778      0.11111111</v>
   <v>       0.47222222      0.27777778      0.11111111</v>
   <v>       0.50000000      0.27777778      0.11111111</v>
   <v>       0.30555556      0.30555556      0.11111111</v>
   <v>       0.33333333      0.30555556      0.11111111</v>
   <v>       0.36111111      0.30555556      0.11111111</v>
   <v>       0.38888889      0.30555556      0.11111111</v>
   <v>       0.41666667      0.30555556      0.11111111</v>
   <v>       0.44444444      0.30555556      0.11111111</v>
   <v>       0.47222222      0.30555556      0.11111111</v>
   <v>       0.50000000      0.30555556      0.11111111</v>
   <v>       0.33333333      0.33333333      0.11111111</v>
   <v>       0.36111111      0.33333333      0.11111111</v>
   <v>       0.38888889      0.33333333      0.11111111</v>
   <v>       0.41666667      0.33333333      0.11111111</v>
   <v>       0.44444444      0.33333333      0.11111111</v>
   <v>       0.47222222      0.33333333      0.11111111</v>
   <v>       0.50000000      0.33333333      0.11111111</v>
   <v>       0.36111111      0.36111111      0.11111111</v>
   <v>       0.38888889      0.36111111      0.11111111</v>
   <v>       0.41666667      0.36111111      0.11111111</v>
   <v>       0.44444444      0.36111111      0.11111111</v>
   <v>       0.47222222      0.36111111      0.11111111</v>
   <v>       0.50000000      0.36111111      0.11111111</v>
   <v>       0.38888889      0.38888889      0.11111111</v>
   <v>       0.41666667      0.38888889      0.11111111</v>
   <v>       0.44444444      0.38888889      0.11111111</v>
   <v>       0.47222222      0.38888889      0.11111111</v>
   <v>       0.50000000      0.38888889      0.11111111</v>
   <v>       0.41666667      0.41666667      0.11111111</v>
   <v>       0.44444444      0.41666667      0.11111111</v>
   <v>       0.47222222      0.41666667      0.11111111</v>
   <v>       0.50000000      0.41666667      0.11111111</v>
   <v>       0.44444444      0.44444444      0.11111111</v>
   <v>       0.47222222      0.44444444      0.11111111</v>
   <v>       0.50000000      0.44444444      0.11111111</v>
   <v>       0.47222222      0.47222222      0.11111111</v>
   <v>       0.50000000      0.47222222      0.11111111</v>
   <v>       0.50000000      0.50000000      0.11111111</v>
   <v>       0.13888889      0.13888889      0.13888889</v>
   <v>       0.16666667      0.13888889      0.13888889</v>
   <v>       0.19444444      0.13888889      0.13888889</v>
   <v>       0.22222222      0.13888889      0.13888889</v>
   <v>       0.25000000      0.13888889      0.13888889</v>
   <v>       0.27777778      0.13888889      0.13888889</v>
   <v>       0.30555556      0.13888889      0.13888889</v>
   <v>       0.33333333      0.13888889      0.13888889</v>
   <v>       0.36111111      0.13888889      0.13888889</v>
   <v>       0.38888889      0.13888889      0.13888889</v>
   <v>       0.41666667      0.13888889      0.13888889</v>
   <v>       0.44444444      0.13888889      0.13888889</v>
   <v>       0.47222222      0.13888889      0.13888889</v>
   <v>       0.50000000      0.13888889      0.13888889</v>
   <v>       0.16666667      0.16666667      0.13888889</v>
   <v>       0.19444444      0.16666667      0.13888889</v>
   <v>       0.22222222      0.16666667      0.13888889</v>
   <v>       0.25000000      0.16666667      0.13888889</v>
   <v>       0.27777778      0.16666667      0.13888889</v>
   <v>       0.30555556      0.16666667      0.13888889</v>
   <v>       0.33333333      0.16666667      0.13888889</v>
   <v>       0.36111111      0.16666667      0.13888889</v>
   <v>       0.38888889      0.16666667      0.13888889</v>
   <v>       0.41666667      0.16666667      0.13888889</v>
   <v>       0.44444444      0.16666667      0.13888889</v>
   <v>       0.47222222      0.16666667      0.13888889</v>
   <v>       0.50000000      0.16666667      0.13888889</v>
   <v>       0.19444444      0.19444444      0.13888889</v>
   <v>       0.22222222      0.19444444      0.13888889</v>
   <v>       0.25000000      0.19444444      0.13888889</v>
   <v>       0.27777778      0.19444444      0.13888889</v>
   <v>       0.30555556      0.19444444      0.13888889</v>
   <v>       0.33333333      0.19444444      0.13888889</v>
   <v>       0.36111111      0.19444444      0.13888889</v>
   <v>       0.38888889      0.19444444      0.13888889</v>
   <v>       0.41666667      0.19444444      0.13888889</v>
   <v>       0.44444444      0.19444444      0.13888889</v>
   <v>       0.47222222      0.19444444      0.13888889</v>
   <v>       0.50000000      0.19444444      0.13888889</v>
   <v>       0.22222222      0.22222222      0.13888889</v>
   <v>       0.25000000      0.22222222      0.13888889</v>
   <v>       0.27777778      0.22222222      0.13888889</v>
   <v>       0.30555556      0.22222222      0.13888889</v>
   <v>       0.33333333      0.22222222      0.13888889</v>
   <v>       0.36111111      0.22222222      0.13888889</v>
   <v>       0.38888889      0.22222222      0.13888889</v>
   <v>       0.41666667      0.22222222      0.13888889</v>
   <v>       0.44444444      0.22222222      0.13888889</v>
   <v>       0.47222222      0.22222222      0.13888889</v>
   <v>       0.50000000      0.22222222      0.13888889</v>
   <v>       0.25000000      0.25000000      0.13888889</v>
   <v>       0.27777778      0.25000000      0.13888889</v>
   <v>       0.30555556      0.25000000      0.13888889</v>
   <v>       0.33333333      0.25000000      0.13888889</v>
   <v>       0.36111111      0.25000000      0.13888889</v>
   <v>       0.38888889      0.25000000      0.13888889</v>
   <v>       0.41666667      0.25000000      0.13888889</v>
   <v>       0.44444444      0.25000000      0.13888889</v>
   <v>       0.47222222      0.25000000      0.13888889</v>
   <v>       0.50000000      0.25000000      0.13888889</v>
   <v>       0.27777778      0.27777778      0.13888889</v>
   <v>       0.30555556      0.27777778      0.13888889</v>
   <v>       0.33333333      0.27777778      0.13888889</v>
   <v>       0.36111111      0.27777778      0.13888889</v>
   <v>       0.38888889      0.27777778      0.13888889</v>
   <v>       0.41666667      0.27777778      0.13888889</v>
   <v>       0.44444444      0.27777778      0.13888889</v>
   <v>       0.47222222      0.27777778      0.13888889</v>
   <v>       0.50000000      0.27777778      0.13888889</v>
   <v>       0.30555556      0.30555556      0.13888889</v>
   <v>       0.33333333      0.30555556      0.13888889</v>
   <v>       0.36111111      0.30555556      0.13888889</v>
   <v>       0.38888889      0.30555556      0.13888889</v>
   <v>       0.41666667      0.30555556      0.13888889</v>
   <v>       0.44444444      0.30555556      0.13888889</v>
   <v>       0.47222222      0.30555556      0.13888889</v>
   <v>       0.50000000      0.30555556      0.13888889</v>
   <v>       0.33333333      0.33333333      0.13888889</v>
   <v>       0.36111111      0.33333333      0.13888889</v>
   <v>       0.38888889      0.33333333      0.13888889</v>
   <v>       0.41666667      0.33333333      0.13888889</v>
   <v>       0.44444444      0.33333333      0.13888889</v>
   <v>       0.47222222      0.33333333      0.13888889</v>
   <v>       0.50000000      0.33333333      0.13888889</v>
   <v>       0.36111111      0.36111111      0.13888889</v>
   <v>       0.38888889      0.36111111      0.13888889</v>
   <v>       0.41666667      0.36111111      0.13888889</v>
   <v>       0.44444444      0.36111111      0.13888889</v>
   <v>       0.47222222      0.36111111      0.13888889</v>
   <v>       0.50000000      0.36111111      0.13888889</v>
   <v>       0.38888889      0.38888889      0.13888889</v>
   <v>       0.41666667      0.38888889      0.13888889</v>
   <v>       0.44444444      0.38888889      0.13888889</v>
   <v>       0.47222222      0.38888889      0.13888889</v>
   <v>       0.50000000      0.38888889      0.13888889</v>
   <v>       0.41666667      0.41666667      0.13888889</v>
   <v>       0.44444444      0.41666667      0.13888889</v>
   <v>       0.47222222      0.41666667      0.13888889</v>
   <v>       0.50000000      0.41666667      0.13888889</v>
   <v>       0.44444444      0.44444444      0.13888889</v>
   <v>       0.47222222      0.44444444      0.13888889</v>
   <v>       0.50000000      0.44444444      0.13888889</v>
   <v>       0.47222222      0.47222222      0.13888889</v>
   <v>       0.50000000      0.47222222      0.13888889</v>
   <v>       0.50000000      0.50000000      0.13888889</v>
   <v>       0.16666667      0.16666667      0.16666667</v>
   <v>       0.19444444      0.16666667      0.16666667</v>
   <v>       0.22222222      0.16666667      0.16666667</v>
   <v>       0.25000000      0.16666667      0.16666667</v>
   <v>       0.27777778      0.16666667      0.16666667</v>
   <v>       0.30555556      0.16666667      0.16666667</v>
   <v>       0.33333333      0.16666667      0.16666667</v>
   <v>       0.36111111      0.16666667      0.16666667</v>
   <v>       0.38888889      0.16666667      0.16666667</v>
   <v>       0.41666667      0.16666667      0.16666667</v>
   <v>       0.44444444      0.16666667      0.16666667</v>
   <v>       0.47222222      0.16666667      0.16666667</v>
   <v>       0.50000000      0.16666667      0.16666667</v>
   <v>       0.19444444      0.19444444      0.16666667</v>
   <v>       0.22222222      0.19444444      0.16666667</v>
   <v>       0.25000000      0.19444444      0.16666667</v>
   <v>       0.27777778      0.19444444      0.16666667</v>
   <v>       0.30555556      0.19444444      0.16666667</v>
   <v>       0.33333333      0.19444444      0.16666667</v>
   <v>       0.36111111      0.19444444      0.16666667</v>
   <v>       0.38888889      0.19444444      0.16666667</v>
   <v>       0.41666667      0.19444444      0.16666667</v>
   <v>       0.44444444      0.19444444      0.16666667</v>
   <v>       0.47222222      0.19444444      0.16666667</v>
   <v>       0.50000000      0.19444444      0.16666667</v>
   <v>       0.22222222      0.22222222      0.16666667</v>
   <v>       0.25000000      0.22222222      0.16666667</v>
   <v>       0.27777778      0.22222222      0.16666667</v>
   <v>       0.30555556      0.22222222      0.16666667</v>
   <v>       0.33333333      0.22222222      0.16666667</v>
   <v>       0.36111111      0.22222222      0.16666667</v>
   <v>       0.38888889      0.22222222      0.16666667</v>
   <v>       0.41666667      0.22222222      0.16666667</v>
   <v>       0.44444444      0.22222222      0.16666667</v>
   <v>       0.47222222      0.22222222      0.16666667</v>
   <v>       0.50000000      0.22222222      0.16666667</v>
   <v>       0.25000000      0.25000000      0.16666667</v>
   <v>       0.27777778      0.25000000      0.16666667</v>
   <v>       0.30555556      0.25000000      0.16666667</v>
   <v>       0.33333333      0.25000000      0.16666667</v>
   <v>       0.36111111      0.25000000      0.16666667</v>
   <v>       0.38888889      0.25000000      0.16666667</v>
   <v>       0.41666667      0.25000000      0.16666667</v>
   <v>       0.44444444      0.25000000      0.16666667</v>
   <v>       0.47222222      0.25000000      0.16666667</v>
   <v>       0.50000000      0.25000000      0.16666667</v>
   <v>       0.27777778      0.27777778      0.16666667</v>
   <v>       0.30555556      0.27777778      0.16666667</v>
   <v>       0.33333333      0.27777778      0.16666667</v>
   <v>       0.36111111      0.27777778      0.16666667</v>
   <v>       0.38888889      0.27777778      0.16666667</v>
   <v>       0.41666667      0.27777778      0.16666667</v>
   <v>       0.44444444      0.27777778      0.16666667</v>
   <v>       0.47222222      0.27777778      0.16666667</v>
   <v>       0.50000000      0.27777778      0.16666667</v>
   <v>       0.30555556      0.30555556      0.16666667</v>
   <v>       0.33333333      0.30555556      0.16666667</v>
   <v>       0.36111111      0.30555556      0.16666667</v>
   <v>       0.38888889      0.30555556      0.16666667</v>
   <v>       0.41666667      0.30555556      0.16666667</v>
   <v>       0.44444444      0.30555556      0.16666667</v>
   <v>       0.47222222      0.30555556      0.16666667</v>
   <v>       0.50000000      0.30555556      0.16666667</v>
   <v>       0.33333333      0.33333333      0.16666667</v>
   <v>       0.36111111      0.33333333      0.16666667</v>
   <v>       0.38888889      0.33333333      0.16666667</v>
   <v>       0.41666667      0.33333333      0.16666667</v>
   <v>       0.44444444      0.33333333      0.16666667</v>
   <v>       0.47222222      0.33333333      0.16666667</v>
   <v>       0.50000000      0.33333333      0.16666667</v>
   <v>       0.36111111      0.36111111      0.16666667</v>
   <v>       0.38888889      0.36111111      0.16666667</v>
   <v>       0.41666667      0.36111111      0.16666667</v>
   <v>       0.44444444      0.36111111      0.16666667</v>
   <v>       0.47222222      0.36111111      0.16666667</v>
   <v>       0.50000000      0.36111111      0.16666667</v>
   <v>       0.38888889      0.38888889      0.16666667</v>
   <v>       0.41666667      0.38888889      0.16666667</v>
   <v>       0.44444444      0.38888889      0.16666667</v>
   <v>       0.47222222      0.38888889      0.16666667</v>
   <v>       0.50000000      0.38888889      0.16666667</v>
   <v>       0.41666667      0.41666667      0.16666667</v>
   <v>       0.44444444      0.41666667      0.16666667</v>
   <v>       0.47222222      0.41666667      0.16666667</v>
   <v>       0.50000000      0.41666667      0.16666667</v>
   <v>       0.44444444      0.44444444      0.16666667</v>
   <v>       0.47222222      0.44444444      0.16666667</v>
   <v>       0.50000000      0.44444444      0.16666667</v>
   <v>       0.47222222      0.47222222      0.16666667</v>
   <v>       0.50000000      0.47222222      0.16666667</v>
   <v>       0.50000000      0.50000000      0.16666667</v>
   <v>       0.19444444      0.19444444      0.19444444</v>
   <v>       0.22222222      0.19444444      0.19444444</v>
   <v>       0.25000000      0.19444444      0.19444444</v>
   <v>       0.27777778      0.19444444      0.19444444</v>
   <v>       0.30555556      0.19444444      0.19444444</v>
   <v>       0.33333333      0.19444444      0.19444444</v>
   <v>       0.36111111      0.19444444      0.19444444</v>
   <v>       0.38888889      0.19444444      0.19444444</v>
   <v>       0.41666667      0.19444444      0.19444444</v>
   <v>       0.44444444      0.19444444      0.19444444</v>
   <v>       0.47222222      0.19444444      0.19444444</v>
   <v>       0.50000000      0.19444444      0.19444444</v>
   <v>       0.22222222      0.22222222      0.19444444</v>
   <v>       0.25000000      0.22222222      0.19444444</v>
   <v>       0.27777778      0.22222222      0.19444444</v>
   <v>       0.30555556      0.22222222      0.19444444</v>
   <v>       0.33333333      0.22222222      0.19444444</v>
   <v>       0.36111111      0.22222222      0.19444444</v>
   <v>       0.38888889      0.22222222      0.19444444</v>
   <v>       0.41666667      0.22222222      0.19444444</v>
   <v>       0.44444444      0.22222222      0.19444444</v>
   <v>       0.47222222      0.22222222      0.19444444</v>
   <v>       0.50000000      0.22222222      0.19444444</v>
   <v>       0.25000000      0.25000000      0.19444444</v>
   <v>       0.27777778      0.25000000      0.19444444</v>
   <v>       0.30555556      0.25000000      0.19444444</v>
   <v>       0.33333333      0.25000000      0.19444444</v>
   <v>       0.36111111      0.25000000      0.19444444</v>
   <v>       0.38888889      0.25000000      0.19444444</v>
   <v>       0.41666667      0.25000000      0.19444444</v>
   <v>       0.44444444      0.25000000      0.19444444</v>
   <v>       0.47222222      0.25000000      0.19444444</v>
   <v>       0.50000000      0.25000000      0.19444444</v>
   <v>       0.27777778      0.27777778      0.19444444</v>
   <v>       0.30555556      0.27777778      0.19444444</v>
   <v>       0.33333333      0.27777778      0.19444444</v>
   <v>       0.36111111      0.27777778      0.19444444</v>
   <v>       0.38888889      0.27777778      0.19444444</v>
   <v>       0.41666667      0.27777778      0.19444444</v>
   <v>       0.44444444      0.27777778      0.19444444</v>
   <v>       0.47222222      0.27777778      0.19444444</v>
   <v>       0.50000000      0.27777778      0.19444444</v>
   <v>       0.30555556      0.30555556      0.19444444</v>
   <v>       0.33333333      0.30555556      0.19444444</v>
   <v>       0.36111111      0.30555556      0.19444444</v>
   <v>       0.38888889      0.30555556      0.19444444</v>
   <v>       0.41666667      0.30555556      0.19444444</v>
   <v>       0.44444444      0.30555556      0.19444444</v>
   <v>       0.47222222      0.30555556      0.19444444</v>
   <v>       0.50000000      0.30555556      0.19444444</v>
   <v>       0.33333333      0.33333333      0.19444444</v>
   <v>       0.36111111      0.33333333      0.19444444</v>
   <v>       0.38888889      0.33333333      0.19444444</v>
   <v>       0.41666667      0.33333333      0.19444444</v>
   <v>       0.44444444      0.33333333      0.19444444</v>
   <v>       0.47222222      0.33333333      0.19444444</v>
   <v>       0.50000000      0.33333333      0.19444444</v>
   <v>       0.36111111      0.36111111      0.19444444</v>
   <v>       0.38888889      0.36111111      0.19444444</v>
   <v>       0.41666667      0.36111111      0.19444444</v>
   <v>       0.44444444      0.36111111      0.19444444</v>
   <v>       0.47222222      0.36111111      0.19444444</v>
   <v>       0.50000000      0.36111111      0.19444444</v>
   <v>       0.38888889      0.38888889      0.19444444</v>
   <v>       0.41666667      0.38888889      0.19444444</v>
   <v>       0.44444444      0.38888889      0.19444444</v>
   <v>       0.47222222      0.38888889      0.19444444</v>
   <v>       0.50000000      0.38888889      0.19444444</v>
   <v>       0.41666667      0.41666667      0.19444444</v>
   <v>       0.44444444      0.41666667      0.19444444</v>
   <v>       0.47222222      0.41666667      0.19444444</v>
   <v>       0.50000000      0.41666667      0.19444444</v>
   <v>       0.44444444      0.44444444      0.19444444</v>
   <v>       0.47222222      0.44444444      0.19444444</v>
   <v>       0.50000000      0.44444444      0.19444444</v>
   <v>       0.47222222      0.47222222      0.19444444</v>
   <v>       0.50000000      0.47222222      0.19444444</v>
   <v>       0.50000000      0.50000000      0.19444444</v>
   <v>       0.22222222      0.22222222      0.22222222</v>
   <v>       0.25000000      0.22222222      0.22222222</v>
   <v>       0.27777778      0.22222222      0.22222222</v>
   <v>       0.30555556      0.22222222      0.22222222</v>
   <v>       0.33333333      0.22222222      0.22222222</v>
   <v>       0.36111111      0.22222222      0.22222222</v>
   <v>       0.38888889      0.22222222      0.22222222</v>
   <v>       0.41666667      0.22222222      0.22222222</v>
   <v>       0.44444444      0.22222222      0.22222222</v>
   <v>       0.47222222      0.22222222      0.22222222</v>
   <v>       0.50000000      0.22222222      0.22222222</v>
   <v>       0.25000000      0.25000000      0.22222222</v>
   <v>       0.27777778      0.25000000      0.22222222</v>
   <v>       0.30555556      0.25000000      0.22222222</v>
   <v>       0.33333333      0.25000000      0.22222222</v>
   <v>       0.36111111      0.25000000      0.22222222</v>
   <v>       0.38888889      0.25000000      0.22222222</v>
   <v>       0.41666667      0.25000000      0.22222222</v>
   <v>       0.44444444      0.25000000      0.22222222</v>
   <v>       0.47222222      0.25000000      0.22222222</v>
   <v>       0.50000000      0.25000000      0.22222222</v>
   <v>       0.27777778      0.27777778      0.22222222</v>
   <v>       0.30555556      0.27777778      0.22222222</v>
   <v>       0.33333333      0.27777778      0.22222222</v>
   <v>       0.36111111      0.27777778      0.22222222</v>
   <v>       0.38888889      0.27777778      0.22222222</v>
   <v>       0.41666667      0.27777778      0.22222222</v>
   <v>       0.44444444      0.27777778      0.22222222</v>
   <v>       0.47222222      0.27777778      0.22222222</v>
   <v>       0.50000000      0.27777778      0.22222222</v>
   <v>       0.30555556      0.30555556      0.22222222</v>
   <v>       0.33333333      0.30555556      0.22222222</v>
   <v>       0.36111111      0.30555556      0.22222222</v>
   <v>       0.38888889      0.30555556      0.22222222</v>
   <v>       0.41666667      0.30555556      0.22222222</v>
   <v>       0.44444444      0.30555556      0.22222222</v>
   <v>       0.47222222      0.30555556      0.22222222</v>
   <v>       0.50000000      0.30555556      0.22222222</v>
   <v>       0.33333333      0.33333333      0.22222222</v>
   <v>       0.36111111      0.33333333      0.22222222</v>
   <v>       0.38888889      0.33333333      0.22222222</v>
   <v>       0.41666667      0.33333333      0.22222222</v>
   <v>       0.44444444      0.33333333      0.22222222</v>
   <v>       0.47222222      0.33333333      0.22222222</v>
   <v>       0.50000000      0.33333333      0.22222222</v>
   <v>       0.36111111      0.36111111      0.22222222</v>
   <v>       0.38888889      0.36111111      0.22222222</v>
   <v>       0.41666667      0.36111111      0.22222222</v>
   <v>       0.44444444      0.36111111      0.22222222</v>
   <v>       0.47222222      0.36111111      0.22222222</v>
   <v>       0.50000000      0.36111111      0.22222222</v>
   <v>       0.38888889      0.38888889      0.22222222</v>
   <v>       0.41666667      0.38888889      0.22222222</v>
   <v>       0.44444444      0.38888889      0.22222222</v>
   <v>       0.47222222      0.38888889      0.22222222</v>
   <v>       0.50000000      0.38888889      0.22222222</v>
   <v>       0.41666667      0.41666667      0.22222222</v>
   <v>       0.44444444      0.41666667      0.22222222</v>
   <v>       0.47222222      0.41666667      0.22222222</v>
   <v>       0.50000000      0.41666667      0.22222222</v>
   <v>       0.44444444      0.44444444      0.22222222</v>
   <v>       0.47222222      0.44444444      0.22222222</v>
   <v>       0.50000000      0.44444444      0.22222222</v>
   <v>       0.47222222      0.47222222      0.22222222</v>
   <v>       0.50000000      0.47222222      0.22222222</v>
   <v>       0.50000000      0.50000000      0.22222222</v>
   <v>       0.25000000      0.25000000      0.25000000</v>
   <v>       0.27777778      0.25000000      0.25000000</v>
   <v>       0.30555556      0.25000000      0.25000000</v>
   <v>       0.33333333      0.25000000      0.25000000</v>
   <v>       0.36111111      0.25000000      0.25000000</v>
   <v>       0.38888889      0.25000000      0.25000000</v>
   <v>       0.41666667      0.25000000      0.25000000</v>
   <v>       0.44444444      0.25000000      0.25000000</v>
   <v>       0.47222222      0.25000000      0.25000000</v>
   <v>       0.50000000      0.25000000      0.25000000</v>
   <v>       0.27777778      0.27777778      0.25000000</v>
   <v>       0.30555556      0.27777778      0.25000000</v>
   <v>       0.33333333      0.27777778      0.25000000</v>
   <v>       0.36111111      0.27777778      0.25000000</v>
   <v>       0.38888889      0.27777778      0.25000000</v>
   <v>       0.41666667      0.27777778      0.25000000</v>
   <v>       0.44444444      0.27777778      0.25000000</v>
   <v>       0.47222222      0.27777778      0.25000000</v>
   <v>       0.50000000      0.27777778      0.25000000</v>
   <v>       0.30555556      0.30555556      0.25000000</v>
   <v>       0.33333333      0.30555556      0.25000000</v>
   <v>       0.36111111      0.30555556      0.25000000</v>
   <v>       0.38888889      0.30555556      0.25000000</v>
   <v>       0.41666667      0.30555556      0.25000000</v>
   <v>       0.44444444      0.30555556      0.25000000</v>
   <v>       0.47222222      0.30555556      0.25000000</v>
   <v>       0.50000000      0.30555556      0.25000000</v>
   <v>       0.33333333      0.33333333      0.25000000</v>
   <v>       0.36111111      0.33333333      0.25000000</v>
   <v>       0.38888889      0.33333333      0.25000000</v>
   <v>       0.41666667      0.33333333      0.25000000</v>
   <v>       0.44444444      0.33333333      0.25000000</v>
   <v>       0.47222222      0.33333333      0.25000000</v>
   <v>       0.50000000      0.33333333      0.25000000</v>
   <v>       0.36111111      0.36111111      0.25000000</v>
   <v>       0.38888889      0.36111111      0.25000000</v>
   <v>       0.41666667      0.36111111      0.25000000</v>
   <v>       0.44444444      0.36111111      0.25000000</v>
   <v>       0.47222222      0.36111111      0.25000000</v>
   <v>       0.50000000      0.36111111      0.25000000</v>
   <v>       0.38888889      0.38888889      0.25000000</v>
   <v>       0.41666667      0.38888889      0.25000000</v>
   <v>       0.44444444      0.38888889      0.25000000</v>
   <v>       0.47222222      0.38888889      0.25000000</v>
   <v>       0.50000000      0.38888889      0.25000000</v>
   <v>       0.41666667      0.41666667      0.25000000</v>
   <v>       0.44444444      0.41666667      0.25000000</v>
   <v>       0.47222222      0.41666667      0.25000000</v>
   <v>       0.50000000      0.41666667      0.25000000</v>
   <v>       0.44444444      0.44444444      0.25000000</v>
   <v>       0.47222222      0.44444444      0.25000000</v>
   <v>       0.50000000      0.44444444      0.25000000</v>
   <v>       0.47222222      0.47222222      0.25000000</v>
   <v>       0.50000000      0.47222222      0.25000000</v>
   <v>       0.50000000      0.50000000      0.25000000</v>
   <v>       0.27777778      0.27777778      0.27777778</v>
   <v>       0.30555556      0.27777778      0.27777778</v>
   <v>       0.33333333      0.27777778      0.27777778</v>
   <v>       0.36111111      0.27777778      0.27777778</v>
   <v>       0.38888889      0.27777778      0.27777778</v>
   <v>       0.41666667      0.27777778      0.27777778</v>
   <v>       0.44444444      0.27777778      0.27777778</v>
   <v>       0.47222222      0.27777778      0.27777778</v>
   <v>       0.50000000      0.27777778      0.27777778</v>
   <v>       0.30555556      0.30555556      0.27777778</v>
   <v>       0.33333333      0.30555556      0.27777778</v>
   <v>       0.36111111      0.30555556      0.27777778</v>
   <v>       0.38888889      0.30555556      0.27777778</v>
   <v>       0.41666667      0.30555556      0.27777778</v>
   <v>       0.44444444      0.30555556      0.27777778</v>
   <v>       0.47222222      0.30555556      0.27777778</v>
   <v>       0.50000000      0.30555556      0.27777778</v>
   <v>       0.33333333      0.33333333      0.27777778</v>
   <v>       0.36111111      0.33333333      0.27777778</v>
   <v>       0.38888889      0.33333333      0.27777778</v>
   <v>       0.41666667      0.33333333      0.27777778</v>
   <v>       0.44444444      0.33333333      0.27777778</v>
   <v>       0.47222222      0.33333333      0.27777778</v>
   <v>       0.50000000      0.33333333      0.27777778</v>
   <v>       0.36111111      0.36111111      0.27777778</v>
   <v>       0.38888889      0.36111111      0.27777778</v>
   <v>       0.41666667      0.36111111      0.27777778</v>
   <v>       0.44444444      0.36111111      0.27777778</v>
   <v>       0.47222222      0.36111111      0.27777778</v>
   <v>       0.50000000      0.36111111      0.27777778</v>
   <v>       0.38888889      0.38888889      0.27777778</v>
   <v>       0.41666667      0.38888889      0.27777778</v>
   <v>       0.44444444      0.38888889      0.27777778</v>
   <v>       0.47222222      0.38888889      0.27777778</v>
   <v>       0.50000000      0.38888889      0.27777778</v>
   <v>       0.41666667      0.41666667      0.27777778</v>
   <v>       0.44444444      0.41666667      0.27777778</v>
   <v>       0.47222222      0.41666667      0.27777778</v>
   <v>       0.50000000      0.41666667      0.27777778</v>
   <v>       0.44444444      0.44444444      0.27777778</v>
   <v>       0.47222222      0.44444444      0.27777778</v>
   <v>       0.50000000      0.44444444      0.27777778</v>
   <v>       0.47222222      0.47222222      0.27777778</v>
   <v>       0.50000000      0.47222222      0.27777778</v>
   <v>       0.50000000      0.50000000      0.27777778</v>
   <v>       0.30555556      0.30555556      0.30555556</v>
   <v>       0.33333333      0.30555556      0.30555556</v>
   <v>       0.36111111      0.30555556      0.30555556</v>
   <v>       0.38888889      0.30555556      0.30555556</v>
   <v>       0.41666667      0.30555556      0.30555556</v>
   <v>       0.44444444      0.30555556      0.30555556</v>
   <v>       0.47222222      0.30555556      0.30555556</v>
   <v>       0.50000000      0.30555556      0.30555556</v>
   <v>       0.33333333      0.33333333      0.30555556</v>
   <v>       0.36111111      0.33333333      0.30555556</v>
   <v>       0.38888889      0.33333333      0.30555556</v>
   <v>       0.41666667      0.33333333      0.30555556</v>
   <v>       0.44444444      0.33333333      0.30555556</v>
   <v>       0.47222222      0.33333333      0.30555556</v>
   <v>       0.50000000      0.33333333      0.30555556</v>
   <v>       0.36111111      0.36111111      0.30555556</v>
   <v>       0.38888889      0.36111111      0.30555556</v>
   <v>       0.41666667      0.36111111      0.30555556</v>
   <v>       0.44444444      0.36111111      0.30555556</v>
   <v>       0.47222222      0.36111111      0.30555556</v>
   <v>       0.50000000      0.36111111      0.30555556</v>
   <v>       0.38888889      0.38888889      0.30555556</v>
   <v>       0.41666667      0.38888889      0.30555556</v>
   <v>       0.44444444      0.38888889      0.30555556</v>
   <v>       0.47222222      0.38888889      0.30555556</v>
   <v>       0.50000000      0.38888889      0.30555556</v>
   <v>       0.41666667      0.41666667      0.30555556</v>
   <v>       0.44444444      0.41666667      0.30555556</v>
   <v>       0.47222222      0.41666667      0.30555556</v>
   <v>       0.50000000      0.41666667      0.30555556</v>
   <v>       0.44444444      0.44444444      0.30555556</v>
   <v>       0.47222222      0.44444444      0.30555556</v>
   <v>       0.50000000      0.44444444      0.30555556</v>
   <v>       0.47222222      0.47222222      0.30555556</v>
   <v>       0.50000000      0.47222222      0.30555556</v>
   <v>       0.50000000      0.50000000      0.30555556</v>
   <v>       0.33333333      0.33333333      0.33333333</v>
   <v>       0.36111111      0.33333333      0.33333333</v>
   <v>       0.38888889      0.33333333      0.33333333</v>
   <v>       0.41666667      0.33333333      0.33333333</v>
   <v>       0.44444444      0.33333333      0.33333333</v>
   <v>       0.47222222      0.33333333      0.33333333</v>
   <v>       0.50000000      0.33333333      0.33333333</v>
   <v>       0.36111111      0.36111111      0.33333333</v>
   <v>       0.38888889      0.36111111      0.33333333</v>
   <v>       0.41666667      0.36111111      0.33333333</v>
   <v>       0.44444444      0.36111111      0.33333333</v>
   <v>       0.47222222      0.36111111      0.33333333</v>
   <v>       0.50000000      0.36111111      0.33333333</v>
   <v>       0.38888889      0.38888889      0.33333333</v>
   <v>       0.41666667      0.38888889      0.33333333</v>
   <v>       0.44444444      0.38888889      0.33333333</v>
   <v>       0.47222222      0.38888889      0.33333333</v>
   <v>       0.50000000      0.38888889      0.33333333</v>
   <v>       0.41666667      0.41666667      0.33333333</v>
   <v>       0.44444444      0.41666667      0.33333333</v>
   <v>       0.47222222      0.41666667      0.33333333</v>
   <v>       0.50000000      0.41666667      0.33333333</v>
   <v>       0.44444444      0.44444444      0.33333333</v>
   <v>       0.47222222      0.44444444      0.33333333</v>
   <v>       0.50000000      0.44444444      0.33333333</v>
   <v>       0.47222222      0.47222222      0.33333333</v>
   <v>       0.50000000      0.47222222      0.33333333</v>
   <v>       0.50000000      0.50000000      0.33333333</v>
   <v>       0.36111111      0.36111111      0.36111111</v>
   <v>       0.38888889      0.36111111      0.36111111</v>
   <v>       0.41666667      0.36111111      0.36111111</v>
   <v>       0.44444444      0.36111111      0.36111111</v>
   <v>       0.47222222      0.36111111      0.36111111</v>
   <v>       0.50000000      0.36111111      0.36111111</v>
   <v>       0.38888889      0.38888889      0.36111111</v>
   <v>       0.41666667      0.38888889      0.36111111</v>
   <v>       0.44444444      0.38888889      0.36111111</v>
   <v>       0.47222222      0.38888889      0.36111111</v>
   <v>       0.50000000      0.38888889      0.36111111</v>
   <v>       0.41666667      0.41666667      0.36111111</v>
   <v>       0.44444444      0.41666667      0.36111111</v>
   <v>       0.47222222      0.41666667      0.36111111</v>
   <v>       0.50000000      0.41666667      0.36111111</v>
   <v>       0.44444444      0.44444444      0.36111111</v>
   <v>       0.47222222      0.44444444      0.36111111</v>
   <v>       0.50000000      0.44444444      0.36111111</v>
   <v>       0.47222222      0.47222222      0.36111111</v>
   <v>       0.50000000      0.47222222      0.36111111</v>
   <v>       0.50000000      0.50000000      0.36111111</v>
   <v>       0.38888889      0.38888889      0.38888889</v>
   <v>       0.41666667      0.38888889      0.38888889</v>
   <v>       0.44444444      0.38888889      0.38888889</v>
   <v>       0.47222222      0.38888889      0.38888889</v>
   <v>       0.50000000      0.38888889      0.38888889</v>
   <v>       0.41666667      0.41666667      0.38888889</v>
   <v>       0.44444444      0.41666667      0.38888889</v>
   <v>       0.47222222      0.41666667      0.38888889</v>
   <v>       0.50000000      0.41666667      0.38888889</v>
   <v>       0.44444444      0.44444444      0.38888889</v>
   <v>       0.47222222      0.44444444      0.38888889</v>
   <v>       0.50000000      0.44444444      0.38888889</v>
   <v>       0.47222222      0.47222222      0.38888889</v>
   <v>       0.50000000      0.47222222      0.38888889</v>
   <v>       0.50000000      0.50000000      0.38888889</v>
[...]
       <r>  -1.0082  1.0000</r>
       <r>  -0.9653  1.0000</r>
       <r>  -0.9362  1.0000</r>
       <r>  -0.9102  1.0000</r>
       <r>  -0.8908  1.0000</r>
       <r>  -0.8908  1.0000</r>
       <r>   0.7265  1.0000</r>
       <r>   0.7265  1.0000</r>
       <r>   0.7840  1.0000</r>
       <r>   0.9279  1.0000</r>
       <r>   1.0593  1.0000</r>
       <r>   1.0951  1.0000</r>
       <r>   1.0951  1.0000</r>
       <r>   1.1024  1.0000</r>
       <r>   2.8582  1.0000</r>
       <r>   3.4248  1.0000</r>
       <r>   4.0514  1.0000</r>
       <r>   4.0514  1.0000</r>
       <r>   8.1793  0.0000</r>
       <r>   8.1793  0.0000</r>
       <r>   8.7045  0.0000</r>
       <r>   9.1372  0.0000</r>
       <r>  20.1221  0.0000</r>
       <r>  20.1221  0.0000</r>
       <r>  20.3048  0.0000</r>
       <r>  20.4294  0.0000</r>
      </set>
      <set comment="kpoint 1314">
       <r>  -2.6637  1.0000</r>
       <r>  -2.6637  1.0000</r>
       <r>  -2.6196  1.0000</r>
       <r>  -2.6196  1.0000</r>
       <r>  -1.0441  1.0000</r>
       <r>  -1.0441  1.0000</r>
       <r>  -0.9852  1.0000</r>
       <r>  -0.9852  1.0000</r>
       <r>  -0.9265  1.0000</r>
       <r>  -0.9265  1.0000</r>
       <r>  -0.8951  1.0000</r>
       <r>  -0.8951  1.0000</r>
       <r>   0.7454  1.0000</r>
       <r>   0.7454  1.0000</r>
       <r>   0.8632  1.0000</r>
       <r>   0.8632  1.0000</r>
       <r>   1.0849  1.0000</r>
       <r>   1.0849  1.0000</r>
       <r>   1.0905  1.0000</r>
       <r>   1.0905  1.0000</r>
       <r>   3.1346  1.0000</r>
       <r>   3.1346  1.0000</r>
       <r>   4.0558  1.0000</r>
       <r>   4.0558  1.0000</r>
       <r>   8.1532  0.0000</r>
       <r>   8.1532  0.0000</r>
       <r>   8.9085  0.0000</r>
       <r>   8.9085  0.0000</r>
       <r>  20.1281  0.0000</r>
       <r>  20.1281  0.0000</r>
       <r>  20.3727  0.0000</r>
       <r>  20.3727  0.0000</r>
      </set>
      <set comment="kpoint 1315">
       <r>  -2.6860  1.0000</r>
       <r>  -2.6362  1.0000</r>
       <r>  -2.6362  1.0000</r>
       <r>  -2.6265  1.0000</r>
       <r>  -1.0393  1.0000</r>
       <r>  -1.0271  1.0000</r>
       <r>  -1.0271  1.0000</r>
       <r>  -0.9528  1.0000</r>
       <r>  -0.9510  1.0000</r>
       <r>  -0.9057  1.0000</r>
       <r>  -0.9057  1.0000</r>
       <r>  -0.8999  1.0000</r>
       <r>   0.7561  1.0000</r>
       <r>   0.7715  1.0000</r>
       <r>   0.7715  1.0000</r>
       <r>   1.0148  1.0000</r>
       <r>   1.0267  1.0000</r>
       <r>   1.1011  1.0000</r>
       <r>   1.1062  1.0000</r>
       <r>   1.1062  1.0000</r>
       <r>   2.7934  1.0000</r>
       <r>   3.7797  1.0000</r>
       <r>   3.7797  1.0000</r>
       <r>   4.0010  1.0000</r>
       <r>   8.1761  0.0000</r>
       <r>   8.3643  0.0000</r>
       <r>   8.3643  0.0000</r>
       <r>   9.1303  0.0000</r>
       <r>  20.1465  0.0000</r>
       <r>  20.2184  0.0000</r>
       <r>  20.2184  0.0000</r>
       <r>  20.4420  0.0000</r>
      </set>
      <set comment="kpoint 1316">
       <r>  -2.6860  1.0000</r>
       <r>  -2.6609  1.0000</r>
       <r>  -2.6462  1.0000</r>
       <r>  -2.6413  1.0000</r>
       <r>  -1.0294  1.0000</r>
       <r>  -1.0234  1.0000</r>
       <r>  -1.0041  1.0000</r>
       <r>  -0.9668  1.0000</r>
       <r>  -0.9494  1.0000</r>
       <r>  -0.9266  1.0000</r>
       <r>  -0.9167  1.0000</r>
       <r>  -0.9139  1.0000</r>
       <r>   0.8143  1.0000</r>
       <r>   0.8229  1.0000</r>
       <r>   0.8586  1.0000</r>
       <r>   0.9880  1.0000</r>
       <r>   1.0567  1.0000</r>
       <r>   1.0935  1.0000</r>
       <r>   1.0960  1.0000</r>
       <r>   1.0988  1.0000</r>
       <r>   3.0152  1.0000</r>
       <r>   3.5173  1.0000</r>
       <r>   3.8398  1.0000</r>
       <r>   3.9536  1.0000</r>
       <r>   8.1476  0.0000</r>
       <r>   8.2441  0.0000</r>
       <r>   8.5100  0.0000</r>
       <r>   8.8963  0.0000</r>
       <r>  20.1771  0.0000</r>
       <r>  20.2130  0.0000</r>
       <r>  20.2942  0.0000</r>
       <r>  20.3984  0.0000</r>
      </set>
      <set comment="kpoint 1317">
       <r>  -2.6776  1.0000</r>
       <r>  -2.6776  1.0000</r>
       <r>  -2.6478  1.0000</r>
       <r>  -2.6478  1.0000</r>
       <r>  -1.0240  1.0000</r>
       <r>  -1.0240  1.0000</r>
       <r>  -0.9840  1.0000</r>
       <r>  -0.9840  1.0000</r>
       <r>  -0.9412  1.0000</r>
       <r>  -0.9412  1.0000</r>
       <r>  -0.9197  1.0000</r>
       <r>  -0.9197  1.0000</r>
       <r>   0.8388  1.0000</r>
       <r>   0.8388  1.0000</r>
       <r>   0.9322  1.0000</r>
       <r>   0.9322  1.0000</r>
       <r>   1.0824  1.0000</r>
       <r>   1.0824  1.0000</r>
       <r>   1.0899  1.0000</r>
       <r>   1.0899  1.0000</r>
       <r>   3.2596  1.0000</r>
       <r>   3.2596  1.0000</r>
       <r>   3.8988  1.0000</r>
       <r>   3.8988  1.0000</r>
       <r>   8.1709  0.0000</r>
       <r>   8.1709  0.0000</r>
       <r>   8.6886  0.0000</r>
       <r>   8.6886  0.0000</r>
       <r>  20.1989  0.0000</r>
       <r>  20.1989  0.0000</r>
       <r>  20.3506  0.0000</r>
       <r>  20.3506  0.0000</r>
      </set>
      <set comment="kpoint 1318">
       <r>  -2.6887  1.0000</r>
       <r>  -2.6686  1.0000</r>
       <r>  -2.6686  1.0000</r>
       <r>  -2.6588  1.0000</r>
       <r>  -1.0158  1.0000</r>
       <r>  -1.0030  1.0000</r>
       <r>  -1.0030  1.0000</r>
       <r>  -0.9719  1.0000</r>
       <r>  -0.9554  1.0000</r>
       <r>  -0.9364  1.0000</r>
       <r>  -0.9364  1.0000</r>
       <r>  -0.9300  1.0000</r>
       <r>   0.8816  1.0000</r>
       <r>   0.9069  1.0000</r>
       <r>   0.9069  1.0000</r>
       <r>   1.0197  1.0000</r>
       <r>   1.0420  1.0000</r>
       <r>   1.0855  1.0000</r>
       <r>   1.0870  1.0000</r>
       <r>   1.0870  1.0000</r>
       <r>   3.2002  1.0000</r>
       <r>   3.6213  1.0000</r>
       <r>   3.6213  1.0000</r>
       <r>   3.8454  1.0000</r>
       <r>   8.1682  0.0000</r>
       <r>   8.3532  0.0000</r>
       <r>   8.3532  0.0000</r>
       <r>   8.6834  0.0000</r>
       <r>  20.2169  0.0000</r>
       <r>  20.2743  0.0000</r>
       <r>  20.2743  0.0000</r>
       <r>  20.3617  0.0000</r>
      </set>
      <set comment="kpoint 1319">
       <r>  -2.6828  1.0000</r>
       <r>  -2.6828  1.0000</r>
       <r>  -2.6679  1.0000</r>
       <r>  -2.6679  1.0000</r>
       <r>  -1.0067  1.0000</r>
       <r>  -1.0067  1.0000</r>
       <r>  -0.9855  1.0000</r>
       <r>  -0.9855  1.0000</r>
       <r>  -0.9496  1.0000</r>
       <r>  -0.9496  1.0000</r>
       <r>  -0.9378  1.0000</r>
       <r>  -0.9378  1.0000</r>
       <r>   0.9166  1.0000</r>
       <r>   0.9166  1.0000</r>
       <r>   0.9754  1.0000</r>
       <r>   0.9754  1.0000</r>
       <r>   1.0677  1.0000</r>
       <r>   1.0677  1.0000</r>
       <r>   1.0800  1.0000</r>
       <r>   1.0800  1.0000</r>
       <r>   3.4051  1.0000</r>
       <r>   3.4051  1.0000</r>
       <r>   3.7326  1.0000</r>
       <r>   3.7326  1.0000</r>
       <r>   8.2380  0.0000</r>
       <r>   8.2380  0.0000</r>
       <r>   8.5012  0.0000</r>
       <r>   8.5012  0.0000</r>
       <r>  20.2484  0.0000</r>
       <r>  20.2484  0.0000</r>
       <r>  20.3213  0.0000</r>
       <r>  20.3213  0.0000</r>
      </set>
      <set comment="kpoint 1320">
       <r>  -2.6796  1.0000</r>
       <r>  -2.6796  1.0000</r>
       <r>  -2.6796  1.0000</r>
       <r>  -2.6796  1.0000</r>
       <r>  -0.9931  1.0000</r>
       <r>  -0.9931  1.0000</r>
       <r>  -0.9931  1.0000</r>
       <r>  -0.9931  1.0000</r>
       <r>  -0.9484  1.0000</r>
       <r>  -0.9484  1.0000</r>
       <r>  -0.9484  1.0000</r>
       <r>  -0.9484  1.0000</r>
       <r>   0.9702  1.0000</r>
       <r>   0.9702  1.0000</r>
       <r>   0.9702  1.0000</r>
       <r>   0.9702  1.0000</r>
       <r>   1.0657  1.0000</r>
       <r>   1.0657  1.0000</r>
       <r>   1.0657  1.0000</r>
       <r>   1.0657  1.0000</r>
       <r>   3.5653  1.0000</r>
       <r>   3.5653  1.0000</r>
       <r>   3.5653  1.0000</r>
       <r>   3.5653  1.0000</r>
       <r>   8.3496  0.0000</r>
       <r>   8.3496  0.0000</r>
       <r>   8.3496  0.0000</r>
       <r>   8.3496  0.0000</r>
       <r>  20.2875  0.0000</r>
       <r>  20.2875  0.0000</r>
       <r>  20.2875  0.0000</r>
       <r>  20.2875  0.0000</r>
      </set>
      <set comment="kpoint 1321">
       <r>  -2.6974  1.0000</r>
       <r>  -2.6574  1.0000</r>
       <r>  -2.6574  1.0000</r>
       <r>  -2.6574  1.0000</r>
       <r>  -1.0173  1.0000</r>
       <r>  -1.0173  1.0000</r>
       <r>  -1.0173  1.0000</r>
       <r>  -0.9591  1.0000</r>
       <r>  -0.9591  1.0000</r>
       <r>  -0.9248  1.0000</r>
       <r>  -0.9248  1.0000</r>
       <r>  -0.9248  1.0000</r>
       <r>   0.8513  1.0000</r>
       <r>   0.8513  1.0000</r>
       <r>   0.8513  1.0000</r>
       <r>   1.0498  1.0000</r>
       <r>   1.0498  1.0000</r>
       <r>   1.1078  1.0000</r>
       <r>   1.1078  1.0000</r>
       <r>   1.1078  1.0000</r>
       <r>   2.9492  1.0000</r>
       <r>   3.7854  1.0000</r>
       <r>   3.7854  1.0000</r>
       <r>   3.7854  1.0000</r>
       <r>   8.2405  0.0000</r>
       <r>   8.2405  0.0000</r>
       <r>   8.2405  0.0000</r>
       <r>   8.8900  0.0000</r>
       <r>  20.2404  0.0000</r>
       <r>  20.2404  0.0000</r>
       <r>  20.2404  0.0000</r>
       <r>  20.4143  0.0000</r>
      </set>
      <set comment="kpoint 1322">
       <r>  -2.7001  1.0000</r>
       <r>  -2.6800  1.0000</r>
       <r>  -2.6701  1.0000</r>
       <r>  -2.6701  1.0000</r>
       <r>  -1.0105  1.0000</r>
       <r>  -1.0105  1.0000</r>
       <r>  -0.9980  1.0000</r>
       <r>  -0.9688  1.0000</r>
       <r>  -0.9605  1.0000</r>
       <r>  -0.9433  1.0000</r>
       <r>  -0.9371  1.0000</r>
       <r>  -0.9371  1.0000</r>
       <r>   0.9068  1.0000</r>
       <r>   0.9068  1.0000</r>
       <r>   0.9327  1.0000</r>
       <r>   1.0377  1.0000</r>
       <r>   1.0768  1.0000</r>
       <r>   1.1021  1.0000</r>
       <r>   1.1021  1.0000</r>
       <r>   1.1059  1.0000</r>
       <r>   3.1355  1.0000</r>
       <r>   3.5632  1.0000</r>
       <r>   3.7890  1.0000</r>
       <r>   3.7890  1.0000</r>
       <r>   8.1650  0.0000</r>
       <r>   8.1650  0.0000</r>
       <r>   8.3489  0.0000</r>
       <r>   8.6777  0.0000</r>
       <r>  20.2503  0.0000</r>
       <r>  20.2503  0.0000</r>
       <r>  20.3006  0.0000</r>
       <r>  20.3813  0.0000</r>
      </set>
      <set comment="kpoint 1323">
       <r>  -2.6943  1.0000</r>
       <r>  -2.6943  1.0000</r>
       <r>  -2.6743  1.0000</r>
       <r>  -2.6743  1.0000</r>
       <r>  -1.0081  1.0000</r>
       <r>  -1.0081  1.0000</r>
       <r>  -0.9818  1.0000</r>
       <r>  -0.9818  1.0000</r>
       <r>  -0.9552  1.0000</r>
       <r>  -0.9552  1.0000</r>
       <r>  -0.9414  1.0000</r>
       <r>  -0.9414  1.0000</r>
       <r>   0.9277  1.0000</r>
       <r>   0.9277  1.0000</r>
       <r>   0.9966  1.0000</r>
       <r>   0.9966  1.0000</r>
       <r>   1.0956  1.0000</r>
       <r>   1.0956  1.0000</r>
       <r>   1.0980  1.0000</r>
       <r>   1.0980  1.0000</r>
       <r>   3.3434  1.0000</r>
       <r>   3.3434  1.0000</r>
       <r>   3.7903  1.0000</r>
       <r>   3.7903  1.0000</r>
       <r>   8.1396  0.0000</r>
       <r>   8.1396  0.0000</r>
       <r>   8.4962  0.0000</r>
       <r>   8.4962  0.0000</r>
       <r>  20.2530  0.0000</r>
       <r>  20.2530  0.0000</r>
       <r>  20.3445  0.0000</r>
       <r>  20.3445  0.0000</r>
      </set>
      <set comment="kpoint 1324">
       <r>  -2.7056  1.0000</r>
       <r>  -2.6904  1.0000</r>
       <r>  -2.6904  1.0000</r>
       <r>  -2.6855  1.0000</r>
       <r>  -1.0006  1.0000</r>
       <r>  -0.9944  1.0000</r>
       <r>  -0.9944  1.0000</r>
       <r>  -0.9711  1.0000</r>
       <r>  -0.9678  1.0000</r>
       <r>  -0.9538  1.0000</r>
       <r>  -0.9538  1.0000</r>
       <r>  -0.9508  1.0000</r>
       <r>   0.9687  1.0000</r>
       <r>   0.9829  1.0000</r>
       <r>   0.9829  1.0000</r>
       <r>   1.0703  1.0000</r>
       <r>   1.0716  1.0000</r>
       <r>   1.0995  1.0000</r>
       <r>   1.1016  1.0000</r>
       <r>   1.1016  1.0000</r>
       <r>   3.2806  1.0000</r>
       <r>   3.6161  1.0000</r>
       <r>   3.6161  1.0000</r>
       <r>   3.7326  1.0000</r>
       <r>   8.1370  0.0000</r>
       <r>   8.2311  0.0000</r>
       <r>   8.2311  0.0000</r>
       <r>   8.4917  0.0000</r>
       <r>  20.2721  0.0000</r>
       <r>  20.2963  0.0000</r>
       <r>  20.2963  0.0000</r>
       <r>  20.3574  0.0000</r>
      </set>
      <set comment="kpoint 1325">
       <r>  -2.7023  1.0000</r>
       <r>  -2.7023  1.0000</r>
       <r>  -2.6923  1.0000</r>
       <r>  -2.6923  1.0000</r>
       <r>  -0.9949  1.0000</r>
       <r>  -0.9949  1.0000</r>
       <r>  -0.9811  1.0000</r>
       <r>  -0.9811  1.0000</r>
       <r>  -0.9642  1.0000</r>
       <r>  -0.9642  1.0000</r>
       <r>  -0.9567  1.0000</r>
       <r>  -0.9567  1.0000</r>
       <r>   0.9981  1.0000</r>
       <r>   0.9981  1.0000</r>
       <r>   1.0389  1.0000</r>
       <r>   1.0389  1.0000</r>
       <r>   1.0915  1.0000</r>
       <r>   1.0915  1.0000</r>
       <r>   1.0960  1.0000</r>
       <r>   1.0960  1.0000</r>
       <r>   3.4436  1.0000</r>
       <r>   3.4436  1.0000</r>
       <r>   3.6737  1.0000</r>
       <r>   3.6737  1.0000</r>
       <r>   8.1596  0.0000</r>
       <r>   8.1596  0.0000</r>
       <r>   8.3415  0.0000</r>
       <r>   8.3415  0.0000</r>
       <r>  20.2864  0.0000</r>
       <r>  20.2864  0.0000</r>
       <r>  20.3296  0.0000</r>
       <r>  20.3296  0.0000</r>
      </set>
      <set comment="kpoint 1326">
       <r>  -2.7016  1.0000</r>
       <r>  -2.7016  1.0000</r>
       <r>  -2.7016  1.0000</r>
       <r>  -2.7016  1.0000</r>
       <r>  -0.9851  1.0000</r>
       <r>  -0.9851  1.0000</r>
       <r>  -0.9851  1.0000</r>
       <r>  -0.9851  1.0000</r>
       <r>  -0.9651  1.0000</r>
       <r>  -0.9651  1.0000</r>
       <r>  -0.9651  1.0000</r>
       <r>  -0.9651  1.0000</r>
       <r>   1.0432  1.0000</r>
       <r>   1.0432  1.0000</r>
       <r>   1.0432  1.0000</r>
       <r>   1.0432  1.0000</r>
       <r>   1.0869  1.0000</r>
       <r>   1.0869  1.0000</r>
       <r>   1.0869  1.0000</r>
       <r>   1.0869  1.0000</r>
       <r>   3.5559  1.0000</r>
       <r>   3.5559  1.0000</r>
       <r>   3.5559  1.0000</r>
       <r>   3.5559  1.0000</r>
       <r>   8.2281  0.0000</r>
       <r>   8.2281  0.0000</r>
       <r>   8.2281  0.0000</r>
       <r>   8.2281  0.0000</r>
       <r>  20.3103  0.0000</r>
       <r>  20.3103  0.0000</r>
       <r>  20.3103  0.0000</r>
       <r>  20.3103  0.0000</r>
      </set>
      <set comment="kpoint 1327">
       <r>  -2.7137  1.0000</r>
       <r>  -2.7036  1.0000</r>
       <r>  -2.7036  1.0000</r>
       <r>  -2.7036  1.0000</r>
       <r>  -0.9884  1.0000</r>
       <r>  -0.9884  1.0000</r>
       <r>  -0.9884  1.0000</r>
       <r>  -0.9736  1.0000</r>
       <r>  -0.9736  1.0000</r>
       <r>  -0.9650  1.0000</r>
       <r>  -0.9650  1.0000</r>
       <r>  -0.9650  1.0000</r>
       <r>   1.0353  1.0000</r>
       <r>   1.0353  1.0000</r>
       <r>   1.0353  1.0000</r>
       <r>   1.0904  1.0000</r>
       <r>   1.0904  1.0000</r>
       <r>   1.1050  1.0000</r>
       <r>   1.1050  1.0000</r>
       <r>   1.1050  1.0000</r>
       <r>   3.3796  1.0000</r>
       <r>   3.6126  1.0000</r>
       <r>   3.6126  1.0000</r>
       <r>   3.6126  1.0000</r>
       <r>   8.1568  0.0000</r>
       <r>   8.1568  0.0000</r>
       <r>   8.1568  0.0000</r>
       <r>   8.3377  0.0000</r>
       <r>  20.3045  0.0000</r>
       <r>  20.3045  0.0000</r>
       <r>  20.3045  0.0000</r>
       <r>  20.3441  0.0000</r>
      </set>
      <set comment="kpoint 1328">
       <r>  -2.7130  1.0000</r>
       <r>  -2.7130  1.0000</r>
       <r>  -2.7080  1.0000</r>
       <r>  -2.7080  1.0000</r>
       <r>  -0.9860  1.0000</r>
       <r>  -0.9860  1.0000</r>
       <r>  -0.9794  1.0000</r>
       <r>  -0.9794  1.0000</r>
       <r>  -0.9727  1.0000</r>
       <r>  -0.9727  1.0000</r>
       <r>  -0.9692  1.0000</r>
       <r>  -0.9692  1.0000</r>
       <r>   1.0567  1.0000</r>
       <r>   1.0567  1.0000</r>
       <r>   1.0772  1.0000</r>
       <r>   1.0772  1.0000</r>
       <r>   1.1020  1.0000</r>
       <r>   1.1020  1.0000</r>
       <r>   1.1026  1.0000</r>
       <r>   1.1026  1.0000</r>
       <r>   3.4925  1.0000</r>
       <r>   3.4925  1.0000</r>
       <r>   3.6113  1.0000</r>
       <r>   3.6113  1.0000</r>
       <r>   8.1319  0.0000</r>
       <r>   8.1319  0.0000</r>
       <r>   8.2249  0.0000</r>
       <r>   8.2249  0.0000</r>
       <r>  20.3065  0.0000</r>
       <r>  20.3065  0.0000</r>
       <r>  20.3266  0.0000</r>
       <r>  20.3266  0.0000</r>
      </set>
      <set comment="kpoint 1329">
       <r>  -2.7149  1.0000</r>
       <r>  -2.7149  1.0000</r>
       <r>  -2.7149  1.0000</r>
       <r>  -2.7149  1.0000</r>
       <r>  -0.9802  1.0000</r>
       <r>  -0.9802  1.0000</r>
       <r>  -0.9802  1.0000</r>
       <r>  -0.9802  1.0000</r>
       <r>  -0.9752  1.0000</r>
       <r>  -0.9752  1.0000</r>
       <r>  -0.9752  1.0000</r>
       <r>  -0.9752  1.0000</r>
       <r>   1.0887  1.0000</r>
       <r>   1.0887  1.0000</r>
       <r>   1.0887  1.0000</r>
       <r>   1.0887  1.0000</r>
       <r>   1.0998  1.0000</r>
       <r>   1.0998  1.0000</r>
       <r>   1.0998  1.0000</r>
       <r>   1.0998  1.0000</r>
       <r>   3.5495  1.0000</r>
       <r>   3.5495  1.0000</r>
       <r>   3.5495  1.0000</r>
       <r>   3.5495  1.0000</r>
       <r>   8.1542  0.0000</r>
       <r>   8.1542  0.0000</r>
       <r>   8.1542  0.0000</r>
       <r>   8.1542  0.0000</r>
       <r>  20.3186  0.0000</r>
       <r>  20.3186  0.0000</r>
       <r>  20.3186  0.0000</r>
       <r>  20.3186  0.0000</r>
      </set>
      <set comment="kpoint 1330">
       <r>  -2.7193  1.0000</r>
       <r>  -2.7193  1.0000</r>
       <r>  -2.7193  1.0000</r>
       <r>  -2.7193  1.0000</r>
       <r>  -0.9785  1.0000</r>
       <r>  -0.9785  1.0000</r>
       <r>  -0.9785  1.0000</r>
       <r>  -0.9785  1.0000</r>
       <r>  -0.9785  1.0000</r>
       <r>  -0.9785  1.0000</r>
       <r>  -0.9785  1.0000</r>
       <r>  -0.9785  1.0000</r>
       <r>   1.1041  1.0000</r>
       <r>   1.1041  1.0000</r>
       <r>   1.1041  1.0000</r>
       <r>   1.1041  1.0000</r>
       <r>   1.1041  1.0000</r>
       <r>   1.1041  1.0000</r>
       <r>   1.1041  1.0000</r>
       <r>   1.1041  1.0000</r>
       <r>   3.5473  1.0000</r>
       <r>   3.5473  1.0000</r>
       <r>   3.5473  1.0000</r>
       <r>   3.5473  1.0000</r>
       <r>   8.1294  0.0000</r>
       <r>   8.1294  0.0000</r>
       <r>   8.1294  0.0000</r>
       <r>   8.1294  0.0000</r>
       <r>  20.3205  0.0000</r>
       <r>  20.3205  0.0000</r>
       <r>  20.3205  0.0000</r>
       <r>  20.3205  0.0000</r>
      </set>
     </set>
    </set>
   </array>
  </eigenvalues>
 </calculation>
 <structure name="finalpos" >
  <crystal>
   <varray name="basis" >
    <v>       3.99721836      0.00000000      0.00000000</v>
    <v>       0.00000000      3.99721836      0.00000000</v>
    <v>       0.00000000      0.00000000      3.99721836</v>
   </varray>
   <i name="volume">     63.86657417</i>
   <varray name="rec_basis" >
    <v>       0.25017397      0.00000000      0.00000000</v>
    <v>       0.00000000      0.25017397      0.00000000</v>
    <v>       0.00000000      0.00000000      0.25017397</v>
   </varray>
  </crystal>
  <varray name="positions" >
   <v>       0.00000000      0.00000000      0.00000000</v>
   <v>       0.50000000      0.50000000      0.00000000</v>
   <v>       0.50000000      0.00000000      0.50000000</v>
   <v>       0.00000000      0.50000000      0.50000000</v>
  </varray>
 </structure>
</modeling>
