 vasp.4.6.28 25Jul05 complex 
 executed on             LinuxIFC date 2017.01.24  15:09:35
 running on    4 nodes
 distr:  one band on    1 nodes,    4 groups


--------------------------------------------------------------------------------------------------------


 INCAR:
 POTCAR:   PAW_PBE Ag 06Sep2000                   
 POTCAR:   PAW_PBE Ag 06Sep2000                   
   VRHFIN =Ag : s1 d10                                                          
   LEXCH  = PE                                                                  
   EATOM  =  1037.4134 eV,   76.2477 Ry                                         
                                                                                
   TITEL  = PAW_PBE Ag 06Sep2000                                                
   LULTRA =        F    use ultrasoft PP ?                                      
   IUNSCR =        1    unscreen: 0-lin 1-nonlin 2-no                           
   RPACOR =    2.000    partial core radius                                     
   POMASS =  107.868; ZVAL   =   11.000    mass and valenz                      
   RCORE  =    2.400    outmost cutoff radius                                   
   RWIGS  =    2.840; RWIGS  =    1.503    wigner-seitz radius (au A)           
   ENMAX  =  249.846; ENMIN  =  187.385 eV                                      
   RCLOC  =    1.962    cutoff for local pot                                    
   LCOR   =        T    correct aug charges                                     
   LPAW   =        T    paw PP                                                  
   EAUG   =  412.496                                                            
   DEXC   =    -.047                                                            
   RMAX   =    2.917    core radius for proj-oper                               
   RAUG   =    1.300    factor for augmentation sphere                          
   RDEP   =    2.416    radius for radial grids                                 
   QCUT   =   -4.285; QGAM   =    8.570    optimization parameters              
                                                                                
   Description                                                                  
     l     E      TYP  RCUT    TYP  RCUT                                        
     2   .000     23  2.400                                                     
     2   .000     23  2.400                                                     
     0   .000     23  2.400                                                     
     0   .000     23  2.400                                                     
     1  -.200     23  2.400                                                     
     1  1.500     23  2.400                                                     
     3   .000      7   .000                                                     
  local pseudopotential read in
  partial core-charges read in
  atomic valenz-charges read in
  non local Contribution for L=           2  read in
    real space projection operators read in
  non local Contribution for L=           2  read in
    real space projection operators read in
  non local Contribution for L=           0  read in
    real space projection operators read in
  non local Contribution for L=           0  read in
    real space projection operators read in
  non local Contribution for L=           1  read in
    real space projection operators read in
  non local Contribution for L=           1  read in
    real space projection operators read in
    PAW grid and wavefunctions read in
 
   number of l-projection  operators is LMAX  =           6
   number of lm-projection operators is LMMAX =          18
 

 ----------------------------------------------------------------------------- 
|                                                                             |
|  ADVICE TO THIS USER RUNNING 'VASP/VAMP'   (HEAR YOUR MASTER'S VOICE ...):  |
|                                                                             |
|      You have a (more or less) 'large supercell' and for larger cells       |
|      it might be more efficient to use real space projection operators      |
|      So try LREAL= Auto  in the INCAR   file.                               |
|      Mind: If you want to do an extremely accurate calculations keep the    |
|      reciprocal projection scheme          (i.e. LREAL=.FALSE.)             |
|                                                                             |
 ----------------------------------------------------------------------------- 

 PAW_PBE Ag 06Sep2000                   :
 energy of atom  1       EATOM=-1037.4134
 kinetic energy error for atom=    0.0019 (will be added to EATOM!!)
 
 EXHCAR: internal setup
 exchange correlation table for  LEXCH =        8
   RHO(1)=    0.500       N(1)  =     2000
   RHO(2)=  100.500       N(2)  =     4000
 
 POSCAR: No title                                
  positions in direct lattice
  No initial velocities read in
 


--------------------------------------------------------------------------------------------------------


 ion  position               nearest neighbor table
   1  0.750  0.750  0.500-   3 2.93  14 2.93  19 2.93  20 2.93   5 2.93  26 2.93   6 2.93  29 2.93
                            11 2.93  18 2.93  10 2.93   8 2.93
   2  0.750  0.750  0.000-   8 2.93  10 2.93  22 2.93  27 2.93  11 2.93  18 2.93  32 2.93   5 2.93
                            26 2.93   3 2.93  20 2.93  12 2.94
   3  0.750  0.000  0.250-   1 2.93   5 2.93   9 2.93  28 2.93  19 2.93  13 2.93  18 2.93  27 2.93
                             6 2.93   2 2.93   4 2.93  12 2.94
   4  0.750  0.250  0.500-   6 2.93   8 2.93  10 2.93  29 2.93  13 2.93  31 2.93  14 2.93  19 2.93
                            21 2.93  28 2.93   3 2.93  20 2.93
   5  0.000  0.750  0.250-   3 2.93  14 2.93  25 2.93  15 2.93   1 2.93  16 2.93  10 2.93   7 2.93
                             2 2.93  22 2.93   6 2.93  12 2.93
   6  0.000  0.000  0.500-   4 2.93   7 2.93  11 2.93  13 2.93   8 2.93  16 2.93   1 2.93  17 2.93
                             3 2.93  23 2.93  21 2.93   5 2.93
   7  0.250  0.750  0.500-   6 2.93  16 2.93  29 2.93  30 2.93  11 2.93  18 2.93  14 2.93  19 2.93
                             5 2.93  26 2.93  25 2.93  23 2.93
   8  0.750  0.000  0.750-   2 2.93   4 2.93  11 2.93  31 2.93  27 2.93   6 2.93  21 2.93  26 2.93
                            19 2.93   1 2.93   9 2.93  12 2.94
   9  0.750  0.250  0.000-   3 2.93  20 2.93  32 2.93  28 2.93  21 2.93  22 2.93  27 2.93  31 2.93
                            13 2.93   8 2.93  10 2.93  12 2.94
  10  0.750  0.500  0.250-   2 2.93   4 2.93  13 2.93  18 2.93  22 2.93  29 2.93  28 2.93   5 2.93
                            14 2.93  32 2.93   9 2.93   1 2.93
  11  0.000  0.750  0.750-   6 2.93   8 2.93  22 2.93  30 2.93   7 2.93   2 2.93  23 2.93  20 2.93
                             1 2.93  15 2.93  14 2.93  12 2.93
  12  0.002  0.000  0.000-  15 2.92  23 2.92  24 2.92  16 2.92   5 2.93  21 2.93  13 2.93  11 2.93
                             9 2.94   3 2.94   2 2.94   8 2.94
  13  0.000  0.250  0.250-   6 2.93  10 2.93  16 2.93  22 2.93   4 2.93  24 2.93   3 2.93  25 2.93
                            17 2.93   9 2.93  14 2.93  12 2.93
  14  0.000  0.500  0.500-   1 2.93   5 2.93  17 2.93  21 2.93  20 2.93  25 2.93   4 2.93   7 2.93
                            10 2.93  30 2.93  13 2.93  11 2.93
  15  0.250  0.750  0.000-  12 2.92  23 2.93  25 2.93  32 2.93  26 2.93   5 2.93  27 2.93  22 2.93
                            11 2.93  18 2.93  30 2.93  16 2.93
  16  0.250  0.000  0.250-  12 2.92   7 2.93  13 2.93  18 2.93  24 2.93   6 2.93  27 2.93   5 2.93
                            28 2.93  19 2.93  17 2.93  15 2.93
  17  0.250  0.250  0.500-  14 2.93  19 2.93  23 2.93  25 2.93  21 2.93  28 2.93   6 2.93  29 2.93
                            13 2.93  31 2.93  30 2.93  16 2.93
  18  0.500  0.750  0.250-  10 2.93  16 2.93  27 2.93  29 2.93   2 2.93   7 2.93   3 2.93  25 2.93
                             1 2.93  15 2.93  19 2.93  32 2.93
  19  0.500  0.000  0.500-   1 2.93  17 2.93  26 2.93  28 2.93   3 2.93  23 2.93   4 2.93   7 2.93
                             8 2.93  16 2.93  18 2.93  31 2.93
  20  0.750  0.500  0.750-   1 2.93   9 2.93  21 2.93  26 2.93  14 2.93  32 2.93  31 2.93  11 2.93
                            22 2.93  29 2.93   4 2.93   2 2.93
  21  0.000  0.250  0.750-  14 2.93  20 2.93  23 2.93   9 2.93  17 2.93   8 2.93  30 2.93  24 2.93
                             4 2.93  22 2.93   6 2.93  12 2.93
  22  0.000  0.500  0.000-   2 2.93  11 2.93  13 2.93  24 2.93  10 2.93  30 2.93   9 2.93  15 2.93
                            25 2.93  20 2.93  21 2.93   5 2.93
  23  0.250  0.000  0.750-  12 2.92  15 2.93  17 2.93  21 2.93  26 2.93  19 2.93  11 2.93  31 2.93
                            27 2.93   6 2.93  24 2.93   7 2.93
  24  0.250  0.250  0.000-  12 2.92  16 2.93  22 2.93  27 2.93  30 2.93  13 2.93  31 2.93  32 2.93
                            28 2.93  21 2.93  25 2.93  23 2.93
  25  0.250  0.500  0.250-   5 2.93  15 2.93  17 2.93  28 2.93  14 2.93  32 2.93  13 2.93  18 2.93
                            29 2.93  22 2.93  24 2.93   7 2.93
  26  0.500  0.750  0.750-  19 2.93  20 2.93  23 2.93  32 2.93   1 2.93  15 2.93  30 2.93   8 2.93
                             7 2.93   2 2.93  27 2.93  29 2.93
  27  0.500  0.000  0.000-   2 2.93  18 2.93  24 2.93  31 2.93  16 2.93   8 2.93   9 2.93  15 2.93
                             3 2.93  23 2.93  28 2.93  26 2.93
  28  0.500  0.250  0.250-   3 2.93  19 2.93  25 2.93  32 2.93  17 2.93   9 2.93  10 2.93  16 2.93
                             4 2.93  24 2.93  29 2.93  27 2.93
  29  0.500  0.500  0.500-   4 2.93   7 2.93  18 2.93  31 2.93  30 2.93  10 2.93  17 2.93   1 2.93
                            20 2.93  25 2.93  26 2.93  28 2.93
  30  0.250  0.500  0.750-   7 2.93  11 2.93  24 2.93  31 2.93  29 2.93  22 2.93  21 2.93  26 2.93
                            14 2.93  32 2.93  17 2.93  15 2.93
  31  0.500  0.250  0.750-   8 2.93  27 2.93  29 2.93  30 2.93  24 2.93   4 2.93  20 2.93  23 2.93
                             9 2.93  17 2.93  19 2.93  32 2.93
  32  0.500  0.500  0.000-   9 2.93  15 2.93  26 2.93  28 2.93  20 2.93  25 2.93  24 2.93   2 2.93
                            10 2.93  30 2.93  18 2.93  31 2.93
 
  LATTYP: Found a simple cubic cell.
 ALAT       =     8.2866603400
  
  Lattice vectors:
  
 A1 = (   8.2866603400,   0.0000000000,   0.0000000000)
 A2 = (   0.0000001500,   8.2866603400,   0.0000000000)
 A3 = (   0.0000001500,   0.0000001500,   8.2866603400)
 Subroutine PRICEL returns:
 Original cell was already a primitive cell.
 

Analysis of symmetry for initial positions (statically):

 Routine SETGRP: Setting up the symmetry group for a 
 simple cubic supercell.


 Subroutine GETGRP returns: Found  8 space group operations
 (whereof  8 operations were pure point group operations)
 out of a pool of 48 trial point group operations.


The static configuration has the point symmetry C_4v.

Analysis of symmetry for dynamics (positions and initial velocities):

 Subroutine DYNSYM returns: Found  8 space group operations
 (whereof  8 operations were pure point group operations)
 out of a pool of  8 trial space group operations
 (whereof  8 operations were pure point group operations)
 and found also     1 'primitive' translations


The dynamic configuration has the point symmetry C_4v.
 
 
 KPOINTS: Automatic mesh                          

Automatic generation of k-mesh.
 
 Subroutine IBZKPT returns following result:
 ===========================================
 
 Found     40 irreducible k-points:
 
 Following reciprocal coordinates:
            Coordinates               Weight
  0.062500  0.062500  0.062500      8.000000
  0.187500  0.062500  0.062500      8.000000
  0.312500  0.062500  0.062500      8.000000
  0.437500  0.062500  0.062500      8.000000
  0.062500  0.187500  0.062500     16.000000
  0.187500  0.187500  0.062500     16.000000
  0.312500  0.187500  0.062500     16.000000
  0.437500  0.187500  0.062500     16.000000
  0.062500  0.312500  0.062500     16.000000
  0.187500  0.312500  0.062500     16.000000
  0.312500  0.312500  0.062500     16.000000
  0.437500  0.312500  0.062500     16.000000
  0.062500  0.437500  0.062500     16.000000
  0.187500  0.437500  0.062500     16.000000
  0.312500  0.437500  0.062500     16.000000
  0.437500  0.437500  0.062500     16.000000
  0.062500  0.187500  0.187500      8.000000
  0.187500  0.187500  0.187500      8.000000
  0.312500  0.187500  0.187500      8.000000
  0.437500  0.187500  0.187500      8.000000
  0.062500  0.312500  0.187500     16.000000
  0.187500  0.312500  0.187500     16.000000
  0.312500  0.312500  0.187500     16.000000
  0.437500  0.312500  0.187500     16.000000
  0.062500  0.437500  0.187500     16.000000
  0.187500  0.437500  0.187500     16.000000
  0.312500  0.437500  0.187500     16.000000
  0.437500  0.437500  0.187500     16.000000
  0.062500  0.312500  0.312500      8.000000
  0.187500  0.312500  0.312500      8.000000
  0.312500  0.312500  0.312500      8.000000
  0.437500  0.312500  0.312500      8.000000
  0.062500  0.437500  0.312500     16.000000
  0.187500  0.437500  0.312500     16.000000
  0.312500  0.437500  0.312500     16.000000
  0.437500  0.437500  0.312500     16.000000
  0.062500  0.437500  0.437500      8.000000
  0.187500  0.437500  0.437500      8.000000
  0.312500  0.437500  0.437500      8.000000
  0.437500  0.437500  0.437500      8.000000
 
 Following cartesian coordinates:
            Coordinates               Weight
  0.007542  0.007542  0.007542      8.000000
  0.022627  0.007542  0.007542      8.000000
  0.037711  0.007542  0.007542      8.000000
  0.052796  0.007542  0.007542      8.000000
  0.007542  0.022627  0.007542     16.000000
  0.022627  0.022627  0.007542     16.000000
  0.037711  0.022627  0.007542     16.000000
  0.052796  0.022627  0.007542     16.000000
  0.007542  0.037711  0.007542     16.000000
  0.022627  0.037711  0.007542     16.000000
  0.037711  0.037711  0.007542     16.000000
  0.052796  0.037711  0.007542     16.000000
  0.007542  0.052796  0.007542     16.000000
  0.022627  0.052796  0.007542     16.000000
  0.037711  0.052796  0.007542     16.000000
  0.052796  0.052796  0.007542     16.000000
  0.007542  0.022627  0.022627      8.000000
  0.022627  0.022627  0.022627      8.000000
  0.037711  0.022627  0.022627      8.000000
  0.052796  0.022627  0.022627      8.000000
  0.007542  0.037711  0.022627     16.000000
  0.022627  0.037711  0.022627     16.000000
  0.037711  0.037711  0.022627     16.000000
  0.052796  0.037711  0.022627     16.000000
  0.007542  0.052796  0.022627     16.000000
  0.022627  0.052796  0.022627     16.000000
  0.037711  0.052796  0.022627     16.000000
  0.052796  0.052796  0.022627     16.000000
  0.007542  0.037711  0.037711      8.000000
  0.022627  0.037711  0.037711      8.000000
  0.037711  0.037711  0.037711      8.000000
  0.052796  0.037711  0.037711      8.000000
  0.007542  0.052796  0.037711     16.000000
  0.022627  0.052796  0.037711     16.000000
  0.037711  0.052796  0.037711     16.000000
  0.052796  0.052796  0.037711     16.000000
  0.007542  0.052796  0.052796      8.000000
  0.022627  0.052796  0.052796      8.000000
  0.037711  0.052796  0.052796      8.000000
  0.052796  0.052796  0.052796      8.000000
 


--------------------------------------------------------------------------------------------------------




 Dimension of arrays:
   k-Points           NKPTS =     40   number of bands    NBANDS=    212
   number of dos      NEDOS =    301   number of ions     NIONS =     32
   non local maximal  LDIM  =      6   non local SUM 2l+1 LMDIM =     18
   total plane-waves  NPLWV = 343000
   max r-space proj   IRMAX =      1   max aug-charges    IRDMAX= 237273
   dimension x,y,z NGX =    70 NGY =   70 NGZ =   70
   dimension x,y,z NGXF=   140 NGYF=  140 NGZF=  140
   support grid    NGXF=   280 NGYF=  280 NGZF=  280
   ions per type =              32
 NGX,Y,Z   is equivalent  to a cutoff of  14.04, 14.04, 14.04 a.u.
 NGXF,Y,Z  is equivalent  to a cutoff of  28.09, 28.09, 28.09 a.u.


 I would recommend the setting:
   dimension x,y,z NGX =    66 NGY =   66 NGZ =   66
 SYSTEM =  No title                                
 POSCAR =  No title                                

 Startparameter for this run:
   NWRITE =      2    write-flag & timer
   PREC   = accura    medium, high low
   ISTART =      1    job   : 0-new  1-cont  2-samecut
   ICHARG =      0    charge: 1-file 2-atom 10-const
   ISPIN  =      1    spin polarized calculation?
   LNONCOLLINEAR =      F non collinear calculations
   LSORBIT =      F    spin-orbit coupling
   INIWAV =      1    electr: 0-lowe 1-rand  2-diag
   LASPH  =      F    aspherical Exc in radial PAW
   METAGGA=      F    non-selfconsistent MetaGGA calc.

 Electronic Relaxation 1
   ENCUT  =  600.0 eV  44.10 Ry    6.64 a.u.  16.55 16.55 16.55*2*pi/ulx,y,z
   ENINI  =  600.0     initial cutoff
   ENAUG  =  412.5 eV  augmentation charge cutoff
   NELM   =     60;   NELMIN=  2; NELMDL=  0     # of ELM steps 
   EDIFF  = 0.1E-04   stopping-criterion for ELM
   LREAL  =      F    real-space projection
   LCOMPAT=      F    compatible to vasp.4.4
   LREAL_COMPAT= F    compatible to vasp.4.5.1-3
   GGA_COMPAT  = T    GGA compatible to vasp.4.4-vasp.4.6
   LMAXPAW     = -100 max onsite density
   LMAXMIX     =    2 max onsite mixed and CHGCAR
   VOSKOWN=      1    Vosko Wilk Nusair interpolation
   ROPT   =    0.00000
 Ionic relaxation
   EDIFFG = -.2E-01   stopping-criterion for IOM
   NSW    =      0    number of steps for IOM
   NBLOCK =      1;   KBLOCK =      1    inner block; outer block 
   IBRION =     -1    ionic relax: 0-MD 1-quasi-New 2-CG
   NFREE  =      0    steps in history (QN), initial steepest desc. (CG)
   ISIF   =      2    stress and relaxation
   IWAVPR =     10    prediction:  0-non 1-charg 2-wave 3-comb
   ISYM   =      2    0-nonsym 1-usesym 2-fastsym
   LCORR  =      T    Harris-Foulkes like correction to forces

   POTIM  =   0.50    time-step for ionic-motion
   TEIN   =    0.0    initial temperature
   TEBEG  =    0.0;   TEEND  =   0.0 temperature during run
   SMASS  =  -3.00    Nose mass-parameter (am)
   estimated Nose-frequenzy (Omega)   =  0.10E-29 period in steps =****** mass=  -0.157E-26a.u.
   NPACO  =    256;   APACO  = 16.0  distance and # of slots for P.C.
   PSTRESS=    0.0 pullay stress

  Mass of Ions in am
   POMASS = 107.87
  Ionic Valenz
   ZVAL   =  11.00
  Atomic Wigner-Seitz radii
   RWIGS  =   1.34
   NELECT =     352.0000    total number of electrons
   NUPDOWN=      -1.0000    fix difference up-down

 DOS related values:
   EMIN   =  10.00;   EMAX   =-10.00  energy-range for DOS
   ISMEAR =     1;   SIGMA  =   0.20  broadening in eV -4-tet -1-fermi 0-gaus

 Electronic relaxation 2 (details)
   IALGO  =     48    algorithm
   LDIAG  =      T    sub-space diagonalisation
   IMIX   =      4    mixing-type and parameters
     AMIX     =   0.40;   BMIX     =  1.00
     AMIX_MAG =   1.60;   BMIX_MAG =  1.00
     AMIN     =   0.10
     WC   =   100.;   INIMIX=   1;  MIXPRE=   1

 Intra band minimization:
   WEIMIN = 0.0000     energy-eigenvalue tresh-hold
   EBREAK =  0.12E-07  absolut break condition
   DEPER  =   0.30     relativ break condition  

   TIME   =   0.10     timestep for ELM

  volume/ion in A,a.u.               =      17.78       120.00
  Fermi-wavevector in a.u.,eV,Ry     =   1.394899 26.473454  1.945744

 Second variation
   LSECVAR=     F    do a second variation
 
 Write flags
   LWAVE  =      F    write WAVECAR
   LCHARG =      F    write CHGCAR
   LVTOT  =      F    write LOCPOT, local potential
   LELF   =      F    write electronic localiz. function (ELF)
   LORBIT =      0    0 simple, 1 ext, 2 COOP (PROOUT)


 Dipole corrections
   IDIPOL =      0    1-x, 2-y, 3-z
   LDIPOL =      F    correct potential



--------------------------------------------------------------------------------------------------------


 Static calculation
 charge density will be updated during run
 non-spin polarized calculation
 RMM-DIIS sequential band-by-band
 performe sub-space diagonalisation
    before iterative eigenvector-optimisation
 modified Broyden-mixing scheme, WC =      100.0
 initial mixing is a Kerker type mixing with AMIX =  0.4000 and BMIX =      1.0000
 Hartree-type preconditioning will be used
 using additional bands           36
 reciprocal scheme for non local part
 use partial core corrections
 calculate Harris-corrections to forces 
   (improved forces if not selfconsistent)
 use gradient corrections 
 use of overlap-Matrix (Vanderbilt PP)
 Methfessel and Paxton  Order N= 1 SIGMA  =   0.20


--------------------------------------------------------------------------------------------------------


  energy-cutoff  :      600.00
  volume of cell :      569.03
      direct lattice vectors                 reciprocal lattice vectors
     8.286660340  0.000000000  0.000000000     0.120675877 -0.000000002 -0.000000002
     0.000000150  8.286660340  0.000000000     0.000000000  0.120675877 -0.000000002
     0.000000150  0.000000150  8.286660340     0.000000000  0.000000000  0.120675877

  length of vectors
     8.286660340  8.286660340  8.286660340     0.120675877  0.120675877  0.120675877


 
 old parameters found on file WAVECAR:
  energy-cutoff  :      600.00
  volume of cell :      569.03
      direct lattice vectors                 reciprocal lattice vectors
     8.286660340  0.000000000  0.000000000     0.120675877 -0.000000002 -0.000000002
     0.000000150  8.286660340  0.000000000     0.000000000  0.120675877 -0.000000002
     0.000000150  0.000000150  8.286660340     0.000000000  0.000000000  0.120675877

  length of vectors

 
 k-points in units of 2pi/SCALE and weight: Automatic mesh                          
   0.00754224  0.00754224  0.00754224       0.016
   0.02262673  0.00754224  0.00754224       0.016
   0.03771121  0.00754224  0.00754224       0.016
   0.05279570  0.00754224  0.00754224       0.016
   0.00754224  0.02262673  0.00754224       0.031
   0.02262673  0.02262673  0.00754224       0.031
   0.03771121  0.02262673  0.00754224       0.031
   0.05279570  0.02262673  0.00754224       0.031
   0.00754224  0.03771121  0.00754224       0.031
   0.02262673  0.03771121  0.00754224       0.031
   0.03771121  0.03771121  0.00754224       0.031
   0.05279570  0.03771121  0.00754224       0.031
   0.00754224  0.05279570  0.00754224       0.031
   0.02262673  0.05279570  0.00754224       0.031
   0.03771121  0.05279570  0.00754224       0.031
   0.05279570  0.05279570  0.00754224       0.031
   0.00754224  0.02262673  0.02262673       0.016
   0.02262673  0.02262673  0.02262673       0.016
   0.03771121  0.02262673  0.02262673       0.016
   0.05279570  0.02262673  0.02262673       0.016
   0.00754224  0.03771121  0.02262673       0.031
   0.02262673  0.03771121  0.02262673       0.031
   0.03771121  0.03771121  0.02262673       0.031
   0.05279570  0.03771121  0.02262673       0.031
   0.00754224  0.05279570  0.02262673       0.031
   0.02262673  0.05279570  0.02262673       0.031
   0.03771121  0.05279570  0.02262673       0.031
   0.05279570  0.05279570  0.02262672       0.031
   0.00754224  0.03771121  0.03771121       0.016
   0.02262673  0.03771121  0.03771121       0.016
   0.03771121  0.03771121  0.03771121       0.016
   0.05279570  0.03771121  0.03771121       0.016
   0.00754224  0.05279570  0.03771121       0.031
   0.02262673  0.05279570  0.03771121       0.031
   0.03771121  0.05279570  0.03771121       0.031
   0.05279570  0.05279570  0.03771121       0.031
   0.00754224  0.05279570  0.05279569       0.016
   0.02262673  0.05279570  0.05279569       0.016
   0.03771121  0.05279570  0.05279569       0.016
   0.05279570  0.05279570  0.05279569       0.016
 
 k-points in reciprocal lattice and weights: Automatic mesh                          
   0.06250000  0.06250000  0.06250000       0.016
   0.18750000  0.06250000  0.06250000       0.016
   0.31250000  0.06250000  0.06250000       0.016
   0.43750000  0.06250000  0.06250000       0.016
   0.06250000  0.18750000  0.06250000       0.031
   0.18750000  0.18750000  0.06250000       0.031
   0.31250000  0.18750000  0.06250000       0.031
   0.43750000  0.18750000  0.06250000       0.031
   0.06250000  0.31250000  0.06250000       0.031
   0.18750000  0.31250000  0.06250000       0.031
   0.31250000  0.31250000  0.06250000       0.031
   0.43750000  0.31250000  0.06250000       0.031
   0.06250000  0.43750000  0.06250000       0.031
   0.18750000  0.43750000  0.06250000       0.031
   0.31250000  0.43750000  0.06250000       0.031
   0.43750000  0.43750000  0.06250000       0.031
   0.06250000  0.18750000  0.18750000       0.016
   0.18750000  0.18750000  0.18750000       0.016
   0.31250000  0.18750000  0.18750000       0.016
   0.43750000  0.18750000  0.18750000       0.016
   0.06250000  0.31250000  0.18750000       0.031
   0.18750000  0.31250000  0.18750000       0.031
   0.31250000  0.31250000  0.18750000       0.031
   0.43750000  0.31250000  0.18750000       0.031
   0.06250000  0.43750000  0.18750000       0.031
   0.18750000  0.43750000  0.18750000       0.031
   0.31250000  0.43750000  0.18750000       0.031
   0.43750000  0.43750000  0.18750000       0.031
   0.06250000  0.31250000  0.31250000       0.016
   0.18750000  0.31250000  0.31250000       0.016
   0.31250000  0.31250000  0.31250000       0.016
   0.43750000  0.31250000  0.31250000       0.016
   0.06250000  0.43750000  0.31250000       0.031
   0.18750000  0.43750000  0.31250000       0.031
   0.31250000  0.43750000  0.31250000       0.031
   0.43750000  0.43750000  0.31250000       0.031
   0.06250000  0.43750000  0.43750000       0.016
   0.18750000  0.43750000  0.43750000       0.016
   0.31250000  0.43750000  0.43750000       0.016
   0.43750000  0.43750000  0.43750000       0.016
 
 position of ions in fractional coordinates (direct lattice) 
   0.75000000  0.75000000  0.50000000
   0.75000000  0.75000000  0.00000000
   0.75000000  0.00000000  0.25000000
   0.75000000  0.25000000  0.50000000
   0.00000000  0.75000000  0.25000000
   0.00000000  0.00000000  0.50000000
   0.25000000  0.75000000  0.50000000
   0.75000000  0.00000000  0.75000000
   0.75000000  0.25000000  0.00000000
   0.75000000  0.50000000  0.25000000
   0.00000000  0.75000000  0.75000000
   0.00241400  0.00000000  0.00000000
   0.00000000  0.25000000  0.25000000
   0.00000000  0.50000000  0.50000000
   0.25000000  0.75000000  0.00000000
   0.25000000  0.00000000  0.25000000
   0.25000000  0.25000000  0.50000000
   0.50000000  0.75000000  0.25000000
   0.50000000  0.00000000  0.50000000
   0.75000000  0.50000000  0.75000000
   0.00000000  0.25000000  0.75000000
   0.00000000  0.50000000  0.00000000
   0.25000000  0.00000000  0.75000000
   0.25000000  0.25000000  0.00000000
   0.25000000  0.50000000  0.25000000
   0.50000000  0.75000000  0.75000000
   0.50000000  0.00000000  0.00000000
   0.50000000  0.25000000  0.25000000
   0.50000000  0.50000000  0.50000000
   0.25000000  0.50000000  0.75000000
   0.50000000  0.25000000  0.75000000
   0.50000000  0.50000000  0.00000000
 
 position of ions in cartesian coordinates  (Angst):
   6.21499544  6.21499533  4.14333017
   6.21499537  6.21499525  0.00000000
   6.21499529  0.00000004  2.07166508
   6.21499537  2.07166516  4.14333017
   0.00000015  6.21499529  2.07166508
   0.00000007  0.00000007  4.14333017
   2.07166527  6.21499533  4.14333017
   6.21499537  0.00000011  6.21499525
   6.21499529  2.07166508  0.00000000
   6.21499537  4.14333021  2.07166508
   0.00000022  6.21499537  6.21499525
   0.02000400  0.00000000  0.00000000
   0.00000007  2.07166512  2.07166508
   0.00000015  4.14333024  4.14333017
   2.07166520  6.21499525  0.00000000
   2.07166512  0.00000004  2.07166508
   2.07166520  2.07166516  4.14333017
   4.14333032  6.21499529  2.07166508
   4.14333024  0.00000007  4.14333017
   6.21499544  4.14333028  6.21499525
   0.00000015  2.07166520  6.21499525
   0.00000007  4.14333017  0.00000000
   2.07166520  0.00000011  6.21499525
   2.07166512  2.07166508  0.00000000
   2.07166520  4.14333021  2.07166508
   4.14333040  6.21499537  6.21499525
   4.14333017  0.00000000  0.00000000
   4.14333025  2.07166512  2.07166508
   4.14333032  4.14333024  4.14333017
   2.07166527  4.14333028  6.21499525
   4.14333032  2.07166520  6.21499525
   4.14333024  4.14333017  0.00000000
 


--------------------------------------------------------------------------------------------------------


 k-point  1 :  0.06250.06250.0625  plane waves:  19051
 k-point  2 :  0.18750.06250.0625  plane waves:  19019
 k-point  3 :  0.31250.06250.0625  plane waves:  18985
 k-point  4 :  0.43750.06250.0625  plane waves:  18972
 k-point  5 :  0.06250.18750.0625  plane waves:  19019
 k-point  6 :  0.18750.18750.0625  plane waves:  19014
 k-point  7 :  0.31250.18750.0625  plane waves:  19012
 k-point  8 :  0.43750.18750.0625  plane waves:  18967
 k-point  9 :  0.06250.31250.0625  plane waves:  18985
 k-point 10 :  0.18750.31250.0625  plane waves:  19012
 k-point 11 :  0.31250.31250.0625  plane waves:  18997
 k-point 12 :  0.43750.31250.0625  plane waves:  18998
 k-point 13 :  0.06250.43750.0625  plane waves:  18972
 k-point 14 :  0.18750.43750.0625  plane waves:  18967
 k-point 15 :  0.31250.43750.0625  plane waves:  18998
 k-point 16 :  0.43750.43750.0625  plane waves:  18986
 k-point 17 :  0.06250.18750.1875  plane waves:  19014
 k-point 18 :  0.18750.18750.1875  plane waves:  19012
 k-point 19 :  0.31250.18750.1875  plane waves:  19008
 k-point 20 :  0.43750.18750.1875  plane waves:  18997
 k-point 21 :  0.06250.31250.1875  plane waves:  19012
 k-point 22 :  0.18750.31250.1875  plane waves:  19008
 k-point 23 :  0.31250.31250.1875  plane waves:  18987
 k-point 24 :  0.43750.31250.1875  plane waves:  18966
 k-point 25 :  0.06250.43750.1875  plane waves:  18967
 k-point 26 :  0.18750.43750.1875  plane waves:  18997
 k-point 27 :  0.31250.43750.1875  plane waves:  18966
 k-point 28 :  0.43750.43750.1875  plane waves:  18972
 k-point 29 :  0.06250.31250.3125  plane waves:  18997
 k-point 30 :  0.18750.31250.3125  plane waves:  18987
 k-point 31 :  0.31250.31250.3125  plane waves:  18937
 k-point 32 :  0.43750.31250.3125  plane waves:  18983
 k-point 33 :  0.06250.43750.3125  plane waves:  18998
 k-point 34 :  0.18750.43750.3125  plane waves:  18966
 k-point 35 :  0.31250.43750.3125  plane waves:  18983
 k-point 36 :  0.43750.43750.3125  plane waves:  18989
 k-point 37 :  0.06250.43750.4375  plane waves:  18986
 k-point 38 :  0.18750.43750.4375  plane waves:  18972
 k-point 39 :  0.31250.43750.4375  plane waves:  18989
 k-point 40 :  0.43750.43750.4375  plane waves:  18988

 maximum and minimum number of plane-waves per node :  19051 18937

 maximum number of plane-waves:  19051
 maximal index in each direction: 
   IXMAX= 16   IYMAX= 16   IZMAX= 16
   IXMIN=-16   IYMIN=-16   IZMIN=-16

 NGX is ok and might be reduce to  66
 NGY is ok and might be reduce to  66
 NGZ is ok and might be reduce to  66

 parallel 3dFFT wavefunction:
    minimum data exchange during FFTs selected (reduces bandwidth)
 parallel 3dFFT charge:
    minimum data exchange during FFTs selected (reduces bandwidth)

 For storing wavefunctions 2576.68 MBYTES are necessary
 For predicting wavefunctions  139.98 MBYTES are necessary
Broyden mixing: mesh for mixing (old mesh)
   NGX = 33   NGY = 33   NGZ = 33
  (NGX  =140   NGY  =140   NGZ  =140)
 gives a total of  35937 points
 charge density for first step will be calculated from the start-wavefunctions


--------------------------------------------------------------------------------------------------------


 Maximum index for augmentation-charges        57579 (set IRDMAX)


--------------------------------------------------------------------------------------------------------


 initial charge from wavefunction
 First call to EWALD:  gamma=   0.214
 Maximum number of real-space cells 3x 3x 3
 Maximum number of reciprocal cells 3x 3x 3

    FEWALD:  VPU time    0.01: CPU time    0.01


----------------------------------------- Iteration    1(   1)  ---------------------------------------


    POTLOK:  VPU time    0.96: CPU time    0.96
    SETDIJ:  VPU time    1.88: CPU time    1.89
    EDDIAG:  VPU time   87.57: CPU time   87.78
  RMM-DIIS:  VPU time 1167.48: CPU time 1168.73
    ORTHCH:  VPU time   11.54: CPU time   11.55
    DOS   :  VPU time    0.00: CPU time   -0.00
    CHARGE:  VPU time   42.67: CPU time   42.74
    MIXING:  VPU time    0.03: CPU time    0.03
    ------------------------------------------
      LOOP:  VPU time 1312.22: CPU time 1313.78

 eigenvalue-minimisations  : 17376
 total energy-change (2. order) :-0.9228718E+02  (-0.6196960E+02)
 number of electron  352.0000008 magnetization 
 augmentation part   171.7821425 magnetization 

 Broyden mixing:
  rms(total) = 0.78085E+00    rms(broyden)= 0.71107E+00
  rms(prec ) = 0.10418E+01
  weight for this iteration     100.00

 Free energy of the ion-electron system (eV)
  ---------------------------------------------------
  alpha Z        PSCENC =      3195.58069490
  Ewald energy   TEWEN  =    -30848.71586705
  -1/2 Hartree   DENC   =     -6202.43070580
  -V(xc)+E(xc)   XCENC  =      -390.32116043
  PAW double counting   =     26890.79253029   -25468.14915946
  entropy T*S    EENTRO =        -0.01529519
  eigenvalues    EBANDS =      -466.19610543
  atomic energy  EATOM  =     33197.16788402
  ---------------------------------------------------
  free energy    TOTEN  =       -92.28718415 eV

  energy without entropy =      -92.27188896  energy(sigma->0) =      -92.28208575


--------------------------------------------------------------------------------------------------------




----------------------------------------- Iteration    1(   2)  ---------------------------------------


    POTLOK:  VPU time    1.15: CPU time    1.15
    SETDIJ:  VPU time    2.47: CPU time    2.47
    EDDIAG:  VPU time  109.41: CPU time  109.50
  RMM-DIIS:  VPU time 1192.52: CPU time 1193.44
    ORTHCH:  VPU time   15.19: CPU time   15.20
    DOS   :  VPU time    0.00: CPU time   -0.00
    CHARGE:  VPU time   52.05: CPU time   52.09
    MIXING:  VPU time    0.03: CPU time    0.03
    ------------------------------------------
      LOOP:  VPU time 1372.92: CPU time 1374.00

 eigenvalue-minimisations  : 17737
 total energy-change (2. order) : 0.1853028E+01  (-0.1308163E+01)
 number of electron  352.0000008 magnetization 
 augmentation part   168.6637664 magnetization 

 Broyden mixing:
  rms(total) = 0.11266E+00    rms(broyden)= 0.11265E+00
  rms(prec ) = 0.13598E+00
  weight for this iteration     100.00

 eigenvalues of (default mixing * dielectric matrix)
  average eigenvalue GAMMA=   0.8976
  0.8976

 Free energy of the ion-electron system (eV)
  ---------------------------------------------------
  alpha Z        PSCENC =      3195.58069490
  Ewald energy   TEWEN  =    -30848.71586705
  -1/2 Hartree   DENC   =     -6322.28159592
  -V(xc)+E(xc)   XCENC  =      -359.48740789
  PAW double counting   =     27397.47078666   -25981.60048498
  entropy T*S    EENTRO =        -0.01462944
  eigenvalues    EBANDS =      -368.55353652
  atomic energy  EATOM  =     33197.16788402
  ---------------------------------------------------
  free energy    TOTEN  =       -90.43415621 eV

  energy without entropy =      -90.41952677  energy(sigma->0) =      -90.42927973


--------------------------------------------------------------------------------------------------------




----------------------------------------- Iteration    1(   3)  ---------------------------------------


    POTLOK:  VPU time    1.16: CPU time    1.16
    SETDIJ:  VPU time    2.53: CPU time    2.53
    EDDIAG:  VPU time  106.08: CPU time  106.17
  RMM-DIIS:  VPU time 1094.68: CPU time 1095.45
    ORTHCH:  VPU time   15.03: CPU time   15.04
    DOS   :  VPU time    0.00: CPU time   -0.00
    CHARGE:  VPU time   51.25: CPU time   51.30
    MIXING:  VPU time    0.03: CPU time    0.03
    ------------------------------------------
      LOOP:  VPU time 1270.88: CPU time 1271.80

 eigenvalue-minimisations  : 18230
 total energy-change (2. order) :-0.5508107E-03  (-0.1367203E-01)
 number of electron  352.0000008 magnetization 
 augmentation part   168.7408872 magnetization 

 Broyden mixing:
  rms(total) = 0.64066E-01    rms(broyden)= 0.64065E-01
  rms(prec ) = 0.72813E-01
  weight for this iteration     100.00

 eigenvalues of (default mixing * dielectric matrix)
  average eigenvalue GAMMA=   1.6342
  0.9830  2.2855

 Free energy of the ion-electron system (eV)
  ---------------------------------------------------
  alpha Z        PSCENC =      3195.58069490
  Ewald energy   TEWEN  =    -30848.71586705
  -1/2 Hartree   DENC   =     -6314.15256661
  -V(xc)+E(xc)   XCENC  =      -359.76331083
  PAW double counting   =     27526.36403350   -26110.76418034
  entropy T*S    EENTRO =        -0.01457538
  eigenvalues    EBANDS =      -376.13681923
  atomic energy  EATOM  =     33197.16788402
  ---------------------------------------------------
  free energy    TOTEN  =       -90.43470702 eV

  energy without entropy =      -90.42013164  energy(sigma->0) =      -90.42984856


--------------------------------------------------------------------------------------------------------




----------------------------------------- Iteration    1(   4)  ---------------------------------------


    POTLOK:  VPU time    1.16: CPU time    1.17
    SETDIJ:  VPU time    2.47: CPU time    2.47
    EDDIAG:  VPU time  109.37: CPU time  109.47
  RMM-DIIS:  VPU time 1158.01: CPU time 1158.84
    ORTHCH:  VPU time   14.50: CPU time   14.51
    DOS   :  VPU time    0.00: CPU time   -0.00
    CHARGE:  VPU time   51.25: CPU time   51.29
    MIXING:  VPU time    0.03: CPU time    0.03
    ------------------------------------------
      LOOP:  VPU time 1336.90: CPU time 1337.89

 eigenvalue-minimisations  : 18164
 total energy-change (2. order) :-0.4858220E-03  (-0.2503703E-02)
 number of electron  352.0000008 magnetization 
 augmentation part   168.8886293 magnetization 

 Broyden mixing:
  rms(total) = 0.18020E-01    rms(broyden)= 0.18020E-01
  rms(prec ) = 0.25337E-01
  weight for this iteration     100.00

 eigenvalues of (default mixing * dielectric matrix)
  average eigenvalue GAMMA=   1.5471
  2.4917  1.0748  1.0748

 Free energy of the ion-electron system (eV)
  ---------------------------------------------------
  alpha Z        PSCENC =      3195.58069490
  Ewald energy   TEWEN  =    -30848.71586705
  -1/2 Hartree   DENC   =     -6307.15896869
  -V(xc)+E(xc)   XCENC  =      -359.99577585
  PAW double counting   =     27698.45853557   -26283.21562616
  entropy T*S    EENTRO =        -0.01451322
  eigenvalues    EBANDS =      -382.54155638
  atomic energy  EATOM  =     33197.16788402
  ---------------------------------------------------
  free energy    TOTEN  =       -90.43519284 eV

  energy without entropy =      -90.42067963  energy(sigma->0) =      -90.43035510


--------------------------------------------------------------------------------------------------------




----------------------------------------- Iteration    1(   5)  ---------------------------------------


    POTLOK:  VPU time    1.14: CPU time    1.14
    SETDIJ:  VPU time    2.49: CPU time    2.49
    EDDIAG:  VPU time  106.21: CPU time  106.47
  RMM-DIIS:  VPU time 1217.55: CPU time 1218.89
    ORTHCH:  VPU time   15.21: CPU time   15.22
    DOS   :  VPU time    0.00: CPU time   -0.00
    CHARGE:  VPU time   52.06: CPU time   52.10
    MIXING:  VPU time    0.03: CPU time    0.03
    ------------------------------------------
      LOOP:  VPU time 1394.78: CPU time 1396.45

 eigenvalue-minimisations  : 18137
 total energy-change (2. order) : 0.3078197E-03  (-0.5853456E-03)
 number of electron  352.0000008 magnetization 
 augmentation part   168.8164609 magnetization 

 Broyden mixing:
  rms(total) = 0.41913E-02    rms(broyden)= 0.41912E-02
  rms(prec ) = 0.62014E-02
  weight for this iteration     100.00

 eigenvalues of (default mixing * dielectric matrix)
  average eigenvalue GAMMA=   1.3968
  2.5343  1.1105  1.0449  0.8977

 Free energy of the ion-electron system (eV)
  ---------------------------------------------------
  alpha Z        PSCENC =      3195.58069490
  Ewald energy   TEWEN  =    -30848.71586705
  -1/2 Hartree   DENC   =     -6310.68315885
  -V(xc)+E(xc)   XCENC  =      -359.86760647
  PAW double counting   =     27770.20217121   -26355.26001381
  entropy T*S    EENTRO =        -0.01455215
  eigenvalues    EBANDS =      -378.84443683
  atomic energy  EATOM  =     33197.16788402
  ---------------------------------------------------
  free energy    TOTEN  =       -90.43488502 eV

  energy without entropy =      -90.42033288  energy(sigma->0) =      -90.43003431


--------------------------------------------------------------------------------------------------------




----------------------------------------- Iteration    1(   6)  ---------------------------------------


    POTLOK:  VPU time    1.18: CPU time    1.18
    SETDIJ:  VPU time    2.51: CPU time    2.51
    EDDIAG:  VPU time  110.67: CPU time  110.76
  RMM-DIIS:  VPU time 1022.32: CPU time 1023.07
    ORTHCH:  VPU time   15.98: CPU time   15.99
    DOS   :  VPU time    0.00: CPU time   -0.00
    CHARGE:  VPU time   52.25: CPU time   52.29
    MIXING:  VPU time    0.03: CPU time    0.03
    ------------------------------------------
      LOOP:  VPU time 1205.04: CPU time 1205.94

 eigenvalue-minimisations  : 15212
 total energy-change (2. order) : 0.1923875E-04  (-0.5756455E-05)
 number of electron  352.0000008 magnetization 
 augmentation part   168.8202114 magnetization 

 Broyden mixing:
  rms(total) = 0.24804E-02    rms(broyden)= 0.24804E-02
  rms(prec ) = 0.34353E-02
  weight for this iteration     100.00

 eigenvalues of (default mixing * dielectric matrix)
  average eigenvalue GAMMA=   1.4370
  2.5546  1.7645  1.0088  1.0088  0.8485

 Free energy of the ion-electron system (eV)
  ---------------------------------------------------
  alpha Z        PSCENC =      3195.58069490
  Ewald energy   TEWEN  =    -30848.71586705
  -1/2 Hartree   DENC   =     -6310.51115097
  -V(xc)+E(xc)   XCENC  =      -359.87304887
  PAW double counting   =     27772.24308867   -26357.27295540
  entropy T*S    EENTRO =        -0.01454995
  eigenvalues    EBANDS =      -379.03896113
  atomic energy  EATOM  =     33197.16788402
  ---------------------------------------------------
  free energy    TOTEN  =       -90.43486578 eV

  energy without entropy =      -90.42031583  energy(sigma->0) =      -90.43001580


--------------------------------------------------------------------------------------------------------




----------------------------------------- Iteration    1(   7)  ---------------------------------------


    POTLOK:  VPU time    1.18: CPU time    1.18
    SETDIJ:  VPU time    2.52: CPU time    2.52
    EDDIAG:  VPU time  110.58: CPU time  110.67
  RMM-DIIS:  VPU time 1189.70: CPU time 1190.59
    ORTHCH:  VPU time   14.86: CPU time   14.87
    DOS   :  VPU time    0.00: CPU time   -0.00
    CHARGE:  VPU time   50.84: CPU time   50.88
    MIXING:  VPU time    0.05: CPU time    0.05
    ------------------------------------------
      LOOP:  VPU time 1369.83: CPU time 1370.87

 eigenvalue-minimisations  : 17608
 total energy-change (2. order) : 0.1168441E-04  (-0.6388014E-05)
 number of electron  352.0000008 magnetization 
 augmentation part   168.8273803 magnetization 

 Broyden mixing:
  rms(total) = 0.35153E-03    rms(broyden)= 0.35152E-03
  rms(prec ) = 0.51008E-03
  weight for this iteration     100.00

 eigenvalues of (default mixing * dielectric matrix)
  average eigenvalue GAMMA=   1.4858
  2.6197  1.9586  1.5218  0.9659  0.9659  0.8827

 Free energy of the ion-electron system (eV)
  ---------------------------------------------------
  alpha Z        PSCENC =      3195.58069490
  Ewald energy   TEWEN  =    -30848.71586705
  -1/2 Hartree   DENC   =     -6310.20239092
  -V(xc)+E(xc)   XCENC  =      -359.88335580
  PAW double counting   =     27772.64273049   -26357.63561484
  entropy T*S    EENTRO =        -0.01454610
  eigenvalues    EBANDS =      -379.37438881
  atomic energy  EATOM  =     33197.16788402
  ---------------------------------------------------
  free energy    TOTEN  =       -90.43485410 eV

  energy without entropy =      -90.42030800  energy(sigma->0) =      -90.43000540


--------------------------------------------------------------------------------------------------------




----------------------------------------- Iteration    1(   8)  ---------------------------------------


    POTLOK:  VPU time    1.23: CPU time    1.23
    SETDIJ:  VPU time    2.58: CPU time    2.58
    EDDIAG:  VPU time  112.16: CPU time  112.25
  RMM-DIIS:  VPU time  729.31: CPU time  730.19
    ORTHCH:  VPU time   15.80: CPU time   15.83
    DOS   :  VPU time    0.00: CPU time   -0.00
    ------------------------------------------
      LOOP:  VPU time  861.19: CPU time  862.21

 eigenvalue-minimisations  :  9991
 total energy-change (2. order) : 0.3469693E-05  (-0.5838207E-06)
 number of electron  352.0000008 magnetization 
 augmentation part   168.8273803 magnetization 

 Free energy of the ion-electron system (eV)
  ---------------------------------------------------
  alpha Z        PSCENC =      3195.58069490
  Ewald energy   TEWEN  =    -30848.71586705
  -1/2 Hartree   DENC   =     -6310.13998595
  -V(xc)+E(xc)   XCENC  =      -359.88529861
  PAW double counting   =     27772.23073456   -26357.20431737
  entropy T*S    EENTRO =        -0.01454489
  eigenvalues    EBANDS =      -379.45415025
  atomic energy  EATOM  =     33197.16788402
  ---------------------------------------------------
  free energy    TOTEN  =       -90.43485063 eV

  energy without entropy =      -90.42030574  energy(sigma->0) =      -90.43000233


--------------------------------------------------------------------------------------------------------




 average (electrostatic) potential at core
  the test charge radii are     1.1249
  (the norm of the test charge is              1.0000)
       1 -41.5431       2 -41.5409       3 -41.5409       4 -41.5431       5 -41.5432
       6 -41.5433       7 -41.5434       8 -41.5409       9 -41.5409      10 -41.5431
      11 -41.5432      12 -41.5434      13 -41.5432      14 -41.5433      15 -41.5457
      16 -41.5457      17 -41.5434      18 -41.5433      19 -41.5433      20 -41.5431
      21 -41.5432      22 -41.5433      23 -41.5457      24 -41.5457      25 -41.5434
      26 -41.5433      27 -41.5433      28 -41.5433      29 -41.5433      30 -41.5434
      31 -41.5433      32 -41.5433
 
 
 
 E-fermi :   3.2062     XC(G=0): -11.9607     alpha+bet : -8.1884
   add alpha+bet to get absolut eigen values

 k-point   1 :       0.0625    0.0625    0.0625
  band No.  band energies     occupation 
      1      -4.2812      2.00000
      2      -3.0329      2.00000
      3      -3.0328      2.00000
      4      -3.0328      2.00000
      5      -3.0028      2.00000
      6      -2.9917      2.00000
      7      -2.9917      2.00000
      8      -2.9917      2.00000
      9      -2.9120      2.00000
     10      -2.9119      2.00000
     11      -2.9118      2.00000
     12      -2.6571      2.00000
     13      -2.6551      2.00000
     14      -2.6531      2.00000
     15      -2.5540      2.00000
     16      -2.5524      2.00000
     17      -2.5508      2.00000
     18      -2.3469      2.00000
     19      -2.3437      2.00000
     20      -2.3436      2.00000
     21      -2.3436      2.00000
     22      -2.3434      2.00000
     23      -2.3403      2.00000
     24      -2.3281      2.00000
     25      -2.3267      2.00000
     26      -2.3254      2.00000
     27      -2.1933      2.00000
     28      -2.1919      2.00000
     29      -2.1905      2.00000
     30      -2.0995      2.00000
     31      -2.0979      2.00000
     32      -2.0963      2.00000
     33      -2.0849      2.00000
     34      -2.0837      2.00000
     35      -2.0824      2.00000
     36      -2.0621      2.00000
     37      -2.0612      2.00000
     38      -2.0599      2.00000
     39      -2.0598      2.00000
     40      -2.0587      2.00000
     41      -2.0578      2.00000
     42      -1.9103      2.00000
     43      -1.9101      2.00000
     44      -1.9088      2.00000
     45      -1.9087      2.00000
     46      -1.9073      2.00000
     47      -1.9073      2.00000
     48      -1.8240      2.00000
     49      -1.8219      2.00000
     50      -1.8213      2.00000
     51      -1.8195      2.00000
     52      -1.8191      2.00000
     53      -1.8180      2.00000
     54      -1.8171      2.00000
     55      -1.8167      2.00000
     56      -1.8155      2.00000
     57      -1.7734      2.00000
     58      -1.7720      2.00000
     59      -1.7704      2.00000
     60      -1.6357      2.00000
     61      -1.6356      2.00000
     62      -1.6341      2.00000
     63      -1.6341      2.00000
     64      -1.6327      2.00000
     65      -1.6325      2.00000
     66      -1.5602      2.00000
     67      -1.5601      2.00000
     68      -1.5600      2.00000
     69      -1.5450      2.00000
     70      -1.5449      2.00000
     71      -1.5382      2.00000
     72      -1.5359      2.00000
     73      -1.5358      2.00000
     74      -1.5358      2.00000
     75      -1.5233      2.00000
     76      -1.5233      2.00000
     77      -1.4685      2.00000
     78      -1.4666      2.00000
     79      -1.4660      2.00000
     80      -1.4659      2.00000
     81      -1.4653      2.00000
     82      -1.4636      2.00000
     83      -1.4438      2.00000
     84      -1.4429      2.00000
     85      -1.4419      2.00000
     86      -1.3981      2.00000
     87      -1.3968      2.00000
     88      -1.3953      2.00000
     89      -0.9593      2.00000
     90      -0.9586      2.00000
     91      -0.9580      2.00000
     92      -0.9074      2.00000
     93      -0.9066      2.00000
     94      -0.9055      2.00000
     95      -0.8994      2.00000
     96      -0.8978      2.00000
     97      -0.8965      2.00000
     98      -0.8911      2.00000
     99      -0.8909      2.00000
    100      -0.8896      2.00000
    101      -0.8894      2.00000
    102      -0.8879      2.00000
    103      -0.8876      2.00000
    104      -0.8174      2.00000
    105      -0.8161      2.00000
    106      -0.8148      2.00000
    107      -0.7161      2.00000
    108      -0.7141      2.00000
    109      -0.7121      2.00000
    110      -0.6427      2.00000
    111      -0.6407      2.00000
    112      -0.6390      2.00000
    113      -0.6289      2.00000
    114      -0.6272      2.00000
    115      -0.6254      2.00000
    116      -0.5900      2.00000
    117      -0.5879      2.00000
    118      -0.5859      2.00000
    119      -0.5737      2.00000
    120      -0.5735      2.00000
    121      -0.5461      2.00000
    122      -0.5440      2.00000
    123      -0.5438      2.00000
    124      -0.5438      2.00000
    125      -0.5436      2.00000
    126      -0.5415      2.00000
    127      -0.5224      2.00000
    128      -0.5211      2.00000
    129      -0.5198      2.00000
    130      -0.5195      2.00000
    131      -0.5184      2.00000
    132      -0.5169      2.00000
    133      -0.4476      2.00000
    134      -0.4466      2.00000
    135      -0.4456      2.00000
    136      -0.2526      2.00000
    137      -0.2517      2.00000
    138      -0.2508      2.00000
    139      -0.2323      2.00000
    140      -0.2309      2.00000
    141      -0.2295      2.00000
    142      -0.1790      2.00000
    143      -0.1785      2.00000
    144      -0.1781      2.00000
    145       0.1057      2.00000
    146       0.1062      2.00000
    147       0.1065      2.00000
    148       0.1261      2.00000
    149       0.1261      2.00000
    150       0.1262      2.00000
    151       0.1542      2.00000
    152       0.1542      2.00000
    153       0.1693      2.00000
    154       0.1693      2.00000
    155       0.1694      2.00000
    156       0.3226      2.00000
    157       0.3226      2.00000
    158       0.3227      2.00000
    159       0.3480      2.00000
    160       0.3480      2.00000
    161       0.3483      2.00000
    162       0.3483      2.00000
    163       0.3483      2.00000
    164       0.3486      2.00000
    165       0.3509      2.00000
    166       0.3509      2.00000
    167       0.3512      2.00000
    168       2.0086      2.00000
    169       2.0101      2.00000
    170       2.0115      2.00000
    171       2.5802      2.00009
    172       2.5806      2.00009
    173       2.5822      2.00009
    174       2.5823      2.00009
    175       2.5841      2.00010
    176       2.5843      2.00010
    177       2.6402      2.00047
    178       2.9173      2.06006
    179       2.9174      2.06011
    180       2.9174      2.06012
    181       3.1724      1.28156
    182       3.1739      1.26993
    183       3.1753      1.25832
    184       4.7857     -0.00000
    185       4.7859     -0.00000
    186       4.7863     -0.00000
    187       6.5750     -0.00000
    188       6.5752     -0.00000
    189       6.5754     -0.00000
    190       6.8090     -0.00000
    191       8.4227     -0.00000
    192       8.4230     -0.00000
    193       8.4249     -0.00000
    194       8.4249     -0.00000
    195       8.4267     -0.00000
    196       8.4271     -0.00000
    197       9.1198      0.00000
    198       9.1201      0.00000
    199       9.1227      0.00000
    200       9.1227      0.00000
    201       9.1252      0.00000
    202       9.1255      0.00000
    203       9.6772      0.00000
    204       9.6775      0.00000
    205       9.6779      0.00000
    206      10.2134      0.00000
    207      10.2138      0.00000
    208      10.2143      0.00000
    209      10.2147      0.00000
    210      10.2151      0.00000
    211      11.2526      0.00000
    212      11.3566      0.00000

 k-point   2 :       0.1875    0.0625    0.0625
  band No.  band energies     occupation 
      1      -4.2024      2.00000
      2      -3.0012      2.00000
      3      -2.9929      2.00000
      4      -2.9929      2.00000
      5      -2.9757      2.00000
      6      -2.9538      2.00000
      7      -2.9538      2.00000
      8      -2.9431      2.00000
      9      -2.8940      2.00000
     10      -2.8880      2.00000
     11      -2.8743      2.00000
     12      -2.8743      2.00000
     13      -2.6063      2.00000
     14      -2.6063      2.00000
     15      -2.5691      2.00000
     16      -2.5058      2.00000
     17      -2.5058      2.00000
     18      -2.4564      2.00000
     19      -2.4168      2.00000
     20      -2.4167      2.00000
     21      -2.3190      2.00000
     22      -2.3190      2.00000
     23      -2.3094      2.00000
     24      -2.3093      2.00000
     25      -2.3007      2.00000
     26      -2.3003      2.00000
     27      -2.2924      2.00000
     28      -2.2512      2.00000
     29      -2.2512      2.00000
     30      -2.2392      2.00000
     31      -2.1705      2.00000
     32      -2.1704      2.00000
     33      -2.1515      2.00000
     34      -2.1514      2.00000
     35      -2.1351      2.00000
     36      -2.1350      2.00000
     37      -2.1176      2.00000
     38      -2.1175      2.00000
     39      -2.0585      2.00000
     40      -2.0584      2.00000
     41      -2.0567      2.00000
     42      -2.0370      2.00000
     43      -2.0370      2.00000
     44      -1.9102      2.00000
     45      -1.9101      2.00000
     46      -1.9063      2.00000
     47      -1.9062      2.00000
     48      -1.8448      2.00000
     49      -1.8441      2.00000
     50      -1.8392      2.00000
     51      -1.8390      2.00000
     52      -1.8359      2.00000
     53      -1.8354      2.00000
     54      -1.7697      2.00000
     55      -1.7458      2.00000
     56      -1.7458      2.00000
     57      -1.7392      2.00000
     58      -1.7392      2.00000
     59      -1.6986      2.00000
     60      -1.6547      2.00000
     61      -1.6547      2.00000
     62      -1.6301      2.00000
     63      -1.6301      2.00000
     64      -1.5875      2.00000
     65      -1.5816      2.00000
     66      -1.5814      2.00000
     67      -1.5751      2.00000
     68      -1.5749      2.00000
     69      -1.5739      2.00000
     70      -1.5735      2.00000
     71      -1.5650      2.00000
     72      -1.5428      2.00000
     73      -1.5258      2.00000
     74      -1.5116      2.00000
     75      -1.5116      2.00000
     76      -1.5056      2.00000
     77      -1.5055      2.00000
     78      -1.4988      2.00000
     79      -1.4979      2.00000
     80      -1.4959      2.00000
     81      -1.4318      2.00000
     82      -1.4318      2.00000
     83      -1.3343      2.00000
     84      -1.3343      2.00000
     85      -1.2980      2.00000
     86      -1.2980      2.00000
     87      -1.2544      2.00000
     88      -1.2433      2.00000
     89      -1.0763      2.00000
     90      -1.0763      2.00000
     91      -1.0678      2.00000
     92      -1.0344      2.00000
     93      -0.9925      2.00000
     94      -0.9893      2.00000
     95      -0.9892      2.00000
     96      -0.9802      2.00000
     97      -0.9251      2.00000
     98      -0.9249      2.00000
     99      -0.9232      2.00000
    100      -0.9229      2.00000
    101      -0.8265      2.00000
    102      -0.8264      2.00000
    103      -0.8252      2.00000
    104      -0.8250      2.00000
    105      -0.8048      2.00000
    106      -0.8048      2.00000
    107      -0.7880      2.00000
    108      -0.7787      2.00000
    109      -0.7786      2.00000
    110      -0.6931      2.00000
    111      -0.6930      2.00000
    112      -0.6532      2.00000
    113      -0.6532      2.00000
    114      -0.6028      2.00000
    115      -0.5603      2.00000
    116      -0.5551      2.00000
    117      -0.5549      2.00000
    118      -0.5501      2.00000
    119      -0.5500      2.00000
    120      -0.5417      2.00000
    121      -0.5415      2.00000
    122      -0.5069      2.00000
    123      -0.5038      2.00000
    124      -0.4730      2.00000
    125      -0.4729      2.00000
    126      -0.4600      2.00000
    127      -0.4502      2.00000
    128      -0.4502      2.00000
    129      -0.4060      2.00000
    130      -0.4059      2.00000
    131      -0.3842      2.00000
    132      -0.3842      2.00000
    133      -0.3501      2.00000
    134      -0.3411      2.00000
    135      -0.3411      2.00000
    136      -0.3221      2.00000
    137      -0.2194      2.00000
    138      -0.2194      2.00000
    139      -0.1868      2.00000
    140      -0.1867      2.00000
    141      -0.1050      2.00000
    142      -0.0310      2.00000
    143      -0.0114      2.00000
    144      -0.0114      2.00000
    145       0.0493      2.00000
    146       0.0494      2.00000
    147       0.0837      2.00000
    148       0.0838      2.00000
    149       0.0905      2.00000
    150       0.1046      2.00000
    151       0.1081      2.00000
    152       0.1493      2.00000
    153       0.1513      2.00000
    154       0.1513      2.00000
    155       0.1924      2.00000
    156       0.1924      2.00000
    157       0.2734      2.00000
    158       0.2967      2.00000
    159       0.2967      2.00000
    160       0.2975      2.00000
    161       0.2975      2.00000
    162       0.3069      2.00000
    163       0.3083      2.00000
    164       0.3471      2.00000
    165       0.3482      2.00000
    166       0.3483      2.00000
    167       0.3495      2.00000
    168       1.5097      2.00000
    169       1.5097      2.00000
    170       2.0141      2.00000
    171       2.0532      2.00000
    172       2.0532      2.00000
    173       2.3885      2.00000
    174       2.5970      2.00014
    175       2.5970      2.00014
    176       2.8716      2.03947
    177       2.8716      2.03948
    178       3.1450      1.49238
    179       3.1942      1.10192
    180       3.2335      0.77136
    181       3.2335      0.77126
    182       3.8355     -0.00008
    183       3.8355     -0.00008
    184       4.2675     -0.00000
    185       4.9860     -0.00000
    186       4.9860     -0.00000
    187       6.5944     -0.00000
    188       6.8352     -0.00000
    189       6.8352     -0.00000
    190       7.2423     -0.00000
    191       7.5704     -0.00000
    192       7.5705     -0.00000
    193       7.7287     -0.00000
    194       7.7287     -0.00000
    195       8.1929     -0.00000
    196       8.1929     -0.00000
    197       8.5453     -0.00000
    198       8.5453     -0.00000
    199       9.2407      0.00000
    200       9.2407      0.00000
    201       9.6925      0.00000
    202       9.6925      0.00000
    203       9.7409      0.00000
    204       9.7410      0.00000
    205      10.0472      0.00000
    206      10.2195      0.00000
    207      10.2217      0.00000
    208      10.3308      0.00000
    209      10.5002      0.00000
    210      10.5153      0.00000
    211      10.5774      0.00000
    212      10.6733      0.00000

 k-point   3 :       0.3125    0.0625    0.0625
  band No.  band energies     occupation 
      1      -4.0472      2.00000
      2      -3.2114      2.00000
      3      -2.9400      2.00000
      4      -2.9159      2.00000
      5      -2.9158      2.00000
      6      -2.9103      2.00000
      7      -2.8786      2.00000
      8      -2.8786      2.00000
      9      -2.8583      2.00000
     10      -2.8408      2.00000
     11      -2.7992      2.00000
     12      -2.7992      2.00000
     13      -2.6499      2.00000
     14      -2.5763      2.00000
     15      -2.5384      2.00000
     16      -2.5382      2.00000
     17      -2.5149      2.00000
     18      -2.5148      2.00000
     19      -2.4942      2.00000
     20      -2.4478      2.00000
     21      -2.4478      2.00000
     22      -2.4201      2.00000
     23      -2.4199      2.00000
     24      -2.4188      2.00000
     25      -2.3624      2.00000
     26      -2.3624      2.00000
     27      -2.2768      2.00000
     28      -2.2767      2.00000
     29      -2.2450      2.00000
     30      -2.2449      2.00000
     31      -2.2437      2.00000
     32      -2.2435      2.00000
     33      -2.1781      2.00000
     34      -2.1781      2.00000
     35      -2.1646      2.00000
     36      -2.1645      2.00000
     37      -2.1274      2.00000
     38      -2.1274      2.00000
     39      -2.1182      2.00000
     40      -2.1181      2.00000
     41      -2.0218      2.00000
     42      -2.0218      2.00000
     43      -1.9269      2.00000
     44      -1.9050      2.00000
     45      -1.9046      2.00000
     46      -1.9040      2.00000
     47      -1.9039      2.00000
     48      -1.8962      2.00000
     49      -1.8961      2.00000
     50      -1.8829      2.00000
     51      -1.8822      2.00000
     52      -1.8813      2.00000
     53      -1.8811      2.00000
     54      -1.7528      2.00000
     55      -1.7526      2.00000
     56      -1.7459      2.00000
     57      -1.7028      2.00000
     58      -1.7027      2.00000
     59      -1.6864      2.00000
     60      -1.6863      2.00000
     61      -1.6731      2.00000
     62      -1.6731      2.00000
     63      -1.6375      2.00000
     64      -1.6250      2.00000
     65      -1.6243      2.00000
     66      -1.6243      2.00000
     67      -1.6232      2.00000
     68      -1.6228      2.00000
     69      -1.6214      2.00000
     70      -1.5986      2.00000
     71      -1.5985      2.00000
     72      -1.5840      2.00000
     73      -1.5840      2.00000
     74      -1.5528      2.00000
     75      -1.4859      2.00000
     76      -1.4858      2.00000
     77      -1.4789      2.00000
     78      -1.4490      2.00000
     79      -1.4490      2.00000
     80      -1.4428      2.00000
     81      -1.4416      2.00000
     82      -1.4350      2.00000
     83      -1.2450      2.00000
     84      -1.2450      2.00000
     85      -1.1937      2.00000
     86      -1.1671      2.00000
     87      -1.1671      2.00000
     88      -1.1503      2.00000
     89      -1.1503      2.00000
     90      -1.1408      2.00000
     91      -1.1281      2.00000
     92      -1.1165      2.00000
     93      -1.0140      2.00000
     94      -1.0139      2.00000
     95      -1.0028      2.00000
     96      -0.9888      2.00000
     97      -0.9887      2.00000
     98      -0.9744      2.00000
     99      -0.8596      2.00000
    100      -0.8595      2.00000
    101      -0.8469      2.00000
    102      -0.8318      2.00000
    103      -0.8318      2.00000
    104      -0.7331      2.00000
    105      -0.7330      2.00000
    106      -0.7197      2.00000
    107      -0.7197      2.00000
    108      -0.6918      2.00000
    109      -0.6918      2.00000
    110      -0.6779      2.00000
    111      -0.6779      2.00000
    112      -0.6599      2.00000
    113      -0.6599      2.00000
    114      -0.6578      2.00000
    115      -0.5668      2.00000
    116      -0.5668      2.00000
    117      -0.5441      2.00000
    118      -0.5441      2.00000
    119      -0.5364      2.00000
    120      -0.5364      2.00000
    121      -0.5338      2.00000
    122      -0.4483      2.00000
    123      -0.4483      2.00000
    124      -0.3879      2.00000
    125      -0.3602      2.00000
    126      -0.3552      2.00000
    127      -0.3550      2.00000
    128      -0.3030      2.00000
    129      -0.2832      2.00000
    130      -0.2772      2.00000
    131      -0.2772      2.00000
    132      -0.2641      2.00000
    133      -0.2640      2.00000
    134      -0.2328      2.00000
    135      -0.2326      2.00000
    136      -0.2311      2.00000
    137      -0.2227      2.00000
    138      -0.2113      2.00000
    139      -0.2113      2.00000
    140      -0.2043      2.00000
    141      -0.2043      2.00000
    142      -0.0877      2.00000
    143      -0.0624      2.00000
    144      -0.0624      2.00000
    145      -0.0322      2.00000
    146       0.0232      2.00000
    147       0.0237      2.00000
    148       0.0237      2.00000
    149       0.0354      2.00000
    150       0.0355      2.00000
    151       0.0693      2.00000
    152       0.0905      2.00000
    153       0.0906      2.00000
    154       0.0955      2.00000
    155       0.1789      2.00000
    156       0.2010      2.00000
    157       0.2010      2.00000
    158       0.2021      2.00000
    159       0.2021      2.00000
    160       0.2262      2.00000
    161       0.3468      2.00000
    162       0.3480      2.00000
    163       0.3481      2.00000
    164       0.3493      2.00000
    165       0.3808      2.00000
    166       0.3809      2.00000
    167       0.9954      2.00000
    168       1.0708      2.00000
    169       1.0709      2.00000
    170       1.5768      2.00000
    171       1.5768      2.00000
    172       2.0251      2.00000
    173       2.2093      2.00000
    174       2.6266      2.00033
    175       2.6266      2.00033
    176       2.8021      2.01494
    177       2.8021      2.01495
    178       3.2305      0.79597
    179       3.2695      0.49316
    180       3.4866     -0.06342
    181       3.9660     -0.00000
    182       3.9660     -0.00000
    183       4.5716     -0.00000
    184       4.5716     -0.00000
    185       5.3527     -0.00000
    186       5.3527     -0.00000
    187       6.6024     -0.00000
    188       6.6024     -0.00000
    189       6.8947     -0.00000
    190       7.0539     -0.00000
    191       7.0539     -0.00000
    192       7.2088     -0.00000
    193       7.2088     -0.00000
    194       7.3174     -0.00000
    195       7.3174     -0.00000
    196       7.8304     -0.00000
    197       8.7767      0.00000
    198       8.7767      0.00000
    199       9.0679      0.00000
    200       9.4618      0.00000
    201       9.4618      0.00000
    202       9.6600      0.00000
    203       9.6600      0.00000
    204       9.7236      0.00000
    205       9.7236      0.00000
    206       9.8989      0.00000
    207       9.8991      0.00000
    208       9.9970      0.00000
    209       9.9972      0.00000
    210      10.2686      0.00000
    211      10.6392      0.00000
    212      10.6555      0.00000

 k-point   4 :       0.4375    0.0625    0.0625
  band No.  band energies     occupation 
      1      -3.8210      2.00000
      2      -3.5350      2.00000
      3      -2.8545      2.00000
      4      -2.8076      2.00000
      5      -2.8073      2.00000
      6      -2.8069      2.00000
      7      -2.7717      2.00000
      8      -2.7675      2.00000
      9      -2.7675      2.00000
     10      -2.7530      2.00000
     11      -2.7398      2.00000
     12      -2.6878      2.00000
     13      -2.6877      2.00000
     14      -2.6825      2.00000
     15      -2.6764      2.00000
     16      -2.6763      2.00000
     17      -2.6674      2.00000
     18      -2.6225      2.00000
     19      -2.6225      2.00000
     20      -2.5911      2.00000
     21      -2.5412      2.00000
     22      -2.5412      2.00000
     23      -2.3959      2.00000
     24      -2.3959      2.00000
     25      -2.3126      2.00000
     26      -2.3126      2.00000
     27      -2.2743      2.00000
     28      -2.2742      2.00000
     29      -2.2305      2.00000
     30      -2.2303      2.00000
     31      -2.2084      2.00000
     32      -2.2083      2.00000
     33      -2.1931      2.00000
     34      -2.1931      2.00000
     35      -2.1541      2.00000
     36      -2.1539      2.00000
     37      -2.1526      2.00000
     38      -2.1525      2.00000
     39      -2.0634      2.00000
     40      -2.0633      2.00000
     41      -2.0607      2.00000
     42      -2.0605      2.00000
     43      -2.0193      2.00000
     44      -2.0193      2.00000
     45      -1.9800      2.00000
     46      -1.9799      2.00000
     47      -1.9139      2.00000
     48      -1.9138      2.00000
     49      -1.9078      2.00000
     50      -1.9077      2.00000
     51      -1.8760      2.00000
     52      -1.8760      2.00000
     53      -1.8171      2.00000
     54      -1.8170      2.00000
     55      -1.8074      2.00000
     56      -1.7128      2.00000
     57      -1.7125      2.00000
     58      -1.7119      2.00000
     59      -1.7118      2.00000
     60      -1.7091      2.00000
     61      -1.7042      2.00000
     62      -1.6668      2.00000
     63      -1.6656      2.00000
     64      -1.6654      2.00000
     65      -1.6301      2.00000
     66      -1.6300      2.00000
     67      -1.6178      2.00000
     68      -1.6176      2.00000
     69      -1.6096      2.00000
     70      -1.6093      2.00000
     71      -1.6005      2.00000
     72      -1.5727      2.00000
     73      -1.5222      2.00000
     74      -1.5221      2.00000
     75      -1.4689      2.00000
     76      -1.4688      2.00000
     77      -1.4059      2.00000
     78      -1.3815      2.00000
     79      -1.3814      2.00000
     80      -1.3678      2.00000
     81      -1.3677      2.00000
     82      -1.3615      2.00000
     83      -1.3613      2.00000
     84      -1.3540      2.00000
     85      -1.3539      2.00000
     86      -1.3470      2.00000
     87      -1.3090      2.00000
     88      -1.2662      2.00000
     89      -1.2662      2.00000
     90      -1.2571      2.00000
     91      -1.2559      2.00000
     92      -1.2387      2.00000
     93      -0.8400      2.00000
     94      -0.8400      2.00000
     95      -0.8362      2.00000
     96      -0.8362      2.00000
     97      -0.8052      2.00000
     98      -0.7353      2.00000
     99      -0.7308      2.00000
    100      -0.7270      2.00000
    101      -0.7269      2.00000
    102      -0.6838      2.00000
    103      -0.6837      2.00000
    104      -0.6815      2.00000
    105      -0.6813      2.00000
    106      -0.6685      2.00000
    107      -0.6684      2.00000
    108      -0.6623      2.00000
    109      -0.6548      2.00000
    110      -0.6548      2.00000
    111      -0.6127      2.00000
    112      -0.6126      2.00000
    113      -0.6047      2.00000
    114      -0.6047      2.00000
    115      -0.5997      2.00000
    116      -0.5997      2.00000
    117      -0.5618      2.00000
    118      -0.5618      2.00000
    119      -0.5182      2.00000
    120      -0.5182      2.00000
    121      -0.4954      2.00000
    122      -0.4723      2.00000
    123      -0.4566      2.00000
    124      -0.4566      2.00000
    125      -0.4516      2.00000
    126      -0.4516      2.00000
    127      -0.4460      2.00000
    128      -0.3600      2.00000
    129      -0.3599      2.00000
    130      -0.3565      2.00000
    131      -0.3564      2.00000
    132      -0.3530      2.00000
    133      -0.2198      2.00000
    134      -0.2198      2.00000
    135      -0.2161      2.00000
    136      -0.1261      2.00000
    137      -0.1260      2.00000
    138      -0.1230      2.00000
    139      -0.1176      2.00000
    140      -0.0976      2.00000
    141      -0.0898      2.00000
    142      -0.0897      2.00000
    143      -0.0858      2.00000
    144      -0.0763      2.00000
    145      -0.0761      2.00000
    146      -0.0684      2.00000
    147      -0.0683      2.00000
    148      -0.0048      2.00000
    149      -0.0047      2.00000
    150      -0.0016      2.00000
    151       0.0114      2.00000
    152       0.0422      2.00000
    153       0.0458      2.00000
    154       0.0730      2.00000
    155       0.0731      2.00000
    156       0.0742      2.00000
    157       0.0743      2.00000
    158       0.1284      2.00000
    159       0.3373      2.00000
    160       0.3374      2.00000
    161       0.3468      2.00000
    162       0.3479      2.00000
    163       0.3480      2.00000
    164       0.3492      2.00000
    165       0.6827      2.00000
    166       0.6827      2.00000
    167       0.7464      2.00000
    168       0.7465      2.00000
    169       1.1437      2.00000
    170       1.1437      2.00000
    171       1.7823      2.00000
    172       2.0504      2.00000
    173       2.1043      2.00000
    174       2.6285      2.00034
    175       2.6716      2.00103
    176       2.6717      2.00104
    177       2.7314      2.00399
    178       2.7315      2.00399
    179       3.2724      0.47283
    180       3.2978      0.30757
    181       4.7773     -0.00000
    182       4.7773     -0.00000
    183       5.3825     -0.00000
    184       5.3825     -0.00000
    185       5.6606     -0.00000
    186       5.6606     -0.00000
    187       5.8424     -0.00000
    188       5.8424     -0.00000
    189       6.2646     -0.00000
    190       6.2646     -0.00000
    191       6.4184     -0.00000
    192       6.4184     -0.00000
    193       7.4468     -0.00000
    194       7.9735     -0.00000
    195       7.9735     -0.00000
    196       8.1890     -0.00000
    197       8.5427     -0.00000
    198       8.7638      0.00000
    199       8.7638      0.00000
    200       9.1069      0.00000
    201       9.1070      0.00000
    202       9.3585      0.00000
    203       9.5194      0.00000
    204       9.5211      0.00000
    205       9.7724      0.00000
    206       9.7757      0.00000
    207       9.7770      0.00000
    208       9.8161      0.00000
    209       9.8377      0.00000
    210      10.1330      0.00000
    211      11.0216      0.00000
    212      11.2950      0.00000

 k-point   5 :       0.0625    0.1875    0.0625
  band No.  band energies     occupation 
      1      -4.2024      2.00000
      2      -3.0012      2.00000
      3      -2.9930      2.00000
      4      -2.9928      2.00000
      5      -2.9757      2.00000
      6      -2.9539      2.00000
      7      -2.9537      2.00000
      8      -2.9431      2.00000
      9      -2.8941      2.00000
     10      -2.8880      2.00000
     11      -2.8744      2.00000
     12      -2.8742      2.00000
     13      -2.6077      2.00000
     14      -2.6049      2.00000
     15      -2.5691      2.00000
     16      -2.5070      2.00000
     17      -2.5047      2.00000
     18      -2.4564      2.00000
     19      -2.4169      2.00000
     20      -2.4166      2.00000
     21      -2.3203      2.00000
     22      -2.3181      2.00000
     23      -2.3104      2.00000
     24      -2.3080      2.00000
     25      -2.3013      2.00000
     26      -2.2995      2.00000
     27      -2.2927      2.00000
     28      -2.2514      2.00000
     29      -2.2509      2.00000
     30      -2.2391      2.00000
     31      -2.1714      2.00000
     32      -2.1694      2.00000
     33      -2.1518      2.00000
     34      -2.1514      2.00000
     35      -2.1360      2.00000
     36      -2.1339      2.00000
     37      -2.1185      2.00000
     38      -2.1167      2.00000
     39      -2.0600      2.00000
     40      -2.0575      2.00000
     41      -2.0561      2.00000
     42      -2.0378      2.00000
     43      -2.0361      2.00000
     44      -1.9106      2.00000
     45      -1.9097      2.00000
[...]
    108      -0.7906      2.00000
    109      -0.7902      2.00000
    110      -0.7884      2.00000
    111      -0.7883      2.00000
    112      -0.7871      2.00000
    113      -0.7866      2.00000
    114      -0.7860      2.00000
    115      -0.7843      2.00000
    116      -0.7820      2.00000
    117      -0.7133      2.00000
    118      -0.7112      2.00000
    119      -0.7090      2.00000
    120      -0.6618      2.00000
    121      -0.6616      2.00000
    122      -0.6602      2.00000
    123      -0.6602      2.00000
    124      -0.6588      2.00000
    125      -0.6586      2.00000
    126      -0.5771      2.00000
    127      -0.5770      2.00000
    128      -0.5770      2.00000
    129      -0.5261      2.00000
    130      -0.5260      2.00000
    131      -0.5181      2.00000
    132      -0.5167      2.00000
    133      -0.5152      2.00000
    134      -0.4962      2.00000
    135      -0.4943      2.00000
    136      -0.4927      2.00000
    137      -0.4106      2.00000
    138      -0.4090      2.00000
    139      -0.4074      2.00000
    140      -0.3550      2.00000
    141      -0.3550      2.00000
    142      -0.3059      2.00000
    143      -0.3047      2.00000
    144      -0.3035      2.00000
    145       0.1881      2.00000
    146       0.1884      2.00000
    147       0.1888      2.00000
    148       0.2059      2.00000
    149       0.2068      2.00000
    150       0.2069      2.00000
    151       0.2069      2.00000
    152       0.2071      2.00000
    153       0.2072      2.00000
    154       0.2073      2.00000
    155       0.2075      2.00000
    156       0.2076      2.00000
    157       0.2077      2.00000
    158       0.2079      2.00000
    159       0.2086      2.00000
    160       0.2101      2.00000
    161       0.2102      2.00000
    162       0.2106      2.00000
    163       0.2234      2.00000
    164       0.2236      2.00000
    165       0.2240      2.00000
    166       0.2332      2.00000
    167       0.2334      2.00000
    168       0.2336      2.00000
    169       3.3298      0.14433
    170       3.3315      0.13689
    171       3.3332      0.12975
    172       3.6846     -0.00371
    173       3.6859     -0.00361
    174       3.6875     -0.00348
    175       3.6875     -0.00348
    176       3.6891     -0.00337
    177       3.6904     -0.00327
    178       3.9861     -0.00000
    179       3.9865     -0.00000
    180       3.9869     -0.00000
    181       4.2292     -0.00000
    182       4.2298     -0.00000
    183       4.2304     -0.00000
    184       4.6048     -0.00000
    185       4.6064     -0.00000
    186       4.6079     -0.00000
    187       4.6079     -0.00000
    188       4.6094     -0.00000
    189       4.6111     -0.00000
    190       4.9276     -0.00000
    191       4.9294     -0.00000
    192       4.9313     -0.00000
    193       8.1435     -0.00000
    194       8.1439     -0.00000
    195       8.1442     -0.00000
    196       8.5158     -0.00000
    197       8.5165     -0.00000
    198       8.5173     -0.00000
    199       8.9384      0.00000
    200       8.9391      0.00000
    201       8.9417      0.00000
    202       8.9417      0.00000
    203       8.9443      0.00000
    204       8.9449      0.00000
    205       9.3222      0.00000
    206       9.3226      0.00000
    207       9.3248      0.00000
    208       9.3267      0.00000
    209       9.3276      0.00000
    210       9.3287      0.00000
    211       9.7374      0.00000
    212       9.7441      0.00000


--------------------------------------------------------------------------------------------------------


 soft charge-density along one line, spin component           1
         0         1         2         3         4         5         6         7         8         9
 total charge-density along one line
 
 pseudopotential strength for first ion, spin component:           1
-12.130   0.000  -0.000   0.000  -0.000   0.123  -0.000   0.000
  0.000 -12.130   0.000  -0.000  -0.000  -0.000   0.123  -0.000
 -0.000   0.000 -12.121   0.000  -0.000   0.000  -0.000   0.121
  0.000  -0.000   0.000 -12.130   0.000  -0.000   0.000  -0.000
 -0.000  -0.000  -0.000   0.000 -12.121   0.000   0.000   0.000
  0.123  -0.000   0.000  -0.000   0.000   0.459   0.000  -0.000
 -0.000   0.123  -0.000   0.000   0.000   0.000   0.459   0.000
  0.000  -0.000   0.121  -0.000   0.000  -0.000   0.000   0.459
 -0.000   0.000  -0.000   0.123  -0.000   0.000  -0.000   0.000
  0.000   0.000   0.000  -0.000   0.121  -0.000  -0.000  -0.000
  0.000  -0.000  -0.000  -0.000  -0.000  -0.000   0.000   0.000
  0.000   0.000   0.000   0.000   0.000  -0.000  -0.000  -0.000
 -0.000   0.000  -0.000  -0.000   0.000   0.000  -0.000   0.000
 -0.000  -0.000   0.000  -0.000  -0.000   0.000   0.000  -0.000
  0.000  -0.000   0.000   0.000  -0.000  -0.000   0.000  -0.000
  0.000  -0.000   0.000   0.000   0.000  -0.000   0.000  -0.000
  0.000   0.000  -0.000   0.000   0.000  -0.000  -0.000   0.000
 -0.000   0.000  -0.000  -0.000   0.000   0.000  -0.000   0.000
 total augmentation occupancy for first ion, spin component:           1
  1.937   0.000  -0.001  -0.000  -0.001  -0.021  -0.000   0.000   0.000   0.001   0.005  -0.000  -0.000   0.000  -0.000  -0.000
  0.000   1.940  -0.001  -0.001  -0.001  -0.000  -0.024   0.002   0.000   0.000   0.004  -0.001   0.000  -0.000  -0.000  -0.000
 -0.001  -0.001   1.966  -0.001  -0.002   0.000   0.002  -0.054   0.001   0.002   0.012   0.001  -0.000   0.000   0.000  -0.000
 -0.000  -0.001  -0.001   1.943  -0.000   0.000   0.000   0.001  -0.027   0.001   0.002  -0.001   0.000   0.000  -0.000  -0.000
 -0.001  -0.001  -0.002  -0.000   1.957   0.001   0.000   0.002   0.001  -0.047   0.007   0.001   0.000   0.000  -0.000  -0.000
 -0.021  -0.000   0.000   0.000   0.001   0.078   0.000   0.001   0.000  -0.000  -0.002   0.001   0.000  -0.000   0.000   0.000
 -0.000  -0.024   0.002   0.000   0.000   0.000   0.081  -0.002  -0.000   0.001  -0.001   0.001  -0.000   0.000   0.000   0.000
  0.000   0.002  -0.054   0.001   0.002   0.001  -0.002   0.069  -0.002  -0.001  -0.010   0.000   0.000  -0.000   0.000  -0.000
  0.000   0.000   0.001  -0.027   0.001   0.000  -0.000  -0.002   0.083  -0.002   0.001   0.002  -0.000  -0.000  -0.000   0.000
  0.001   0.000   0.002   0.001  -0.047  -0.000   0.001  -0.001  -0.002   0.066  -0.006   0.000   0.000  -0.000  -0.000   0.000
  0.005   0.004   0.012   0.002   0.007  -0.002  -0.001  -0.010   0.001  -0.006   1.041  -0.354  -0.000  -0.000   0.000   0.000
 -0.000  -0.001   0.001  -0.001   0.001   0.001   0.001   0.000   0.002   0.000  -0.354   0.183   0.000   0.000  -0.000  -0.000
 -0.000   0.000  -0.000   0.000   0.000   0.000  -0.000   0.000  -0.000   0.000  -0.000   0.000   0.109   0.000   0.002  -0.006
  0.000  -0.000   0.000   0.000   0.000  -0.000   0.000  -0.000  -0.000  -0.000  -0.000   0.000   0.000   0.114  -0.001  -0.000
 -0.000  -0.000   0.000  -0.000  -0.000   0.000   0.000   0.000  -0.000  -0.000   0.000  -0.000   0.002  -0.001   0.111  -0.000
 -0.000  -0.000  -0.000  -0.000  -0.000   0.000   0.000  -0.000   0.000   0.000   0.000  -0.000  -0.006  -0.000  -0.000   0.000
 -0.000  -0.000  -0.000  -0.000  -0.000   0.000   0.000   0.000   0.000   0.000   0.000   0.000  -0.000  -0.006  -0.000   0.000
  0.000   0.000   0.000   0.000  -0.000  -0.000  -0.000  -0.000  -0.000   0.000  -0.000   0.000  -0.000  -0.000  -0.006   0.000


------------------------ aborting loop because EDIFF is reached ----------------------------------------




--------------------------------------------------------------------------------------------------------


    CHARGE:  VPU time   51.86: CPU time   51.90
    FORLOC:  VPU time    0.18: CPU time    0.18
    FORNL :  VPU time  266.93: CPU time  267.09
    STRESS:  VPU time 1859.17: CPU time 1860.47
    FORCOR:  VPU time    1.26: CPU time    1.26
    FORHAR:  VPU time    0.46: CPU time    0.46
    MIXING:  VPU time    0.03: CPU time    0.03


--------------------------------------------------------------------------------------------------------



  FREE ENERGIE OF THE ION-ELECTRON SYSTEM (eV)
  ---------------------------------------------------
  free  energy   TOTEN  =       -90.434851 eV

  energy  without entropy=      -90.420306  energy(sigma->0) =      -90.430002
 

  FORCE on cell =-STRESS in cart. coord.  units (eV/reduce length):
  Direction    X        Y        Z        XY       YZ       ZX
  --------------------------------------------------------------------------------------
  Alpha Z   3195.58   3195.58   3195.58
  Ewald   -10283.05 -10282.90 -10282.90     -0.00     -0.00     -0.00
  Hartree   2103.37   2103.48   2103.48     -0.00     -0.00     -0.00
  E(xc)    -1860.60  -1860.60  -1860.60     -0.00     -0.00     -0.00
  Local     3256.64   3256.39   3256.39      0.00      0.00      0.00
  n-local  -2103.17  -2106.74  -2099.61      2.28      1.27      0.27
  augment   1341.64   1341.64   1341.64     -0.00     -0.00     -0.00
  Kinetic   4354.26   4348.30   4360.22      1.36     -0.45     -2.27
  -------------------------------------------------------------------------------------
  Total        4.69      4.68      4.68      0.00      0.00      0.00
  in kB       13.19     13.17     13.17      0.00      0.00      0.00
  external pressure =       13.18 kB  Pullay stress =        0.00 kB


 VOLUME and BASIS-vectors are now :
 -----------------------------------------------------------------------------
  energy-cutoff  :      600.00
  volume of cell :      569.03
      direct lattice vectors                 reciprocal lattice vectors
     8.286660340  0.000000000  0.000000000     0.120675877 -0.000000002 -0.000000002
     0.000000150  8.286660340  0.000000000     0.000000000  0.120675877 -0.000000002
     0.000000150  0.000000150  8.286660340     0.000000000  0.000000000  0.120675877

  length of vectors
     8.286660340  8.286660340  8.286660340     0.120675877  0.120675877  0.120675877


 FORCES acting on ions
    electron-ion (+dipol)            ewald-force                    non-local-force                 convergence-correction
 -----------------------------------------------------------------------------------------------
   -.323E-01 -.160E+00 0.152E-07   0.353E-01 0.159E+00 -.163E-07   -.235E-02 0.329E-03 0.000E+00   -.270E-03 0.370E-03 -.117E-09
   -.102E+01 -.191E+01 0.895E-08   0.102E+01 0.191E+01 -.335E-09   0.857E-02 0.534E-02 -.136E-19   0.144E-02 0.192E-02 0.107E-09
   -.102E+01 0.323E-07 0.191E+01   0.102E+01 -.344E-07 -.191E+01   0.857E-02 -.967E-10 -.534E-02   0.144E-02 -.148E-09 -.192E-02
   -.323E-01 0.160E+00 -.830E-08   0.353E-01 -.159E+00 0.896E-08   -.235E-02 -.329E-03 0.000E+00   -.270E-03 -.370E-03 0.108E-09
   0.125E+01 -.954E-02 0.954E-02   -.125E+01 0.952E-02 -.952E-02   0.292E-02 0.492E-04 -.492E-04   -.658E-03 0.208E-04 -.208E-04
   0.661E+00 -.242E-08 -.437E-07   -.665E+00 0.177E-08 0.477E-07   0.305E-02 0.923E-20 -.169E-20   -.336E-03 -.282E-09 0.552E-09
   -.261E-01 0.160E+00 -.867E-08   0.292E-01 -.159E+00 0.935E-08   -.237E-02 -.294E-03 0.000E+00   -.250E-03 -.398E-03 0.107E-09
   -.102E+01 -.255E-07 -.191E+01   0.102E+01 0.343E-07 0.191E+01   0.857E-02 0.967E-10 0.534E-02   0.144E-02 0.141E-09 0.192E-02
   -.102E+01 0.191E+01 -.233E-08   0.102E+01 -.191E+01 0.274E-09   0.857E-02 -.534E-02 0.136E-19   0.144E-02 -.192E-02 -.113E-09
   -.323E-01 -.545E-08 0.160E+00   0.353E-01 0.608E-08 -.159E+00   -.235E-02 -.595E-11 -.329E-03   -.270E-03 0.101E-09 -.370E-03
   0.125E+01 -.954E-02 -.954E-02   -.125E+01 0.952E-02 0.952E-02   0.292E-02 0.492E-04 0.492E-04   -.658E-03 0.208E-04 0.208E-04
   0.791E+01 -.124E-06 0.867E-07   -.795E+01 0.137E-06 0.137E-06   -.483E-01 0.240E-18 0.136E-19   -.691E-02 -.567E-09 -.566E-09
   0.125E+01 0.954E-02 0.954E-02   -.125E+01 -.952E-02 -.952E-02   0.292E-02 -.492E-04 -.492E-04   -.658E-03 -.208E-04 -.208E-04
   0.276E+00 -.122E-07 -.124E-07   -.274E+00 0.127E-07 0.127E-07   -.255E-02 -.260E-20 0.000E+00   0.402E-03 0.260E-09 0.260E-09
   -.100E+01 0.194E+01 -.247E-08   0.101E+01 -.195E+01 0.305E-09   0.850E-02 -.534E-02 0.000E+00   0.144E-02 -.191E-02 -.113E-09
   -.100E+01 -.260E-07 -.194E+01   0.101E+01 0.349E-07 0.195E+01   0.850E-02 0.967E-10 0.534E-02   0.144E-02 0.181E-09 0.191E-02
   -.261E-01 -.160E+00 0.149E-07   0.292E-01 0.159E+00 -.160E-07   -.237E-02 0.294E-03 0.339E-20   -.250E-03 0.398E-03 -.149E-09
   -.701E+00 0.280E-02 -.280E-02   0.705E+00 -.285E-02 0.285E-02   -.335E-02 0.559E-04 -.559E-04   -.468E-05 -.715E-05 0.715E-05
   -.530E+00 0.234E-08 0.293E-07   0.522E+00 -.175E-08 -.301E-07   0.666E-02 -.298E-19 0.271E-19   0.744E-03 0.268E-09 -.465E-09
   -.323E-01 0.123E-07 -.160E+00   0.353E-01 -.134E-07 0.159E+00   -.235E-02 0.595E-11 0.329E-03   -.270E-03 -.111E-09 0.370E-03
   0.125E+01 0.954E-02 -.954E-02   -.125E+01 -.952E-02 0.952E-02   0.292E-02 -.492E-04 0.492E-04   -.658E-03 -.208E-04 0.208E-04
   0.661E+00 -.441E-07 -.233E-08   -.665E+00 0.477E-07 0.177E-08   0.305E-02 -.195E-21 0.000E+00   -.337E-03 0.552E-09 -.282E-09
   -.100E+01 0.327E-07 0.194E+01   0.101E+01 -.349E-07 -.195E+01   0.850E-02 -.967E-10 -.534E-02   0.144E-02 -.147E-09 -.191E-02
   -.100E+01 -.194E+01 0.904E-08   0.101E+01 0.195E+01 -.304E-09   0.850E-02 0.534E-02 0.000E+00   0.144E-02 0.191E-02 0.147E-09
   -.261E-01 0.120E-07 -.160E+00   0.292E-01 -.131E-07 0.159E+00   -.237E-02 0.533E-11 0.294E-03   -.250E-03 -.142E-09 0.399E-03
   -.701E+00 0.280E-02 0.280E-02   0.705E+00 -.285E-02 -.285E-02   -.335E-02 0.559E-04 0.559E-04   -.468E-05 -.715E-05 -.715E-05
   -.208E+01 0.505E-08 -.208E-06   0.210E+01 -.235E-08 -.235E-08   -.156E-01 0.389E-20 0.000E+00   0.561E-03 0.509E-09 0.509E-09
   -.701E+00 -.280E-02 -.280E-02   0.705E+00 0.285E-02 0.285E-02   -.335E-02 -.559E-04 -.559E-04   -.468E-05 0.715E-05 0.715E-05
   -.256E+00 0.108E-07 0.107E-07   0.257E+00 -.112E-07 -.112E-07   -.342E-03 0.144E-20 0.000E+00   -.141E-03 -.265E-09 -.265E-09
   -.261E-01 -.581E-08 0.160E+00   0.292E-01 0.647E-08 -.159E+00   -.237E-02 -.533E-11 -.294E-03   -.250E-03 0.998E-10 -.399E-03
   -.701E+00 -.280E-02 0.280E-02   0.705E+00 0.285E-02 -.285E-02   -.335E-02 -.559E-04 0.559E-04   -.468E-05 0.715E-05 -.715E-05
   -.530E+00 0.289E-07 0.243E-08   0.522E+00 -.301E-07 -.175E-08   0.666E-02 -.177E-19 0.000E+00   0.744E-03 -.465E-09 0.268E-09
 -----------------------------------------------------------------------------------------------
   -.211E-02 -.274E-10 -.206E-08   -.434E-12 -.612E-13 -.625E-13   0.339E-03 0.463E-18 -.312E-18   0.150E-02 -.280E-10 -.286E-10
 
 
 POSITION                                       TOTAL-FORCE (eV/Angst)
 -----------------------------------------------------------------------------------
      6.21500      6.21500      4.14333         0.000436      0.000161     -0.000000
      6.21500      6.21500      0.00000         0.011963      0.013928      0.000000
      6.21500      0.00000      2.07167         0.011963     -0.000000     -0.013928
      6.21500      2.07167      4.14333         0.000436     -0.000161      0.000000
      0.00000      6.21500      2.07167        -0.002357      0.000045     -0.000045
      0.00000      0.00000      4.14333        -0.000719      0.000000      0.000000
      2.07167      6.21500      4.14333         0.000437     -0.000161      0.000000
      6.21500      0.00000      6.21500         0.011963      0.000000      0.013928
      6.21500      2.07167      0.00000         0.011963     -0.013928      0.000000
      6.21500      4.14333      2.07167         0.000436     -0.000000     -0.000161
      0.00000      6.21500      6.21500        -0.002357      0.000045      0.000045
      0.02000      0.00000      0.00000        -0.096745     -0.000000      0.000000
      0.00000      2.07167      2.07167        -0.002357     -0.000045     -0.000045
      0.00000      4.14333      4.14333        -0.000247      0.000000      0.000000
      2.07167      6.21500      0.00000         0.012744     -0.015002     -0.000000
      2.07167      0.00000      2.07167         0.012744      0.000000      0.015002
      2.07167      2.07167      4.14333         0.000437      0.000161     -0.000000
      4.14333      6.21500      2.07167         0.001208     -0.000005      0.000005
      4.14333      0.00000      4.14333        -0.000741     -0.000000      0.000000
      6.21500      4.14333      6.21500         0.000436      0.000000      0.000161
      0.00000      2.07167      6.21500        -0.002357     -0.000045      0.000045
      0.00000      4.14333      0.00000        -0.000719     -0.000000      0.000000
      2.07167      0.00000      6.21500         0.012744     -0.000000     -0.015002
      2.07167      2.07167      0.00000         0.012744      0.015002      0.000000
      2.07167      4.14333      2.07167         0.000437      0.000000      0.000161
      4.14333      6.21500      6.21500         0.001208     -0.000005     -0.000005
      4.14333      0.00000      0.00000         0.002381     -0.000000      0.000000
      4.14333      2.07167      2.07167         0.001208      0.000005      0.000005
      4.14333      4.14333      4.14333        -0.000196      0.000000      0.000000
      2.07167      4.14333      6.21500         0.000437     -0.000000     -0.000161
      4.14333      2.07167      6.21500         0.001208      0.000005     -0.000005
      4.14333      4.14333      0.00000        -0.000741     -0.000000     -0.000000
 -----------------------------------------------------------------------------------
    total drift:                               -0.000277     -0.000000     -0.000000


--------------------------------------------------------------------------------------------------------



 mean value of Nose-termostat <S>:     1.000 mean value of <T> :     0.000
 mean temperature <T/S>/<1/S>  :     0.000

     LOOP+:  VPU time12303.82: CPU time12314.54

 ----------------------------------------------------------------------------- 
|                                                                             |
|           W    W    AA    RRRRR   N    N  II  N    N   GGGG   !!!           |
|           W    W   A  A   R    R  NN   N  II  NN   N  G    G  !!!           |
|           W    W  A    A  R    R  N N  N  II  N N  N  G       !!!           |
|           W WW W  AAAAAA  RRRRR   N  N N  II  N  N N  G  GGG   !            |
|           WW  WW  A    A  R   R   N   NN  II  N   NN  G    G                |
|           W    W  A    A  R    R  N    N  II  N    N   GGGG   !!!           |
|                                                                             |
|      The partial DOS and the PROCAR file are not evaluated for NPAR/=1      |
|      please rerun with NPAR=1                                               |
|                                                                             |
 ----------------------------------------------------------------------------- 

  
  
 General timing and accounting informations for this job:
 ========================================================
  
                  Total CPU time used (sec):    12604.539
                            User time (sec):    12490.570
                          System time (sec):      113.969
                         Elapsed time (sec):    12620.117
  
                   Maximum memory used (kb):     3378256.
                   Average memory used (kb):           0.
  
                          Minor page faults:       622227
                          Major page faults:            0
                 Voluntary context switches:          819
