 running on    4 nodes
 distr:  one band on    1 nodes,    4 groups
 vasp.4.6.28 25Jul05 complex 
 POSCAR found :  1 types and   32 ions

 ----------------------------------------------------------------------------- 
|                                                                             |
|  ADVICE TO THIS USER RUNNING 'VASP/VAMP'   (HEAR YOUR MASTER'S VOICE ...):  |
|                                                                             |
|      You have a (more or less) 'large supercell' and for larger cells       |
|      it might be more efficient to use real space projection operators      |
|      So try LREAL= Auto  in the INCAR   file.                               |
|      Mind: If you want to do an extremely accurate calculations keep the    |
|      reciprocal projection scheme          (i.e. LREAL=.FALSE.)             |
|                                                                             |
 ----------------------------------------------------------------------------- 

 LDA part: xc-table for Pade appr. of Perdew
 found WAVECAR, reading the header
  number of k-points has changed, file:  20 present:  40
  trying to continue reading WAVECAR, but it might fail
 POSCAR, INCAR and KPOINTS ok, starting setup
 FFT: planning ...           1
 reading WAVECAR
 the WAVECAR file was read sucessfully
 initial charge from wavefunction
 entering main loop
       N       E                     dE             d eps       ncg     rms          rms(c)
RMM:   1    -0.922871135027E+02   -0.92287E+02   -0.61970E+02 17374   0.465E+01BRMIX: very serious problems
 the old and the new charge density differ
 old charge density:   344.30371 new  352.00000
    0.781E+00
RMM:   2    -0.904341792705E+02    0.18529E+01   -0.13083E+01 17738   0.123E+01    0.113E+00
RMM:   3    -0.904347086242E+02   -0.52935E-03   -0.13674E-01 18229   0.678E-01    0.641E-01
RMM:   4    -0.904351878367E+02   -0.47921E-03   -0.24992E-02 18158   0.496E-01    0.180E-01
RMM:   5    -0.904348873820E+02    0.30045E-03   -0.58623E-03 18132   0.277E-01    0.422E-02
RMM:   6    -0.904348655306E+02    0.21851E-04   -0.58550E-05 15618   0.216E-02    0.248E-02
WARNING in EDDRMM: call to ZHEGV failed, returncode =   8 453
RMM:   7    -0.904348541023E+02    0.11428E-04   -0.64156E-05 17601   0.255E-02    0.349E-03
RMM:   8    -0.904348505968E+02    0.35055E-05   -0.56091E-06  9993   0.727E-03
   1 F= -.90434851E+02 E0= -.90430002E+02  d E =-.145449E-01

 ----------------------------------------------------------------------------- 
|                                                                             |
|           W    W    AA    RRRRR   N    N  II  N    N   GGGG   !!!           |
|           W    W   A  A   R    R  NN   N  II  NN   N  G    G  !!!           |
|           W    W  A    A  R    R  N N  N  II  N N  N  G       !!!           |
|           W WW W  AAAAAA  RRRRR   N  N N  II  N  N N  G  GGG   !            |
|           WW  WW  A    A  R   R   N   NN  II  N   NN  G    G                |
|           W    W  A    A  R    R  N    N  II  N    N   GGGG   !!!           |
|                                                                             |
|      The partial DOS and the PROCAR file are not evaluated for NPAR/=1      |
|      please rerun with NPAR=1                                               |
|                                                                             |
 ----------------------------------------------------------------------------- 

