 vasp.4.6.28 25Jul05 complex 
 executed on             LinuxIFC date 2017.01.24  12:46:32
 running on    4 nodes
 distr:  one band on    1 nodes,    4 groups


--------------------------------------------------------------------------------------------------------


 INCAR:
 POTCAR:   PAW_PBE Ag 06Sep2000                   
 POTCAR:   PAW_PBE Ag 06Sep2000                   
   VRHFIN =Ag : s1 d10                                                          
   LEXCH  = PE                                                                  
   EATOM  =  1037.4134 eV,   76.2477 Ry                                         
                                                                                
   TITEL  = PAW_PBE Ag 06Sep2000                                                
   LULTRA =        F    use ultrasoft PP ?                                      
   IUNSCR =        1    unscreen: 0-lin 1-nonlin 2-no                           
   RPACOR =    2.000    partial core radius                                     
   POMASS =  107.868; ZVAL   =   11.000    mass and valenz                      
   RCORE  =    2.400    outmost cutoff radius                                   
   RWIGS  =    2.840; RWIGS  =    1.503    wigner-seitz radius (au A)           
   ENMAX  =  249.846; ENMIN  =  187.385 eV                                      
   RCLOC  =    1.962    cutoff for local pot                                    
   LCOR   =        T    correct aug charges                                     
   LPAW   =        T    paw PP                                                  
   EAUG   =  412.496                                                            
   DEXC   =    -.047                                                            
   RMAX   =    2.917    core radius for proj-oper                               
   RAUG   =    1.300    factor for augmentation sphere                          
   RDEP   =    2.416    radius for radial grids                                 
   QCUT   =   -4.285; QGAM   =    8.570    optimization parameters              
                                                                                
   Description                                                                  
     l     E      TYP  RCUT    TYP  RCUT                                        
     2   .000     23  2.400                                                     
     2   .000     23  2.400                                                     
     0   .000     23  2.400                                                     
     0   .000     23  2.400                                                     
     1  -.200     23  2.400                                                     
     1  1.500     23  2.400                                                     
     3   .000      7   .000                                                     
  local pseudopotential read in
  partial core-charges read in
  atomic valenz-charges read in
  non local Contribution for L=           2  read in
    real space projection operators read in
  non local Contribution for L=           2  read in
    real space projection operators read in
  non local Contribution for L=           0  read in
    real space projection operators read in
  non local Contribution for L=           0  read in
    real space projection operators read in
  non local Contribution for L=           1  read in
    real space projection operators read in
  non local Contribution for L=           1  read in
    real space projection operators read in
    PAW grid and wavefunctions read in
 
   number of l-projection  operators is LMAX  =           6
   number of lm-projection operators is LMMAX =          18
 

 ----------------------------------------------------------------------------- 
|                                                                             |
|  ADVICE TO THIS USER RUNNING 'VASP/VAMP'   (HEAR YOUR MASTER'S VOICE ...):  |
|                                                                             |
|      You have a (more or less) 'large supercell' and for larger cells       |
|      it might be more efficient to use real space projection operators      |
|      So try LREAL= Auto  in the INCAR   file.                               |
|      Mind: If you want to do an extremely accurate calculations keep the    |
|      reciprocal projection scheme          (i.e. LREAL=.FALSE.)             |
|                                                                             |
 ----------------------------------------------------------------------------- 

 PAW_PBE Ag 06Sep2000                   :
 energy of atom  1       EATOM=-1037.4134
 kinetic energy error for atom=    0.0019 (will be added to EATOM!!)
 
 EXHCAR: internal setup
 exchange correlation table for  LEXCH =        8
   RHO(1)=    0.500       N(1)  =     2000
   RHO(2)=  100.500       N(2)  =     4000
 
 POSCAR: No title                                
  positions in direct lattice
  No initial velocities read in
 


--------------------------------------------------------------------------------------------------------


 ion  position               nearest neighbor table
   1  0.750  0.750  0.500-   3 2.93  14 2.93  19 2.93  20 2.93   5 2.93  26 2.93   6 2.93  29 2.93
                            11 2.93  18 2.93  10 2.93   8 2.93
   2  0.750  0.750  0.000-   8 2.93  10 2.93  22 2.93  27 2.93  11 2.93  18 2.93  12 2.93  32 2.93
                             5 2.93  26 2.93   3 2.93  20 2.93
   3  0.750  0.000  0.250-   1 2.93   5 2.93   9 2.93  28 2.93  19 2.93  12 2.93  13 2.93  18 2.93
                            27 2.93   6 2.93   4 2.93   2 2.93
   4  0.750  0.250  0.500-   6 2.93   8 2.93  10 2.93  29 2.93  13 2.93  31 2.93  14 2.93  19 2.93
                            21 2.93  28 2.93   3 2.93  20 2.93
   5  0.000  0.750  0.250-   3 2.93  12 2.93  14 2.93  25 2.93  15 2.93   1 2.93  16 2.93  10 2.93
                             2 2.93   7 2.93  22 2.93   6 2.93
   6  0.000  0.000  0.500-   4 2.93   7 2.93  11 2.93  13 2.93   8 2.93  16 2.93   1 2.93  17 2.93
                             3 2.93  23 2.93  21 2.93   5 2.93
   7  0.250  0.750  0.500-   6 2.93  16 2.93  29 2.93  30 2.93  11 2.93  18 2.93  14 2.93  19 2.93
                             5 2.93  26 2.93  25 2.93  23 2.93
   8  0.750  0.000  0.750-   2 2.93   4 2.93  11 2.93  31 2.93  27 2.93   6 2.93  21 2.93  26 2.93
                            12 2.93  19 2.93   9 2.93   1 2.93
   9  0.750  0.250  0.000-   3 2.93  12 2.93  20 2.93  32 2.93  28 2.93  21 2.93  22 2.93  27 2.93
                            31 2.93  13 2.93  10 2.93   8 2.93
  10  0.750  0.500  0.250-   2 2.93   4 2.93  13 2.93  18 2.93  22 2.93  29 2.93  28 2.93   5 2.93
                            14 2.93  32 2.93   9 2.93   1 2.93
  11  0.000  0.750  0.750-   6 2.93   8 2.93  22 2.93  30 2.93   7 2.93   2 2.93  23 2.93  20 2.93
                             1 2.93  15 2.93  14 2.93  12 2.93
  12  0.000  0.000  0.000-   5 2.93   9 2.93  15 2.93  21 2.93   3 2.93  23 2.93   2 2.93  24 2.93
                            16 2.93   8 2.93  13 2.93  11 2.93
  13  0.000  0.250  0.250-   6 2.93  10 2.93  16 2.93  22 2.93   4 2.93  24 2.93   3 2.93  25 2.93
                            17 2.93   9 2.93  14 2.93  12 2.93
  14  0.000  0.500  0.500-   1 2.93   5 2.93  17 2.93  21 2.93  20 2.93  25 2.93   4 2.93   7 2.93
                            10 2.93  30 2.93  13 2.93  11 2.93
  15  0.250  0.750  0.000-  12 2.93  23 2.93  25 2.93  32 2.93  26 2.93   5 2.93  27 2.93  22 2.93
                            11 2.93  18 2.93  30 2.93  16 2.93
  16  0.250  0.000  0.250-   7 2.93  13 2.93  18 2.93  24 2.93   6 2.93  27 2.93   5 2.93  28 2.93
                            19 2.93  12 2.93  17 2.93  15 2.93
  17  0.250  0.250  0.500-  14 2.93  19 2.93  23 2.93  25 2.93  21 2.93  28 2.93   6 2.93  29 2.93
                            13 2.93  31 2.93  30 2.93  16 2.93
  18  0.500  0.750  0.250-  10 2.93  16 2.93  27 2.93  29 2.93   2 2.93   7 2.93   3 2.93  25 2.93
                             1 2.93  15 2.93  19 2.93  32 2.93
  19  0.500  0.000  0.500-   1 2.93  17 2.93  26 2.93  28 2.93   3 2.93  23 2.93   4 2.93   7 2.93
                             8 2.93  16 2.93  18 2.93  31 2.93
  20  0.750  0.500  0.750-   1 2.93   9 2.93  21 2.93  26 2.93  14 2.93  32 2.93  31 2.93  11 2.93
                            22 2.93  29 2.93   4 2.93   2 2.93
  21  0.000  0.250  0.750-  12 2.93  14 2.93  20 2.93  23 2.93   9 2.93  17 2.93   8 2.93  30 2.93
                            24 2.93   4 2.93  22 2.93   6 2.93
  22  0.000  0.500  0.000-   2 2.93  11 2.93  13 2.93  24 2.93  10 2.93  30 2.93   9 2.93  15 2.93
                            25 2.93  20 2.93  21 2.93   5 2.93
  23  0.250  0.000  0.750-  15 2.93  17 2.93  21 2.93  26 2.93  12 2.93  19 2.93  11 2.93  31 2.93
                            27 2.93   6 2.93  24 2.93   7 2.93
  24  0.250  0.250  0.000-  16 2.93  22 2.93  27 2.93  30 2.93  13 2.93  31 2.93  12 2.93  32 2.93
                            28 2.93  21 2.93  25 2.93  23 2.93
  25  0.250  0.500  0.250-   5 2.93  15 2.93  17 2.93  28 2.93  14 2.93  32 2.93  13 2.93  18 2.93
                            29 2.93  22 2.93  24 2.93   7 2.93
  26  0.500  0.750  0.750-  19 2.93  20 2.93  23 2.93  32 2.93   1 2.93  15 2.93  30 2.93   8 2.93
                             7 2.93   2 2.93  27 2.93  29 2.93
  27  0.500  0.000  0.000-   2 2.93  18 2.93  24 2.93  31 2.93  16 2.93   8 2.93   9 2.93  15 2.93
                             3 2.93  23 2.93  28 2.93  26 2.93
  28  0.500  0.250  0.250-   3 2.93  19 2.93  25 2.93  32 2.93  17 2.93   9 2.93  10 2.93  16 2.93
                             4 2.93  24 2.93  29 2.93  27 2.93
  29  0.500  0.500  0.500-   4 2.93   7 2.93  18 2.93  31 2.93  30 2.93  10 2.93  17 2.93   1 2.93
                            20 2.93  25 2.93  26 2.93  28 2.93
  30  0.250  0.500  0.750-   7 2.93  11 2.93  24 2.93  31 2.93  29 2.93  22 2.93  21 2.93  26 2.93
                            14 2.93  32 2.93  17 2.93  15 2.93
  31  0.500  0.250  0.750-   8 2.93  27 2.93  29 2.93  30 2.93  24 2.93   4 2.93  20 2.93  23 2.93
                             9 2.93  17 2.93  19 2.93  32 2.93
  32  0.500  0.500  0.000-   9 2.93  15 2.93  26 2.93  28 2.93  20 2.93  25 2.93  24 2.93   2 2.93
                            10 2.93  30 2.93  18 2.93  31 2.93
 
  LATTYP: Found a simple cubic cell.
 ALAT       =     8.2866603400
  
  Lattice vectors:
  
 A1 = (   8.2866603400,   0.0000000000,   0.0000000000)
 A2 = (   0.0000001500,   8.2866603400,   0.0000000000)
 A3 = (   0.0000001500,   0.0000001500,   8.2866603400)
 Subroutine PRICEL returns following result:
 
  LATTYP: Found a face centered cubic cell.
 ALAT       =     4.1433302075
  
  Lattice vectors:
  
 A1 = (   2.0716651225,   2.0716650850,  -0.0000000000)
 A2 = (   2.0716650475,  -0.0000000375,  -2.0716650850)
 A3 = (   0.0000000000,   2.0716650475,  -2.0716650850)
 
  32 primitive cells build up your supercell.
 

Analysis of symmetry for initial positions (statically):

 Routine SETGRP: Setting up the symmetry group for a 
 simple cubic supercell.


 Subroutine GETGRP returns: Found 48 space group operations
 (whereof 48 operations were pure point group operations)
 out of a pool of 48 trial point group operations.


The static configuration has the point symmetry O_h .

Analysis of symmetry for dynamics (positions and initial velocities):

 Subroutine DYNSYM returns: Found 48 space group operations
 (whereof 48 operations were pure point group operations)
 out of a pool of 48 trial space group operations
 (whereof 48 operations were pure point group operations)
 and found also    32 'primitive' translations


The dynamic configuration has the point symmetry O_h .
 
 
 KPOINTS: Automatic mesh                          

Automatic generation of k-mesh.
 
 Subroutine IBZKPT returns following result:
 ===========================================
 
 Found     20 irreducible k-points:
 
 Following reciprocal coordinates:
            Coordinates               Weight
  0.062500  0.062500  0.062500      8.000000
  0.187500  0.062500  0.062500     24.000000
  0.312500  0.062500  0.062500     24.000000
  0.437500  0.062500  0.062500     24.000000
  0.187500  0.187500  0.062500     24.000000
  0.312500  0.187500  0.062500     48.000000
  0.437500  0.187500  0.062500     48.000000
  0.312500  0.312500  0.062500     24.000000
  0.437500  0.312500  0.062500     48.000000
  0.437500  0.437500  0.062500     24.000000
  0.187500  0.187500  0.187500      8.000000
  0.312500  0.187500  0.187500     24.000000
  0.437500  0.187500  0.187500     24.000000
  0.312500  0.312500  0.187500     24.000000
  0.437500  0.312500  0.187500     48.000000
  0.437500  0.437500  0.187500     24.000000
  0.312500  0.312500  0.312500      8.000000
  0.437500  0.312500  0.312500     24.000000
  0.437500  0.437500  0.312500     24.000000
  0.437500  0.437500  0.437500      8.000000
 
 Following cartesian coordinates:
            Coordinates               Weight
  0.007542  0.007542  0.007542      8.000000
  0.022627  0.007542  0.007542     24.000000
  0.037711  0.007542  0.007542     24.000000
  0.052796  0.007542  0.007542     24.000000
  0.022627  0.022627  0.007542     24.000000
  0.037711  0.022627  0.007542     48.000000
  0.052796  0.022627  0.007542     48.000000
  0.037711  0.037711  0.007542     24.000000
  0.052796  0.037711  0.007542     48.000000
  0.052796  0.052796  0.007542     24.000000
  0.022627  0.022627  0.022627      8.000000
  0.037711  0.022627  0.022627     24.000000
  0.052796  0.022627  0.022627     24.000000
  0.037711  0.037711  0.022627     24.000000
  0.052796  0.037711  0.022627     48.000000
  0.052796  0.052796  0.022627     24.000000
  0.037711  0.037711  0.037711      8.000000
  0.052796  0.037711  0.037711     24.000000
  0.052796  0.052796  0.037711     24.000000
  0.052796  0.052796  0.052796      8.000000
 


--------------------------------------------------------------------------------------------------------




 Dimension of arrays:
   k-Points           NKPTS =     20   number of bands    NBANDS=    212
   number of dos      NEDOS =    301   number of ions     NIONS =     32
   non local maximal  LDIM  =      6   non local SUM 2l+1 LMDIM =     18
   total plane-waves  NPLWV = 343000
   max r-space proj   IRMAX =      1   max aug-charges    IRDMAX= 237273
   dimension x,y,z NGX =    70 NGY =   70 NGZ =   70
   dimension x,y,z NGXF=   140 NGYF=  140 NGZF=  140
   support grid    NGXF=   280 NGYF=  280 NGZF=  280
   ions per type =              32
 NGX,Y,Z   is equivalent  to a cutoff of  14.04, 14.04, 14.04 a.u.
 NGXF,Y,Z  is equivalent  to a cutoff of  28.09, 28.09, 28.09 a.u.


 I would recommend the setting:
   dimension x,y,z NGX =    66 NGY =   66 NGZ =   66
 SYSTEM =  No title                                
 POSCAR =  No title                                

 Startparameter for this run:
   NWRITE =      2    write-flag & timer
   PREC   = accura    medium, high low
   ISTART =      0    job   : 0-new  1-cont  2-samecut
   ICHARG =      2    charge: 1-file 2-atom 10-const
   ISPIN  =      1    spin polarized calculation?
   LNONCOLLINEAR =      F non collinear calculations
   LSORBIT =      F    spin-orbit coupling
   INIWAV =      1    electr: 0-lowe 1-rand  2-diag
   LASPH  =      F    aspherical Exc in radial PAW
   METAGGA=      F    non-selfconsistent MetaGGA calc.

 Electronic Relaxation 1
   ENCUT  =  600.0 eV  44.10 Ry    6.64 a.u.  16.55 16.55 16.55*2*pi/ulx,y,z
   ENINI  =  600.0     initial cutoff
   ENAUG  =  412.5 eV  augmentation charge cutoff
   NELM   =     60;   NELMIN=  2; NELMDL=-12     # of ELM steps 
   EDIFF  = 0.1E-04   stopping-criterion for ELM
   LREAL  =      F    real-space projection
   LCOMPAT=      F    compatible to vasp.4.4
   LREAL_COMPAT= F    compatible to vasp.4.5.1-3
   GGA_COMPAT  = T    GGA compatible to vasp.4.4-vasp.4.6
   LMAXPAW     = -100 max onsite density
   LMAXMIX     =    2 max onsite mixed and CHGCAR
   VOSKOWN=      1    Vosko Wilk Nusair interpolation
   ROPT   =    0.00000
 Ionic relaxation
   EDIFFG = -.2E-01   stopping-criterion for IOM
   NSW    =    100    number of steps for IOM
   NBLOCK =      1;   KBLOCK =    100    inner block; outer block 
   IBRION =      2    ionic relax: 0-MD 1-quasi-New 2-CG
   NFREE  =      1    steps in history (QN), initial steepest desc. (CG)
   ISIF   =      2    stress and relaxation
   IWAVPR =     11    prediction:  0-non 1-charg 2-wave 3-comb
   ISYM   =      2    0-nonsym 1-usesym 2-fastsym
   LCORR  =      T    Harris-Foulkes like correction to forces

   POTIM  =   0.50    time-step for ionic-motion
   TEIN   =    0.0    initial temperature
   TEBEG  =    0.0;   TEEND  =   0.0 temperature during run
   SMASS  =  -3.00    Nose mass-parameter (am)
   estimated Nose-frequenzy (Omega)   =  0.10E-29 period in steps =****** mass=  -0.157E-26a.u.
   NPACO  =    256;   APACO  = 16.0  distance and # of slots for P.C.
   PSTRESS=    0.0 pullay stress

  Mass of Ions in am
   POMASS = 107.87
  Ionic Valenz
   ZVAL   =  11.00
  Atomic Wigner-Seitz radii
   RWIGS  =   1.34
   NELECT =     352.0000    total number of electrons
   NUPDOWN=      -1.0000    fix difference up-down

 DOS related values:
   EMIN   =  10.00;   EMAX   =-10.00  energy-range for DOS
   ISMEAR =     1;   SIGMA  =   0.20  broadening in eV -4-tet -1-fermi 0-gaus

 Electronic relaxation 2 (details)
   IALGO  =     48    algorithm
   LDIAG  =      T    sub-space diagonalisation
   IMIX   =      4    mixing-type and parameters
     AMIX     =   0.40;   BMIX     =  1.00
     AMIX_MAG =   1.60;   BMIX_MAG =  1.00
     AMIN     =   0.10
     WC   =   100.;   INIMIX=   1;  MIXPRE=   1

 Intra band minimization:
   WEIMIN = 0.0010     energy-eigenvalue tresh-hold
   EBREAK =  0.12E-07  absolut break condition
   DEPER  =   0.30     relativ break condition  

   TIME   =   0.10     timestep for ELM

  volume/ion in A,a.u.               =      17.78       120.00
  Fermi-wavevector in a.u.,eV,Ry     =   1.394899 26.473454  1.945744

 Second variation
   LSECVAR=     F    do a second variation
 
 Write flags
   LWAVE  =      T    write WAVECAR
   LCHARG =      F    write CHGCAR
   LVTOT  =      F    write LOCPOT, local potential
   LELF   =      F    write electronic localiz. function (ELF)
   LORBIT =      0    0 simple, 1 ext, 2 COOP (PROOUT)


 Dipole corrections
   IDIPOL =      0    1-x, 2-y, 3-z
   LDIPOL =      F    correct potential



--------------------------------------------------------------------------------------------------------


 conjugate gradient relaxation of ions
 charge density will be updated during run
 non-spin polarized calculation
 RMM-DIIS sequential band-by-band
 performe sub-space diagonalisation
    before iterative eigenvector-optimisation
 modified Broyden-mixing scheme, WC =      100.0
 initial mixing is a Kerker type mixing with AMIX =  0.4000 and BMIX =      1.0000
 Hartree-type preconditioning will be used
 using additional bands           36
 reciprocal scheme for non local part
 use partial core corrections
 calculate Harris-corrections to forces 
   (improved forces if not selfconsistent)
 use gradient corrections 
 use of overlap-Matrix (Vanderbilt PP)
 Methfessel and Paxton  Order N= 1 SIGMA  =   0.20


--------------------------------------------------------------------------------------------------------


  energy-cutoff  :      600.00
  volume of cell :      569.03
      direct lattice vectors                 reciprocal lattice vectors
     8.286660340  0.000000000  0.000000000     0.120675877 -0.000000002 -0.000000002
     0.000000150  8.286660340  0.000000000     0.000000000  0.120675877 -0.000000002
     0.000000150  0.000000150  8.286660340     0.000000000  0.000000000  0.120675877

  length of vectors
     8.286660340  8.286660340  8.286660340     0.120675877  0.120675877  0.120675877


 
 k-points in units of 2pi/SCALE and weight: Automatic mesh                          
   0.00754224  0.00754224  0.00754224       0.016
   0.02262673  0.00754224  0.00754224       0.047
   0.03771121  0.00754224  0.00754224       0.047
   0.05279570  0.00754224  0.00754224       0.047
   0.02262673  0.02262673  0.00754224       0.047
   0.03771121  0.02262673  0.00754224       0.094
   0.05279570  0.02262673  0.00754224       0.094
   0.03771121  0.03771121  0.00754224       0.047
   0.05279570  0.03771121  0.00754224       0.094
   0.05279570  0.05279570  0.00754224       0.047
   0.02262673  0.02262673  0.02262673       0.016
   0.03771121  0.02262673  0.02262673       0.047
   0.05279570  0.02262673  0.02262673       0.047
   0.03771121  0.03771121  0.02262673       0.047
   0.05279570  0.03771121  0.02262673       0.094
   0.05279570  0.05279570  0.02262672       0.047
   0.03771121  0.03771121  0.03771121       0.016
   0.05279570  0.03771121  0.03771121       0.047
   0.05279570  0.05279570  0.03771121       0.047
   0.05279570  0.05279570  0.05279569       0.016
 
 k-points in reciprocal lattice and weights: Automatic mesh                          
   0.06250000  0.06250000  0.06250000       0.016
   0.18750000  0.06250000  0.06250000       0.047
   0.31250000  0.06250000  0.06250000       0.047
   0.43750000  0.06250000  0.06250000       0.047
   0.18750000  0.18750000  0.06250000       0.047
   0.31250000  0.18750000  0.06250000       0.094
   0.43750000  0.18750000  0.06250000       0.094
   0.31250000  0.31250000  0.06250000       0.047
   0.43750000  0.31250000  0.06250000       0.094
   0.43750000  0.43750000  0.06250000       0.047
   0.18750000  0.18750000  0.18750000       0.016
   0.31250000  0.18750000  0.18750000       0.047
   0.43750000  0.18750000  0.18750000       0.047
   0.31250000  0.31250000  0.18750000       0.047
   0.43750000  0.31250000  0.18750000       0.094
   0.43750000  0.43750000  0.18750000       0.047
   0.31250000  0.31250000  0.31250000       0.016
   0.43750000  0.31250000  0.31250000       0.047
   0.43750000  0.43750000  0.31250000       0.047
   0.43750000  0.43750000  0.43750000       0.016
 
 position of ions in fractional coordinates (direct lattice) 
   0.75000000  0.75000000  0.50000000
   0.75000000  0.75000000  0.00000000
   0.75000000  0.00000000  0.25000000
   0.75000000  0.25000000  0.50000000
   0.00000000  0.75000000  0.25000000
   0.00000000  0.00000000  0.50000000
   0.25000000  0.75000000  0.50000000
   0.75000000  0.00000000  0.75000000
   0.75000000  0.25000000  0.00000000
   0.75000000  0.50000000  0.25000000
   0.00000000  0.75000000  0.75000000
   0.00000000  0.00000000  0.00000000
   0.00000000  0.25000000  0.25000000
   0.00000000  0.50000000  0.50000000
   0.25000000  0.75000000  0.00000000
   0.25000000  0.00000000  0.25000000
   0.25000000  0.25000000  0.50000000
   0.50000000  0.75000000  0.25000000
   0.50000000  0.00000000  0.50000000
   0.75000000  0.50000000  0.75000000
   0.00000000  0.25000000  0.75000000
   0.00000000  0.50000000  0.00000000
   0.25000000  0.00000000  0.75000000
   0.25000000  0.25000000  0.00000000
   0.25000000  0.50000000  0.25000000
   0.50000000  0.75000000  0.75000000
   0.50000000  0.00000000  0.00000000
   0.50000000  0.25000000  0.25000000
   0.50000000  0.50000000  0.50000000
   0.25000000  0.50000000  0.75000000
   0.50000000  0.25000000  0.75000000
   0.50000000  0.50000000  0.00000000
 
 position of ions in cartesian coordinates  (Angst):
   6.21499544  6.21499533  4.14333017
   6.21499537  6.21499525  0.00000000
   6.21499529  0.00000004  2.07166508
   6.21499537  2.07166516  4.14333017
   0.00000015  6.21499529  2.07166508
   0.00000007  0.00000007  4.14333017
   2.07166527  6.21499533  4.14333017
   6.21499537  0.00000011  6.21499525
   6.21499529  2.07166508  0.00000000
   6.21499537  4.14333021  2.07166508
   0.00000022  6.21499537  6.21499525
   0.00000000  0.00000000  0.00000000
   0.00000007  2.07166512  2.07166508
   0.00000015  4.14333024  4.14333017
   2.07166520  6.21499525  0.00000000
   2.07166512  0.00000004  2.07166508
   2.07166520  2.07166516  4.14333017
   4.14333032  6.21499529  2.07166508
   4.14333024  0.00000007  4.14333017
   6.21499544  4.14333028  6.21499525
   0.00000015  2.07166520  6.21499525
   0.00000007  4.14333017  0.00000000
   2.07166520  0.00000011  6.21499525
   2.07166512  2.07166508  0.00000000
   2.07166520  4.14333021  2.07166508
   4.14333040  6.21499537  6.21499525
   4.14333017  0.00000000  0.00000000
   4.14333025  2.07166512  2.07166508
   4.14333032  4.14333024  4.14333017
   2.07166527  4.14333028  6.21499525
   4.14333032  2.07166520  6.21499525
   4.14333024  4.14333017  0.00000000
 


--------------------------------------------------------------------------------------------------------


 k-point  1 :  0.06250.06250.0625  plane waves:  19051
 k-point  2 :  0.18750.06250.0625  plane waves:  19019
 k-point  3 :  0.31250.06250.0625  plane waves:  18985
 k-point  4 :  0.43750.06250.0625  plane waves:  18972
 k-point  5 :  0.18750.18750.0625  plane waves:  19014
 k-point  6 :  0.31250.18750.0625  plane waves:  19012
 k-point  7 :  0.43750.18750.0625  plane waves:  18967
 k-point  8 :  0.31250.31250.0625  plane waves:  18997
 k-point  9 :  0.43750.31250.0625  plane waves:  18998
 k-point 10 :  0.43750.43750.0625  plane waves:  18986
 k-point 11 :  0.18750.18750.1875  plane waves:  19012
 k-point 12 :  0.31250.18750.1875  plane waves:  19008
 k-point 13 :  0.43750.18750.1875  plane waves:  18997
 k-point 14 :  0.31250.31250.1875  plane waves:  18987
 k-point 15 :  0.43750.31250.1875  plane waves:  18966
 k-point 16 :  0.43750.43750.1875  plane waves:  18972
 k-point 17 :  0.31250.31250.3125  plane waves:  18937
 k-point 18 :  0.43750.31250.3125  plane waves:  18983
 k-point 19 :  0.43750.43750.3125  plane waves:  18989
 k-point 20 :  0.43750.43750.4375  plane waves:  18988

 maximum and minimum number of plane-waves per node :  19051 18937

 maximum number of plane-waves:  19051
 maximal index in each direction: 
   IXMAX= 16   IYMAX= 16   IZMAX= 16
   IXMIN=-16   IYMIN=-16   IZMIN=-16

 NGX is ok and might be reduce to  66
 NGY is ok and might be reduce to  66
 NGZ is ok and might be reduce to  66

 parallel 3dFFT wavefunction:
    minimum data exchange during FFTs selected (reduces bandwidth)
 parallel 3dFFT charge:
    minimum data exchange during FFTs selected (reduces bandwidth)

 For storing wavefunctions 1288.42 MBYTES are necessary
 For predicting wavefunctions  139.98 MBYTES are necessary
Broyden mixing: mesh for mixing (old mesh)
   NGX = 33   NGY = 33   NGZ = 33
  (NGX  =140   NGY  =140   NGZ  =140)
 gives a total of  35937 points
 initial charge density was supplied:
 charge density of overlapping atoms calculated
 number of electron  352.0000000 magnetization 
 keeping initial charge density in first step


--------------------------------------------------------------------------------------------------------


 Maximum index for augmentation-charges        57579 (set IRDMAX)


--------------------------------------------------------------------------------------------------------


 First call to EWALD:  gamma=   0.214
 Maximum number of real-space cells 3x 3x 3
 Maximum number of reciprocal cells 3x 3x 3

    FEWALD:  VPU time    0.00: CPU time    0.00


----------------------------------------- Iteration    1(   1)  ---------------------------------------


    POTLOK:  VPU time    0.46: CPU time    0.46
    SETDIJ:  VPU time    0.58: CPU time    0.58
    EDDIAG:  VPU time   15.87: CPU time   15.86
  RMM-DIIS:  VPU time   43.92: CPU time   43.90
    ORTHCH:  VPU time    2.01: CPU time    2.01
    DOS   :  VPU time    0.00: CPU time   -0.00
    ------------------------------------------
      LOOP:  VPU time   62.87: CPU time   62.84

 eigenvalue-minimisations  :  4240
 total energy-change (2. order) : 0.3892283E+04  (-0.1683101E+05)
 number of electron  352.0000000 magnetization 
 augmentation part   352.0000000 magnetization 

 Free energy of the ion-electron system (eV)
  ---------------------------------------------------
  alpha Z        PSCENC =      3195.58069490
  Ewald energy   TEWEN  =    -30848.79541829
  -1/2 Hartree   DENC   =     -6689.64969605
  -V(xc)+E(xc)   XCENC  =      -345.95261739
  PAW double counting   =     27861.41421209   -26376.63839568
  entropy T*S    EENTRO =        -0.00035391
  eigenvalues    EBANDS =      3899.15672918
  atomic energy  EATOM  =     33197.16788402
  ---------------------------------------------------
  free energy    TOTEN  =      3892.28303887 eV

  energy without entropy =     3892.28339278  energy(sigma->0) =     3892.28315684


--------------------------------------------------------------------------------------------------------




----------------------------------------- Iteration    1(   2)  ---------------------------------------


    EDDIAG:  VPU time   16.05: CPU time   16.05
  RMM-DIIS:  VPU time   44.33: CPU time   44.31
    ORTHCH:  VPU time    2.02: CPU time    2.02
    DOS   :  VPU time    0.00: CPU time   -0.00
    ------------------------------------------
      LOOP:  VPU time   62.43: CPU time   62.41

 eigenvalue-minimisations  :  4240
 total energy-change (2. order) :-0.3116766E+04  (-0.3524735E+04)
 number of electron  352.0000000 magnetization 
 augmentation part   352.0000000 magnetization 

 Free energy of the ion-electron system (eV)
  ---------------------------------------------------
  alpha Z        PSCENC =      3195.58069490
  Ewald energy   TEWEN  =    -30848.79541829
  -1/2 Hartree   DENC   =     -6689.64969605
  -V(xc)+E(xc)   XCENC  =      -345.95261739
  PAW double counting   =     27861.41421209   -26376.63839568
  entropy T*S    EENTRO =         0.01116912
  eigenvalues    EBANDS =       782.37964969
  atomic energy  EATOM  =     33197.16788402
  ---------------------------------------------------
  free energy    TOTEN  =       775.51748241 eV

  energy without entropy =      775.50631329  energy(sigma->0) =      775.51375937


--------------------------------------------------------------------------------------------------------




----------------------------------------- Iteration    1(   3)  ---------------------------------------


    EDDIAG:  VPU time   15.85: CPU time   15.85
  RMM-DIIS:  VPU time   44.25: CPU time   44.23
    ORTHCH:  VPU time    2.03: CPU time    2.03
    DOS   :  VPU time    0.00: CPU time   -0.00
    ------------------------------------------
      LOOP:  VPU time   62.17: CPU time   62.14

 eigenvalue-minimisations  :  4240
 total energy-change (2. order) :-0.6300185E+03  (-0.6872461E+03)
 number of electron  352.0000000 magnetization 
 augmentation part   352.0000000 magnetization 

 Free energy of the ion-electron system (eV)
  ---------------------------------------------------
  alpha Z        PSCENC =      3195.58069490
  Ewald energy   TEWEN  =    -30848.79541829
  -1/2 Hartree   DENC   =     -6689.64969605
  -V(xc)+E(xc)   XCENC  =      -345.95261739
  PAW double counting   =     27861.41421209   -26376.63839568
  entropy T*S    EENTRO =        -0.00132182
  eigenvalues    EBANDS =       152.37362869
  atomic energy  EATOM  =     33197.16788402
  ---------------------------------------------------
  free energy    TOTEN  =       145.49897046 eV

  energy without entropy =      145.50029228  energy(sigma->0) =      145.49941107


--------------------------------------------------------------------------------------------------------




----------------------------------------- Iteration    1(   4)  ---------------------------------------


    EDDIAG:  VPU time   15.90: CPU time   15.90
  RMM-DIIS:  VPU time   44.73: CPU time   44.71
    ORTHCH:  VPU time    2.00: CPU time    2.00
    DOS   :  VPU time    0.00: CPU time   -0.00
    ------------------------------------------
      LOOP:  VPU time   62.66: CPU time   62.63

 eigenvalue-minimisations  :  4240
 total energy-change (2. order) :-0.1770638E+03  (-0.1296383E+03)
 number of electron  352.0000000 magnetization 
 augmentation part   352.0000000 magnetization 

 Free energy of the ion-electron system (eV)
  ---------------------------------------------------
  alpha Z        PSCENC =      3195.58069490
  Ewald energy   TEWEN  =    -30848.79541829
  -1/2 Hartree   DENC   =     -6689.64969605
  -V(xc)+E(xc)   XCENC  =      -345.95261739
  PAW double counting   =     27861.41421209   -26376.63839568
  entropy T*S    EENTRO =        -0.02410749
  eigenvalues    EBANDS =       -24.66735861
  atomic energy  EATOM  =     33197.16788402
  ---------------------------------------------------
  free energy    TOTEN  =       -31.56480250 eV

  energy without entropy =      -31.54069501  energy(sigma->0) =      -31.55676667


--------------------------------------------------------------------------------------------------------




----------------------------------------- Iteration    1(   5)  ---------------------------------------


    EDDIAG:  VPU time   15.79: CPU time   15.78
  RMM-DIIS:  VPU time   44.74: CPU time   44.72
    ORTHCH:  VPU time    2.03: CPU time    2.03
    DOS   :  VPU time    0.00: CPU time   -0.00
    ------------------------------------------
      LOOP:  VPU time   62.59: CPU time   62.56

 eigenvalue-minimisations  :  4240
 total energy-change (2. order) :-0.5449849E+02  (-0.3204461E+02)
 number of electron  352.0000000 magnetization 
 augmentation part   352.0000000 magnetization 

 Free energy of the ion-electron system (eV)
  ---------------------------------------------------
  alpha Z        PSCENC =      3195.58069490
  Ewald energy   TEWEN  =    -30848.79541829
  -1/2 Hartree   DENC   =     -6689.64969605
  -V(xc)+E(xc)   XCENC  =      -345.95261739
  PAW double counting   =     27861.41421209   -26376.63839568
  entropy T*S    EENTRO =         0.01465610
  eigenvalues    EBANDS =       -79.20461398
  atomic energy  EATOM  =     33197.16788402
  ---------------------------------------------------
  free energy    TOTEN  =       -86.06329429 eV

  energy without entropy =      -86.07795038  energy(sigma->0) =      -86.06817965


--------------------------------------------------------------------------------------------------------




----------------------------------------- Iteration    1(   6)  ---------------------------------------


    EDDIAG:  VPU time   15.97: CPU time   15.96
  RMM-DIIS:  VPU time   44.15: CPU time   44.13
    ORTHCH:  VPU time    2.03: CPU time    2.03
    DOS   :  VPU time    0.00: CPU time   -0.00
    ------------------------------------------
      LOOP:  VPU time   62.17: CPU time   62.15

 eigenvalue-minimisations  :  4240
 total energy-change (2. order) :-0.9240801E+01  (-0.7002810E+01)
 number of electron  352.0000000 magnetization 
 augmentation part   352.0000000 magnetization 

 Free energy of the ion-electron system (eV)
  ---------------------------------------------------
  alpha Z        PSCENC =      3195.58069490
  Ewald energy   TEWEN  =    -30848.79541829
  -1/2 Hartree   DENC   =     -6689.64969605
  -V(xc)+E(xc)   XCENC  =      -345.95261739
  PAW double counting   =     27861.41421209   -26376.63839568
  entropy T*S    EENTRO =         0.00339196
  eigenvalues    EBANDS =       -88.43415036
  atomic energy  EATOM  =     33197.16788402
  ---------------------------------------------------
  free energy    TOTEN  =       -95.30409481 eV

  energy without entropy =      -95.30748677  energy(sigma->0) =      -95.30522546


--------------------------------------------------------------------------------------------------------




----------------------------------------- Iteration    1(   7)  ---------------------------------------


    EDDIAG:  VPU time   16.00: CPU time   16.00
  RMM-DIIS:  VPU time   44.59: CPU time   44.58
    ORTHCH:  VPU time    2.03: CPU time    2.03
    DOS   :  VPU time    0.00: CPU time   -0.00
    ------------------------------------------
      LOOP:  VPU time   62.65: CPU time   62.64

 eigenvalue-minimisations  :  4240
 total energy-change (2. order) :-0.1871342E+01  (-0.1599114E+01)
 number of electron  352.0000000 magnetization 
 augmentation part   352.0000000 magnetization 

 Free energy of the ion-electron system (eV)
  ---------------------------------------------------
  alpha Z        PSCENC =      3195.58069490
  Ewald energy   TEWEN  =    -30848.79541829
  -1/2 Hartree   DENC   =     -6689.64969605
  -V(xc)+E(xc)   XCENC  =      -345.95261739
  PAW double counting   =     27861.41421209   -26376.63839568
  entropy T*S    EENTRO =         0.00205218
  eigenvalues    EBANDS =       -90.30415217
  atomic energy  EATOM  =     33197.16788402
  ---------------------------------------------------
  free energy    TOTEN  =       -97.17543640 eV

  energy without entropy =      -97.17748858  energy(sigma->0) =      -97.17612046


--------------------------------------------------------------------------------------------------------




----------------------------------------- Iteration    1(   8)  ---------------------------------------


    EDDIAG:  VPU time   15.68: CPU time   15.68
  RMM-DIIS:  VPU time   44.37: CPU time   44.35
    ORTHCH:  VPU time    2.03: CPU time    2.03
    DOS   :  VPU time    0.00: CPU time   -0.00
    ------------------------------------------
      LOOP:  VPU time   62.12: CPU time   62.09

 eigenvalue-minimisations  :  4240
 total energy-change (2. order) :-0.4007982E+00  (-0.3736426E+00)
 number of electron  352.0000000 magnetization 
 augmentation part   352.0000000 magnetization 

 Free energy of the ion-electron system (eV)
  ---------------------------------------------------
  alpha Z        PSCENC =      3195.58069490
  Ewald energy   TEWEN  =    -30848.79541829
  -1/2 Hartree   DENC   =     -6689.64969605
  -V(xc)+E(xc)   XCENC  =      -345.95261739
  PAW double counting   =     27861.41421209   -26376.63839568
  entropy T*S    EENTRO =         0.00168196
  eigenvalues    EBANDS =       -90.70458017
  atomic energy  EATOM  =     33197.16788402
  ---------------------------------------------------
  free energy    TOTEN  =       -97.57623461 eV

  energy without entropy =      -97.57791657  energy(sigma->0) =      -97.57679526


--------------------------------------------------------------------------------------------------------




----------------------------------------- Iteration    1(   9)  ---------------------------------------


    EDDIAG:  VPU time   15.96: CPU time   15.96
  RMM-DIIS:  VPU time   79.39: CPU time   79.36
    ORTHCH:  VPU time    2.03: CPU time    2.03
    DOS   :  VPU time    0.00: CPU time   -0.00
    ------------------------------------------
      LOOP:  VPU time   97.41: CPU time   97.37

 eigenvalue-minimisations  :  8477
 total energy-change (2. order) :-0.1180790E+00  (-0.1115673E+00)
 number of electron  352.0000000 magnetization 
 augmentation part   352.0000000 magnetization 

 Free energy of the ion-electron system (eV)
  ---------------------------------------------------
  alpha Z        PSCENC =      3195.58069490
  Ewald energy   TEWEN  =    -30848.79541829
  -1/2 Hartree   DENC   =     -6689.64969605
  -V(xc)+E(xc)   XCENC  =      -345.95261739
  PAW double counting   =     27861.41421209   -26376.63839568
  entropy T*S    EENTRO =         0.00154648
  eigenvalues    EBANDS =       -90.82252364
  atomic energy  EATOM  =     33197.16788402
  ---------------------------------------------------
  free energy    TOTEN  =       -97.69431357 eV

  energy without entropy =      -97.69586004  energy(sigma->0) =      -97.69482906


--------------------------------------------------------------------------------------------------------




----------------------------------------- Iteration    1(  10)  ---------------------------------------


    EDDIAG:  VPU time   15.88: CPU time   15.88
  RMM-DIIS:  VPU time   79.57: CPU time   79.54
    ORTHCH:  VPU time    2.03: CPU time    2.03
    DOS   :  VPU time    0.00: CPU time   -0.00
    ------------------------------------------
      LOOP:  VPU time   97.52: CPU time   97.48

 eigenvalue-minimisations  :  8453
 total energy-change (2. order) :-0.9234308E-02  (-0.8607499E-02)
 number of electron  352.0000000 magnetization 
 augmentation part   352.0000000 magnetization 

 Free energy of the ion-electron system (eV)
  ---------------------------------------------------
  alpha Z        PSCENC =      3195.58069490
  Ewald energy   TEWEN  =    -30848.79541829
  -1/2 Hartree   DENC   =     -6689.64969605
  -V(xc)+E(xc)   XCENC  =      -345.95261739
  PAW double counting   =     27861.41421209   -26376.63839568
  entropy T*S    EENTRO =         0.00153609
  eigenvalues    EBANDS =       -90.83174756
  atomic energy  EATOM  =     33197.16788402
  ---------------------------------------------------
  free energy    TOTEN  =       -97.70354788 eV

  energy without entropy =      -97.70508396  energy(sigma->0) =      -97.70405990


--------------------------------------------------------------------------------------------------------




----------------------------------------- Iteration    1(  11)  ---------------------------------------


    EDDIAG:  VPU time   15.84: CPU time   15.83
  RMM-DIIS:  VPU time   75.07: CPU time   75.04
    ORTHCH:  VPU time    2.03: CPU time    2.03
    DOS   :  VPU time    0.00: CPU time   -0.00
    ------------------------------------------
      LOOP:  VPU time   92.98: CPU time   92.94

 eigenvalue-minimisations  :  7864
 total energy-change (2. order) :-0.3414179E-03  (-0.3063634E-03)
 number of electron  352.0000000 magnetization 
 augmentation part   352.0000000 magnetization 

 Free energy of the ion-electron system (eV)
  ---------------------------------------------------
  alpha Z        PSCENC =      3195.58069490
  Ewald energy   TEWEN  =    -30848.79541829
  -1/2 Hartree   DENC   =     -6689.64969605
  -V(xc)+E(xc)   XCENC  =      -345.95261739
  PAW double counting   =     27861.41421209   -26376.63839568
  entropy T*S    EENTRO =         0.00153563
  eigenvalues    EBANDS =       -90.83208853
  atomic energy  EATOM  =     33197.16788402
  ---------------------------------------------------
  free energy    TOTEN  =       -97.70388929 eV

  energy without entropy =      -97.70542493  energy(sigma->0) =      -97.70440117


--------------------------------------------------------------------------------------------------------




----------------------------------------- Iteration    1(  12)  ---------------------------------------


    EDDIAG:  VPU time   15.78: CPU time   15.78
  RMM-DIIS:  VPU time   63.63: CPU time   63.60
    ORTHCH:  VPU time    2.03: CPU time    2.03
    DOS   :  VPU time    0.00: CPU time   -0.00
    CHARGE:  VPU time    7.22: CPU time    7.22
    MIXING:  VPU time    0.01: CPU time    0.01
    ------------------------------------------
      LOOP:  VPU time   88.72: CPU time   88.68

 eigenvalue-minimisations  :  6460
 total energy-change (2. order) :-0.2733424E-04  (-0.2625958E-04)
 number of electron  352.0000007 magnetization 
 augmentation part   163.0778388 magnetization 

 Broyden mixing:
  rms(total) = 0.16008E+01    rms(broyden)= 0.16008E+01
  rms(prec ) = 0.24212E+01
  weight for this iteration     100.00

 Free energy of the ion-electron system (eV)
  ---------------------------------------------------
  alpha Z        PSCENC =      3195.58069490
  Ewald energy   TEWEN  =    -30848.79541829
  -1/2 Hartree   DENC   =     -6689.64969605
  -V(xc)+E(xc)   XCENC  =      -345.95261739
  PAW double counting   =     27861.41421209   -26376.63839568
  entropy T*S    EENTRO =         0.00153559
  eigenvalues    EBANDS =       -90.83211581
  atomic energy  EATOM  =     33197.16788402
  ---------------------------------------------------
  free energy    TOTEN  =       -97.70391663 eV

  energy without entropy =      -97.70545221  energy(sigma->0) =      -97.70442849


--------------------------------------------------------------------------------------------------------




----------------------------------------- Iteration    1(  13)  ---------------------------------------


    POTLOK:  VPU time    0.45: CPU time    0.45
    SETDIJ:  VPU time    0.58: CPU time    0.58
    EDDIAG:  VPU time   15.29: CPU time   15.28
  RMM-DIIS:  VPU time   75.85: CPU time   75.82
    ORTHCH:  VPU time    2.01: CPU time    2.01
    DOS   :  VPU time    0.00: CPU time   -0.00
    CHARGE:  VPU time    7.18: CPU time    7.18
    MIXING:  VPU time    0.01: CPU time    0.01
    ------------------------------------------
      LOOP:  VPU time  101.41: CPU time  101.37

 eigenvalue-minimisations  :  8480
 total energy-change (2. order) : 0.6979188E+01  (-0.2650488E+01)
 number of electron  352.0000008 magnetization 
 augmentation part   168.4153115 magnetization 

 Broyden mixing:
  rms(total) = 0.29551E+00    rms(broyden)= 0.29551E+00
  rms(prec ) = 0.41838E+00
  weight for this iteration     100.00

 eigenvalues of (default mixing * dielectric matrix)
  average eigenvalue GAMMA=   1.0770
  1.0770

 Free energy of the ion-electron system (eV)
  ---------------------------------------------------
  alpha Z        PSCENC =      3195.58069490
  Ewald energy   TEWEN  =    -30848.79541829
  -1/2 Hartree   DENC   =     -6390.49830687
  -V(xc)+E(xc)   XCENC  =      -356.75013362
  PAW double counting   =     27482.35685906   -26022.84725163
  entropy T*S    EENTRO =        -0.01474051
  eigenvalues    EBANDS =      -346.92431521
  atomic energy  EATOM  =     33197.16788402
  ---------------------------------------------------
  free energy    TOTEN  =       -90.72472816 eV

  energy without entropy =      -90.70998764  energy(sigma->0) =      -90.71981465


--------------------------------------------------------------------------------------------------------




----------------------------------------- Iteration    1(  14)  ---------------------------------------


    POTLOK:  VPU time    0.45: CPU time    0.46
    SETDIJ:  VPU time    0.56: CPU time    0.56
    EDDIAG:  VPU time   15.23: CPU time   15.22
  RMM-DIIS:  VPU time   75.41: CPU time   75.38
    ORTHCH:  VPU time    1.97: CPU time    1.97
    DOS   :  VPU time    0.00: CPU time   -0.00
    CHARGE:  VPU time    6.20: CPU time    6.19
    MIXING:  VPU time    0.01: CPU time    0.01
    ------------------------------------------
      LOOP:  VPU time   99.87: CPU time   99.83

 eigenvalue-minimisations  :  8480
 total energy-change (2. order) : 0.2010865E+00  (-0.4575167E-01)
 number of electron  352.0000008 magnetization 
 augmentation part   168.8114175 magnetization 

 Broyden mixing:
  rms(total) = 0.14992E+00    rms(broyden)= 0.14992E+00
  rms(prec ) = 0.19260E+00
  weight for this iteration     100.00

 eigenvalues of (default mixing * dielectric matrix)
  average eigenvalue GAMMA=   1.7085
  1.0653  2.3517

 Free energy of the ion-electron system (eV)
  ---------------------------------------------------
  alpha Z        PSCENC =      3195.58069490
  Ewald energy   TEWEN  =    -30848.79541829
  -1/2 Hartree   DENC   =     -6344.86669404
  -V(xc)+E(xc)   XCENC  =      -358.49292129
  PAW double counting   =     27571.19052414   -26132.19688414
  entropy T*S    EENTRO =        -0.01457913
  eigenvalues    EBANDS =      -370.09624780
  atomic energy  EATOM  =     33197.16788402
  ---------------------------------------------------
  free energy    TOTEN  =       -90.52364163 eV

  energy without entropy =      -90.50906249  energy(sigma->0) =      -90.51878192


--------------------------------------------------------------------------------------------------------




----------------------------------------- Iteration    1(  15)  ---------------------------------------


    POTLOK:  VPU time    0.43: CPU time    0.43
    SETDIJ:  VPU time    0.53: CPU time    0.53
    EDDIAG:  VPU time   13.74: CPU time   13.73
  RMM-DIIS:  VPU time   71.83: CPU time   71.80
    ORTHCH:  VPU time    1.96: CPU time    1.96
    DOS   :  VPU time    0.00: CPU time   -0.00
    CHARGE:  VPU time    6.18: CPU time    6.18
    MIXING:  VPU time    0.01: CPU time    0.01
    ------------------------------------------
      LOOP:  VPU time   94.72: CPU time   94.68

 eigenvalue-minimisations  :  8480
 total energy-change (2. order) : 0.8807800E-01  (-0.3794808E-02)
 number of electron  352.0000008 magnetization 
 augmentation part   168.7709929 magnetization 

 Broyden mixing:
  rms(total) = 0.18186E-01    rms(broyden)= 0.18185E-01
  rms(prec ) = 0.27622E-01
  weight for this iteration     100.00

 eigenvalues of (default mixing * dielectric matrix)
  average eigenvalue GAMMA=   1.7361
  2.7884  1.0969  1.3230

 Free energy of the ion-electron system (eV)
  ---------------------------------------------------
  alpha Z        PSCENC =      3195.58069490
  Ewald energy   TEWEN  =    -30848.79541829
  -1/2 Hartree   DENC   =     -6314.25581800
  -V(xc)+E(xc)   XCENC  =      -359.71585200
  PAW double counting   =     27749.62625479   -26334.25187901
  entropy T*S    EENTRO =        -0.01455386
  eigenvalues    EBANDS =      -375.77687617
  atomic energy  EATOM  =     33197.16788402
  ---------------------------------------------------
  free energy    TOTEN  =       -90.43556363 eV

  energy without entropy =      -90.42100977  energy(sigma->0) =      -90.43071234


--------------------------------------------------------------------------------------------------------




----------------------------------------- Iteration    1(  16)  ---------------------------------------


    POTLOK:  VPU time    0.44: CPU time    0.44
    SETDIJ:  VPU time    0.53: CPU time    0.53
    EDDIAG:  VPU time   13.72: CPU time   13.72
  RMM-DIIS:  VPU time   71.74: CPU time   71.70
    ORTHCH:  VPU time    1.97: CPU time    1.97
    DOS   :  VPU time    0.00: CPU time   -0.00
    CHARGE:  VPU time    6.17: CPU time    6.17
    MIXING:  VPU time    0.01: CPU time    0.01
    ------------------------------------------
      LOOP:  VPU time   94.61: CPU time   94.57

 eigenvalue-minimisations  :  8480
 total energy-change (2. order) :-0.7783647E-03  (-0.5907482E-03)
 number of electron  352.0000008 magnetization 
 augmentation part   168.8468112 magnetization 

 Broyden mixing:
  rms(total) = 0.10280E-01    rms(broyden)= 0.10280E-01
  rms(prec ) = 0.14863E-01
  weight for this iteration     100.00

 eigenvalues of (default mixing * dielectric matrix)
  average eigenvalue GAMMA=   1.8233
  2.7658  2.4926  1.0174  1.0174

 Free energy of the ion-electron system (eV)
  ---------------------------------------------------
  alpha Z        PSCENC =      3195.58069490
  Ewald energy   TEWEN  =    -30848.79541829
  -1/2 Hartree   DENC   =     -6306.91022889
  -V(xc)+E(xc)   XCENC  =      -359.99655042
  PAW double counting   =     27771.19811214   -26357.92745617
  entropy T*S    EENTRO =        -0.01451922
  eigenvalues    EBANDS =      -380.73886006
  atomic energy  EATOM  =     33197.16788402
  ---------------------------------------------------
  free energy    TOTEN  =       -90.43634199 eV

  energy without entropy =      -90.42182277  energy(sigma->0) =      -90.43150225


--------------------------------------------------------------------------------------------------------




----------------------------------------- Iteration    1(  17)  ---------------------------------------


    POTLOK:  VPU time    0.44: CPU time    0.44
    SETDIJ:  VPU time    0.53: CPU time    0.53
    EDDIAG:  VPU time   13.73: CPU time   13.73
  RMM-DIIS:  VPU time   68.98: CPU time   68.95
    ORTHCH:  VPU time    1.94: CPU time    1.94
    DOS   :  VPU time    0.00: CPU time   -0.00
    CHARGE:  VPU time    5.69: CPU time    5.68
    MIXING:  VPU time    0.01: CPU time    0.01
    ------------------------------------------
      LOOP:  VPU time   91.35: CPU time   91.31

 eigenvalue-minimisations  :  8317
 total energy-change (2. order) : 0.5058451E-03  (-0.1342451E-04)
 number of electron  352.0000008 magnetization 
 augmentation part   168.8364019 magnetization 

 Broyden mixing:
  rms(total) = 0.23162E-02    rms(broyden)= 0.23162E-02
  rms(prec ) = 0.33787E-02
  weight for this iteration     100.00

 eigenvalues of (default mixing * dielectric matrix)
  average eigenvalue GAMMA=   1.7630
  2.8449  2.3645  1.0339  1.0339  1.5375

 Free energy of the ion-electron system (eV)
  ---------------------------------------------------
  alpha Z        PSCENC =      3195.58069490
  Ewald energy   TEWEN  =    -30848.79541829
  -1/2 Hartree   DENC   =     -6309.69275061
  -V(xc)+E(xc)   XCENC  =      -359.89852559
  PAW double counting   =     27772.00810115   -26357.00090236
  entropy T*S    EENTRO =        -0.01453929
  eigenvalues    EBANDS =      -379.79038008
  atomic energy  EATOM  =     33197.16788402
  ---------------------------------------------------
  free energy    TOTEN  =       -90.43583615 eV

  energy without entropy =      -90.42129686  energy(sigma->0) =      -90.43098972


--------------------------------------------------------------------------------------------------------




----------------------------------------- Iteration    1(  18)  ---------------------------------------


    POTLOK:  VPU time    0.41: CPU time    0.42
    SETDIJ:  VPU time    0.51: CPU time    0.51
    EDDIAG:  VPU time   12.72: CPU time   12.71
  RMM-DIIS:  VPU time   64.47: CPU time   64.44
    ORTHCH:  VPU time    1.95: CPU time    1.95
    DOS   :  VPU time    0.00: CPU time   -0.00
    CHARGE:  VPU time    5.92: CPU time    5.92
    MIXING:  VPU time    0.01: CPU time    0.01
    ------------------------------------------
      LOOP:  VPU time   86.02: CPU time   85.98

 eigenvalue-minimisations  :  7686
 total energy-change (2. order) : 0.1497195E-04  (-0.7121706E-05)
 number of electron  352.0000008 magnetization 
 augmentation part   168.8280206 magnetization 

 Broyden mixing:
  rms(total) = 0.23185E-03    rms(broyden)= 0.23180E-03
  rms(prec ) = 0.27831E-03
  weight for this iteration     100.00

 eigenvalues of (default mixing * dielectric matrix)
  average eigenvalue GAMMA=   1.8379
  2.7989  2.7989  2.3799  0.9628  1.0436  1.0436

 Free energy of the ion-electron system (eV)
  ---------------------------------------------------
  alpha Z        PSCENC =      3195.58069490
  Ewald energy   TEWEN  =    -30848.79541829
  -1/2 Hartree   DENC   =     -6310.11645075
  -V(xc)+E(xc)   XCENC  =      -359.88387792
  PAW double counting   =     27772.57187863   -26357.55925010
  entropy T*S    EENTRO =        -0.01454376
  eigenvalues    EBANDS =      -379.38673790
  atomic energy  EATOM  =     33197.16788402
  ---------------------------------------------------
  free energy    TOTEN  =       -90.43582117 eV

  energy without entropy =      -90.42127741  energy(sigma->0) =      -90.43097325


--------------------------------------------------------------------------------------------------------




----------------------------------------- Iteration    1(  19)  ---------------------------------------


    POTLOK:  VPU time    0.42: CPU time    0.42
    SETDIJ:  VPU time    0.52: CPU time    0.52
    EDDIAG:  VPU time   13.11: CPU time   13.11
  RMM-DIIS:  VPU time   40.22: CPU time   40.20
    ORTHCH:  VPU time    1.92: CPU time    1.92
    DOS   :  VPU time    0.00: CPU time   -0.00
    ------------------------------------------
      LOOP:  VPU time   56.22: CPU time   56.20

 eigenvalue-minimisations  :  4608
 total energy-change (2. order) : 0.7159440E-05  (-0.8050744E-07)
 number of electron  352.0000008 magnetization 
 augmentation part   168.8280206 magnetization 

 Free energy of the ion-electron system (eV)
  ---------------------------------------------------
  alpha Z        PSCENC =      3195.58069490
  Ewald energy   TEWEN  =    -30848.79541829
  -1/2 Hartree   DENC   =     -6310.15446921
  -V(xc)+E(xc)   XCENC  =      -359.88254899
  PAW double counting   =     27771.84876231   -26356.80806334
  entropy T*S    EENTRO =        -0.01454395
  eigenvalues    EBANDS =      -379.37811147
  atomic energy  EATOM  =     33197.16788402
  ---------------------------------------------------
  free energy    TOTEN  =       -90.43581401 eV

  energy without entropy =      -90.42127006  energy(sigma->0) =      -90.43096603


--------------------------------------------------------------------------------------------------------




 average (electrostatic) potential at core
  the test charge radii are     1.1249
  (the norm of the test charge is              1.0000)
       1 -41.5429       2 -41.5429       3 -41.5429       4 -41.5429       5 -41.5429
       6 -41.5429       7 -41.5429       8 -41.5429       9 -41.5429      10 -41.5429
      11 -41.5429      12 -41.5429      13 -41.5429      14 -41.5429      15 -41.5429
      16 -41.5429      17 -41.5429      18 -41.5429      19 -41.5429      20 -41.5429
      21 -41.5429      22 -41.5429      23 -41.5429      24 -41.5429      25 -41.5429
      26 -41.5429      27 -41.5429      28 -41.5429      29 -41.5429      30 -41.5429
      31 -41.5429      32 -41.5429
 
 
 
 E-fermi :   3.2063     XC(G=0): -11.9607     alpha+bet : -8.1884
   add alpha+bet to get absolut eigen values

 k-point   1 :       0.0625    0.0625    0.0625
  band No.  band energies     occupation 
      1      -4.2812      2.00000
      2      -3.0327      2.00000
      3      -3.0327      2.00000
      4      -3.0327      2.00000
      5      -3.0026      2.00000
      6      -2.9915      2.00000
      7      -2.9915      2.00000
      8      -2.9915      2.00000
      9      -2.9117      2.00000
     10      -2.9117      2.00000
     11      -2.9117      2.00000
     12      -2.6550      2.00000
     13      -2.6550      2.00000
     14      -2.6550      2.00000
     15      -2.5523      2.00000
     16      -2.5523      2.00000
     17      -2.5523      2.00000
     18      -2.3434      2.00000
     19      -2.3434      2.00000
     20      -2.3434      2.00000
     21      -2.3434      2.00000
     22      -2.3434      2.00000
     23      -2.3434      2.00000
     24      -2.3265      2.00000
     25      -2.3265      2.00000
     26      -2.3265      2.00000
     27      -2.1916      2.00000
     28      -2.1916      2.00000
     29      -2.1916      2.00000
     30      -2.0976      2.00000
     31      -2.0976      2.00000
     32      -2.0976      2.00000
     33      -2.0834      2.00000
     34      -2.0834      2.00000
     35      -2.0834      2.00000
     36      -2.0598      2.00000
     37      -2.0598      2.00000
     38      -2.0598      2.00000
     39      -2.0598      2.00000
     40      -2.0598      2.00000
     41      -2.0598      2.00000
     42      -1.9085      2.00000
     43      -1.9085      2.00000
     44      -1.9085      2.00000
     45      -1.9085      2.00000
     46      -1.9085      2.00000
     47      -1.9085      2.00000
     48      -1.8215      2.00000
     49      -1.8215      2.00000
     50      -1.8215      2.00000
     51      -1.8178      2.00000
     52      -1.8178      2.00000
     53      -1.8178      2.00000
     54      -1.8178      2.00000
     55      -1.8178      2.00000
     56      -1.8178      2.00000
     57      -1.7718      2.00000
     58      -1.7718      2.00000
     59      -1.7718      2.00000
     60      -1.6339      2.00000
     61      -1.6339      2.00000
     62      -1.6339      2.00000
     63      -1.6339      2.00000
     64      -1.6339      2.00000
     65      -1.6339      2.00000
     66      -1.5598      2.00000
     67      -1.5598      2.00000
     68      -1.5598      2.00000
     69      -1.5447      2.00000
     70      -1.5447      2.00000
     71      -1.5379      2.00000
     72      -1.5356      2.00000
     73      -1.5356      2.00000
     74      -1.5356      2.00000
     75      -1.5231      2.00000
     76      -1.5231      2.00000
     77      -1.4658      2.00000
     78      -1.4658      2.00000
     79      -1.4658      2.00000
     80      -1.4658      2.00000
     81      -1.4658      2.00000
     82      -1.4658      2.00000
     83      -1.4428      2.00000
     84      -1.4428      2.00000
     85      -1.4428      2.00000
     86      -1.3966      2.00000
     87      -1.3966      2.00000
     88      -1.3966      2.00000
     89      -0.9583      2.00000
     90      -0.9583      2.00000
     91      -0.9583      2.00000
     92      -0.9060      2.00000
     93      -0.9060      2.00000
     94      -0.9060      2.00000
     95      -0.8975      2.00000
     96      -0.8975      2.00000
     97      -0.8975      2.00000
     98      -0.8893      2.00000
     99      -0.8893      2.00000
    100      -0.8893      2.00000
    101      -0.8893      2.00000
    102      -0.8893      2.00000
    103      -0.8893      2.00000
    104      -0.8159      2.00000
    105      -0.8159      2.00000
    106      -0.8159      2.00000
    107      -0.7139      2.00000
    108      -0.7139      2.00000
    109      -0.7139      2.00000
    110      -0.6403      2.00000
    111      -0.6403      2.00000
    112      -0.6403      2.00000
    113      -0.6270      2.00000
    114      -0.6270      2.00000
    115      -0.6270      2.00000
    116      -0.5877      2.00000
    117      -0.5877      2.00000
    118      -0.5877      2.00000
    119      -0.5733      2.00000
    120      -0.5733      2.00000
    121      -0.5435      2.00000
    122      -0.5435      2.00000
    123      -0.5435      2.00000
    124      -0.5435      2.00000
    125      -0.5435      2.00000
    126      -0.5435      2.00000
    127      -0.5196      2.00000
    128      -0.5196      2.00000
    129      -0.5196      2.00000
    130      -0.5196      2.00000
    131      -0.5196      2.00000
    132      -0.5196      2.00000
    133      -0.4465      2.00000
    134      -0.4465      2.00000
    135      -0.4465      2.00000
    136      -0.2514      2.00000
    137      -0.2514      2.00000
    138      -0.2514      2.00000
    139      -0.2308      2.00000
    140      -0.2308      2.00000
    141      -0.2308      2.00000
    142      -0.1784      2.00000
    143      -0.1784      2.00000
    144      -0.1784      2.00000
    145       0.1064      2.00000
    146       0.1064      2.00000
    147       0.1064      2.00000
    148       0.1264      2.00000
    149       0.1264      2.00000
    150       0.1264      2.00000
    151       0.1544      2.00000
    152       0.1544      2.00000
    153       0.1696      2.00000
    154       0.1696      2.00000
    155       0.1696      2.00000
    156       0.3229      2.00000
    157       0.3229      2.00000
    158       0.3229      2.00000
    159       0.3486      2.00000
    160       0.3486      2.00000
    161       0.3486      2.00000
    162       0.3486      2.00000
    163       0.3486      2.00000
    164       0.3486      2.00000
    165       0.3511      2.00000
    166       0.3511      2.00000
    167       0.3511      2.00000
    168       2.0102      2.00000
    169       2.0102      2.00000
    170       2.0102      2.00000
    171       2.5824      2.00009
    172       2.5824      2.00009
    173       2.5824      2.00009
    174       2.5824      2.00009
    175       2.5824      2.00009
    176       2.5824      2.00009
    177       2.6401      2.00047
    178       2.9174      2.06006
    179       2.9174      2.06006
    180       2.9174      2.06006
    181       3.1740      1.26982
    182       3.1740      1.26982
    183       3.1740      1.26982
    184       4.7860     -0.00000
    185       4.7860     -0.00000
    186       4.7860     -0.00000
    187       6.5753     -0.00000
    188       6.5753     -0.00000
    189       6.5753     -0.00000
    190       6.8092     -0.00000
    191       8.4250     -0.00000
    192       8.4250     -0.00000
    193       8.4250     -0.00000
    194       8.4250     -0.00000
    195       8.4250     -0.00000
    196       8.4250     -0.00000
    197       9.1227      0.00000
    198       9.1227      0.00000
    199       9.1227      0.00000
    200       9.1228      0.00000
    201       9.1231      0.00000
    202       9.1259      0.00000
    203       9.6782      0.00000
    204       9.6810      0.00000
    205       9.7435      0.00000
    206      10.2149      0.00000
    207      10.2152      0.00000
    208      10.2182      0.00000
    209      10.2612      0.00000
    210      10.3257      0.00000
    211      11.2700      0.00000
    212      11.3021      0.00000

 k-point   2 :       0.1875    0.0625    0.0625
  band No.  band energies     occupation 
      1      -4.2024      2.00000
      2      -3.0010      2.00000
      3      -2.9927      2.00000
      4      -2.9927      2.00000
      5      -2.9755      2.00000
      6      -2.9536      2.00000
      7      -2.9536      2.00000
      8      -2.9428      2.00000
      9      -2.8940      2.00000
     10      -2.8877      2.00000
     11      -2.8740      2.00000
     12      -2.8740      2.00000
     13      -2.6062      2.00000
     14      -2.6062      2.00000
     15      -2.5689      2.00000
     16      -2.5057      2.00000
     17      -2.5057      2.00000
     18      -2.4561      2.00000
     19      -2.4165      2.00000
     20      -2.4165      2.00000
     21      -2.3188      2.00000
     22      -2.3188      2.00000
     23      -2.3091      2.00000
     24      -2.3091      2.00000
     25      -2.3000      2.00000
     26      -2.3000      2.00000
     27      -2.2926      2.00000
     28      -2.2509      2.00000
     29      -2.2509      2.00000
     30      -2.2389      2.00000
     31      -2.1701      2.00000
     32      -2.1701      2.00000
     33      -2.1513      2.00000
     34      -2.1513      2.00000
     35      -2.1348      2.00000
     36      -2.1348      2.00000
     37      -2.1174      2.00000
     38      -2.1174      2.00000
     39      -2.0582      2.00000
     40      -2.0582      2.00000
     41      -2.0565      2.00000
     42      -2.0369      2.00000
     43      -2.0369      2.00000
     44      -1.9099      2.00000
     45      -1.9099      2.00000
     46      -1.9060      2.00000
     47      -1.9060      2.00000
     48      -1.8439      2.00000
     49      -1.8439      2.00000
     50      -1.8388      2.00000
     51      -1.8388      2.00000
     52      -1.8358      2.00000
     53      -1.8358      2.00000
     54      -1.7695      2.00000
     55      -1.7456      2.00000
     56      -1.7456      2.00000
     57      -1.7390      2.00000
     58      -1.7390      2.00000
     59      -1.6984      2.00000
     60      -1.6545      2.00000
     61      -1.6545      2.00000
     62      -1.6299      2.00000
     63      -1.6299      2.00000
     64      -1.5872      2.00000
     65      -1.5814      2.00000
     66      -1.5814      2.00000
     67      -1.5743      2.00000
     68      -1.5743      2.00000
     69      -1.5740      2.00000
     70      -1.5740      2.00000
     71      -1.5648      2.00000
     72      -1.5427      2.00000
     73      -1.5255      2.00000
     74      -1.5115      2.00000
     75      -1.5115      2.00000
     76      -1.5053      2.00000
     77      -1.5053      2.00000
     78      -1.4985      2.00000
     79      -1.4976      2.00000
     80      -1.4957      2.00000
     81      -1.4316      2.00000
     82      -1.4316      2.00000
     83      -1.3341      2.00000
     84      -1.3341      2.00000
     85      -1.2979      2.00000
     86      -1.2979      2.00000
     87      -1.2542      2.00000
     88      -1.2431      2.00000
     89      -1.0761      2.00000
     90      -1.0761      2.00000
     91      -1.0675      2.00000
     92      -1.0342      2.00000
     93      -0.9921      2.00000
     94      -0.9890      2.00000
     95      -0.9890      2.00000
     96      -0.9800      2.00000
     97      -0.9247      2.00000
     98      -0.9247      2.00000
     99      -0.9229      2.00000
    100      -0.9229      2.00000
    101      -0.8262      2.00000
    102      -0.8262      2.00000
    103      -0.8249      2.00000
    104      -0.8249      2.00000
    105      -0.8046      2.00000
    106      -0.8046      2.00000
    107      -0.7879      2.00000
    108      -0.7785      2.00000
    109      -0.7785      2.00000
    110      -0.6928      2.00000
    111      -0.6928      2.00000
    112      -0.6530      2.00000
    113      -0.6530      2.00000
    114      -0.6026      2.00000
    115      -0.5599      2.00000
    116      -0.5545      2.00000
    117      -0.5545      2.00000
    118      -0.5499      2.00000
    119      -0.5499      2.00000
    120      -0.5413      2.00000
    121      -0.5413      2.00000
    122      -0.5068      2.00000
    123      -0.5036      2.00000
    124      -0.4727      2.00000
    125      -0.4727      2.00000
    126      -0.4598      2.00000
    127      -0.4501      2.00000
    128      -0.4501      2.00000
    129      -0.4057      2.00000
    130      -0.4057      2.00000
    131      -0.3840      2.00000
    132      -0.3840      2.00000
    133      -0.3498      2.00000
    134      -0.3409      2.00000
    135      -0.3409      2.00000
    136      -0.3219      2.00000
    137      -0.2192      2.00000
    138      -0.2192      2.00000
    139      -0.1865      2.00000
    140      -0.1865      2.00000
    141      -0.1048      2.00000
    142      -0.0307      2.00000
    143      -0.0112      2.00000
    144      -0.0112      2.00000
    145       0.0495      2.00000
    146       0.0495      2.00000
    147       0.0840      2.00000
    148       0.0840      2.00000
    149       0.0908      2.00000
    150       0.1048      2.00000
    151       0.1083      2.00000
    152       0.1496      2.00000
    153       0.1515      2.00000
    154       0.1515      2.00000
    155       0.1926      2.00000
    156       0.1926      2.00000
    157       0.2737      2.00000
    158       0.2970      2.00000
    159       0.2970      2.00000
    160       0.2977      2.00000
    161       0.2977      2.00000
    162       0.3072      2.00000
    163       0.3083      2.00000
    164       0.3485      2.00000
    165       0.3485      2.00000
    166       0.3486      2.00000
    167       0.3486      2.00000
    168       1.5098      2.00000
    169       1.5098      2.00000
    170       2.0143      2.00000
    171       2.0533      2.00000
    172       2.0533      2.00000
    173       2.3885      2.00000
    174       2.5971      2.00014
    175       2.5971      2.00014
    176       2.8716      2.03945
    177       2.8716      2.03945
    178       3.1450      1.49284
    179       3.1943      1.10162
    180       3.2336      0.77120
    181       3.2336      0.77120
    182       3.8356     -0.00008
    183       3.8356     -0.00008
    184       4.2674     -0.00000
    185       4.9861     -0.00000
    186       4.9861     -0.00000
    187       6.5945     -0.00000
    188       6.8353     -0.00000
    189       6.8353     -0.00000
    190       7.2425     -0.00000
    191       7.5705     -0.00000
    192       7.5705     -0.00000
    193       7.7287     -0.00000
    194       7.7287     -0.00000
    195       8.1929     -0.00000
    196       8.1929     -0.00000
    197       8.5453     -0.00000
    198       8.5453     -0.00000
    199       9.2409      0.00000
    200       9.2416      0.00000
    201       9.6948      0.00000
    202       9.7089      0.00000
    203       9.7424      0.00000
    204       9.7562      0.00000
    205      10.0727      0.00000
    206      10.2453      0.00000
    207      10.2698      0.00000
    208      10.4197      0.00000
    209      10.5148      0.00000
    210      10.5558      0.00000
    211      10.6411      0.00000
    212      10.7194      0.00000

 k-point   3 :       0.3125    0.0625    0.0625
  band No.  band energies     occupation 
      1      -4.0472      2.00000
      2      -3.2113      2.00000
      3      -2.9398      2.00000
      4      -2.9156      2.00000
      5      -2.9156      2.00000
      6      -2.9101      2.00000
      7      -2.8784      2.00000
      8      -2.8784      2.00000
      9      -2.8581      2.00000
     10      -2.8405      2.00000
     11      -2.7990      2.00000
     12      -2.7990      2.00000
     13      -2.6497      2.00000
     14      -2.5760      2.00000
     15      -2.5379      2.00000
     16      -2.5379      2.00000
     17      -2.5148      2.00000
     18      -2.5148      2.00000
     19      -2.4940      2.00000
     20      -2.4476      2.00000
     21      -2.4476      2.00000
     22      -2.4197      2.00000
     23      -2.4197      2.00000
     24      -2.4189      2.00000
     25      -2.3621      2.00000
     26      -2.3621      2.00000
     27      -2.2765      2.00000
     28      -2.2765      2.00000
     29      -2.2446      2.00000
     30      -2.2446      2.00000
     31      -2.2435      2.00000
     32      -2.2435      2.00000
     33      -2.1779      2.00000
     34      -2.1779      2.00000
     35      -2.1644      2.00000
     36      -2.1644      2.00000
     37      -2.1272      2.00000
     38      -2.1272      2.00000
     39      -2.1180      2.00000
     40      -2.1180      2.00000
     41      -2.0216      2.00000
     42      -2.0216      2.00000
     43      -1.9265      2.00000
     44      -1.9041      2.00000
     45      -1.9041      2.00000
     46      -1.9040      2.00000
     47      -1.9040      2.00000
     48      -1.8959      2.00000
     49      -1.8959      2.00000
     50      -1.8819      2.00000
     51      -1.8819      2.00000
     52      -1.8817      2.00000
     53      -1.8817      2.00000
     54      -1.7524      2.00000
     55      -1.7524      2.00000
     56      -1.7458      2.00000
     57      -1.7025      2.00000
     58      -1.7025      2.00000
     59      -1.6861      2.00000
     60      -1.6861      2.00000
     61      -1.6729      2.00000
     62      -1.6729      2.00000
     63      -1.6373      2.00000
     64      -1.6241      2.00000
     65      -1.6237      2.00000
     66      -1.6237      2.00000
     67      -1.6233      2.00000
     68      -1.6233      2.00000
     69      -1.6218      2.00000
     70      -1.5983      2.00000
     71      -1.5983      2.00000
     72      -1.5839      2.00000
     73      -1.5839      2.00000
     74      -1.5526      2.00000
     75      -1.4856      2.00000
     76      -1.4856      2.00000
     77      -1.4786      2.00000
     78      -1.4487      2.00000
     79      -1.4487      2.00000
     80      -1.4425      2.00000
     81      -1.4413      2.00000
     82      -1.4347      2.00000
     83      -1.2448      2.00000
     84      -1.2448      2.00000
     85      -1.1934      2.00000
     86      -1.1668      2.00000
     87      -1.1668      2.00000
     88      -1.1501      2.00000
     89      -1.1501      2.00000
     90      -1.1406      2.00000
     91      -1.1279      2.00000
     92      -1.1162      2.00000
     93      -1.0138      2.00000
     94      -1.0138      2.00000
     95      -1.0026      2.00000
     96      -0.9886      2.00000
     97      -0.9886      2.00000
     98      -0.9743      2.00000
     99      -0.8593      2.00000
    100      -0.8593      2.00000
    101      -0.8467      2.00000
    102      -0.8316      2.00000
    103      -0.8316      2.00000
    104      -0.7328      2.00000
    105      -0.7328      2.00000
    106      -0.7195      2.00000
    107      -0.7195      2.00000
    108      -0.6916      2.00000
    109      -0.6916      2.00000
    110      -0.6777      2.00000
    111      -0.6777      2.00000
    112      -0.6597      2.00000
    113      -0.6597      2.00000
    114      -0.6577      2.00000
    115      -0.5666      2.00000
    116      -0.5666      2.00000
    117      -0.5438      2.00000
    118      -0.5438      2.00000
    119      -0.5362      2.00000
    120      -0.5362      2.00000
    121      -0.5335      2.00000
    122      -0.4481      2.00000
    123      -0.4481      2.00000
    124      -0.3874      2.00000
    125      -0.3601      2.00000
    126      -0.3549      2.00000
    127      -0.3549      2.00000
    128      -0.3027      2.00000
    129      -0.2829      2.00000
    130      -0.2769      2.00000
    131      -0.2769      2.00000
    132      -0.2639      2.00000
    133      -0.2639      2.00000
    134      -0.2324      2.00000
    135      -0.2324      2.00000
    136      -0.2310      2.00000
    137      -0.2224      2.00000
    138      -0.2111      2.00000
    139      -0.2111      2.00000
    140      -0.2041      2.00000
    141      -0.2041      2.00000
    142      -0.0875      2.00000
    143      -0.0622      2.00000
    144      -0.0622      2.00000
    145      -0.0319      2.00000
    146       0.0234      2.00000
    147       0.0240      2.00000
    148       0.0240      2.00000
    149       0.0356      2.00000
    150       0.0356      2.00000
    151       0.0695      2.00000
    152       0.0908      2.00000
    153       0.0908      2.00000
    154       0.0957      2.00000
    155       0.1791      2.00000
    156       0.2013      2.00000
    157       0.2013      2.00000
    158       0.2023      2.00000
    159       0.2023      2.00000
    160       0.2265      2.00000
    161       0.3483      2.00000
    162       0.3483      2.00000
    163       0.3484      2.00000
    164       0.3484      2.00000
    165       0.3810      2.00000
    166       0.3810      2.00000
    167       0.9954      2.00000
    168       1.0710      2.00000
    169       1.0710      2.00000
    170       1.5769      2.00000
    171       1.5769      2.00000
    172       2.0253      2.00000
    173       2.2093      2.00000
    174       2.6267      2.00033
    175       2.6267      2.00033
    176       2.8021      2.01494
    177       2.8021      2.01494
    178       3.2307      0.79549
[...]
    111      -0.7881      2.00000
    112      -0.7881      2.00000
    113      -0.7881      2.00000
    114      -0.7842      2.00000
    115      -0.7842      2.00000
    116      -0.7842      2.00000
    117      -0.7110      2.00000
    118      -0.7110      2.00000
    119      -0.7110      2.00000
    120      -0.6600      2.00000
    121      -0.6600      2.00000
    122      -0.6600      2.00000
    123      -0.6600      2.00000
    124      -0.6600      2.00000
    125      -0.6600      2.00000
    126      -0.5768      2.00000
    127      -0.5768      2.00000
    128      -0.5768      2.00000
    129      -0.5258      2.00000
    130      -0.5258      2.00000
    131      -0.5165      2.00000
    132      -0.5165      2.00000
    133      -0.5165      2.00000
    134      -0.4943      2.00000
    135      -0.4943      2.00000
    136      -0.4943      2.00000
    137      -0.4088      2.00000
    138      -0.4088      2.00000
    139      -0.4088      2.00000
    140      -0.3548      2.00000
    141      -0.3548      2.00000
    142      -0.3045      2.00000
    143      -0.3045      2.00000
    144      -0.3045      2.00000
    145       0.1887      2.00000
    146       0.1887      2.00000
    147       0.1887      2.00000
    148       0.2074      2.00000
    149       0.2074      2.00000
    150       0.2074      2.00000
    151       0.2074      2.00000
    152       0.2074      2.00000
    153       0.2074      2.00000
    154       0.2077      2.00000
    155       0.2077      2.00000
    156       0.2077      2.00000
    157       0.2077      2.00000
    158       0.2077      2.00000
    159       0.2077      2.00000
    160       0.2104      2.00000
    161       0.2104      2.00000
    162       0.2104      2.00000
    163       0.2239      2.00000
    164       0.2239      2.00000
    165       0.2239      2.00000
    166       0.2336      2.00000
    167       0.2336      2.00000
    168       0.2336      2.00000
    169       3.3316      0.13682
    170       3.3316      0.13682
    171       3.3316      0.13682
    172       3.6876     -0.00348
    173       3.6876     -0.00348
    174       3.6876     -0.00348
    175       3.6876     -0.00348
    176       3.6876     -0.00348
    177       3.6876     -0.00348
    178       3.9866     -0.00000
    179       3.9866     -0.00000
    180       3.9866     -0.00000
    181       4.2299     -0.00000
    182       4.2299     -0.00000
    183       4.2299     -0.00000
    184       4.6080     -0.00000
    185       4.6080     -0.00000
    186       4.6080     -0.00000
    187       4.6080     -0.00000
    188       4.6080     -0.00000
    189       4.6080     -0.00000
    190       4.9295     -0.00000
    191       4.9295     -0.00000
    192       4.9295     -0.00000
    193       8.1440     -0.00000
    194       8.1440     -0.00000
    195       8.1441     -0.00000
    196       8.5167     -0.00000
    197       8.5171     -0.00000
    198       8.5186     -0.00000
    199       8.9418      0.00000
    200       8.9418      0.00000
    201       8.9419      0.00000
    202       8.9427      0.00000
    203       8.9500      0.00000
    204       8.9572      0.00000
    205       9.3248      0.00000
    206       9.3248      0.00000
    207       9.3258      0.00000
    208       9.3386      0.00000
    209       9.3949      0.00000
    210       9.4995      0.00000
    211       9.7515      0.00000
    212       9.8855      0.00000


--------------------------------------------------------------------------------------------------------


 soft charge-density along one line, spin component           1
         0         1         2         3         4         5         6         7         8         9
 total charge-density along one line
 
 pseudopotential strength for first ion, spin component:           1
-12.130   0.000  -0.000   0.000  -0.000   0.123  -0.000   0.000
  0.000 -12.130   0.000   0.000  -0.000  -0.000   0.123  -0.000
 -0.000   0.000 -12.121   0.000  -0.000   0.000  -0.000   0.121
  0.000   0.000   0.000 -12.130   0.000  -0.000  -0.000  -0.000
 -0.000  -0.000  -0.000   0.000 -12.121   0.000   0.000   0.000
  0.123  -0.000   0.000  -0.000   0.000   0.459   0.000  -0.000
 -0.000   0.123  -0.000  -0.000   0.000   0.000   0.459   0.000
  0.000  -0.000   0.121  -0.000   0.000  -0.000   0.000   0.459
 -0.000  -0.000  -0.000   0.123  -0.000   0.000   0.000   0.000
  0.000   0.000   0.000  -0.000   0.121  -0.000  -0.000  -0.000
 -0.000  -0.000  -0.000  -0.000  -0.000   0.000   0.000   0.000
  0.000   0.000   0.000   0.000   0.000  -0.000  -0.000  -0.000
  0.000  -0.000  -0.000   0.000  -0.000  -0.000   0.000   0.000
  0.000   0.000  -0.000   0.000   0.000  -0.000  -0.000   0.000
  0.000   0.000  -0.000  -0.000   0.000  -0.000  -0.000   0.000
 -0.000   0.000   0.000  -0.000   0.000   0.000  -0.000  -0.000
 -0.000  -0.000   0.000  -0.000  -0.000   0.000   0.000  -0.000
 -0.000  -0.000   0.000   0.000  -0.000   0.000   0.000  -0.000
 total augmentation occupancy for first ion, spin component:           1
  1.936  -0.000  -0.002   0.001   0.001  -0.020   0.000   0.000  -0.001  -0.001   0.006  -0.001  -0.000   0.000  -0.000   0.000
 -0.000   1.944  -0.002  -0.001  -0.000   0.000  -0.029   0.003   0.000  -0.001   0.001  -0.001   0.000   0.000   0.000   0.000
 -0.002  -0.002   1.968  -0.001   0.003   0.000   0.003  -0.056   0.001  -0.002   0.019   0.002  -0.000   0.000  -0.000  -0.000
  0.001  -0.001  -0.001   1.940   0.002  -0.001   0.000   0.001  -0.023  -0.001   0.004  -0.000   0.000  -0.000   0.000   0.000
  0.001  -0.000   0.003   0.002   1.955  -0.001  -0.001  -0.002  -0.001  -0.045  -0.009  -0.002  -0.000  -0.000   0.000  -0.000
 -0.020   0.000   0.000  -0.001  -0.001   0.078  -0.000   0.001   0.001   0.001  -0.003   0.001  -0.000   0.000  -0.000  -0.000
  0.000  -0.029   0.003   0.000  -0.001  -0.000   0.086  -0.003  -0.000   0.002   0.002   0.002  -0.000   0.000  -0.000  -0.000
  0.000   0.003  -0.056   0.001  -0.002   0.001  -0.003   0.071  -0.002   0.000  -0.015   0.001   0.000   0.000   0.000   0.000
 -0.001   0.000   0.001  -0.023  -0.001   0.001  -0.000  -0.002   0.078  -0.000  -0.002   0.001  -0.000  -0.000  -0.000  -0.000
 -0.001  -0.001  -0.002  -0.001  -0.045   0.001   0.002   0.000  -0.000   0.064   0.009   0.001   0.000   0.000  -0.000   0.000
  0.006   0.001   0.019   0.004  -0.009  -0.003   0.002  -0.015  -0.002   0.009   1.041  -0.354   0.000  -0.000  -0.000   0.000
 -0.001  -0.001   0.002  -0.000  -0.002   0.001   0.002   0.001   0.001   0.001  -0.354   0.183  -0.000  -0.000  -0.000  -0.000
 -0.000   0.000  -0.000   0.000  -0.000  -0.000  -0.000   0.000  -0.000   0.000   0.000  -0.000   0.110  -0.002   0.003  -0.006
  0.000   0.000   0.000  -0.000  -0.000   0.000   0.000   0.000  -0.000   0.000  -0.000  -0.000  -0.002   0.115   0.000  -0.000
 -0.000   0.000  -0.000   0.000   0.000  -0.000  -0.000   0.000  -0.000  -0.000  -0.000  -0.000   0.003   0.000   0.109  -0.000
  0.000   0.000  -0.000   0.000  -0.000  -0.000  -0.000   0.000  -0.000   0.000   0.000  -0.000  -0.006  -0.000  -0.000   0.000
 -0.000  -0.000   0.000  -0.000   0.000  -0.000  -0.000  -0.000   0.000   0.000   0.000   0.000  -0.000  -0.006  -0.000   0.000
 -0.000  -0.000  -0.000   0.000   0.000  -0.000  -0.000  -0.000  -0.000  -0.000  -0.000   0.000  -0.000  -0.000  -0.006   0.000


------------------------ aborting loop because EDIFF is reached ----------------------------------------




--------------------------------------------------------------------------------------------------------


    CHARGE:  VPU time    5.55: CPU time    5.55
    FORLOC:  VPU time    0.08: CPU time    0.08
    FORNL :  VPU time   57.63: CPU time   57.60
    STRESS:  VPU time   83.07: CPU time   83.04
    FORCOR:  VPU time    0.50: CPU time    0.50
    FORHAR:  VPU time    0.16: CPU time    0.16
    MIXING:  VPU time    0.01: CPU time    0.01


--------------------------------------------------------------------------------------------------------



  FREE ENERGIE OF THE ION-ELECTRON SYSTEM (eV)
  ---------------------------------------------------
  free  energy   TOTEN  =       -90.435814 eV

  energy  without entropy=      -90.421270  energy(sigma->0) =      -90.430966
 

  FORCE on cell =-STRESS in cart. coord.  units (eV/reduce length):
  Direction    X        Y        Z        XY       YZ       ZX
  --------------------------------------------------------------------------------------
  Alpha Z   3195.58   3195.58   3195.58
  Ewald   -10282.97 -10282.97 -10282.97     -0.00     -0.00     -0.00
  Hartree   2103.39   2103.39   2103.39     -0.00     -0.00     -0.00
  E(xc)    -1860.61  -1860.61  -1860.61     -0.00     -0.00     -0.00
  Local     3256.49   3256.49   3256.49      0.00      0.00      0.00
  n-local  -2108.23  -2103.77  -2097.53      2.75     -0.26      1.33
  augment   1341.61   1341.61   1341.61     -0.00     -0.00     -0.00
  Kinetic   4345.83   4353.24   4363.71      2.01     -3.43      0.07
  -------------------------------------------------------------------------------------
  Total        4.58      4.58      4.58      0.00      0.00      0.00
  in kB       12.88     12.88     12.88      0.00      0.00      0.00
  external pressure =       12.88 kB  Pullay stress =        0.00 kB


 VOLUME and BASIS-vectors are now :
 -----------------------------------------------------------------------------
  energy-cutoff  :      600.00
  volume of cell :      569.03
      direct lattice vectors                 reciprocal lattice vectors
     8.286660340  0.000000000  0.000000000     0.120675877 -0.000000002 -0.000000002
     0.000000150  8.286660340  0.000000000     0.000000000  0.120675877 -0.000000002
     0.000000150  0.000000150  8.286660340     0.000000000  0.000000000  0.120675877

  length of vectors
     8.286660340  8.286660340  8.286660340     0.120675877  0.120675877  0.120675877


 FORCES acting on ions
    electron-ion (+dipol)            ewald-force                    non-local-force                 convergence-correction
 -----------------------------------------------------------------------------------------------
   0.646E-12 -.168E-10 0.330E-11   0.217E-12 0.675E-13 -.173E-12   0.522E-23 -.404E-23 0.886E-24   0.143E-12 0.315E-15 -.661E-12
   0.645E-12 -.139E-11 -.346E-12   0.568E-13 0.142E-13 -.173E-12   -.448E-24 0.291E-24 -.265E-23   0.342E-13 -.361E-12 0.940E-12
   0.656E-12 -.576E-13 -.681E-11   0.195E-12 -.213E-13 -.853E-13   -.659E-23 0.403E-24 -.469E-24   -.715E-13 -.266E-12 -.189E-12
   0.668E-12 0.446E-11 0.226E-11   0.284E-12 0.142E-13 -.853E-13   -.676E-23 0.195E-23 -.124E-23   0.771E-13 -.587E-13 -.299E-12
   -.354E-13 0.662E-12 0.229E-12   0.132E-12 0.711E-14 -.959E-13   0.471E-24 -.485E-23 0.327E-23   0.357E-13 -.975E-13 -.313E-12
   -.344E-13 -.243E-13 0.414E-12   0.118E-12 0.172E-13 -.421E-13   0.276E-23 0.403E-24 0.704E-24   0.181E-12 -.115E-12 -.397E-12
   0.213E-12 -.145E-11 0.164E-11   0.217E-12 0.107E-12 -.104E-12   -.528E-23 0.767E-23 0.137E-23   -.173E-12 0.357E-14 -.361E-12
   0.657E-12 0.178E-12 0.248E-11   0.156E-12 -.115E-12 0.000E+00   0.110E-22 0.110E-23 0.532E-24   0.845E-13 0.671E-13 -.203E-12
   0.667E-12 -.107E-10 -.582E-12   0.270E-12 -.114E-12 -.672E-13   0.398E-23 -.172E-23 -.252E-24   -.145E-12 0.320E-12 0.634E-12
   0.657E-12 -.148E-11 0.848E-11   0.114E-12 -.124E-12 0.000E+00   0.562E-23 -.264E-23 -.152E-23   0.344E-13 0.302E-12 -.563E-12
   -.285E-13 0.641E-12 0.597E-12   0.362E-13 -.462E-13 -.213E-13   -.674E-23 0.794E-23 -.282E-23   0.308E-12 -.161E-12 -.390E-13
   -.259E-13 -.338E-14 -.229E-13   0.766E-13 0.856E-13 -.355E-13   -.811E-23 0.785E-23 0.125E-23   0.455E-12 -.561E-13 0.710E-12
   -.273E-13 0.189E-12 0.213E-12   -.918E-13 -.782E-13 -.107E-13   -.148E-22 -.385E-23 -.198E-24   0.327E-12 0.353E-13 -.362E-12
   -.260E-13 0.407E-12 0.433E-12   -.150E-13 0.108E-13 0.217E-13   -.975E-23 0.379E-23 0.422E-24   0.185E-12 0.156E-12 -.337E-12
   0.214E-12 0.278E-11 0.110E-11   0.114E-12 0.568E-13 -.854E-13   0.942E-23 0.309E-23 -.247E-23   -.637E-13 -.815E-13 0.692E-12
   0.200E-12 -.114E-13 -.185E-11   -.497E-13 0.550E-13 -.178E-13   0.366E-23 -.110E-23 0.294E-23   0.449E-13 0.747E-14 -.436E-12
   0.187E-12 0.221E-11 0.160E-11   0.782E-13 0.213E-13 -.384E-13   0.960E-23 -.580E-23 0.142E-23   -.112E-12 -.780E-13 -.306E-12
   0.413E-12 -.398E-11 -.388E-12   -.114E-12 0.128E-12 -.568E-13   -.589E-23 -.140E-23 -.937E-25   -.155E-13 -.420E-14 -.441E-12
   0.415E-12 -.282E-13 -.356E-11   -.170E-12 0.113E-12 -.312E-17   -.370E-23 0.453E-23 0.212E-23   -.168E-12 -.505E-13 -.541E-12
   0.658E-12 -.790E-12 -.127E-10   0.142E-13 -.878E-13 0.568E-13   -.513E-23 0.189E-23 0.311E-23   0.784E-13 -.320E-13 0.160E-12
   -.196E-13 0.207E-12 0.622E-12   -.100E-12 -.888E-13 0.103E-12   0.863E-23 0.229E-23 0.235E-23   0.315E-12 0.949E-13 0.350E-13
   -.189E-13 0.387E-12 -.436E-13   -.133E-12 -.142E-13 0.782E-13   0.398E-23 -.388E-23 -.414E-23   0.173E-12 0.880E-13 0.646E-12
   0.200E-12 -.334E-13 0.268E-11   0.107E-13 -.749E-18 0.675E-13   -.251E-23 0.611E-23 -.256E-23   -.112E-12 0.539E-13 0.104E-12
   0.188E-12 -.185E-11 0.113E-11   -.995E-13 -.995E-13 -.333E-13   -.305E-23 -.278E-24 -.450E-24   0.112E-12 0.307E-14 0.654E-12
   0.202E-12 0.401E-12 0.219E-11   -.114E-12 -.260E-13 0.156E-12   -.139E-22 0.677E-24 0.688E-24   -.637E-13 0.145E-13 -.519E-12
   0.406E-12 0.356E-11 0.621E-11   -.156E-12 0.711E-13 0.568E-13   0.489E-23 0.353E-23 0.121E-23   -.289E-12 -.180E-12 0.517E-13
   0.407E-12 0.117E-12 0.291E-11   -.160E-12 0.821E-13 0.114E-12   0.508E-23 -.264E-23 -.709E-25   -.444E-12 0.127E-12 0.875E-12
   0.408E-12 -.331E-11 -.647E-12   -.185E-12 0.284E-13 0.284E-13   0.514E-23 -.247E-23 0.240E-23   -.302E-12 -.739E-13 -.610E-12
   0.408E-12 -.340E-11 -.323E-11   -.713E-13 0.284E-13 0.168E-12   0.900E-23 -.974E-23 0.379E-23   -.159E-12 0.815E-13 -.370E-12
   0.201E-12 0.418E-12 -.138E-11   -.114E-12 -.361E-13 0.128E-12   0.134E-22 0.104E-23 0.470E-24   -.105E-12 -.333E-13 0.183E-12
   0.401E-12 -.273E-11 -.173E-11   -.252E-12 0.142E-13 0.995E-13   -.765E-23 0.437E-23 0.316E-24   -.290E-12 0.991E-13 0.235E-12
   0.400E-12 -.352E-11 0.224E-11   -.898E-13 0.142E-13 0.142E-12   -.855E-23 0.520E-24 -.359E-24   -.149E-12 -.957E-13 0.697E-12
 -----------------------------------------------------------------------------------------------
   0.990E-11 -.350E-10 0.741E-11   0.175E-12 0.855E-13 0.947E-13   -.697E-23 0.150E-22 0.995E-23   -.726E-13 -.291E-12 -.328E-12
 
 
 POSITION                                       TOTAL-FORCE (eV/Angst)
 -----------------------------------------------------------------------------------
      6.21500      6.21500      4.14333         0.000000      0.000000     -0.000000
      6.21500      6.21500      0.00000         0.000000     -0.000000     -0.000000
      6.21500      0.00000      2.07167         0.000000      0.000000      0.000000
      6.21500      2.07167      4.14333         0.000000      0.000000      0.000000
      0.00000      6.21500      2.07167         0.000000      0.000000     -0.000000
      0.00000      0.00000      4.14333         0.000000     -0.000000     -0.000000
      2.07167      6.21500      4.14333         0.000000      0.000000      0.000000
      6.21500      0.00000      6.21500        -0.000000      0.000000     -0.000000
      6.21500      2.07167      0.00000        -0.000000      0.000000      0.000000
      6.21500      4.14333      2.07167         0.000000      0.000000      0.000000
      0.00000      6.21500      6.21500        -0.000000     -0.000000      0.000000
      0.00000      0.00000      0.00000        -0.000000     -0.000000     -0.000000
      0.00000      2.07167      2.07167         0.000000      0.000000      0.000000
      0.00000      4.14333      4.14333         0.000000      0.000000      0.000000
      2.07167      6.21500      0.00000         0.000000     -0.000000      0.000000
      2.07167      0.00000      2.07167         0.000000      0.000000     -0.000000
      2.07167      2.07167      4.14333         0.000000     -0.000000      0.000000
      4.14333      6.21500      2.07167         0.000000      0.000000     -0.000000
      4.14333      0.00000      4.14333         0.000000      0.000000      0.000000
      6.21500      4.14333      6.21500        -0.000000     -0.000000     -0.000000
      0.00000      2.07167      6.21500         0.000000     -0.000000      0.000000
      0.00000      4.14333      0.00000         0.000000      0.000000      0.000000
      2.07167      0.00000      6.21500        -0.000000      0.000000      0.000000
      2.07167      2.07167      0.00000        -0.000000     -0.000000      0.000000
      2.07167      4.14333      2.07167        -0.000000      0.000000     -0.000000
      4.14333      6.21500      6.21500        -0.000000      0.000000     -0.000000
      4.14333      0.00000      0.00000         0.000000     -0.000000      0.000000
      4.14333      2.07167      2.07167         0.000000      0.000000      0.000000
      4.14333      4.14333      4.14333         0.000000     -0.000000      0.000000
      2.07167      4.14333      6.21500        -0.000000     -0.000000      0.000000
      4.14333      2.07167      6.21500        -0.000000      0.000000     -0.000000
      4.14333      4.14333      0.00000        -0.000000     -0.000000      0.000000
 -----------------------------------------------------------------------------------
    total drift:                                0.000000     -0.000000      0.000000


--------------------------------------------------------------------------------------------------------




--------------------------------------------------------------------------------------------------------


  
 reached required accuracy - stopping structural energy minimisation
 writing wavefunctions
     LOOP+:  VPU time 1651.88: CPU time 1656.61

 ----------------------------------------------------------------------------- 
|                                                                             |
|           W    W    AA    RRRRR   N    N  II  N    N   GGGG   !!!           |
|           W    W   A  A   R    R  NN   N  II  NN   N  G    G  !!!           |
|           W    W  A    A  R    R  N N  N  II  N N  N  G       !!!           |
|           W WW W  AAAAAA  RRRRR   N  N N  II  N  N N  G  GGG   !            |
|           WW  WW  A    A  R   R   N   NN  II  N   NN  G    G                |
|           W    W  A    A  R    R  N    N  II  N    N   GGGG   !!!           |
|                                                                             |
|      The partial DOS and the PROCAR file are not evaluated for NPAR/=1      |
|      please rerun with NPAR=1                                               |
|                                                                             |
 ----------------------------------------------------------------------------- 

  
  
 General timing and accounting informations for this job:
 ========================================================
  
                  Total CPU time used (sec):     1674.874
                            User time (sec):     1618.815
                          System time (sec):       56.059
                         Elapsed time (sec):     1679.619
  
                   Maximum memory used (kb):     1877676.
                   Average memory used (kb):           0.
  
                          Minor page faults:       398865
                          Major page faults:            0
                 Voluntary context switches:        45162
