   4   4   0   0
  0.1709689E+02  0.4089395E-09  0.4089395E-09  0.4089395E-09  0.5000000E-15
  1.000000000000000E-004
  CAR 
 unknown system                          
     18.02718350     -5.16209796  301      5.64365508      1.00000000
     -5.162  0.0000E+00  0.0000E+00
     -5.085  0.0000E+00  0.0000E+00
     -5.008  0.0000E+00  0.0000E+00
     -4.930  0.0000E+00  0.0000E+00
     -4.853  0.0000E+00  0.0000E+00
     -4.776  0.0000E+00  0.0000E+00
     -4.698  0.0000E+00  0.0000E+00
     -4.621  0.0000E+00  0.0000E+00
     -4.544  0.0000E+00  0.0000E+00
     -4.466  0.0000E+00  0.0000E+00
     -4.389  0.0000E+00  0.0000E+00
     -4.312  0.0000E+00  0.0000E+00
     -4.235  0.0000E+00  0.0000E+00
     -4.157  0.2613E-13  0.2020E-14
     -4.080  0.1497E-01  0.1157E-02
     -4.003  0.8981E-01  0.8100E-02
     -3.925  0.1794E+00  0.2197E-01
     -3.848  0.1194E+00  0.3122E-01
     -3.771  0.8864E-01  0.3810E-01
     -3.693  0.3540E+00  0.6556E-01
     -3.616  0.3559E+00  0.9348E-01
     -3.539  0.0000E+00  0.9375E-01
     -3.462  0.1785E+00  0.1075E+00
     -3.384  0.4455E+00  0.1421E+00
     -3.307  0.3559E+00  0.1699E+00
     -3.230  0.3591E+00  0.1979E+00
     -3.152  0.1198E+00  0.2072E+00
     -3.075  0.3594E+00  0.2350E+00
     -2.998  0.7187E+00  0.2905E+00
     -2.920  0.3106E-09  0.2905E+00
     -2.843  0.4336E+00  0.3240E+00
     -2.766  0.3846E+00  0.3550E+00
     -2.689  0.8709E+00  0.4223E+00
     -2.611  0.2264E+00  0.4400E+00
     -2.534  0.1211E+01  0.5335E+00
     -2.457  0.7662E-12  0.5336E+00
     -2.379  0.3594E+00  0.5613E+00
     -2.302  0.1842E+00  0.5756E+00
     -2.225  0.1183E+01  0.6671E+00
     -2.147  0.1352E+01  0.7716E+00
     -2.070  0.2973E-05  0.7720E+00
     -1.993  0.1366E+01  0.8775E+00
     -1.916  0.3473E-03  0.8831E+00
     -1.838  0.1262E+01  0.9807E+00
     -1.761  0.5209E+00  0.1021E+01
     -1.684  0.1936E+01  0.1171E+01
     -1.606  0.1138E+01  0.1259E+01
     -1.529  0.2287E+01  0.1440E+01
     -1.452  0.2688E+01  0.1648E+01
     -1.375  0.2892E+01  0.1872E+01
     -1.297  0.3817E+01  0.2168E+01
     -1.220  0.3265E+01  0.2448E+01
     -1.143  0.2782E+01  0.2672E+01
     -1.065  0.5485E+01  0.3096E+01
     -0.988  0.6836E+01  0.3633E+01
     -0.911  0.3971E+01  0.3949E+01
     -0.833  0.9541E+01  0.4695E+01
     -0.756  0.8472E+01  0.5351E+01
     -0.679  0.5451E+01  0.5778E+01
     -0.602  0.7814E+01  0.6384E+01
     -0.524  0.9244E+01  0.7107E+01
     -0.447  0.4869E+01  0.7498E+01
     -0.370  0.4604E+01  0.7864E+01
     -0.292  0.8819E+01  0.8560E+01
     -0.215  0.6073E+01  0.9044E+01
     -0.138  0.4721E+01  0.9415E+01
     -0.060  0.5350E+01  0.9830E+01
      0.017  0.4236E+01  0.1016E+02
      0.094  0.4784E+01  0.1053E+02
      0.171  0.8144E+01  0.1116E+02
      0.249  0.5717E+01  0.1161E+02
      0.326  0.5179E+01  0.1201E+02
      0.403  0.1012E+02  0.1279E+02
      0.481  0.5910E+01  0.1326E+02
      0.558  0.9150E+01  0.1398E+02
      0.635  0.7356E+01  0.1457E+02
      0.713  0.8617E+01  0.1524E+02
      0.790  0.6565E+01  0.1577E+02
      0.867  0.7193E+01  0.1633E+02
      0.944  0.9390E+01  0.1707E+02
      1.022  0.1010E+02  0.1786E+02
      1.099  0.8876E+01  0.1855E+02
      1.176  0.1107E+02  0.1942E+02
      1.254  0.1057E+02  0.2024E+02
      1.331  0.1696E+02  0.2157E+02
      1.408  0.1044E+02  0.2241E+02
      1.485  0.8322E+01  0.2306E+02
      1.563  0.8464E+01  0.2372E+02
      1.640  0.5748E+01  0.2417E+02
      1.717  0.7242E+01  0.2473E+02
      1.795  0.7101E+01  0.2531E+02
      1.872  0.4786E+01  0.2571E+02
      1.949  0.7153E+01  0.2627E+02
      2.027  0.5542E+01  0.2671E+02
      2.104  0.7612E+01  0.2730E+02
      2.181  0.9024E+01  0.2800E+02
      2.258  0.8038E+01  0.2864E+02
      2.336  0.7535E+01  0.2926E+02
      2.413  0.8570E+01  0.2994E+02
      2.490  0.6667E+01  0.3046E+02
      2.568  0.9372E+01  0.3118E+02
      2.645  0.7652E+01  0.3178E+02
      2.722  0.7608E+01  0.3239E+02
      2.800  0.5793E+01  0.3285E+02
      2.877  0.5860E+01  0.3331E+02
      2.954  0.5774E+01  0.3376E+02
      3.031  0.7036E+01  0.3432E+02
      3.109  0.8044E+01  0.3495E+02
      3.186  0.6905E+01  0.3549E+02
      3.263  0.4010E+01  0.3584E+02
      3.341  0.5619E+01  0.3627E+02
      3.418  0.1097E+02  0.3714E+02
      3.495  0.7736E+01  0.3775E+02
      3.573  0.9033E+01  0.3845E+02
      3.650  0.1024E+02  0.3924E+02
      3.727  0.1709E+02  0.4057E+02
      3.804  0.8144E+01  0.4120E+02
      3.882  0.4398E+01  0.4154E+02
      3.959  0.4933E+01  0.4194E+02
      4.036  0.1519E+01  0.4205E+02
      4.114  0.1068E+01  0.4214E+02
      4.191  0.9375E+00  0.4221E+02
      4.268  0.1306E+01  0.4232E+02
      4.346  0.3038E+01  0.4257E+02
      4.423  0.2004E+00  0.4260E+02
      4.500  0.9629E+00  0.4267E+02
      4.577  0.3745E+00  0.4271E+02
      4.655  0.1403E+01  0.4282E+02
      4.732  0.1250E+00  0.4283E+02
      4.809  0.1276E+01  0.4293E+02
      4.887  0.2145E+01  0.4310E+02
      4.964  0.1437E+01  0.4321E+02
      5.041  0.8085E+00  0.4327E+02
      5.118  0.3599E+00  0.4330E+02
      5.196  0.1436E+01  0.4341E+02
      5.273  0.7185E+00  0.4347E+02
      5.350  0.3641E+00  0.4350E+02
      5.428  0.1249E+01  0.4359E+02
      5.505  0.2505E+01  0.4379E+02
      5.582  0.1524E+01  0.4391E+02
      5.660  0.1346E+01  0.4401E+02
      5.737  0.7169E+00  0.4407E+02
      5.814  0.7204E+00  0.4412E+02
      5.891  0.3577E+00  0.4415E+02
      5.969  0.7186E+00  0.4420E+02
      6.046  0.1434E+01  0.4432E+02
      6.123  0.1377E+01  0.4442E+02
      6.201  0.1566E+01  0.4455E+02
      6.278  0.1705E+01  0.4468E+02
      6.355  0.6750E+00  0.4474E+02
      6.433  0.9481E+00  0.4482E+02
      6.510  0.4229E-02  0.4482E+02
      6.587  0.1421E+01  0.4493E+02
      6.664  0.1090E+01  0.4502E+02
      6.742  0.1253E+01  0.4511E+02
      6.819  0.5819E+00  0.4516E+02
      6.896  0.2105E+01  0.4532E+02
      6.974  0.1523E+01  0.4545E+02
      7.051  0.5537E-01  0.4546E+02
      7.128  0.1562E+01  0.4558E+02
      7.206  0.5400E+00  0.4562E+02
      7.283  0.1945E+01  0.4577E+02
      7.360  0.3193E+00  0.4580E+02
      7.437  0.1797E+00  0.4581E+02
      7.515  0.1831E+01  0.4595E+02
      7.592  0.1402E+01  0.4606E+02
      7.669  0.2891E+00  0.4608E+02
      7.747  0.3594E+00  0.4612E+02
      7.824  0.2516E+01  0.4631E+02
      7.901  0.1608E+01  0.4644E+02
      7.978  0.2060E-09  0.4644E+02
      8.056  0.7080E+00  0.4649E+02
      8.133  0.1009E+01  0.4657E+02
      8.210  0.1228E+01  0.4667E+02
      8.288  0.3131E+00  0.4670E+02
      8.365  0.1590E+01  0.4682E+02
      8.442  0.9702E+00  0.4690E+02
      8.520  0.7187E+00  0.4695E+02
      8.597  0.7227E-03  0.4695E+02
      8.674  0.1077E+01  0.4703E+02
      8.751  0.1845E+01  0.4718E+02
      8.829  0.2623E+01  0.4738E+02
      8.906  0.5752E+00  0.4743E+02
      8.983  0.1183E+01  0.4752E+02
      9.061  0.1929E+01  0.4767E+02
      9.138  0.2485E+01  0.4787E+02
      9.215  0.5696E+00  0.4792E+02
      9.293  0.1583E+01  0.4804E+02
      9.370  0.3228E+01  0.4829E+02
      9.447  0.0000E+00  0.4829E+02
      9.524  0.2603E-01  0.4829E+02
      9.602  0.1261E+01  0.4839E+02
      9.679  0.1271E+01  0.4849E+02
      9.756  0.8510E+00  0.4856E+02
      9.834  0.1604E+01  0.4869E+02
      9.911  0.9590E+00  0.4876E+02
      9.988  0.1784E+01  0.4890E+02
     10.066  0.7426E+00  0.4896E+02
     10.143  0.3355E+00  0.4898E+02
     10.220  0.2038E+01  0.4914E+02
     10.297  0.6342E+00  0.4920E+02
     10.375  0.3607E+00  0.4924E+02
     10.452  0.6549E-01  0.4925E+02
     10.529  0.2326E+01  0.4943E+02
     10.607  0.1722E+01  0.4956E+02
     10.684  0.1707E+01  0.4969E+02
     10.761  0.2541E+00  0.4971E+02
     10.839  0.2621E+01  0.4992E+02
     10.916  0.1587E+01  0.5004E+02
     10.993  0.9279E+00  0.5011E+02
     11.070  0.1215E-01  0.5011E+02
     11.148  0.1423E+01  0.5022E+02
     11.225  0.1583E+01  0.5034E+02
     11.302  0.2544E+01  0.5054E+02
     11.380  0.8434E+00  0.5061E+02
     11.457  0.1886E+01  0.5076E+02
     11.534  0.1773E+01  0.5090E+02
     11.611  0.1411E+01  0.5102E+02
     11.689  0.9677E+00  0.5109E+02
     11.766  0.5526E+00  0.5114E+02
     11.843  0.1602E+01  0.5127E+02
     11.921  0.3147E-05  0.5127E+02
     11.998  0.2440E+01  0.5146E+02
     12.075  0.2327E+01  0.5164E+02
     12.153  0.9119E+00  0.5171E+02
     12.230  0.7467E+00  0.5177E+02
     12.307  0.1342E+01  0.5188E+02
     12.384  0.3594E+00  0.5191E+02
     12.462  0.6869E-11  0.5191E+02
     12.539  0.7336E+00  0.5197E+02
     12.616  0.1256E+01  0.5207E+02
     12.694  0.2640E+01  0.5228E+02
     12.771  0.7852E+00  0.5236E+02
     12.848  0.7040E+00  0.5241E+02
     12.926  0.1606E+01  0.5254E+02
     13.003  0.1414E+01  0.5265E+02
     13.080  0.1541E+01  0.5277E+02
     13.157  0.1679E+01  0.5291E+02
     13.235  0.6465E+00  0.5296E+02
     13.312  0.1185E+01  0.5305E+02
     13.389  0.8867E+00  0.5312E+02
     13.467  0.2009E+01  0.5328E+02
     13.544  0.1381E+01  0.5339E+02
     13.621  0.1431E+01  0.5350E+02
     13.699  0.8342E+00  0.5357E+02
     13.776  0.9052E+00  0.5364E+02
     13.853  0.4487E+00  0.5368E+02
     13.930  0.1096E+01  0.5376E+02
     14.008  0.2848E+01  0.5399E+02
     14.085  0.2174E+01  0.5416E+02
     14.162  0.1303E+01  0.5426E+02
     14.240  0.1009E+01  0.5434E+02
     14.317  0.3367E+01  0.5460E+02
     14.394  0.1825E+01  0.5476E+02
     14.471  0.1119E+01  0.5485E+02
     14.549  0.2157E+00  0.5486E+02
     14.626  0.8624E+00  0.5493E+02
     14.703  0.3594E+00  0.5496E+02
     14.781  0.1501E+01  0.5507E+02
     14.858  0.8076E+00  0.5514E+02
     14.935  0.1564E+01  0.5526E+02
     15.013  0.8304E+00  0.5534E+02
     15.090  0.1078E+01  0.5544E+02
     15.167  0.1303E+00  0.5545E+02
     15.244  0.1416E+01  0.5556E+02
     15.322  0.4295E+00  0.5560E+02
     15.399  0.8590E+00  0.5566E+02
     15.476  0.9015E+00  0.5573E+02
     15.554  0.7304E+00  0.5579E+02
     15.631  0.3477E+00  0.5582E+02
     15.708  0.4079E-05  0.5582E+02
     15.786  0.7625E+00  0.5587E+02
     15.863  0.4737E-01  0.5588E+02
     15.940  0.3730E+00  0.5591E+02
     16.017  0.3594E+00  0.5594E+02
     16.095  0.7187E+00  0.5599E+02
     16.172  0.0000E+00  0.5599E+02
     16.249  0.0000E+00  0.5599E+02
     16.327  0.0000E+00  0.5599E+02
     16.404  0.0000E+00  0.5599E+02
     16.481  0.0000E+00  0.5599E+02
     16.559  0.0000E+00  0.5599E+02
     16.636  0.0000E+00  0.5599E+02
     16.713  0.0000E+00  0.5599E+02
     16.790  0.0000E+00  0.5599E+02
     16.868  0.0000E+00  0.5599E+02
     16.945  0.4213E-05  0.5599E+02
     17.022  0.1198E+00  0.5600E+02
     17.100  0.0000E+00  0.5600E+02
     17.177  0.0000E+00  0.5600E+02
     17.254  0.0000E+00  0.5600E+02
     17.332  0.0000E+00  0.5600E+02
     17.409  0.0000E+00  0.5600E+02
     17.486  0.0000E+00  0.5600E+02
     17.563  0.0000E+00  0.5600E+02
     17.641  0.0000E+00  0.5600E+02
     17.718  0.0000E+00  0.5600E+02
     17.795  0.0000E+00  0.5600E+02
     17.873  0.0000E+00  0.5600E+02
     17.950  0.0000E+00  0.5600E+02
     18.027  0.0000E+00  0.5600E+02
