    4    4    1    1
  0.1709689E+02  0.4089395E-09  0.4089395E-09  0.4089395E-09  0.5000000E-15
  1.000000000000000E-004
  CAR 
 unknown system                          
   44   84   28
 
  0.0000000E+00  0.0000000E+00  0.0000000E+00  0.5787037E-03
   1       -4.1080
   2       -1.3712
   3       -1.3712
   4       -1.3712
   5       -1.0659
   6       -1.0659
   7       -1.0659
   8        0.9846
   9        0.9846
  10        0.9846
  11        2.4960
  12        2.4960
  13        3.6466
  14        3.6466
  15        3.6466
  16        4.0094
  17        4.0094
  18        4.0094
  19        4.0094
  20        4.0094
  21        4.0094
  22        6.7512
  23        6.7512
  24        6.7512
  25       11.5065
  26       11.5065
  27       11.5065
  28       15.9226
 
  0.8333333E-01  0.0000000E+00  0.0000000E+00  0.3472222E-02
   1       -4.0269
   2       -1.3428
   3       -1.3169
   4       -1.3169
   5       -1.0363
   6       -1.0209
   7       -1.0209
   8        0.9427
   9        1.0212
  10        1.0212
  11        2.4511
  12        2.5140
  13        3.5825
  14        3.5825
  15        3.6253
  16        3.7186
  17        3.7186
  18        3.9311
  19        3.9311
  20        4.0096
  21        4.0096
  22        6.1771
  23        7.0977
  24        7.0977
  25       11.4301
  26       11.4301
  27       12.2190
  28       15.7858
 
  0.1666667E+00  0.0000000E+00  0.0000000E+00  0.3472222E-02
   1       -3.7864
   2       -1.2668
   3       -1.1598
   4       -1.1598
   5       -0.9485
   6       -0.8860
   7       -0.8860
   8        0.8217
   9        1.1303
  10        1.1303
  11        2.3226
  12        2.5674
  13        3.0939
  14        3.0939
  15        3.3961
  16        3.3961
  17        3.5632
  18        3.7113
  19        3.7113
  20        4.0099
  21        4.0099
  22        5.0034
  23        7.8876
  24        7.8876
  25       11.2292
  26       11.2292
  27       13.8141
  28       15.3886
 
  0.2500000E+00  0.0000000E+00  0.0000000E+00  0.3472222E-02
   1       -3.3967
   2       -1.1756
   3       -0.9190
   4       -0.9190
   5       -0.8063
   6       -0.6620
   7       -0.6620
   8        0.6346
   9        1.3096
  10        1.3096
  11        2.1299
  12        2.3939
  13        2.3939
  14        2.6530
  15        3.1102
  16        3.1102
  17        3.3878
  18        3.3878
  19        3.4655
  20        3.7719
  21        4.0104
  22        4.0104
  23        8.8564
  24        8.8564
  25       10.9737
  26       10.9737
  27       14.7671
  28       14.7671
 
  0.3333333E+00  0.0000000E+00  0.0000000E+00  0.3472222E-02
   1       -2.8795
   2       -1.1410
   3       -0.6346
   4       -0.6346
   5       -0.6160
   6       -0.3501
   7       -0.3501
   8        0.3998
   9        1.5552
  10        1.5552
  11        1.7130
  12        1.7130
  13        1.9093
  14        2.7113
  15        2.7662
  16        2.7748
  17        2.7748
  18        3.0056
  19        3.0056
  20        3.3403
  21        4.0109
  22        4.0109
  23        9.8999
  24        9.8999
  25       10.7400
  26       10.7400
  27       13.9681
  28       13.9681
 
  0.4166667E+00  0.0000000E+00  0.0000000E+00  0.3472222E-02
   1       -2.2809
   2       -1.2860
   3       -0.3865
   4       -0.3820
   5       -0.3820
   6        0.0475
   7        0.0475
   8        0.1381
   9        1.0858
  10        1.0858
  11        1.7252
  12        1.8604
  13        1.8605
  14        1.9876
  15        2.4814
  16        2.4814
  17        2.6044
  18        2.6044
  19        2.9004
  20        3.1974
  21        4.0112
  22        4.0112
  23       10.5820
  24       10.5820
  25       10.9688
  26       10.9688
  27       13.0400
  28       13.0400
 
  0.5000000E+00  0.0000000E+00  0.0000000E+00  0.1736111E-02
   1       -1.6971
   2       -1.6971
   3       -0.2750
   4       -0.2750
   5       -0.1300
   6       -0.1300
   7        0.5279
   8        0.5279
   9        0.5279
  10        0.5279
  11        1.6931
  12        1.6931
  13        2.2153
  14        2.2153
  15        2.2153
  16        2.2153
  17        2.3587
  18        2.3587
  19        3.0473
  20        3.0473
  21        4.0114
  22        4.0114
  23       10.5268
  24       10.5268
  25       12.0272
  26       12.0272
  27       12.0272
  28       12.0272
 
  0.8333333E-01  0.8333333E-01  0.0000000E+00  0.6944444E-02
   1       -3.9466
   2       -1.2880
   3       -1.2880
   4       -1.2697
   5       -0.9918
   6       -0.9918
   7       -0.9710
   8        0.9248
   9        1.0350
  10        1.0546
  11        2.4389
  12        2.5035
  13        3.5036
  14        3.5036
  15        3.5222
  16        3.5238
  17        3.6811
  18        3.6811
  19        3.9310
  20        3.9310
  21        3.9583
  22        6.5265
  23        6.5265
  24        7.4000
  25       11.3417
  26       12.1428
  27       12.1428
  28       15.2425
 
  0.1666667E+00  0.8333333E-01  0.0000000E+00  0.1388889E-01
   1       -3.7088
   2       -1.2105
   3       -1.1323
   4       -1.1293
   5       -0.9058
   6       -0.8587
   7       -0.8233
   8        0.8187
   9        1.1325
  10        1.1532
  11        2.3280
  12        2.5522
  13        2.9382
  14        2.9892
  15        3.2487
  16        3.3462
  17        3.4313
  18        3.5906
  19        3.7107
  20        3.9307
  21        3.9311
  22        5.4116
  23        7.2725
  24        8.1285
  25       11.1052
  26       11.9510
  27       13.6915
  28       14.6639
 
  0.2500000E+00  0.8333333E-01  0.0000000E+00  0.1388889E-01
   1       -3.3235
   2       -1.1169
   3       -0.9164
   4       -0.8856
   5       -0.7664
   6       -0.6377
   7       -0.5862
   8        0.6393
   9        1.3091
  10        1.3093
  11        2.1518
  12        2.2524
  13        2.3382
  14        2.6480
  15        2.8130
  16        3.0745
  17        3.1474
  18        3.3866
  19        3.4464
  20        3.9251
  21        3.9302
  22        4.3465
  23        8.1177
  24        9.0572
  25       10.7929
  26       11.7432
  27       14.1047
  28       14.9210
 
  0.3333333E+00  0.8333333E-01  0.0000000E+00  0.1388889E-01
   1       -2.8121
   2       -1.0800
   3       -0.6434
   4       -0.5965
   5       -0.5800
   6       -0.3304
   7       -0.2808
   8        0.4116
   9        1.4864
  10        1.5537
  11        1.5919
  12        1.6862
  13        1.9870
  14        2.2353
  15        2.7545
  16        2.7773
  17        2.8155
  18        3.0038
  19        3.1829
  20        3.6310
  21        3.9243
  22        3.9293
  23        8.9151
  24       10.0762
  25       10.4801
  26       11.6546
  27       13.5299
  28       14.1180
 
  0.4166667E+00  0.8333333E-01  0.0000000E+00  0.1388889E-01
   1       -2.2194
   2       -1.2257
   3       -0.3703
   4       -0.3554
   5       -0.3386
   6        0.0609
   7        0.0693
   8        0.1568
   9        0.9943
  10        1.0776
  11        1.5354
  12        1.7297
  13        1.8585
  14        2.0392
  15        2.4780
  16        2.5164
  17        2.6023
  18        2.7529
  19        2.9328
  20        3.3120
  21        3.9253
  22        3.9282
  23        9.5348
  24       10.2025
  25       11.1302
  26       11.8250
  27       12.9102
  28       13.1893
 
  0.5000000E+00  0.8333333E-01  0.0000000E+00  0.6944444E-02
   1       -1.6385
   2       -1.6385
   3       -0.2356
   4       -0.2356
   5       -0.1048
   6       -0.1048
   7        0.4832
   8        0.4832
   9        0.5323
  10        0.5323
  11        1.5194
  12        1.5194
  13        2.2132
  14        2.2132
  15        2.3442
  16        2.3442
  17        2.3759
  18        2.3759
  19        3.1092
  20        3.1092
  21        3.9267
  22        3.9267
  23        9.9265
  24        9.9265
  25       12.1800
  26       12.1800
  27       12.2919
  28       12.2919
 
  0.1666667E+00  0.1666667E+00  0.0000000E+00  0.6944444E-02
   1       -3.4791
   2       -1.0469
   3       -1.0469
   4       -1.0409
   5       -0.7779
   6       -0.7779
   7       -0.6501
   8        0.7691
   9        1.1831
  10        1.2196
  11        2.2894
  12        2.5677
  13        2.5925
  14        2.5925
  15        2.6590
  16        3.1986
  17        3.4228
  18        3.4228
  19        3.7089
  20        3.7089
  21        3.8077
  22        6.1523
  23        6.1523
  24        8.7529
  25       10.7654
  26       13.3744
  27       13.3744
  28       13.9983
 
  0.2500000E+00  0.1666667E+00  0.0000000E+00  0.1388889E-01
   1       -3.1071
   2       -0.9456
   3       -0.8754
   4       -0.7940
   5       -0.6472
   6       -0.5660
   7       -0.3978
   8        0.6344
   9        1.3153
  10        1.3294
  11        1.9223
  12        2.1412
  13        2.1591
  14        2.1665
  15        2.6802
  16        2.9657
  17        3.1715
  18        3.3116
  19        3.3832
  20        3.7060
  21        3.7384
  22        5.0937
  23        6.9305
  24        9.6003
  25       10.3008
  26       12.9946
  27       13.4976
  28       14.8739
 
  0.3333333E+00  0.1666667E+00  0.0000000E+00  0.1388889E-01
   1       -2.6136
   2       -0.9019
   3       -0.6367
   4       -0.4898
   5       -0.4729
   6       -0.2724
   7       -0.1105
   8        0.4377
   9        1.3030
  10        1.3850
  11        1.5604
  12        1.5994
  13        1.6653
  14        2.0691
  15        2.6874
  16        2.8593
  17        2.8639
  18        2.9994
  19        3.0853
  20        3.7026
  21        3.7093
  22        4.2741
  23        7.6632
  24        9.8105
  25       10.5647
  26       12.6929
  27       13.1116
  28       14.5470
 
  0.4166667E+00  0.1666667E+00  0.0000000E+00  0.1388889E-01
   1       -2.0397
   2       -1.0511
   3       -0.3466
   4       -0.2638
   5       -0.2128
   6        0.0994
   7        0.1474
   8        0.2081
   9        0.7667
  10        1.0493
  11        1.3269
  12        1.3359
  13        1.8588
  14        2.1522
  15        2.4544
  16        2.5681
  17        2.5979
  18        2.7588
  19        3.0862
  20        3.6990
  21        3.6992
  22        3.7268
  23        8.3070
  24        9.3360
  25       11.5837
  26       12.5576
  27       12.8093
  28       13.6149
 
  0.5000000E+00  0.1666667E+00  0.0000000E+00  0.6944444E-02
   1       -1.4693
   2       -1.4693
   3       -0.1271
   4       -0.1271
   5       -0.0318
   6       -0.0318
   7        0.3755
   8        0.3755
   9        0.5433
  10        0.5433
  11        1.2499
  12        1.2499
  13        2.2102
  14        2.2102
  15        2.3986
  16        2.3986
  17        2.4145
  18        2.4145
  19        3.3630
  20        3.3630
  21        3.6972
  22        3.6972
  23        8.8530
  24        8.8530
  25       12.6082
  26       12.6082
  27       12.6135
  28       12.6135
 
  0.2500000E+00  0.2500000E+00  0.0000000E+00  0.6944444E-02
   1       -2.7578
   2       -0.7667
   3       -0.6778
   4       -0.6778
   5       -0.4506
   6       -0.4506
   7       -0.1469
   8        0.5774
   9        1.3308
  10        1.4198
  11        1.5176
  12        1.5176
  13        1.8474
  14        2.1014
  15        2.7858
  16        2.8293
  17        3.0958
  18        3.0958
  19        3.3785
  20        3.3785
  21        3.5671
  22        5.8325
  23        5.8325
  24        9.6487
  25       10.3723
  26       13.1286
  27       14.1650
  28       14.1650
 
  0.3333333E+00  0.2500000E+00  0.0000000E+00  0.1388889E-01
   1       -2.2957
   2       -0.6225
   3       -0.5828
   4       -0.3470
   5       -0.2978
   6       -0.1801
   7        0.1133
   8        0.4514
   9        0.9588
  10        1.1448
  11        1.3160
  12        1.4379
  13        1.6069
  14        2.0304
  15        2.5625
  16        2.8241
  17        2.8991
  18        2.9947
  19        3.0812
  20        3.3741
  21        3.4594
  22        4.9415
  23        6.5334
  24        8.9853
  25       11.2802
  26       12.9189
  27       13.5581
  28       15.2102
 
  0.4166667E+00  0.2500000E+00  0.0000000E+00  0.1388889E-01
   1       -1.7572
   2       -0.7841
   3       -0.3243
   4       -0.1168
   5       -0.0235
   6        0.1582
   7        0.2767
   8        0.2933
   9        0.4830
  10        0.9641
  11        0.9907
  12        1.2002
  13        1.8792
  14        2.0950
  15        2.3804
  16        2.5491
  17        2.5964
  18        2.6117
  19        3.3731
  20        3.4011
  21        3.4042
  22        4.2777
  23        7.1811
  24        8.3688
  25       12.2609
  26       12.8360
  27       13.1297
  28       14.2626
 
  0.5000000E+00  0.2500000E+00  0.0000000E+00  0.6944444E-02
   1       -1.2108
   2       -1.2108
   3       -0.0127
   4       -0.0127
   5        0.0802
   6        0.0802
   7        0.2957
   8        0.2957
   9        0.5542
  10        0.5542
  11        1.0312
  12        1.0312
  13        2.2161
  14        2.2161
  15        2.3134
  16        2.3134
  17        2.3668
  18        2.3668
  19        3.3803
  20        3.3803
  21        3.7877
  22        3.7877
  23        7.7821
  24        7.7821
  25       12.8955
  26       12.8955
  27       13.2683
  28       13.2683
 
  0.3333333E+00  0.3333333E+00  0.0000000E+00  0.6944444E-02
   1       -1.8796
   2       -0.4707
   3       -0.2752
   4       -0.2752
   5       -0.0606
   6       -0.0606
   7        0.3399
   8        0.4216
   9        0.6911
  10        0.6911
  11        1.1947
  12        1.2573
  13        1.7306
  14        1.9398
  15        2.3894
  16        2.6599
  17        2.6599
  18        2.9941
  19        2.9941
  20        3.2518
  21        3.4141
  22        5.5946
  23        5.5946
  24        8.1894
  25       12.1423
  26       12.8804
  27       14.3578
  28       14.3578
 
  0.4166667E+00  0.3333333E+00  0.0000000E+00  0.1388889E-01
   1       -1.3992
   2       -0.4770
   3       -0.2956
   4        0.0511
   5        0.0760
   6        0.2288
   7        0.3379
   8        0.3429
   9        0.4790
  10        0.6948
  11        0.8876
  12        1.1245
  13        1.9483
  14        1.9522
  15        2.2398
  16        2.3998
  17        2.4125
  18        2.6070
  19        3.0052
  20        3.1151
  21        3.8166
  22        4.8596
  23        6.2240
  24        7.4811
  25       12.9824
  26       13.0904
  27       13.7003
  28       15.0687
 
  0.5000000E+00  0.3333333E+00  0.0000000E+00  0.6944444E-02
   1       -0.9046
   2       -0.9046
   3       -0.0615
   4       -0.0615
   5        0.2153
   6        0.2153
   7        0.4191
   8        0.4191
   9        0.5536
  10        0.5536
  11        0.9014
  12        0.9014
  13        2.1294
  14        2.1294
  15        2.2396
  16        2.2396
  17        2.2486
  18        2.2486
  19        3.0397
  20        3.0397
  21        4.2866
  22        4.2866
  23        6.8411
  24        6.8411
  25       13.2467
  26       13.2467
  27       14.0787
  28       14.0787
 
  0.4166667E+00  0.4166667E+00  0.0000000E+00  0.6944444E-02
   1       -1.0038
   2       -0.2495
   3       -0.2468
   4       -0.2468
   5        0.2983
   6        0.2983
   7        0.3661
   8        0.5863
   9        0.5863
  10        0.6278
  11        0.7306
  12        1.0433
  13        1.8610
  14        2.0825
  15        2.0951
  16        2.1805
  17        2.1805
  18        2.6447
  19        2.6447
  20        2.8837
  21        4.2900
  22        5.4494
  23        5.4494
  24        6.7184
  25       13.2668
  26       14.0144
  27       14.3492
  28       14.3492
 
  0.5000000E+00  0.4166667E+00  0.0000000E+00  0.6944444E-02
   1       -0.6111
   2       -0.6111
   3       -0.2024
   4       -0.2024
   5        0.3500
   6        0.3500
   7        0.5263
   8        0.5263
   9        0.6391
  10        0.6391
  11        0.8561
  12        0.8561
  13        1.9514
  14        1.9514
  15        2.0433
  16        2.0433
  17        2.3315
  18        2.3315
  19        2.7298
  20        2.7298
  21        4.8226
  22        4.8226
  23        6.0570
  24        6.0570
  25       13.7157
  26       13.7157
  27       14.9880
  28       14.9907
 
  0.5000000E+00  0.5000000E+00  0.0000000E+00  0.1736111E-02
   1       -0.3781
   2       -0.3781
   3       -0.3781
   4       -0.3781
   5        0.4590
   6        0.4590
   7        0.4590
   8        0.4590
   9        0.8036
  10        0.8036
  11        0.8036
  12        0.8036
  13        1.9033
  14        1.9033
  15        1.9033
  16        1.9033
  17        2.4887
  18        2.4887
  19        2.4887
  20        2.4887
  21        5.4008
  22        5.4008
  23        5.4008
  24        5.4008
  25       14.3306
  26       14.3306
  27       14.3306
  28       14.3306
 
  0.8333333E-01  0.8333333E-01  0.8333333E-01  0.4629630E-02
   1       -3.8674
   2       -1.2409
   3       -1.2409
   4       -1.2409
   5       -0.9421
   6       -0.9421
   7       -0.9421
   8        0.9099
   9        1.0659
  10        1.0659
  11        2.4619
  12        2.4619
  13        3.4158
  14        3.4158
  15        3.4158
  16        3.4681
  17        3.4681
  18        3.4681
  19        3.9206
  20        3.9206
  21        3.9206
  22        6.8189
  23        6.8189
  24        6.8189
  25       12.0473
  26       12.0473
  27       12.0473
  28       15.4338
 
  0.1666667E+00  0.8333333E-01  0.8333333E-01  0.1388889E-01
   1       -3.6327
   2       -1.1635
   3       -1.1036
   4       -1.1036
   5       -0.8564
   6       -0.7947
   7       -0.7947
   8        0.8173
   9        1.1493
  10        1.1583
  11        2.3451
  12        2.5295
  13        2.8560
  14        2.8560
  15        3.1019
  16        3.3080
  17        3.3191
  18        3.3191
  19        3.8198
  20        3.8960
  21        3.8960
  22        5.7083
  23        7.4921
  24        7.4921
  25       11.7974
  26       11.7974
  27       13.5180
  28       14.9073
 
  0.2500000E+00  0.8333333E-01  0.8333333E-01  0.1388889E-01
   1       -3.2526
   2       -1.0699
   3       -0.8879
   4       -0.8879
   5       -0.7179
   6       -0.5584
   7       -0.5584
   8        0.6477
   9        1.3023
  10        1.3106
  11        2.1832
  12        2.2083
  13        2.2083
  14        2.6140
  15        2.6379
  16        3.0567
  17        3.0770
  18        3.0770
  19        3.6777
  20        3.8755
  21        3.8755
  22        4.6280
  23        8.2889
  24        8.2889
  25       11.4931
  26       11.4931
  27       14.4314
  28       14.4314
 
  0.3333333E+00  0.8333333E-01  0.8333333E-01  0.1388889E-01
   1       -2.7483
   2       -1.0325
   3       -0.6134
   4       -0.6134
   5       -0.5339
   6       -0.2570
   7       -0.2570
   8        0.4286
   9        1.4543
  10        1.5195
  11        1.5759
  12        1.5759
  13        2.0418
  14        2.0677
  15        2.7456
  16        2.7739
  17        2.7739
  18        2.7807
  19        3.5093
  20        3.7509
  21        3.8636
  22        3.8636
  23        9.0434
  24        9.0434
  25       11.2619
  26       11.2619
  27       13.9754
  28       13.9754
 
  0.4166667E+00  0.8333333E-01  0.8333333E-01  0.1388889E-01
   1       -2.1637
   2       -1.1778
   3       -0.3327
   4       -0.3327
   5       -0.3147
   6        0.0751
   7        0.0751
   8        0.1823
   9        1.0061
  10        1.0061
  11        1.4591
  12        1.5877
  13        1.7796
  14        2.1970
  15        2.4106
  16        2.4972
  17        2.4972
  18        2.9495
  19        3.0805
  20        3.3248
  21        3.8579
  22        3.8579
  23        9.5784
  24        9.5784
  25       11.2076
  26       11.2076
  27       13.5557
  28       13.5557
 
  0.5000000E+00  0.8333333E-01  0.8333333E-01  0.6944444E-02
   1       -1.5890
   2       -1.5890
   3       -0.1963
   4       -0.1963
   5       -0.0713
   6       -0.0713
   7        0.3553
   8        0.3553
   9        0.6271
  10        0.6271
  11        1.4207
  12        1.4207
  13        2.0814
  14        2.0814
  15        2.3784
  16        2.3784
  17        2.5656
  18        2.5656
  19        3.1345
  20        3.1345
  21        3.8563
  22        3.8563
  23        9.7571
  24        9.7571
  25       11.2511
  26       11.2511
  27       13.3561
  28       13.3561
 
  0.1666667E+00  0.1666667E+00  0.8333333E-01  0.1388889E-01
   1       -3.4074
   2       -1.0271
   3       -1.0271
   4       -1.0163
   5       -0.7097
   6       -0.7097
   7       -0.6194
   8        0.7766
   9        1.1937
  10        1.2162
  11        2.3302
  12        2.5241
  13        2.5241
  14        2.5344
  15        2.5503
  16        3.1093
  17        3.1829
  18        3.1829
  19        3.8072
  20        3.8072
  21        3.8254
  22        6.3503
  23        6.3503
  24        8.0425
  25       11.3867
  26       13.0673
  27       13.0673
  28       14.3778
 
  0.2500000E+00  0.1666667E+00  0.8333333E-01  0.2777778E-01
   1       -3.0432
   2       -0.9349
   3       -0.8555
   4       -0.8130
   5       -0.5725
   6       -0.4746
   7       -0.3666
   8        0.6548
   9        1.3057
  10        1.3183
  11        1.8945
  12        2.0574
  13        2.0739
  14        2.2238
  15        2.6569
  16        2.8961
  17        2.9304
  18        3.0104
  19        3.6731
  20        3.7521
  21        3.7550
  22        5.2490
  23        7.0801
  24        8.7300
  25       10.8705
  26       12.5092
  27       14.0635
  28       14.3126
 
  0.3333333E+00  0.1666667E+00  0.8333333E-01  0.2777778E-01
   1       -2.5610
   2       -0.8980
   3       -0.6212
   4       -0.5370
   5       -0.3944
   6       -0.1813
   7       -0.0848
   8        0.4710
   9        1.3103
  10        1.3702
  11        1.5005
  12        1.5201
  13        1.6026
  14        2.1746
  15        2.6179
  16        2.6517
  17        2.7643
  18        2.8433
  19        3.4709
  20        3.7044
  21        3.7062
  22        4.3403
  23        7.7890
  24        9.3205
  25       10.4812
  26       11.9833
  27       13.9176
  28       15.0097
 
  0.4166667E+00  0.1666667E+00  0.8333333E-01  0.2777778E-01
   1       -2.0020
   2       -1.0435
   3       -0.3301
   4       -0.2346
   5       -0.1908
   6        0.0928
   7        0.1369
   8        0.2547
   9        0.8392
  10        1.0319
  11        1.2780
  12        1.3102
  13        1.7256
  14        2.2951
  15        2.3453
  16        2.4306
  17        2.5071
  18        3.0696
  19        3.1462
  20        3.6776
  21        3.6798
  22        3.7073
  23        8.4215
  24        9.3505
  25       10.6280
  26       11.5263
  27       13.9433
  28       14.5749
 
  0.5000000E+00  0.1666667E+00  0.8333333E-01  0.1388889E-01
   1       -1.4483
   2       -1.4483
   3       -0.0893
   4       -0.0893
   5        0.0287
   6        0.0287
   7        0.1873
   8        0.1873
   9        0.7157
  10        0.7157
  11        1.2149
  12        1.2149
  13        1.9923
  14        1.9923
  15        2.3622
  16        2.3622
  17        2.7131
  18        2.7131
  19        3.3365
  20        3.3365
  21        3.6706
  22        3.6706
  23        8.9527
  24        8.9527
  25       11.0854
  26       11.0854
  27       14.1738
  28       14.1738
 
  0.2500000E+00  0.2500000E+00  0.8333333E-01  0.1388889E-01
   1       -2.7062
   2       -0.7567
   3       -0.7263
   4       -0.7263
   5       -0.3367
   6       -0.3367
   7       -0.1167
   8        0.6168
   9        1.3210
  10        1.3797
  11        1.5030
  12        1.5030
  13        1.7758
  14        2.1887
  15        2.6798
  16        2.8018
  17        2.8124
  18        2.8124
  19        3.5861
  20        3.5861
  21        3.6261
  22        5.9429
  23        5.9429
  24        9.2286
  25       10.2169
  26       13.4571
  27       13.4571
  28       13.9491
 
  0.3333333E+00  0.2500000E+00  0.8333333E-01  0.2777778E-01
   1       -2.2629
   2       -0.6983
   3       -0.5852
   4       -0.4605
   5       -0.1613
   6       -0.0436
   7        0.1309
   8        0.5123
   9        0.9953
  10        1.1405
  11        1.3068
  12        1.4070
  13        1.5097
  14        2.1737
  15        2.4700
  16        2.5230
  17        2.6382
  18        3.0538
  19        3.3572
  20        3.4965
  21        3.5175
  22        4.9907
  23        6.6261
  24        9.0803
  25       10.2932
  26       12.6885
  27       14.0276
  28       14.3952
 
  0.4166667E+00  0.2500000E+00  0.8333333E-01  0.2777778E-01
   1       -1.7512
   2       -0.8511
   3       -0.3441
   4       -0.1605
   5        0.0185
   6        0.1594
   7        0.2605
   8        0.3609
   9        0.6738
  10        0.9606
  11        1.0527
  12        1.1916
  13        1.6912
  14        2.2115
  15        2.3027
  16        2.3352
  17        2.4288
  18        3.0367
  19        3.3712
  20        3.4394
  21        3.4478
  22        4.2707
  23        7.2719
  24        8.4863
  25       10.8645
  26       12.0310
  27       14.3042
  28       15.3532
 
  0.5000000E+00  0.2500000E+00  0.8333333E-01  0.1388889E-01
   1       -1.2403
   2       -1.2403
   3       -0.0591
   4       -0.0591
   5        0.1460
   6        0.1460
   7        0.1912
   8        0.1912
   9        0.7884
  10        0.7884
  11        1.0242
  12        1.0242
  13        1.9262
  14        1.9262
  15        2.2798
  16        2.2798
  17        2.6604
  18        2.6604
  19        3.4226
  20        3.4226
  21        3.7582
  22        3.7582
  23        7.8833
  24        7.8833
  25       11.4447
  26       11.4447
  27       14.7828
  28       14.7828
 
  0.3333333E+00  0.3333333E+00  0.8333333E-01  0.1388889E-01
   1       -1.8771
   2       -0.4970
   3       -0.4650
   4       -0.4650
   5        0.1451
   6        0.1451
   7        0.3293
   8        0.5172
   9        0.7424
  10        0.7424
  11        1.2372
  12        1.2547
  13        1.5560
  14        2.1544
  15        2.2746
  16        2.3980
  17        2.3980
  18        3.2399
  19        3.2399
  20        3.3440
  21        3.3834
  22        5.6374
  23        5.6374
  24        8.3067
  25       10.7859
  26       13.4644
  27       13.4644
  28       14.3047
 
  0.4166667E+00  0.3333333E+00  0.8333333E-01  0.2777778E-01
   1       -1.4396
   2       -0.6463
   3       -0.3617
   4       -0.2557
   5        0.3053
   6        0.3514
   7        0.4054
   8        0.4723
   9        0.5923
  10        0.7118
  11        1.0570
  12        1.1273
  13        1.6590
  14        2.1123
  15        2.1255
  16        2.2396
  17        2.2814
  18        2.9187
  19        3.1623
  20        3.2133
  21        3.7847
  22        4.8570
  23        6.2698
  24        7.5668
  25       11.3726
  26       12.6696
  27       14.3143
  28       14.7680
 
  0.5000000E+00  0.3333333E+00  0.8333333E-01  0.1388889E-01
   1       -1.0031
   2       -1.0031
   3       -0.2242
   4       -0.2242
   5        0.3342
   6        0.3342
   7        0.3968
   8        0.3968
   9        0.8542
  10        0.8542
  11        0.9068
  12        0.9068
  13        1.8500
  14        1.8500
  15        2.1126
  16        2.1126
  17        2.5683
  18        2.5683
  19        3.1505
  20        3.1505
  21        4.2605
  22        4.2605
  23        6.9009
  24        6.9009
  25       11.9883
  26       11.9883
  27       15.2237
  28       15.2237
 
  0.4166667E+00  0.4166667E+00  0.8333333E-01  0.1388889E-01
   1       -1.1032
   2       -0.4835
   3       -0.4835
   4       -0.3736
   5        0.4962
   6        0.5416
   7        0.5416
   8        0.5480
   9        0.6579
  10        0.6579
  11        1.0382
  12        1.0651
  13        1.6507
  14        1.9567
  15        1.9902
  16        1.9902
  17        2.3352
  18        2.8509
  19        2.8509
  20        3.0080
  21        4.2599
  22        5.4537
  23        5.4537
  24        6.7655
  25       11.9684
  26       13.4130
  27       13.4130
  28       15.1697
 
  0.5000000E+00  0.4166667E+00  0.8333333E-01  0.1388889E-01
   1       -0.7760
   2       -0.7760
   3       -0.3991
   4       -0.3991
   5        0.5133
   6        0.5133
   7        0.5681
   8        0.5681
   9        0.8980
  10        0.8980
  11        0.9195
  12        0.9195
  13        1.7639
  14        1.7639
  15        1.9029
  16        1.9029
  17        2.5463
  18        2.5463
  19        2.8772
  20        2.8772
  21        4.8020
  22        4.8020
  23        6.0765
  24        6.0765
  25       12.6396
  26       12.6396
  27       14.2475
  28       14.2475
 
  0.5000000E+00  0.5000000E+00  0.8333333E-01  0.3472222E-02
   1       -0.5776
   2       -0.5776
   3       -0.5776
   4       -0.5776
   5        0.6015
   6        0.6015
   7        0.6015
   8        0.6015
   9        0.9511
  10        0.9511
  11        0.9511
  12        0.9511
  13        1.7540
  14        1.7540
  15        1.7540
  16        1.7540
  17        2.6541
  18        2.6541
  19        2.6541
  20        2.6541
  21        5.3935
  22        5.3935
  23        5.3935
  24        5.3935
  25       13.3896
  26       13.3896
  27       13.3896
  28       13.3896
 
  0.1666667E+00  0.1666667E+00  0.1666667E+00  0.4629630E-02
   1       -3.1958
   2       -0.9526
   3       -0.9526
   4       -0.9526
   5       -0.5273
   6       -0.5273
   7       -0.5273
   8        0.7711
   9        1.2301
  10        1.2301
  11        2.2504
  12        2.2504
  13        2.2504
  14        2.4463
  15        2.4463
  16        2.8923
  17        2.8923
  18        2.8923
  19        3.8354
  20        3.8354
  21        3.8354
  22        6.8465
  23        6.8465
  24        6.8465
  25       12.3528
  26       12.3528
  27       12.3528
  28       15.4514
 
  0.2500000E+00  0.1666667E+00  0.1666667E+00  0.1388889E-01