       N       E                     dE             d eps       ncg     rms          rms(c)
DAV:   1     0.551570830378E+03    0.55157E+03   -0.27228E+04  4704   0.212E+03
DAV:   2     0.971598094334E+01   -0.54185E+03   -0.51758E+03  4732   0.521E+02
DAV:   3    -0.135405089160E+02   -0.23256E+02   -0.22367E+02  5228   0.118E+02
DAV:   4    -0.139661814020E+02   -0.42567E+00   -0.42465E+00  4996   0.144E+01
DAV:   5    -0.139701686356E+02   -0.39872E-02   -0.39864E-02  5016   0.133E+00    0.583E+00
DAV:   6    -0.130513944537E+02    0.91877E+00   -0.21889E+00  5000   0.147E+01    0.162E+00
DAV:   7    -0.129765851941E+02    0.74809E-01   -0.17664E-01  5356   0.359E+00    0.584E-01
DAV:   8    -0.129635853392E+02    0.13000E-01   -0.81097E-03  4788   0.886E-01    0.393E-02
DAV:   9    -0.129636447386E+02   -0.59399E-04   -0.28230E-04  5108   0.139E-01    0.235E-02
DAV:  10    -0.129636536495E+02   -0.89109E-05   -0.23386E-05  4816   0.319E-02    0.237E-03
DAV:  11    -0.129636558307E+02   -0.21812E-05   -0.44727E-07  5068   0.597E-03    0.825E-04
DAV:  12    -0.129636551441E+02    0.68659E-06   -0.37476E-08  4624   0.188E-03    0.952E-05
DAV:  13    -0.129636550745E+02    0.69660E-07   -0.15158E-09  2608   0.352E-04    0.179E-05
DAV:  14    -0.129636550871E+02   -0.12598E-07   -0.23060E-10  2524   0.145E-04    0.119E-05
DAV:  15    -0.129636550835E+02    0.35925E-08   -0.27429E-11  2540   0.599E-05
   1 F= -.12963655E+02 E0= -.12963602E+02  d E =-.105736E-03
