 vasp.4.6.28 25Jul05 complex 
 executed on             LinuxIFC date 2017.01.06  05:31:12
 running on    4 nodes
 distr:  one band on    1 nodes,    4 groups


--------------------------------------------------------------------------------------------------------


 INCAR:
 POTCAR:   PAW_PBE Au 06Sep2000                   
 POTCAR:   PAW_PBE Au 06Sep2000                   
   VRHFIN =Au: s1d10                                                            
   LEXCH  = PE                                                                  
   EATOM  =   926.0567 eV,   68.0632 Ry                                         
                                                                                
   TITEL  = PAW_PBE Au 06Sep2000                                                
   LULTRA =        F    use ultrasoft PP ?                                      
   IUNSCR =        1    unscreen: 0-lin 1-nonlin 2-no                           
   RPACOR =    2.330    partial core radius                                     
   POMASS =  196.966; ZVAL   =   11.000    mass and valenz                      
   RCORE  =    2.500    outmost cutoff radius                                   
   RWIGS  =    2.840; RWIGS  =    1.503    wigner-seitz radius (au A)           
   ENMAX  =  229.948; ENMIN  =  172.461 eV                                      
   RCLOC  =    1.964    cutoff for local pot                                    
   LCOR   =        T    correct aug charges                                     
   LPAW   =        T    paw PP                                                  
   EAUG   =  356.670                                                            
   DEXC   =    -.025                                                            
   RMAX   =    3.041    core radius for proj-oper                               
   RAUG   =    1.300    factor for augmentation sphere                          
   RDEP   =    2.598    radius for radial grids                                 
   QCUT   =   -4.111; QGAM   =    8.222    optimization parameters              
                                                                                
   Description                                                                  
     l     E      TYP  RCUT    TYP  RCUT                                        
     2   .000     23  2.500                                                     
     2   .000     23  2.500                                                     
     0   .000     23  2.500                                                     
     0   .000     23  2.500                                                     
     1  -.200     23  2.500                                                     
     1   .000     23  2.500                                                     
     3   .000      7   .000                                                     
  local pseudopotential read in
  partial core-charges read in
  atomic valenz-charges read in
  non local Contribution for L=           2  read in
    real space projection operators read in
  non local Contribution for L=           2  read in
    real space projection operators read in
  non local Contribution for L=           0  read in
    real space projection operators read in
  non local Contribution for L=           0  read in
    real space projection operators read in
  non local Contribution for L=           1  read in
    real space projection operators read in
  non local Contribution for L=           1  read in
    real space projection operators read in
    PAW grid and wavefunctions read in
 
   number of l-projection  operators is LMAX  =           6
   number of lm-projection operators is LMMAX =          18
 
 PAW_PBE Au 06Sep2000                   :
 energy of atom  1       EATOM= -926.0567
 kinetic energy error for atom=    0.0008 (will be added to EATOM!!)
 
 EXHCAR: internal setup
 exchange correlation table for  LEXCH =        8
   RHO(1)=    0.500       N(1)  =     2000
   RHO(2)=  100.500       N(2)  =     4000
 
 POSCAR: Au                                      
  positions in direct lattice
  velocities in cartesian coordinates
 


--------------------------------------------------------------------------------------------------------


 ion  position               nearest neighbor table
   1  0.000  0.000  0.000-   2 2.89   3 2.89   4 2.89   3 2.89   4 2.89   2 2.89   4 2.89   4 2.89
                             2 2.89   3 2.89   3 2.89   2 2.89
   2  0.500  0.500  0.000-   1 2.89   3 2.89   4 2.89   3 2.89   4 2.89   1 2.89   3 2.89   3 2.89
                             1 2.89   4 2.89   4 2.89   1 2.89
   3  0.500  0.000  0.500-   1 2.89   2 2.89   4 2.89   1 2.89   2 2.89   2 2.89   4 2.89   2 2.89
                             1 2.89   4 2.89   1 2.89   4 2.89
   4  0.000  0.500  0.500-   1 2.89   2 2.89   3 2.89   1 2.89   2 2.89   1 2.89   3 2.89   1 2.89
                             2 2.89   3 2.89   2 2.89   3 2.89
 
  LATTYP: Found a simple cubic cell.
 ALAT       =     4.0893948643
  
  Lattice vectors:
  
 A1 = (   4.0893948643,   0.0000000000,   0.0000000000)
 A2 = (   0.0000000000,   4.0893948643,   0.0000000000)
 A3 = (   0.0000000000,   0.0000000000,   4.0893948643)
 Subroutine PRICEL returns following result:
 
  LATTYP: Found a face centered cubic cell.
 ALAT       =     4.0893948643
  
  Lattice vectors:
  
 A1 = (   2.0446974321,   2.0446974321,   0.0000000000)
 A2 = (   2.0446974321,   0.0000000000,  -2.0446974321)
 A3 = (   0.0000000000,   2.0446974321,  -2.0446974321)
 
   4 primitive cells build up your supercell.
 

Analysis of symmetry for initial positions (statically):

 Routine SETGRP: Setting up the symmetry group for a 
 simple cubic supercell.


 Subroutine GETGRP returns: Found 48 space group operations
 (whereof 48 operations were pure point group operations)
 out of a pool of 48 trial point group operations.


The static configuration has the point symmetry O_h .

Analysis of symmetry for dynamics (positions and initial velocities):

 Subroutine DYNSYM returns: Found 48 space group operations
 (whereof 48 operations were pure point group operations)
 out of a pool of 48 trial space group operations
 (whereof 48 operations were pure point group operations)
 and found also     4 'primitive' translations


The dynamic configuration has the point symmetry O_h .
 
 
 KPOINTS: Automatic mesh                          

Automatic generation of k-mesh.
 
 Subroutine IBZKPT returns following result:
 ===========================================
 
 Found     84 irreducible k-points:
 
 Following reciprocal coordinates:
            Coordinates               Weight
  0.000000  0.000000  0.000000      1.000000
  0.083333  0.000000  0.000000      6.000000
  0.166667  0.000000  0.000000      6.000000
  0.250000  0.000000  0.000000      6.000000
  0.333333  0.000000  0.000000      6.000000
  0.416667  0.000000  0.000000      6.000000
  0.500000  0.000000  0.000000      3.000000
  0.083333  0.083333  0.000000     12.000000
  0.166667  0.083333  0.000000     24.000000
  0.250000  0.083333  0.000000     24.000000
  0.333333  0.083333  0.000000     24.000000
  0.416667  0.083333  0.000000     24.000000
  0.500000  0.083333  0.000000     12.000000
  0.166667  0.166667  0.000000     12.000000
  0.250000  0.166667  0.000000     24.000000
  0.333333  0.166667  0.000000     24.000000
  0.416667  0.166667  0.000000     24.000000
  0.500000  0.166667  0.000000     12.000000
  0.250000  0.250000  0.000000     12.000000
  0.333333  0.250000  0.000000     24.000000
  0.416667  0.250000  0.000000     24.000000
  0.500000  0.250000  0.000000     12.000000
  0.333333  0.333333  0.000000     12.000000
  0.416667  0.333333  0.000000     24.000000
  0.500000  0.333333  0.000000     12.000000
  0.416667  0.416667  0.000000     12.000000
  0.500000  0.416667  0.000000     12.000000
  0.500000  0.500000  0.000000      3.000000
  0.083333  0.083333  0.083333      8.000000
  0.166667  0.083333  0.083333     24.000000
  0.250000  0.083333  0.083333     24.000000
  0.333333  0.083333  0.083333     24.000000
  0.416667  0.083333  0.083333     24.000000
  0.500000  0.083333  0.083333     12.000000
  0.166667  0.166667  0.083333     24.000000
  0.250000  0.166667  0.083333     48.000000
  0.333333  0.166667  0.083333     48.000000
  0.416667  0.166667  0.083333     48.000000
  0.500000  0.166667  0.083333     24.000000
  0.250000  0.250000  0.083333     24.000000
  0.333333  0.250000  0.083333     48.000000
  0.416667  0.250000  0.083333     48.000000
  0.500000  0.250000  0.083333     24.000000
  0.333333  0.333333  0.083333     24.000000
  0.416667  0.333333  0.083333     48.000000
  0.500000  0.333333  0.083333     24.000000
  0.416667  0.416667  0.083333     24.000000
  0.500000  0.416667  0.083333     24.000000
  0.500000  0.500000  0.083333      6.000000
  0.166667  0.166667  0.166667      8.000000
  0.250000  0.166667  0.166667     24.000000
  0.333333  0.166667  0.166667     24.000000
  0.416667  0.166667  0.166667     24.000000
  0.500000  0.166667  0.166667     12.000000
  0.250000  0.250000  0.166667     24.000000
  0.333333  0.250000  0.166667     48.000000
  0.416667  0.250000  0.166667     48.000000
  0.500000  0.250000  0.166667     24.000000
  0.333333  0.333333  0.166667     24.000000
  0.416667  0.333333  0.166667     48.000000
  0.500000  0.333333  0.166667     24.000000
  0.416667  0.416667  0.166667     24.000000
  0.500000  0.416667  0.166667     24.000000
  0.500000  0.500000  0.166667      6.000000
  0.250000  0.250000  0.250000      8.000000
  0.333333  0.250000  0.250000     24.000000
  0.416667  0.250000  0.250000     24.000000
  0.500000  0.250000  0.250000     12.000000
  0.333333  0.333333  0.250000     24.000000
  0.416667  0.333333  0.250000     48.000000
  0.500000  0.333333  0.250000     24.000000
  0.416667  0.416667  0.250000     24.000000
  0.500000  0.416667  0.250000     24.000000
  0.500000  0.500000  0.250000      6.000000
  0.333333  0.333333  0.333333      8.000000
  0.416667  0.333333  0.333333     24.000000
  0.500000  0.333333  0.333333     12.000000
  0.416667  0.416667  0.333333     24.000000
  0.500000  0.416667  0.333333     24.000000
  0.500000  0.500000  0.333333      6.000000
  0.416667  0.416667  0.416667      8.000000
  0.500000  0.416667  0.416667     12.000000
  0.500000  0.500000  0.416667      6.000000
  0.500000  0.500000  0.500000      1.000000
 
 Following cartesian coordinates:
            Coordinates               Weight
  0.000000  0.000000  0.000000      1.000000
  0.019970  0.000000  0.000000      6.000000
  0.039941  0.000000  0.000000      6.000000
  0.059911  0.000000  0.000000      6.000000
  0.079881  0.000000  0.000000      6.000000
  0.099852  0.000000  0.000000      6.000000
  0.119822  0.000000  0.000000      3.000000
  0.019970  0.019970  0.000000     12.000000
  0.039941  0.019970  0.000000     24.000000
  0.059911  0.019970  0.000000     24.000000
  0.079881  0.019970  0.000000     24.000000
  0.099852  0.019970  0.000000     24.000000
  0.119822  0.019970  0.000000     12.000000
  0.039941  0.039941  0.000000     12.000000
  0.059911  0.039941  0.000000     24.000000
  0.079881  0.039941  0.000000     24.000000
  0.099852  0.039941  0.000000     24.000000
  0.119822  0.039941  0.000000     12.000000
  0.059911  0.059911  0.000000     12.000000
  0.079881  0.059911  0.000000     24.000000
  0.099852  0.059911  0.000000     24.000000
  0.119822  0.059911  0.000000     12.000000
  0.079881  0.079881  0.000000     12.000000
  0.099852  0.079881  0.000000     24.000000
  0.119822  0.079881  0.000000     12.000000
  0.099852  0.099852  0.000000     12.000000
  0.119822  0.099852  0.000000     12.000000
  0.119822  0.119822  0.000000      3.000000
  0.019970  0.019970  0.019970      8.000000
  0.039941  0.019970  0.019970     24.000000
  0.059911  0.019970  0.019970     24.000000
  0.079881  0.019970  0.019970     24.000000
  0.099852  0.019970  0.019970     24.000000
  0.119822  0.019970  0.019970     12.000000
  0.039941  0.039941  0.019970     24.000000
  0.059911  0.039941  0.019970     48.000000
  0.079881  0.039941  0.019970     48.000000
  0.099852  0.039941  0.019970     48.000000
  0.119822  0.039941  0.019970     24.000000
  0.059911  0.059911  0.019970     24.000000
  0.079881  0.059911  0.019970     48.000000
  0.099852  0.059911  0.019970     48.000000
  0.119822  0.059911  0.019970     24.000000
  0.079881  0.079881  0.019970     24.000000
  0.099852  0.079881  0.019970     48.000000
  0.119822  0.079881  0.019970     24.000000
  0.099852  0.099852  0.019970     24.000000
  0.119822  0.099852  0.019970     24.000000
  0.119822  0.119822  0.019970      6.000000
  0.039941  0.039941  0.039941      8.000000
  0.059911  0.039941  0.039941     24.000000
  0.079881  0.039941  0.039941     24.000000
  0.099852  0.039941  0.039941     24.000000
  0.119822  0.039941  0.039941     12.000000
  0.059911  0.059911  0.039941     24.000000
  0.079881  0.059911  0.039941     48.000000
  0.099852  0.059911  0.039941     48.000000
  0.119822  0.059911  0.039941     24.000000
  0.079881  0.079881  0.039941     24.000000
  0.099852  0.079881  0.039941     48.000000
  0.119822  0.079881  0.039941     24.000000
  0.099852  0.099852  0.039941     24.000000
  0.119822  0.099852  0.039941     24.000000
  0.119822  0.119822  0.039941      6.000000
  0.059911  0.059911  0.059911      8.000000
  0.079881  0.059911  0.059911     24.000000
  0.099852  0.059911  0.059911     24.000000
  0.119822  0.059911  0.059911     12.000000
  0.079881  0.079881  0.059911     24.000000
  0.099852  0.079881  0.059911     48.000000
  0.119822  0.079881  0.059911     24.000000
  0.099852  0.099852  0.059911     24.000000
  0.119822  0.099852  0.059911     24.000000
  0.119822  0.119822  0.059911      6.000000
  0.079881  0.079881  0.079881      8.000000
  0.099852  0.079881  0.079881     24.000000
  0.119822  0.079881  0.079881     12.000000
  0.099852  0.099852  0.079881     24.000000
  0.119822  0.099852  0.079881     24.000000
  0.119822  0.119822  0.079881      6.000000
  0.099852  0.099852  0.099852      8.000000
  0.119822  0.099852  0.099852     12.000000
  0.119822  0.119822  0.099852      6.000000
  0.119822  0.119822  0.119822      1.000000
 


--------------------------------------------------------------------------------------------------------




 Dimension of arrays:
   k-Points           NKPTS =     84   number of bands    NBANDS=     28
   number of dos      NEDOS =    301   number of ions     NIONS =      4
   non local maximal  LDIM  =      6   non local SUM 2l+1 LMDIM =     18
   total plane-waves  NPLWV =  64000
   max r-space proj   IRMAX =      1   max aug-charges    IRDMAX= 457984
   dimension x,y,z NGX =    40 NGY =   40 NGZ =   40
   dimension x,y,z NGXF=    80 NGYF=   80 NGZF=   80
   support grid    NGXF=   160 NGYF=  160 NGZF=  160
   ions per type =               4
 NGX,Y,Z   is equivalent  to a cutoff of  16.26, 16.26, 16.26 a.u.
 NGXF,Y,Z  is equivalent  to a cutoff of  32.52, 32.52, 32.52 a.u.


 I would recommend the setting:
   dimension x,y,z NGX =    37 NGY =   37 NGZ =   37
 SYSTEM =  unknown system                          
 POSCAR =  Au                                      

 Startparameter for this run:
   NWRITE =      2    write-flag & timer
   PREC   = accura    medium, high low
   ISTART =      0    job   : 0-new  1-cont  2-samecut
   ICHARG =      2    charge: 1-file 2-atom 10-const
   ISPIN  =      1    spin polarized calculation?
   LNONCOLLINEAR =      F non collinear calculations
   LSORBIT =      F    spin-orbit coupling
   INIWAV =      1    electr: 0-lowe 1-rand  2-diag
   LASPH  =      F    aspherical Exc in radial PAW
   METAGGA=      F    non-selfconsistent MetaGGA calc.

 Electronic Relaxation 1
   ENCUT  =  750.0 eV  55.12 Ry    7.42 a.u.   9.13  9.13  9.13*2*pi/ulx,y,z
   ENINI  =  750.0     initial cutoff
   ENAUG  =  356.7 eV  augmentation charge cutoff
   NELM   =     60;   NELMIN=  2; NELMDL=  0     # of ELM steps 
   EDIFF  = 0.1E-07   stopping-criterion for ELM
   LREAL  =      F    real-space projection
   LCOMPAT=      F    compatible to vasp.4.4
   LREAL_COMPAT= F    compatible to vasp.4.5.1-3
   GGA_COMPAT  = T    GGA compatible to vasp.4.4-vasp.4.6
   LMAXPAW     = -100 max onsite density
   LMAXMIX     =    2 max onsite mixed and CHGCAR
   VOSKOWN=      0    Vosko Wilk Nusair interpolation
   ROPT   =    0.00000
 Ionic relaxation
   EDIFFG = 0.1E-06   stopping-criterion for IOM
   NSW    =      0    number of steps for IOM
   NBLOCK =      1;   KBLOCK =      1    inner block; outer block 
   IBRION =     -1    ionic relax: 0-MD 1-quasi-New 2-CG
   NFREE  =      0    steps in history (QN), initial steepest desc. (CG)
   ISIF   =      2    stress and relaxation
   IWAVPR =     10    prediction:  0-non 1-charg 2-wave 3-comb
   ISYM   =      2    0-nonsym 1-usesym 2-fastsym
   LCORR  =      T    Harris-Foulkes like correction to forces

   POTIM  =   0.50    time-step for ionic-motion
   TEIN   =    0.0    initial temperature
   TEBEG  =    0.0;   TEEND  =   0.0 temperature during run
   SMASS  =  -3.00    Nose mass-parameter (am)
   estimated Nose-frequenzy (Omega)   =  0.10E-29 period in steps =****** mass=  -0.382E-27a.u.
   NPACO  =    256;   APACO  = 16.0  distance and # of slots for P.C.
   PSTRESS=    0.0 pullay stress

  Mass of Ions in am
   POMASS = 196.97
  Ionic Valenz
   ZVAL   =  11.00
  Atomic Wigner-Seitz radii
   RWIGS  =  -1.00
   NELECT =      44.0000    total number of electrons
   NUPDOWN=      -1.0000    fix difference up-down

 DOS related values:
   EMIN   =  10.00;   EMAX   =-10.00  energy-range for DOS
   ISMEAR =     0;   SIGMA  =   0.01  broadening in eV -4-tet -1-fermi 0-gaus

 Electronic relaxation 2 (details)
   IALGO  =     38    algorithm
   LDIAG  =      T    sub-space diagonalisation
   IMIX   =      4    mixing-type and parameters
     AMIX     =   0.40;   BMIX     =  1.00
     AMIX_MAG =   1.60;   BMIX_MAG =  1.00
     AMIN     =   0.10
     WC   =   100.;   INIMIX=   1;  MIXPRE=   1

 Intra band minimization:
   WEIMIN = 0.0000     energy-eigenvalue tresh-hold
   EBREAK =  0.96E-10  absolut break condition
   DEPER  =   0.30     relativ break condition  

   TIME   =   0.10     timestep for ELM

  volume/ion in A,a.u.               =      17.10       115.38
  Fermi-wavevector in a.u.,eV,Ry     =   1.413297 27.176379  1.997408

 Second variation
   LSECVAR=     F    do a second variation
 
 Write flags
   LWAVE  =      F    write WAVECAR
   LCHARG =      F    write CHGCAR
   LVTOT  =      F    write LOCPOT, local potential
   LELF   =      F    write electronic localiz. function (ELF)
   LORBIT =      0    0 simple, 1 ext, 2 COOP (PROOUT)


 Dipole corrections
   IDIPOL =      0    1-x, 2-y, 3-z
   LDIPOL =      F    correct potential



--------------------------------------------------------------------------------------------------------


 Static calculation
 charge density will be updated during run
 non-spin polarized calculation
 Variant of blocked Davidson
 Davidson routine will perform the subspace rotation
 performe sub-space diagonalisation
    after iterative eigenvector-optimisation
 modified Broyden-mixing scheme, WC =      100.0
 initial mixing is a Kerker type mixing with AMIX =  0.4000 and BMIX =      1.0000
 Hartree-type preconditioning will be used
 using additional bands            6
 reciprocal scheme for non local part
 use partial core corrections
 calculate Harris-corrections to forces 
   (improved forces if not selfconsistent)
 use gradient corrections 
 use of overlap-Matrix (Vanderbilt PP)
 Gauss-broadening in eV      SIGMA  =   0.01


--------------------------------------------------------------------------------------------------------


  energy-cutoff  :      750.00
  volume of cell :       68.39
      direct lattice vectors                 reciprocal lattice vectors
     4.089394864  0.000000000  0.000000000     0.244534958  0.000000000  0.000000000
     0.000000000  4.089394864  0.000000000     0.000000000  0.244534958  0.000000000
     0.000000000  0.000000000  4.089394864     0.000000000  0.000000000  0.244534958

  length of vectors
     4.089394864  4.089394864  4.089394864     0.244534958  0.244534958  0.244534958


 
 k-points in units of 2pi/SCALE and weight: Automatic mesh                          
   0.00000000  0.00000000  0.00000000       0.001
   0.01997035  0.00000000  0.00000000       0.003
   0.03994071  0.00000000  0.00000000       0.003
   0.05991106  0.00000000  0.00000000       0.003
   0.07988142  0.00000000  0.00000000       0.003
   0.09985177  0.00000000  0.00000000       0.003
   0.11982213  0.00000000  0.00000000       0.002
   0.01997035  0.01997035  0.00000000       0.007
   0.03994071  0.01997035  0.00000000       0.014
   0.05991106  0.01997035  0.00000000       0.014
   0.07988142  0.01997035  0.00000000       0.014
   0.09985177  0.01997035  0.00000000       0.014
   0.11982213  0.01997035  0.00000000       0.007
   0.03994071  0.03994071  0.00000000       0.007
   0.05991106  0.03994071  0.00000000       0.014
   0.07988142  0.03994071  0.00000000       0.014
   0.09985177  0.03994071  0.00000000       0.014
   0.11982213  0.03994071  0.00000000       0.007
   0.05991106  0.05991106  0.00000000       0.007
   0.07988142  0.05991106  0.00000000       0.014
   0.09985177  0.05991106  0.00000000       0.014
   0.11982213  0.05991106  0.00000000       0.007
   0.07988142  0.07988142  0.00000000       0.007
   0.09985177  0.07988142  0.00000000       0.014
   0.11982213  0.07988142  0.00000000       0.007
   0.09985177  0.09985177  0.00000000       0.007
   0.11982213  0.09985177  0.00000000       0.007
   0.11982213  0.11982213  0.00000000       0.002
   0.01997035  0.01997035  0.01997035       0.005
   0.03994071  0.01997035  0.01997035       0.014
   0.05991106  0.01997035  0.01997035       0.014
   0.07988142  0.01997035  0.01997035       0.014
   0.09985177  0.01997035  0.01997035       0.014
   0.11982213  0.01997035  0.01997035       0.007
   0.03994071  0.03994071  0.01997035       0.014
   0.05991106  0.03994071  0.01997035       0.028
   0.07988142  0.03994071  0.01997035       0.028
   0.09985177  0.03994071  0.01997035       0.028
   0.11982213  0.03994071  0.01997035       0.014
   0.05991106  0.05991106  0.01997035       0.014
   0.07988142  0.05991106  0.01997035       0.028
   0.09985177  0.05991106  0.01997035       0.028
   0.11982213  0.05991106  0.01997035       0.014
   0.07988142  0.07988142  0.01997035       0.014
   0.09985177  0.07988142  0.01997035       0.028
   0.11982213  0.07988142  0.01997035       0.014
   0.09985177  0.09985177  0.01997035       0.014
   0.11982213  0.09985177  0.01997035       0.014
   0.11982213  0.11982213  0.01997035       0.003
   0.03994071  0.03994071  0.03994071       0.005
   0.05991106  0.03994071  0.03994071       0.014
   0.07988142  0.03994071  0.03994071       0.014
   0.09985177  0.03994071  0.03994071       0.014
   0.11982213  0.03994071  0.03994071       0.007
   0.05991106  0.05991106  0.03994071       0.014
   0.07988142  0.05991106  0.03994071       0.028
   0.09985177  0.05991106  0.03994071       0.028
   0.11982213  0.05991106  0.03994071       0.014
   0.07988142  0.07988142  0.03994071       0.014
   0.09985177  0.07988142  0.03994071       0.028
   0.11982213  0.07988142  0.03994071       0.014
   0.09985177  0.09985177  0.03994071       0.014
   0.11982213  0.09985177  0.03994071       0.014
   0.11982213  0.11982213  0.03994071       0.003
   0.05991106  0.05991106  0.05991106       0.005
   0.07988142  0.05991106  0.05991106       0.014
   0.09985177  0.05991106  0.05991106       0.014
   0.11982213  0.05991106  0.05991106       0.007
   0.07988142  0.07988142  0.05991106       0.014
   0.09985177  0.07988142  0.05991106       0.028
   0.11982213  0.07988142  0.05991106       0.014
   0.09985177  0.09985177  0.05991106       0.014
   0.11982213  0.09985177  0.05991106       0.014
   0.11982213  0.11982213  0.05991106       0.003
   0.07988142  0.07988142  0.07988142       0.005
   0.09985177  0.07988142  0.07988142       0.014
   0.11982213  0.07988142  0.07988142       0.007
   0.09985177  0.09985177  0.07988142       0.014
   0.11982213  0.09985177  0.07988142       0.014
   0.11982213  0.11982213  0.07988142       0.003
   0.09985177  0.09985177  0.09985177       0.005
   0.11982213  0.09985177  0.09985177       0.007
   0.11982213  0.11982213  0.09985177       0.003
   0.11982213  0.11982213  0.11982213       0.001
 
 k-points in reciprocal lattice and weights: Automatic mesh                          
   0.00000000  0.00000000  0.00000000       0.001
   0.08333333  0.00000000  0.00000000       0.003
   0.16666667  0.00000000  0.00000000       0.003
   0.25000000  0.00000000  0.00000000       0.003
   0.33333333  0.00000000  0.00000000       0.003
   0.41666667  0.00000000  0.00000000       0.003
   0.50000000  0.00000000  0.00000000       0.002
   0.08333333  0.08333333  0.00000000       0.007
   0.16666667  0.08333333  0.00000000       0.014
   0.25000000  0.08333333  0.00000000       0.014
   0.33333333  0.08333333  0.00000000       0.014
   0.41666667  0.08333333  0.00000000       0.014
   0.50000000  0.08333333  0.00000000       0.007
   0.16666667  0.16666667  0.00000000       0.007
   0.25000000  0.16666667  0.00000000       0.014
   0.33333333  0.16666667  0.00000000       0.014
   0.41666667  0.16666667  0.00000000       0.014
   0.50000000  0.16666667  0.00000000       0.007
   0.25000000  0.25000000  0.00000000       0.007
   0.33333333  0.25000000  0.00000000       0.014
   0.41666667  0.25000000  0.00000000       0.014
   0.50000000  0.25000000  0.00000000       0.007
   0.33333333  0.33333333  0.00000000       0.007
   0.41666667  0.33333333  0.00000000       0.014
   0.50000000  0.33333333  0.00000000       0.007
   0.41666667  0.41666667  0.00000000       0.007
   0.50000000  0.41666667  0.00000000       0.007
   0.50000000  0.50000000  0.00000000       0.002
   0.08333333  0.08333333  0.08333333       0.005
   0.16666667  0.08333333  0.08333333       0.014
   0.25000000  0.08333333  0.08333333       0.014
   0.33333333  0.08333333  0.08333333       0.014
   0.41666667  0.08333333  0.08333333       0.014
   0.50000000  0.08333333  0.08333333       0.007
   0.16666667  0.16666667  0.08333333       0.014
   0.25000000  0.16666667  0.08333333       0.028
   0.33333333  0.16666667  0.08333333       0.028
   0.41666667  0.16666667  0.08333333       0.028
   0.50000000  0.16666667  0.08333333       0.014
   0.25000000  0.25000000  0.08333333       0.014
   0.33333333  0.25000000  0.08333333       0.028
   0.41666667  0.25000000  0.08333333       0.028
   0.50000000  0.25000000  0.08333333       0.014
   0.33333333  0.33333333  0.08333333       0.014
   0.41666667  0.33333333  0.08333333       0.028
   0.50000000  0.33333333  0.08333333       0.014
   0.41666667  0.41666667  0.08333333       0.014
   0.50000000  0.41666667  0.08333333       0.014
   0.50000000  0.50000000  0.08333333       0.003
   0.16666667  0.16666667  0.16666667       0.005
   0.25000000  0.16666667  0.16666667       0.014
   0.33333333  0.16666667  0.16666667       0.014
   0.41666667  0.16666667  0.16666667       0.014
   0.50000000  0.16666667  0.16666667       0.007
   0.25000000  0.25000000  0.16666667       0.014
   0.33333333  0.25000000  0.16666667       0.028
   0.41666667  0.25000000  0.16666667       0.028
   0.50000000  0.25000000  0.16666667       0.014
   0.33333333  0.33333333  0.16666667       0.014
   0.41666667  0.33333333  0.16666667       0.028
   0.50000000  0.33333333  0.16666667       0.014
   0.41666667  0.41666667  0.16666667       0.014
   0.50000000  0.41666667  0.16666667       0.014
   0.50000000  0.50000000  0.16666667       0.003
   0.25000000  0.25000000  0.25000000       0.005
   0.33333333  0.25000000  0.25000000       0.014
   0.41666667  0.25000000  0.25000000       0.014
   0.50000000  0.25000000  0.25000000       0.007
   0.33333333  0.33333333  0.25000000       0.014
   0.41666667  0.33333333  0.25000000       0.028
   0.50000000  0.33333333  0.25000000       0.014
   0.41666667  0.41666667  0.25000000       0.014
   0.50000000  0.41666667  0.25000000       0.014
   0.50000000  0.50000000  0.25000000       0.003
   0.33333333  0.33333333  0.33333333       0.005
   0.41666667  0.33333333  0.33333333       0.014
   0.50000000  0.33333333  0.33333333       0.007
   0.41666667  0.41666667  0.33333333       0.014
   0.50000000  0.41666667  0.33333333       0.014
   0.50000000  0.50000000  0.33333333       0.003
   0.41666667  0.41666667  0.41666667       0.005
   0.50000000  0.41666667  0.41666667       0.007
   0.50000000  0.50000000  0.41666667       0.003
   0.50000000  0.50000000  0.50000000       0.001
 
 position of ions in fractional coordinates (direct lattice) 
   0.00000000  0.00000000  0.00000000
   0.50000000  0.50000000  0.00000000
   0.50000000  0.00000000  0.50000000
   0.00000000  0.50000000  0.50000000
 
 position of ions in cartesian coordinates  (Angst):
   0.00000000  0.00000000  0.00000000
   2.04469743  2.04469743  0.00000000
   2.04469743  0.00000000  2.04469743
   0.00000000  2.04469743  2.04469743
 


--------------------------------------------------------------------------------------------------------


 k-point  1 :  0.00000.00000.0000  plane waves:   3191
 k-point  2 :  0.08330.00000.0000  plane waves:   3175
 k-point  3 :  0.16670.00000.0000  plane waves:   3190
 k-point  4 :  0.25000.00000.0000  plane waves:   3178
 k-point  5 :  0.33330.00000.0000  plane waves:   3174
 k-point  6 :  0.41670.00000.0000  plane waves:   3182
 k-point  7 :  0.50000.00000.0000  plane waves:   3218
 k-point  8 :  0.08330.08330.0000  plane waves:   3181
 k-point  9 :  0.16670.08330.0000  plane waves:   3176
 k-point 10 :  0.25000.08330.0000  plane waves:   3165
 k-point 11 :  0.33330.08330.0000  plane waves:   3174
 k-point 12 :  0.41670.08330.0000  plane waves:   3191
 k-point 13 :  0.50000.08330.0000  plane waves:   3202
 k-point 14 :  0.16670.16670.0000  plane waves:   3167
 k-point 15 :  0.25000.16670.0000  plane waves:   3183
 k-point 16 :  0.33330.16670.0000  plane waves:   3181
 k-point 17 :  0.41670.16670.0000  plane waves:   3202
 k-point 18 :  0.50000.16670.0000  plane waves:   3204
 k-point 19 :  0.25000.25000.0000  plane waves:   3195
 k-point 20 :  0.33330.25000.0000  plane waves:   3197
 k-point 21 :  0.41670.25000.0000  plane waves:   3189
 k-point 22 :  0.50000.25000.0000  plane waves:   3196
 k-point 23 :  0.33330.33330.0000  plane waves:   3203
 k-point 24 :  0.41670.33330.0000  plane waves:   3197
 k-point 25 :  0.50000.33330.0000  plane waves:   3206
 k-point 26 :  0.41670.41670.0000  plane waves:   3189
 k-point 27 :  0.50000.41670.0000  plane waves:   3190
 k-point 28 :  0.50000.50000.0000  plane waves:   3168
 k-point 29 :  0.08330.08330.0833  plane waves:   3179
 k-point 30 :  0.16670.08330.0833  plane waves:   3173
 k-point 31 :  0.25000.08330.0833  plane waves:   3161
 k-point 32 :  0.33330.08330.0833  plane waves:   3183
 k-point 33 :  0.41670.08330.0833  plane waves:   3198
 k-point 34 :  0.50000.08330.0833  plane waves:   3196
 k-point 35 :  0.16670.16670.0833  plane waves:   3172
 k-point 36 :  0.25000.16670.0833  plane waves:   3176
 k-point 37 :  0.33330.16670.0833  plane waves:   3183
 k-point 38 :  0.41670.16670.0833  plane waves:   3198
 k-point 39 :  0.50000.16670.0833  plane waves:   3200
 k-point 40 :  0.25000.25000.0833  plane waves:   3185
 k-point 41 :  0.33330.25000.0833  plane waves:   3190
 k-point 42 :  0.41670.25000.0833  plane waves:   3192
 k-point 43 :  0.50000.25000.0833  plane waves:   3196
 k-point 44 :  0.33330.33330.0833  plane waves:   3189
 k-point 45 :  0.41670.33330.0833  plane waves:   3194
 k-point 46 :  0.50000.33330.0833  plane waves:   3198
 k-point 47 :  0.41670.41670.0833  plane waves:   3193
 k-point 48 :  0.50000.41670.0833  plane waves:   3190
 k-point 49 :  0.50000.50000.0833  plane waves:   3192
 k-point 50 :  0.16670.16670.1667  plane waves:   3164
 k-point 51 :  0.25000.16670.1667  plane waves:   3176
 k-point 52 :  0.33330.16670.1667  plane waves:   3185
 k-point 53 :  0.41670.16670.1667  plane waves:   3195
 k-point 54 :  0.50000.16670.1667  plane waves:   3190
 k-point 55 :  0.25000.25000.1667  plane waves:   3185
 k-point 56 :  0.33330.25000.1667  plane waves:   3191
 k-point 57 :  0.41670.25000.1667  plane waves:   3195
 k-point 58 :  0.50000.25000.1667  plane waves:   3196
 k-point 59 :  0.33330.33330.1667  plane waves:   3187
 k-point 60 :  0.41670.33330.1667  plane waves:   3192
 k-point 61 :  0.50000.33330.1667  plane waves:   3188
 k-point 62 :  0.41670.41670.1667  plane waves:   3193
 k-point 63 :  0.50000.41670.1667  plane waves:   3190
 k-point 64 :  0.50000.50000.1667  plane waves:   3200
 k-point 65 :  0.25000.25000.2500  plane waves:   3197
 k-point 66 :  0.33330.25000.2500  plane waves:   3188
 k-point 67 :  0.41670.25000.2500  plane waves:   3194
 k-point 68 :  0.50000.25000.2500  plane waves:   3212
 k-point 69 :  0.33330.33330.2500  plane waves:   3195
 k-point 70 :  0.41670.33330.2500  plane waves:   3191
 k-point 71 :  0.50000.33330.2500  plane waves:   3196
 k-point 72 :  0.41670.41670.2500  plane waves:   3189
 k-point 73 :  0.50000.41670.2500  plane waves:   3200
 k-point 74 :  0.50000.50000.2500  plane waves:   3196
 k-point 75 :  0.33330.33330.3333  plane waves:   3217
 k-point 76 :  0.41670.33330.3333  plane waves:   3196
 k-point 77 :  0.50000.33330.3333  plane waves:   3190
 k-point 78 :  0.41670.41670.3333  plane waves:   3190
 k-point 79 :  0.50000.41670.3333  plane waves:   3190
 k-point 80 :  0.50000.50000.3333  plane waves:   3176
 k-point 81 :  0.41670.41670.4167  plane waves:   3196
 k-point 82 :  0.50000.41670.4167  plane waves:   3188
 k-point 83 :  0.50000.50000.4167  plane waves:   3168
 k-point 84 :  0.50000.50000.5000  plane waves:   3184

 maximum and minimum number of plane-waves per node :   3218  3161

 maximum number of plane-waves:   3218
 maximal index in each direction: 
   IXMAX=  9   IYMAX=  9   IZMAX=  9
   IXMIN= -9   IYMIN= -9   IZMIN= -9

 NGX is ok and might be reduce to  38
 NGY is ok and might be reduce to  38
 NGZ is ok and might be reduce to  38

 parallel 3dFFT wavefunction:
    minimum data exchange during FFTs selected (reduces bandwidth)
 parallel 3dFFT charge:
    minimum data exchange during FFTs selected (reduces bandwidth)

 For storing wavefunctions  120.01 MBYTES are necessary
 For predicting wavefunctions    4.21 MBYTES are necessary
Broyden mixing: mesh for mixing (old mesh)
   NGX = 19   NGY = 19   NGZ = 19
  (NGX  = 80   NGY  = 80   NGZ  = 80)
 gives a total of   6859 points
 initial charge density was supplied:
 charge density of overlapping atoms calculated
 number of electron   44.0000000 magnetization 
 keeping initial charge density in first step


--------------------------------------------------------------------------------------------------------


 Maximum index for augmentation-charges       110863 (set IRDMAX)


--------------------------------------------------------------------------------------------------------


 First call to EWALD:  gamma=   0.433
 Maximum number of real-space cells 3x 3x 3
 Maximum number of reciprocal cells 3x 3x 3

    FEWALD:  VPU time    0.00: CPU time    0.00


----------------------------------------- Iteration    1(   1)  ---------------------------------------


    POTLOK:  VPU time    0.15: CPU time    0.15
    SETDIJ:  VPU time    0.45: CPU time    0.45
    EDDAV :  VPU time   11.80: CPU time   11.82
    DOS   :  VPU time    0.00: CPU time   -0.00
    ------------------------------------------
      LOOP:  VPU time   12.41: CPU time   12.43

 eigenvalue-minimisations  :  4704
 total energy-change (2. order) : 0.5515708E+03  (-0.2722795E+04)
 number of electron   44.0000000 magnetization 
 augmentation part    44.0000000 magnetization 

 Free energy of the ion-electron system (eV)
  ---------------------------------------------------
  alpha Z        PSCENC =       438.16629999
  Ewald energy   TEWEN  =     -3906.95736399
  -1/2 Hartree   DENC   =      -497.24818883
  -V(xc)+E(xc)   XCENC  =        61.42420967
  PAW double counting   =      2990.04966927    -2896.51663641
  entropy T*S    EENTRO =        -0.00034060
  eigenvalues    EBANDS =       658.42945729
  atomic energy  EATOM  =      3704.22372399
  ---------------------------------------------------
  free energy    TOTEN  =       551.57083038 eV

  energy without entropy =      551.57117097  energy(sigma->0) =      551.57100068


--------------------------------------------------------------------------------------------------------




----------------------------------------- Iteration    1(   2)  ---------------------------------------


    EDDAV :  VPU time    7.76: CPU time    7.76
    DOS   :  VPU time    0.00: CPU time   -0.00
    ------------------------------------------
      LOOP:  VPU time    7.77: CPU time    7.77

 eigenvalue-minimisations  :  4732
 total energy-change (2. order) :-0.5418548E+03  (-0.5175796E+03)
 number of electron   44.0000000 magnetization 
 augmentation part    44.0000000 magnetization 

 Free energy of the ion-electron system (eV)
  ---------------------------------------------------
  alpha Z        PSCENC =       438.16629999
  Ewald energy   TEWEN  =     -3906.95736399
  -1/2 Hartree   DENC   =      -497.24818883
  -V(xc)+E(xc)   XCENC  =        61.42420967
  PAW double counting   =      2990.04966927    -2896.51663641
  entropy T*S    EENTRO =        -0.00010105
  eigenvalues    EBANDS =       116.57436831
  atomic energy  EATOM  =      3704.22372399
  ---------------------------------------------------
  free energy    TOTEN  =         9.71598094 eV

  energy without entropy =        9.71608200  energy(sigma->0) =        9.71603147


--------------------------------------------------------------------------------------------------------




----------------------------------------- Iteration    1(   3)  ---------------------------------------


    EDDAV :  VPU time    7.08: CPU time    7.08
    DOS   :  VPU time    0.00: CPU time   -0.00
    ------------------------------------------
      LOOP:  VPU time    7.08: CPU time    7.09

 eigenvalue-minimisations  :  5228
 total energy-change (2. order) :-0.2325649E+02  (-0.2236725E+02)
 number of electron   44.0000000 magnetization 
 augmentation part    44.0000000 magnetization 

 Free energy of the ion-electron system (eV)
  ---------------------------------------------------
  alpha Z        PSCENC =       438.16629999
  Ewald energy   TEWEN  =     -3906.95736399
  -1/2 Hartree   DENC   =      -497.24818883
  -V(xc)+E(xc)   XCENC  =        61.42420967
  PAW double counting   =      2990.04966927    -2896.51663641
  entropy T*S    EENTRO =        -0.00013859
  eigenvalues    EBANDS =        93.31791599
  atomic energy  EATOM  =      3704.22372399
  ---------------------------------------------------
  free energy    TOTEN  =       -13.54050892 eV

  energy without entropy =      -13.54037033  energy(sigma->0) =      -13.54043962


--------------------------------------------------------------------------------------------------------




----------------------------------------- Iteration    1(   4)  ---------------------------------------


    EDDAV :  VPU time    5.46: CPU time    5.47
    DOS   :  VPU time    0.00: CPU time   -0.00
    ------------------------------------------
      LOOP:  VPU time    5.47: CPU time    5.47

 eigenvalue-minimisations  :  4996
 total energy-change (2. order) :-0.4256725E+00  (-0.4246527E+00)
 number of electron   44.0000000 magnetization 
 augmentation part    44.0000000 magnetization 

 Free energy of the ion-electron system (eV)
  ---------------------------------------------------
  alpha Z        PSCENC =       438.16629999
  Ewald energy   TEWEN  =     -3906.95736399
  -1/2 Hartree   DENC   =      -497.24818883
  -V(xc)+E(xc)   XCENC  =        61.42420967
  PAW double counting   =      2990.04966927    -2896.51663641
  entropy T*S    EENTRO =        -0.00008135
  eigenvalues    EBANDS =        92.89218626
  atomic energy  EATOM  =      3704.22372399
  ---------------------------------------------------
  free energy    TOTEN  =       -13.96618140 eV

  energy without entropy =      -13.96610006  energy(sigma->0) =      -13.96614073


--------------------------------------------------------------------------------------------------------




----------------------------------------- Iteration    1(   5)  ---------------------------------------


    EDDAV :  VPU time    6.98: CPU time    6.99
    DOS   :  VPU time    0.00: CPU time   -0.00
    CHARGE:  VPU time    1.32: CPU time    1.33
    MIXING:  VPU time    0.00: CPU time    0.00
    ------------------------------------------
      LOOP:  VPU time    8.32: CPU time    8.33

 eigenvalue-minimisations  :  5016
 total energy-change (2. order) :-0.3987234E-02  (-0.3986365E-02)
 number of electron   44.0000001 magnetization 
 augmentation part    15.4900380 magnetization 

 Broyden mixing:
  rms(total) = 0.58293E+00    rms(broyden)= 0.58293E+00
  rms(prec ) = 0.14747E+01
  weight for this iteration     100.00

 Free energy of the ion-electron system (eV)
  ---------------------------------------------------
  alpha Z        PSCENC =       438.16629999
  Ewald energy   TEWEN  =     -3906.95736399
  -1/2 Hartree   DENC   =      -497.24818883
  -V(xc)+E(xc)   XCENC  =        61.42420967
  PAW double counting   =      2990.04966927    -2896.51663641
  entropy T*S    EENTRO =        -0.00008119
  eigenvalues    EBANDS =        92.88819887
  atomic energy  EATOM  =      3704.22372399
  ---------------------------------------------------
  free energy    TOTEN  =       -13.97016864 eV

  energy without entropy =      -13.97008744  energy(sigma->0) =      -13.97012804


--------------------------------------------------------------------------------------------------------




----------------------------------------- Iteration    1(   6)  ---------------------------------------


    POTLOK:  VPU time    0.15: CPU time    0.15
    SETDIJ:  VPU time    0.48: CPU time    0.48
    EDDAV :  VPU time   12.35: CPU time   12.36
    DOS   :  VPU time    0.00: CPU time   -0.00
    CHARGE:  VPU time    1.37: CPU time    1.37
    MIXING:  VPU time    0.00: CPU time    0.00
    ------------------------------------------
      LOOP:  VPU time   14.36: CPU time   14.38

 eigenvalue-minimisations  :  5000
 total energy-change (2. order) : 0.9187742E+00  (-0.2188924E+00)
 number of electron   44.0000001 magnetization 
 augmentation part    15.9929588 magnetization 

 Broyden mixing:
  rms(total) = 0.16236E+00    rms(broyden)= 0.16236E+00
  rms(prec ) = 0.40013E+00
  weight for this iteration     100.00

 eigenvalues of (default mixing * dielectric matrix)
  average eigenvalue GAMMA=   1.2682
  1.2682

 Free energy of the ion-electron system (eV)
  ---------------------------------------------------
  alpha Z        PSCENC =       438.16629999
  Ewald energy   TEWEN  =     -3906.95736399
  -1/2 Hartree   DENC   =      -467.42118321
  -V(xc)+E(xc)   XCENC  =        60.11440032
  PAW double counting   =      2975.85190290    -2887.38049808
  entropy T*S    EENTRO =        -0.00014341
  eigenvalues    EBANDS =        70.35146706
  atomic energy  EATOM  =      3704.22372399
  ---------------------------------------------------
  free energy    TOTEN  =       -13.05139445 eV

  energy without entropy =      -13.05125105  energy(sigma->0) =      -13.05132275


--------------------------------------------------------------------------------------------------------




----------------------------------------- Iteration    1(   7)  ---------------------------------------


    POTLOK:  VPU time    0.15: CPU time    0.15
    SETDIJ:  VPU time    0.47: CPU time    0.47
    EDDAV :  VPU time   12.97: CPU time   12.98
    DOS   :  VPU time    0.00: CPU time   -0.00
    CHARGE:  VPU time    1.37: CPU time    1.37
    MIXING:  VPU time    0.00: CPU time    0.00
    ------------------------------------------
      LOOP:  VPU time   14.98: CPU time   14.99

 eigenvalue-minimisations  :  5356
 total energy-change (2. order) : 0.7480926E-01  (-0.1766358E-01)
 number of electron   44.0000001 magnetization 
 augmentation part    16.1315222 magnetization 

 Broyden mixing:
  rms(total) = 0.58376E-01    rms(broyden)= 0.58376E-01
  rms(prec ) = 0.93504E-01
  weight for this iteration     100.00

 eigenvalues of (default mixing * dielectric matrix)
  average eigenvalue GAMMA=   1.8362
  1.2343  2.4381

 Free energy of the ion-electron system (eV)
  ---------------------------------------------------
  alpha Z        PSCENC =       438.16629999
  Ewald energy   TEWEN  =     -3906.95736399
  -1/2 Hartree   DENC   =      -457.12624867
  -V(xc)+E(xc)   XCENC  =        59.65353459
  PAW double counting   =      2992.00777150    -2906.91400608
  entropy T*S    EENTRO =        -0.00010574
  eigenvalues    EBANDS =        63.96980922
  atomic energy  EATOM  =      3704.22372399
  ---------------------------------------------------
  free energy    TOTEN  =       -12.97658519 eV

  energy without entropy =      -12.97647946  energy(sigma->0) =      -12.97653233


--------------------------------------------------------------------------------------------------------




----------------------------------------- Iteration    1(   8)  ---------------------------------------


    POTLOK:  VPU time    0.15: CPU time    0.15
    SETDIJ:  VPU time    0.48: CPU time    0.48
    EDDAV :  VPU time   11.95: CPU time   11.96
    DOS   :  VPU time    0.00: CPU time   -0.00
    CHARGE:  VPU time    1.37: CPU time    1.37
    MIXING:  VPU time    0.00: CPU time    0.00
    ------------------------------------------
      LOOP:  VPU time   13.96: CPU time   13.98

 eigenvalue-minimisations  :  4788
 total energy-change (2. order) : 0.1299985E-01  (-0.8109724E-03)
 number of electron   44.0000001 magnetization 
 augmentation part    16.1279320 magnetization 

 Broyden mixing:
  rms(total) = 0.39329E-02    rms(broyden)= 0.39329E-02
  rms(prec ) = 0.76212E-02
  weight for this iteration     100.00

 eigenvalues of (default mixing * dielectric matrix)
  average eigenvalue GAMMA=   1.8108
  2.6209  1.2633  1.5482

 Free energy of the ion-electron system (eV)
  ---------------------------------------------------
  alpha Z        PSCENC =       438.16629999
  Ewald energy   TEWEN  =     -3906.95736399
  -1/2 Hartree   DENC   =      -454.06451956
  -V(xc)+E(xc)   XCENC  =        59.50269180
  PAW double counting   =      3021.50205200    -2939.01043145
  entropy T*S    EENTRO =        -0.00010574
  eigenvalues    EBANDS =        63.67406763
  atomic energy  EATOM  =      3704.22372399
  ---------------------------------------------------
  free energy    TOTEN  =       -12.96358534 eV

  energy without entropy =      -12.96347960  energy(sigma->0) =      -12.96353247


--------------------------------------------------------------------------------------------------------




----------------------------------------- Iteration    1(   9)  ---------------------------------------


    POTLOK:  VPU time    0.15: CPU time    0.15
    SETDIJ:  VPU time    0.47: CPU time    0.47
    EDDAV :  VPU time   12.70: CPU time   12.71
    DOS   :  VPU time    0.00: CPU time   -0.00
    CHARGE:  VPU time    1.37: CPU time    1.37
    MIXING:  VPU time    0.01: CPU time    0.00
    ------------------------------------------
      LOOP:  VPU time   14.70: CPU time   14.72

 eigenvalue-minimisations  :  5108
 total energy-change (2. order) :-0.5939935E-04  (-0.2822965E-04)
 number of electron   44.0000001 magnetization 
 augmentation part    16.1331672 magnetization 

 Broyden mixing:
  rms(total) = 0.23522E-02    rms(broyden)= 0.23522E-02
  rms(prec ) = 0.47656E-02
  weight for this iteration     100.00

 eigenvalues of (default mixing * dielectric matrix)
  average eigenvalue GAMMA=   1.7947
  0.9753  1.2023  2.5007  2.5007

 Free energy of the ion-electron system (eV)
  ---------------------------------------------------
  alpha Z        PSCENC =       438.16629999
  Ewald energy   TEWEN  =     -3906.95736399
  -1/2 Hartree   DENC   =      -453.79965950
  -V(xc)+E(xc)   XCENC  =        59.48998263
  PAW double counting   =      3023.34456305    -2940.85521018
  entropy T*S    EENTRO =        -0.00010574
  eigenvalues    EBANDS =        63.42412502
  atomic energy  EATOM  =      3704.22372399
  ---------------------------------------------------
  free energy    TOTEN  =       -12.96364474 eV

  energy without entropy =      -12.96353900  energy(sigma->0) =      -12.96359187


--------------------------------------------------------------------------------------------------------




----------------------------------------- Iteration    1(  10)  ---------------------------------------


    POTLOK:  VPU time    0.15: CPU time    0.15
    SETDIJ:  VPU time    0.48: CPU time    0.48
    EDDAV :  VPU time   12.13: CPU time   12.15
    DOS   :  VPU time    0.00: CPU time   -0.00
    CHARGE:  VPU time    1.37: CPU time    1.37
    MIXING:  VPU time    0.00: CPU time    0.00
    ------------------------------------------
      LOOP:  VPU time   14.14: CPU time   14.16

 eigenvalue-minimisations  :  4816
 total energy-change (2. order) :-0.8910893E-05  (-0.2338618E-05)
 number of electron   44.0000001 magnetization 
 augmentation part    16.1325469 magnetization 

 Broyden mixing:
  rms(total) = 0.23729E-03    rms(broyden)= 0.23729E-03
  rms(prec ) = 0.39572E-03
  weight for this iteration     100.00

 eigenvalues of (default mixing * dielectric matrix)
  average eigenvalue GAMMA=   1.7681
  2.8921  2.4233  1.0139  1.1966  1.3148

 Free energy of the ion-electron system (eV)
  ---------------------------------------------------
  alpha Z        PSCENC =       438.16629999
  Ewald energy   TEWEN  =     -3906.95736399
  -1/2 Hartree   DENC   =      -453.97457069
  -V(xc)+E(xc)   XCENC  =        59.49690128
  PAW double counting   =      3024.39090374    -2941.77409280
  entropy T*S    EENTRO =        -0.00010574
  eigenvalues    EBANDS =        63.46465057
  atomic energy  EATOM  =      3704.22372399
  ---------------------------------------------------
  free energy    TOTEN  =       -12.96365365 eV

  energy without entropy =      -12.96354791  energy(sigma->0) =      -12.96360078


--------------------------------------------------------------------------------------------------------




----------------------------------------- Iteration    1(  11)  ---------------------------------------


    POTLOK:  VPU time    0.15: CPU time    0.15
    SETDIJ:  VPU time    0.48: CPU time    0.48
    EDDAV :  VPU time   12.58: CPU time   12.59
    DOS   :  VPU time    0.00: CPU time   -0.00
    CHARGE:  VPU time    1.35: CPU time    1.35
    MIXING:  VPU time    0.00: CPU time    0.00
    ------------------------------------------
      LOOP:  VPU time   14.57: CPU time   14.58

 eigenvalue-minimisations  :  5068
 total energy-change (2. order) :-0.2181211E-05  (-0.4472750E-07)
 number of electron   44.0000001 magnetization 
 augmentation part    16.1325152 magnetization 

 Broyden mixing:
  rms(total) = 0.82492E-04    rms(broyden)= 0.82491E-04
  rms(prec ) = 0.14198E-03
  weight for this iteration     100.00

 eigenvalues of (default mixing * dielectric matrix)
  average eigenvalue GAMMA=   1.8105
  2.8550  2.4178  2.4178  1.1946  0.9890  0.9890

 Free energy of the ion-electron system (eV)
  ---------------------------------------------------
  alpha Z        PSCENC =       438.16629999
  Ewald energy   TEWEN  =     -3906.95736399
  -1/2 Hartree   DENC   =      -453.96833092
  -V(xc)+E(xc)   XCENC  =        59.49643572
  PAW double counting   =      3024.61509408    -2942.00197959
  entropy T*S    EENTRO =        -0.00010574
  eigenvalues    EBANDS =        63.46257063
  atomic energy  EATOM  =      3704.22372399
  ---------------------------------------------------
  free energy    TOTEN  =       -12.96365583 eV

  energy without entropy =      -12.96355009  energy(sigma->0) =      -12.96360296


--------------------------------------------------------------------------------------------------------




----------------------------------------- Iteration    1(  12)  ---------------------------------------


    POTLOK:  VPU time    0.15: CPU time    0.15
    SETDIJ:  VPU time    0.48: CPU time    0.48
    EDDAV :  VPU time   11.84: CPU time   11.85
    DOS   :  VPU time    0.00: CPU time   -0.00
    CHARGE:  VPU time    1.37: CPU time    1.37
    MIXING:  VPU time    0.00: CPU time    0.00
    ------------------------------------------
      LOOP:  VPU time   13.85: CPU time   13.87

 eigenvalue-minimisations  :  4624
 total energy-change (2. order) : 0.6865866E-06  (-0.3747635E-08)
 number of electron   44.0000001 magnetization 
 augmentation part    16.1324992 magnetization 

 Broyden mixing:
  rms(total) = 0.95193E-05    rms(broyden)= 0.95193E-05
  rms(prec ) = 0.16235E-04
  weight for this iteration     100.00

 eigenvalues of (default mixing * dielectric matrix)
  average eigenvalue GAMMA=   1.7451
  2.8699  2.5486  2.5486  1.1937  1.0028  1.0260  1.0260

 Free energy of the ion-electron system (eV)
  ---------------------------------------------------
  alpha Z        PSCENC =       438.16629999
  Ewald energy   TEWEN  =     -3906.95736399
  -1/2 Hartree   DENC   =      -453.96980660
  -V(xc)+E(xc)   XCENC  =        59.49653101
  PAW double counting   =      3024.46844781    -2941.85524228
  entropy T*S    EENTRO =        -0.00010574
  eigenvalues    EBANDS =        63.46386066
  atomic energy  EATOM  =      3704.22372399
  ---------------------------------------------------
  free energy    TOTEN  =       -12.96365514 eV

  energy without entropy =      -12.96354941  energy(sigma->0) =      -12.96360228


--------------------------------------------------------------------------------------------------------




----------------------------------------- Iteration    1(  13)  ---------------------------------------


    POTLOK:  VPU time    0.15: CPU time    0.15
    SETDIJ:  VPU time    0.48: CPU time    0.48
    EDDAV :  VPU time    8.40: CPU time    8.40
    DOS   :  VPU time    0.00: CPU time   -0.00
    CHARGE:  VPU time    1.37: CPU time    1.37
    MIXING:  VPU time    0.00: CPU time    0.01
    ------------------------------------------
      LOOP:  VPU time   10.41: CPU time   10.42

 eigenvalue-minimisations  :  2608
 total energy-change (2. order) : 0.6965956E-07  (-0.1515751E-09)
 number of electron   44.0000001 magnetization 
 augmentation part    16.1324994 magnetization 

 Broyden mixing:
  rms(total) = 0.17883E-05    rms(broyden)= 0.17883E-05
  rms(prec ) = 0.33626E-05
  weight for this iteration     100.00

 eigenvalues of (default mixing * dielectric matrix)
  average eigenvalue GAMMA=   1.8560
  2.8858  2.8858  2.4478  2.4478  1.1915  1.0250  0.9821  0.9821

 Free energy of the ion-electron system (eV)
  ---------------------------------------------------
  alpha Z        PSCENC =       438.16629999
  Ewald energy   TEWEN  =     -3906.95736399
  -1/2 Hartree   DENC   =      -453.97009998
  -V(xc)+E(xc)   XCENC  =        59.49654575
  PAW double counting   =      3024.45738408    -2941.84394825
  entropy T*S    EENTRO =        -0.00010574
  eigenvalues    EBANDS =        63.46390908
  atomic energy  EATOM  =      3704.22372399
  ---------------------------------------------------
  free energy    TOTEN  =       -12.96365507 eV

  energy without entropy =      -12.96354934  energy(sigma->0) =      -12.96360221


--------------------------------------------------------------------------------------------------------




----------------------------------------- Iteration    1(  14)  ---------------------------------------


    POTLOK:  VPU time    0.15: CPU time    0.15
    SETDIJ:  VPU time    0.48: CPU time    0.48
    EDDAV :  VPU time    8.17: CPU time    8.18
    DOS   :  VPU time    0.00: CPU time   -0.00
    CHARGE:  VPU time    1.40: CPU time    1.40
    MIXING:  VPU time    0.00: CPU time    0.00
    ------------------------------------------
      LOOP:  VPU time   10.22: CPU time   10.22

 eigenvalue-minimisations  :  2524
 total energy-change (2. order) :-0.1259832E-07  (-0.2306007E-10)
 number of electron   44.0000001 magnetization 
 augmentation part    16.1324973 magnetization 

 Broyden mixing:
  rms(total) = 0.11859E-05    rms(broyden)= 0.11859E-05
  rms(prec ) = 0.16268E-05
  weight for this iteration     100.00

 eigenvalues of (default mixing * dielectric matrix)
  average eigenvalue GAMMA=   1.7454
  2.8265  2.8265  2.4809  2.4809  1.1928  1.0267  0.9822  0.9822  0.9094

 Free energy of the ion-electron system (eV)
  ---------------------------------------------------
  alpha Z        PSCENC =       438.16629999
  Ewald energy   TEWEN  =     -3906.95736399
  -1/2 Hartree   DENC   =      -453.97018735
  -V(xc)+E(xc)   XCENC  =        59.49654968
  PAW double counting   =      3024.46255716    -2941.84907855
  entropy T*S    EENTRO =        -0.00010574
  eigenvalues    EBANDS =        63.46394973
  atomic energy  EATOM  =      3704.22372399
  ---------------------------------------------------
  free energy    TOTEN  =       -12.96365509 eV

  energy without entropy =      -12.96354935  energy(sigma->0) =      -12.96360222


--------------------------------------------------------------------------------------------------------




----------------------------------------- Iteration    1(  15)  ---------------------------------------


    POTLOK:  VPU time    0.13: CPU time    0.13
    SETDIJ:  VPU time    0.69: CPU time    0.69
    EDDAV :  VPU time    8.28: CPU time    8.29
    DOS   :  VPU time    0.00: CPU time   -0.00
    ------------------------------------------
      LOOP:  VPU time    9.11: CPU time    9.12

 eigenvalue-minimisations  :  2540
 total energy-change (2. order) : 0.3592504E-08  (-0.2742873E-11)
 number of electron   44.0000001 magnetization 
 augmentation part    16.1324973 magnetization 

 Free energy of the ion-electron system (eV)
  ---------------------------------------------------
  alpha Z        PSCENC =       438.16629999
  Ewald energy   TEWEN  =     -3906.95736399
  -1/2 Hartree   DENC   =      -453.97018608
  -V(xc)+E(xc)   XCENC  =        59.49654988
  PAW double counting   =      3024.46316357    -2941.84963880
  entropy T*S    EENTRO =        -0.00010574
  eigenvalues    EBANDS =        63.46390210
  atomic energy  EATOM  =      3704.22372399
  ---------------------------------------------------
  free energy    TOTEN  =       -12.96365508 eV

  energy without entropy =      -12.96354935  energy(sigma->0) =      -12.96360222


--------------------------------------------------------------------------------------------------------




 average (electrostatic) potential at core
  the test charge radii are     1.2098
  (the norm of the test charge is              1.0000)
       1 -45.5957       2 -45.5957       3 -45.5957       4 -45.5957
 
 
 
 E-fermi :   5.6437     XC(G=0): -12.7008     alpha+bet :-10.1505
   add alpha+bet to get absolut eigen values

 k-point   1 :       0.0000    0.0000    0.0000
  band No.  band energies     occupation 
      1      -4.1080      2.00000
      2      -1.3712      2.00000
      3      -1.3712      2.00000
      4      -1.3712      2.00000
      5      -1.0659      2.00000
      6      -1.0659      2.00000
      7      -1.0659      2.00000
      8       0.9846      2.00000
      9       0.9846      2.00000
     10       0.9846      2.00000
     11       2.4960      2.00000
     12       2.4960      2.00000
     13       3.6466      2.00000
     14       3.6466      2.00000
     15       3.6466      2.00000
     16       4.0094      2.00000
     17       4.0094      2.00000
     18       4.0094      2.00000
     19       4.0094      2.00000
     20       4.0094      2.00000
     21       4.0094      2.00000
     22       6.7512      0.00000
     23       6.7512      0.00000
     24       6.7512      0.00000
     25      11.5065      0.00000
     26      11.5065      0.00000
     27      11.5065      0.00000
     28      15.9226      0.00000

 k-point   2 :       0.0833    0.0000    0.0000
  band No.  band energies     occupation 
      1      -4.0269      2.00000
      2      -1.3428      2.00000
      3      -1.3169      2.00000
      4      -1.3169      2.00000
      5      -1.0363      2.00000
      6      -1.0209      2.00000
      7      -1.0209      2.00000
      8       0.9427      2.00000
      9       1.0212      2.00000
     10       1.0212      2.00000
     11       2.4511      2.00000
     12       2.5140      2.00000
     13       3.5825      2.00000
     14       3.5825      2.00000
     15       3.6253      2.00000
     16       3.7186      2.00000
     17       3.7186      2.00000
     18       3.9311      2.00000
     19       3.9311      2.00000
     20       4.0096      2.00000
     21       4.0096      2.00000
     22       6.1771      0.00000
     23       7.0977      0.00000
     24       7.0977      0.00000
     25      11.4301      0.00000
     26      11.4301      0.00000
     27      12.2190      0.00000
     28      15.7858      0.00000

 k-point   3 :       0.1667    0.0000    0.0000
  band No.  band energies     occupation 
      1      -3.7864      2.00000
      2      -1.2668      2.00000
      3      -1.1598      2.00000
      4      -1.1598      2.00000
      5      -0.9485      2.00000
      6      -0.8860      2.00000
      7      -0.8860      2.00000
      8       0.8217      2.00000
      9       1.1303      2.00000
     10       1.1303      2.00000
     11       2.3226      2.00000
     12       2.5674      2.00000
     13       3.0939      2.00000
     14       3.0939      2.00000
     15       3.3961      2.00000
     16       3.3961      2.00000
     17       3.5632      2.00000
     18       3.7113      2.00000
     19       3.7113      2.00000
     20       4.0099      2.00000
     21       4.0099      2.00000
     22       5.0034      2.00000
     23       7.8876      0.00000
     24       7.8876      0.00000
     25      11.2292      0.00000
     26      11.2292      0.00000
     27      13.8141      0.00000
     28      15.3886      0.00000

 k-point   4 :       0.2500    0.0000    0.0000
  band No.  band energies     occupation 
      1      -3.3967      2.00000
      2      -1.1756      2.00000
      3      -0.9190      2.00000
      4      -0.9190      2.00000
      5      -0.8063      2.00000
      6      -0.6620      2.00000
      7      -0.6620      2.00000
      8       0.6346      2.00000
      9       1.3096      2.00000
     10       1.3096      2.00000
     11       2.1299      2.00000
     12       2.3939      2.00000
     13       2.3939      2.00000
     14       2.6530      2.00000
     15       3.1102      2.00000
     16       3.1102      2.00000
     17       3.3878      2.00000
     18       3.3878      2.00000
     19       3.4655      2.00000
     20       3.7719      2.00000
     21       4.0104      2.00000
     22       4.0104      2.00000
     23       8.8564      0.00000
     24       8.8564      0.00000
     25      10.9737      0.00000
     26      10.9737      0.00000
     27      14.7671      0.00000
     28      14.7671      0.00000

 k-point   5 :       0.3333    0.0000    0.0000
  band No.  band energies     occupation 
      1      -2.8795      2.00000
      2      -1.1410      2.00000
      3      -0.6346      2.00000
      4      -0.6346      2.00000
      5      -0.6160      2.00000
      6      -0.3501      2.00000
      7      -0.3501      2.00000
      8       0.3998      2.00000
      9       1.5552      2.00000
     10       1.5552      2.00000
     11       1.7130      2.00000
     12       1.7130      2.00000
     13       1.9093      2.00000
     14       2.7113      2.00000
     15       2.7662      2.00000
     16       2.7748      2.00000
     17       2.7748      2.00000
     18       3.0056      2.00000
     19       3.0056      2.00000
     20       3.3403      2.00000
     21       4.0109      2.00000
     22       4.0109      2.00000
     23       9.8999      0.00000
     24       9.8999      0.00000
     25      10.7400      0.00000
     26      10.7400      0.00000
     27      13.9681      0.00000
     28      13.9681      0.00000

 k-point   6 :       0.4167    0.0000    0.0000
  band No.  band energies     occupation 
      1      -2.2809      2.00000
      2      -1.2860      2.00000
      3      -0.3865      2.00000
      4      -0.3820      2.00000
      5      -0.3820      2.00000
      6       0.0475      2.00000
      7       0.0475      2.00000
      8       0.1381      2.00000
      9       1.0858      2.00000
     10       1.0858      2.00000
     11       1.7252      2.00000
     12       1.8604      2.00000
     13       1.8605      2.00000
     14       1.9876      2.00000
     15       2.4814      2.00000
     16       2.4814      2.00000
     17       2.6044      2.00000
     18       2.6044      2.00000
     19       2.9004      2.00000
     20       3.1974      2.00000
     21       4.0112      2.00000
     22       4.0112      2.00000
     23      10.5820      0.00000
     24      10.5820      0.00000
     25      10.9688      0.00000
     26      10.9688      0.00000
     27      13.0400      0.00000
     28      13.0400      0.00000

 k-point   7 :       0.5000    0.0000    0.0000
  band No.  band energies     occupation 
      1      -1.6971      2.00000
      2      -1.6971      2.00000
      3      -0.2750      2.00000
      4      -0.2750      2.00000
      5      -0.1300      2.00000
      6      -0.1300      2.00000
      7       0.5279      2.00000
      8       0.5279      2.00000
      9       0.5279      2.00000
     10       0.5279      2.00000
     11       1.6931      2.00000
     12       1.6931      2.00000
     13       2.2153      2.00000
     14       2.2153      2.00000
     15       2.2153      2.00000
     16       2.2153      2.00000
     17       2.3587      2.00000
     18       2.3587      2.00000
     19       3.0473      2.00000
     20       3.0473      2.00000
     21       4.0114      2.00000
     22       4.0114      2.00000
     23      10.5268      0.00000
     24      10.5268      0.00000
     25      12.0272      0.00000
     26      12.0272      0.00000
     27      12.0272      0.00000
     28      12.0272      0.00000

 k-point   8 :       0.0833    0.0833    0.0000
  band No.  band energies     occupation 
      1      -3.9466      2.00000
      2      -1.2880      2.00000
      3      -1.2880      2.00000
      4      -1.2697      2.00000
      5      -0.9918      2.00000
      6      -0.9918      2.00000
      7      -0.9710      2.00000
      8       0.9248      2.00000
      9       1.0350      2.00000
     10       1.0546      2.00000
     11       2.4389      2.00000
     12       2.5035      2.00000
     13       3.5036      2.00000
     14       3.5036      2.00000
     15       3.5222      2.00000
     16       3.5238      2.00000
     17       3.6811      2.00000
     18       3.6811      2.00000
     19       3.9310      2.00000
     20       3.9310      2.00000
     21       3.9583      2.00000
     22       6.5265      0.00000
     23       6.5265      0.00000
     24       7.4000      0.00000
     25      11.3417      0.00000
     26      12.1428      0.00000
     27      12.1428      0.00000
     28      15.2425      0.00000

 k-point   9 :       0.1667    0.0833    0.0000
  band No.  band energies     occupation 
      1      -3.7088      2.00000
      2      -1.2105      2.00000
      3      -1.1323      2.00000
      4      -1.1293      2.00000
      5      -0.9058      2.00000
      6      -0.8587      2.00000
      7      -0.8233      2.00000
      8       0.8187      2.00000
      9       1.1325      2.00000
     10       1.1532      2.00000
     11       2.3280      2.00000
     12       2.5522      2.00000
     13       2.9382      2.00000
     14       2.9892      2.00000
     15       3.2487      2.00000
     16       3.3462      2.00000
     17       3.4313      2.00000
     18       3.5906      2.00000
     19       3.7107      2.00000
     20       3.9307      2.00000
     21       3.9311      2.00000
     22       5.4116      2.00000
     23       7.2725      0.00000
     24       8.1285      0.00000
     25      11.1052      0.00000
     26      11.9510      0.00000
     27      13.6915      0.00000
     28      14.6639      0.00000

 k-point  10 :       0.2500    0.0833    0.0000
  band No.  band energies     occupation 
      1      -3.3235      2.00000
      2      -1.1169      2.00000
      3      -0.9164      2.00000
      4      -0.8856      2.00000
      5      -0.7664      2.00000
      6      -0.6377      2.00000
      7      -0.5862      2.00000
      8       0.6393      2.00000
      9       1.3091      2.00000
     10       1.3093      2.00000
     11       2.1518      2.00000
     12       2.2524      2.00000
     13       2.3382      2.00000
     14       2.6480      2.00000
     15       2.8130      2.00000
     16       3.0745      2.00000
     17       3.1474      2.00000
     18       3.3866      2.00000
     19       3.4464      2.00000
     20       3.9251      2.00000
     21       3.9302      2.00000
     22       4.3465      2.00000
     23       8.1177      0.00000
     24       9.0572      0.00000
     25      10.7929      0.00000
     26      11.7432      0.00000
     27      14.1047      0.00000
     28      14.9210      0.00000

 k-point  11 :       0.3333    0.0833    0.0000
  band No.  band energies     occupation 
      1      -2.8121      2.00000
      2      -1.0800      2.00000
      3      -0.6434      2.00000
      4      -0.5965      2.00000
      5      -0.5800      2.00000
      6      -0.3304      2.00000
      7      -0.2808      2.00000
      8       0.4116      2.00000
      9       1.4864      2.00000
     10       1.5537      2.00000
     11       1.5919      2.00000
     12       1.6862      2.00000
     13       1.9870      2.00000
     14       2.2353      2.00000
     15       2.7545      2.00000
     16       2.7773      2.00000
     17       2.8155      2.00000
     18       3.0038      2.00000
     19       3.1829      2.00000
     20       3.6310      2.00000
     21       3.9243      2.00000
     22       3.9293      2.00000
     23       8.9151      0.00000
     24      10.0762      0.00000
     25      10.4801      0.00000
     26      11.6546      0.00000
     27      13.5299      0.00000
     28      14.1180      0.00000

 k-point  12 :       0.4167    0.0833    0.0000
  band No.  band energies     occupation 
      1      -2.2194      2.00000
      2      -1.2257      2.00000
      3      -0.3703      2.00000
      4      -0.3554      2.00000
      5      -0.3386      2.00000
      6       0.0609      2.00000
      7       0.0693      2.00000
      8       0.1568      2.00000
      9       0.9943      2.00000
     10       1.0776      2.00000
     11       1.5354      2.00000
     12       1.7297      2.00000
     13       1.8585      2.00000
     14       2.0392      2.00000
     15       2.4780      2.00000
     16       2.5164      2.00000
     17       2.6023      2.00000
     18       2.7529      2.00000
     19       2.9328      2.00000
     20       3.3120      2.00000
     21       3.9253      2.00000
     22       3.9282      2.00000
     23       9.5348      0.00000
     24      10.2025      0.00000
     25      11.1302      0.00000
     26      11.8250      0.00000
     27      12.9102      0.00000
     28      13.1893      0.00000

 k-point  13 :       0.5000    0.0833    0.0000
  band No.  band energies     occupation 
      1      -1.6385      2.00000
      2      -1.6385      2.00000
      3      -0.2356      2.00000
      4      -0.2356      2.00000
      5      -0.1048      2.00000
      6      -0.1048      2.00000
      7       0.4832      2.00000
      8       0.4832      2.00000
      9       0.5323      2.00000
     10       0.5323      2.00000
     11       1.5194      2.00000
     12       1.5194      2.00000
     13       2.2132      2.00000
     14       2.2132      2.00000
     15       2.3442      2.00000
     16       2.3442      2.00000
     17       2.3759      2.00000
     18       2.3759      2.00000
     19       3.1092      2.00000
     20       3.1092      2.00000
     21       3.9267      2.00000
     22       3.9267      2.00000
     23       9.9265      0.00000
     24       9.9265      0.00000
     25      12.1800      0.00000
     26      12.1800      0.00000
     27      12.2919      0.00000
     28      12.2919      0.00000

 k-point  14 :       0.1667    0.1667    0.0000
  band No.  band energies     occupation 
      1      -3.4791      2.00000
      2      -1.0469      2.00000
      3      -1.0469      2.00000
      4      -1.0409      2.00000
      5      -0.7779      2.00000
      6      -0.7779      2.00000
      7      -0.6501      2.00000
      8       0.7691      2.00000
      9       1.1831      2.00000
     10       1.2196      2.00000
     11       2.2894      2.00000
     12       2.5677      2.00000
     13       2.5925      2.00000
     14       2.5925      2.00000
     15       2.6590      2.00000
     16       3.1986      2.00000
     17       3.4228      2.00000
     18       3.4228      2.00000
     19       3.7089      2.00000
     20       3.7089      2.00000
     21       3.8077      2.00000
     22       6.1523      0.00000
     23       6.1523      0.00000
     24       8.7529      0.00000
     25      10.7654      0.00000
     26      13.3744      0.00000
     27      13.3744      0.00000
     28      13.9983      0.00000

 k-point  15 :       0.2500    0.1667    0.0000
  band No.  band energies     occupation 
      1      -3.1071      2.00000
      2      -0.9456      2.00000
      3      -0.8754      2.00000
      4      -0.7940      2.00000
      5      -0.6472      2.00000
      6      -0.5660      2.00000
      7      -0.3978      2.00000
      8       0.6344      2.00000
      9       1.3153      2.00000
     10       1.3294      2.00000
     11       1.9223      2.00000
     12       2.1412      2.00000
     13       2.1591      2.00000
     14       2.1665      2.00000
     15       2.6802      2.00000
     16       2.9657      2.00000
     17       3.1715      2.00000
     18       3.3116      2.00000
     19       3.3832      2.00000
     20       3.7060      2.00000
     21       3.7384      2.00000
     22       5.0937      2.00000
     23       6.9305      0.00000
     24       9.6003      0.00000
     25      10.3008      0.00000
     26      12.9946      0.00000
     27      13.4976      0.00000
     28      14.8739      0.00000

 k-point  16 :       0.3333    0.1667    0.0000
  band No.  band energies     occupation 
      1      -2.6136      2.00000
      2      -0.9019      2.00000
      3      -0.6367      2.00000
      4      -0.4898      2.00000
      5      -0.4729      2.00000
      6      -0.2724      2.00000
      7      -0.1105      2.00000
      8       0.4377      2.00000
      9       1.3030      2.00000
     10       1.3850      2.00000
     11       1.5604      2.00000
     12       1.5994      2.00000
     13       1.6653      2.00000
     14       2.0691      2.00000
     15       2.6874      2.00000
     16       2.8593      2.00000
     17       2.8639      2.00000
     18       2.9994      2.00000
     19       3.0853      2.00000
     20       3.7026      2.00000
     21       3.7093      2.00000
     22       4.2741      2.00000
     23       7.6632      0.00000
     24       9.8105      0.00000
     25      10.5647      0.00000
     26      12.6929      0.00000
     27      13.1116      0.00000
     28      14.5470      0.00000

 k-point  17 :       0.4167    0.1667    0.0000
  band No.  band energies     occupation 
      1      -2.0397      2.00000
      2      -1.0511      2.00000
      3      -0.3466      2.00000
      4      -0.2638      2.00000
      5      -0.2128      2.00000
      6       0.0994      2.00000
      7       0.1474      2.00000
      8       0.2081      2.00000
      9       0.7667      2.00000
     10       1.0493      2.00000
     11       1.3269      2.00000
     12       1.3359      2.00000
     13       1.8588      2.00000
     14       2.1522      2.00000
     15       2.4544      2.00000
     16       2.5681      2.00000
     17       2.5979      2.00000
     18       2.7588      2.00000
     19       3.0862      2.00000
     20       3.6990      2.00000
     21       3.6992      2.00000
     22       3.7268      2.00000
     23       8.3070      0.00000
     24       9.3360      0.00000
     25      11.5837      0.00000
     26      12.5576      0.00000
     27      12.8093      0.00000
     28      13.6149      0.00000

 k-point  18 :       0.5000    0.1667    0.0000
  band No.  band energies     occupation 
      1      -1.4693      2.00000
      2      -1.4693      2.00000
      3      -0.1271      2.00000
      4      -0.1271      2.00000
      5      -0.0318      2.00000
      6      -0.0318      2.00000
      7       0.3755      2.00000
      8       0.3755      2.00000
      9       0.5433      2.00000
     10       0.5433      2.00000
     11       1.2499      2.00000
     12       1.2499      2.00000
     13       2.2102      2.00000
     14       2.2102      2.00000
     15       2.3986      2.00000
     16       2.3986      2.00000
     17       2.4145      2.00000
     18       2.4145      2.00000
     19       3.3630      2.00000
     20       3.3630      2.00000
     21       3.6972      2.00000
     22       3.6972      2.00000
     23       8.8530      0.00000
     24       8.8530      0.00000
     25      12.6082      0.00000
     26      12.6082      0.00000
     27      12.6135      0.00000
     28      12.6135      0.00000

 k-point  19 :       0.2500    0.2500    0.0000
  band No.  band energies     occupation 
      1      -2.7578      2.00000
      2      -0.7667      2.00000
      3      -0.6778      2.00000
      4      -0.6778      2.00000
      5      -0.4506      2.00000
      6      -0.4506      2.00000
      7      -0.1469      2.00000
      8       0.5774      2.00000
      9       1.3308      2.00000
     10       1.4198      2.00000
     11       1.5176      2.00000
     12       1.5176      2.00000
     13       1.8474      2.00000
     14       2.1014      2.00000
     15       2.7858      2.00000
     16       2.8293      2.00000
     17       3.0958      2.00000
     18       3.0958      2.00000
     19       3.3785      2.00000
     20       3.3785      2.00000
     21       3.5671      2.00000
     22       5.8325      0.00000
     23       5.8325      0.00000
     24       9.6487      0.00000
     25      10.3723      0.00000
     26      13.1286      0.00000
     27      14.1650      0.00000
     28      14.1650      0.00000

 k-point  20 :       0.3333    0.2500    0.0000
  band No.  band energies     occupation 
      1      -2.2957      2.00000
      2      -0.6225      2.00000
      3      -0.5828      2.00000
      4      -0.3470      2.00000
      5      -0.2978      2.00000
      6      -0.1801      2.00000
      7       0.1133      2.00000
      8       0.4514      2.00000
      9       0.9588      2.00000
     10       1.1448      2.00000
     11       1.3160      2.00000
     12       1.4379      2.00000
     13       1.6069      2.00000
     14       2.0304      2.00000
     15       2.5625      2.00000
     16       2.8241      2.00000
     17       2.8991      2.00000
     18       2.9947      2.00000
[...]
     14       2.0628      2.00000
     15       2.0628      2.00000
     16       2.0628      2.00000
     17       3.2410      2.00000
     18       3.2410      2.00000
     19       3.2410      2.00000
     20       3.2410      2.00000
     21       5.3005      2.00000
     22       5.3005      2.00000
     23       5.3005      2.00000
     24       5.3005      2.00000
     25      10.7717      0.00000
     26      10.7717      0.00000
     27      10.7717      0.00000
     28      10.7717      0.00000

 k-point  75 :       0.3333    0.3333    0.3333
  band No.  band energies     occupation 
      1      -1.7434      2.00000
      2      -1.0043      2.00000
      3      -1.0043      2.00000
      4      -1.0043      2.00000
      5       0.5899      2.00000
      6       0.5899      2.00000
      7       0.5899      2.00000
      8       1.1378      2.00000
      9       1.1378      2.00000
     10       1.5243      2.00000
     11       1.5243      2.00000
     12       1.5243      2.00000
     13       1.6559      2.00000
     14       1.6559      2.00000
     15       1.6559      2.00000
     16       1.7499      2.00000
     17       3.1072      2.00000
     18       3.1072      2.00000
     19       3.7321      2.00000
     20       3.7321      2.00000
     21       3.7321      2.00000
     22       6.3577      0.00000
     23       6.3577      0.00000
     24       6.3577      0.00000
     25       9.8687      0.00000
     26       9.8687      0.00000
     27       9.8687      0.00000
     28      13.6137      0.00000

 k-point  76 :       0.4167    0.3333    0.3333
  band No.  band energies     occupation 
      1      -1.6184      2.00000
      2      -1.2375      2.00000
      3      -1.0823      2.00000
      4      -1.0823      2.00000
      5       0.6238      2.00000
      6       0.6238      2.00000
      7       0.7660      2.00000
      8       1.0538      2.00000
      9       1.1321      2.00000
     10       1.3307      2.00000
     11       1.3978      2.00000
     12       1.3978      2.00000
     13       1.8409      2.00000
     14       1.9933      2.00000
     15       1.9933      2.00000
     16       2.0582      2.00000
     17       3.3531      2.00000
     18       3.3776      2.00000
     19       3.6656      2.00000
     20       3.6656      2.00000
     21       3.7060      2.00000
     22       5.1391      2.00000
     23       6.7159      0.00000
     24       6.7159      0.00000
     25       9.0798      0.00000
     26       9.0798      0.00000
     27      10.6721      0.00000
     28      12.5517      0.00000

 k-point  77 :       0.5000    0.3333    0.3333
  band No.  band energies     occupation 
      1      -1.4474      2.00000
      2      -1.4474      2.00000
      3      -1.1082      2.00000
      4      -1.1082      2.00000
      5       0.6326      2.00000
      6       0.6326      2.00000
      7       0.9275      2.00000
      8       0.9275      2.00000
      9       1.1975      2.00000
     10       1.1975      2.00000
     11       1.3571      2.00000
     12       1.3571      2.00000
     13       2.0140      2.00000
     14       2.0140      2.00000
     15       2.1378      2.00000
     16       2.1378      2.00000
     17       3.5839      2.00000
     18       3.5839      2.00000
     19       3.6150      2.00000
     20       3.6150      2.00000
     21       4.1002      2.00000
     22       4.1002      2.00000
     23       6.9013      0.00000
     24       6.9013      0.00000
     25       8.7507      0.00000
     26       8.7507      0.00000
     27      11.5704      0.00000
     28      11.5704      0.00000

 k-point  78 :       0.4167    0.4167    0.3333
  band No.  band energies     occupation 
      1      -1.5798      2.00000
      2      -1.3063      2.00000
      3      -1.3063      2.00000
      4      -1.2284      2.00000
      5       0.7145      2.00000
      6       0.7810      2.00000
      7       0.7810      2.00000
      8       1.0248      2.00000
      9       1.0654      2.00000
     10       1.2204      2.00000
     11       1.2204      2.00000
     12       1.2497      2.00000
     13       2.2935      2.00000
     14       2.2935      2.00000
     15       2.3593      2.00000
     16       2.5710      2.00000
     17       3.2942      2.00000
     18       3.6339      2.00000
     19       3.6521      2.00000
     20       3.6521      2.00000
     21       3.7924      2.00000
     22       5.5248      2.00000
     23       5.5248      2.00000
     24       6.5299      0.00000
     25       8.7535      0.00000
     26       9.7571      0.00000
     27       9.7571      0.00000
     28      11.5100      0.00000

 k-point  79 :       0.5000    0.4167    0.3333
  band No.  band energies     occupation 
      1      -1.4750      2.00000
      2      -1.4750      2.00000
      3      -1.3034      2.00000
      4      -1.3034      2.00000
      5       0.7686      2.00000
      6       0.7686      2.00000
      7       0.9215      2.00000
      8       0.9215      2.00000
      9       1.1060      2.00000
     10       1.1060      2.00000
     11       1.1887      2.00000
     12       1.1887      2.00000
     13       2.5082      2.00000
     14       2.5082      2.00000
     15       2.5497      2.00000
     16       2.5497      2.00000
     17       3.5062      2.00000
     18       3.5062      2.00000
     19       3.5886      2.00000
     20       3.5886      2.00000
     21       4.5005      2.00000
     22       4.5005      2.00000
     23       6.0332      0.00000
     24       6.0332      0.00000
     25       9.0734      0.00000
     26       9.0734      0.00000
     27      10.5765      0.00000
     28      10.5765      0.00000

 k-point  80 :       0.5000    0.5000    0.3333
  band No.  band energies     occupation 
      1      -1.4268      2.00000
      2      -1.4268      2.00000
      3      -1.4268      2.00000
      4      -1.4268      2.00000
      5       0.8754      2.00000
      6       0.8754      2.00000
      7       0.8754      2.00000
      8       0.8754      2.00000
      9       1.0961      2.00000
     10       1.0961      2.00000
     11       1.0961      2.00000
     12       1.0961      2.00000
     13       2.7362      2.00000
     14       2.7362      2.00000
     15       2.7362      2.00000
     16       2.7362      2.00000
     17       3.4794      2.00000
     18       3.4794      2.00000
     19       3.4794      2.00000
     20       3.4794      2.00000
     21       5.1645      2.00000
     22       5.1645      2.00000
     23       5.1645      2.00000
     24       5.1645      2.00000
     25       9.7339      0.00000
     26       9.7339      0.00000
     27       9.7339      0.00000
     28       9.7339      0.00000

 k-point  81 :       0.4167    0.4167    0.4167
  band No.  band energies     occupation 
      1      -1.6122      2.00000
      2      -1.4331      2.00000
      3      -1.4331      2.00000
      4      -1.4331      2.00000
      5       0.8389      2.00000
      6       0.8389      2.00000
      7       0.8389      2.00000
      8       1.0024      2.00000
      9       1.0024      2.00000
     10       1.0975      2.00000
     11       1.0975      2.00000
     12       1.0975      2.00000
     13       2.7796      2.00000
     14       2.7796      2.00000
     15       2.7796      2.00000
     16       3.4670      2.00000
     17       3.5222      2.00000
     18       3.5222      2.00000
     19       3.7008      2.00000
     20       3.7008      2.00000
     21       3.7008      2.00000
     22       5.5664      2.00000
     23       5.5664      2.00000
     24       5.5664      2.00000
     25       9.0344      0.00000
     26       9.0344      0.00000
     27       9.0344      0.00000
     28      10.5124      0.00000

 k-point  82 :       0.5000    0.4167    0.4167
  band No.  band energies     occupation 
      1      -1.5630      2.00000
      2      -1.5630      2.00000
      3      -1.4757      2.00000
      4      -1.4757      2.00000
      5       0.8632      2.00000
      6       0.8632      2.00000
      7       0.9393      2.00000
      8       0.9393      2.00000
      9       1.0134      2.00000
     10       1.0134      2.00000
     11       1.0520      2.00000
     12       1.0520      2.00000
     13       3.0074      2.00000
     14       3.0074      2.00000
     15       3.1660      2.00000
     16       3.1660      2.00000
     17       3.6626      2.00000
     18       3.6626      2.00000
     19       3.6699      2.00000
     20       3.6699      2.00000
     21       4.4955      2.00000
     22       4.4955      2.00000
     23       5.5878      2.00000
     24       5.5878      2.00000
     25       8.7696      0.00000
     26       8.7696      0.00000
     27       9.6737      0.00000
     28       9.6737      0.00000

 k-point  83 :       0.5000    0.5000    0.4167
  band No.  band energies     occupation 
      1      -1.5632      2.00000
      2      -1.5632      2.00000
      3      -1.5632      2.00000
      4      -1.5632      2.00000
      5       0.9293      2.00000
      6       0.9293      2.00000
      7       0.9293      2.00000
      8       0.9293      2.00000
      9       0.9862      2.00000
     10       0.9862      2.00000
     11       0.9862      2.00000
     12       0.9862      2.00000
     13       3.3643      2.00000
     14       3.3643      2.00000
     15       3.3643      2.00000
     16       3.3643      2.00000
     17       3.6354      2.00000
     18       3.6354      2.00000
     19       3.6354      2.00000
     20       3.6354      2.00000
     21       4.9343      2.00000
     22       4.9343      2.00000
     23       4.9343      2.00000
     24       4.9343      2.00000
     25       9.0336      0.00000
     26       9.0336      0.00000
     27       9.0336      0.00000
     28       9.0336      0.00000

 k-point  84 :       0.5000    0.5000    0.5000
  band No.  band energies     occupation 
      1      -1.6092      2.00000
      2      -1.6092      2.00000
      3      -1.6092      2.00000
      4      -1.6092      2.00000
      5       0.9489      2.00000
      6       0.9489      2.00000
      7       0.9489      2.00000
      8       0.9489      2.00000
      9       0.9489      2.00000
     10       0.9489      2.00000
     11       0.9489      2.00000
     12       0.9489      2.00000
     13       3.6897      2.00000
     14       3.6897      2.00000
     15       3.6897      2.00000
     16       3.6897      2.00000
     17       3.6897      2.00000
     18       3.6897      2.00000
     19       3.6897      2.00000
     20       3.6897      2.00000
     21       4.7572      2.00000
     22       4.7572      2.00000
     23       4.7572      2.00000
     24       4.7572      2.00000
     25       8.7842      0.00000
     26       8.7842      0.00000
     27       8.7842      0.00000
     28       8.7842      0.00000


--------------------------------------------------------------------------------------------------------


 soft charge-density along one line, spin component           1
         0         1         2         3         4         5         6         7         8         9
 total charge-density along one line
 
 pseudopotential strength for first ion, spin component:           1
 -9.810  -0.000  -0.000  -0.000   0.000  -0.102   0.000   0.000
 -0.000  -9.810   0.000   0.000   0.000   0.000  -0.102  -0.000
 -0.000   0.000  -9.795   0.000   0.000   0.000  -0.000  -0.104
 -0.000   0.000   0.000  -9.810  -0.000   0.000  -0.000  -0.000
  0.000   0.000   0.000  -0.000  -9.795  -0.000  -0.000  -0.000
 -0.102   0.000   0.000   0.000  -0.000   0.284  -0.000  -0.000
  0.000  -0.102  -0.000  -0.000  -0.000  -0.000   0.284   0.000
  0.000  -0.000  -0.104  -0.000  -0.000  -0.000   0.000   0.285
  0.000  -0.000  -0.000  -0.102   0.000  -0.000   0.000   0.000
 -0.000  -0.000  -0.000   0.000  -0.104   0.000   0.000   0.000
 -0.000   0.000  -0.000   0.000   0.000  -0.000   0.000  -0.000
  0.000  -0.000   0.000  -0.000  -0.000  -0.000   0.000  -0.000
  0.000  -0.000   0.000  -0.000   0.000  -0.000   0.000  -0.000
 -0.000  -0.000  -0.000   0.000  -0.000   0.000   0.000   0.000
 -0.000  -0.000  -0.000  -0.000   0.000   0.000   0.000   0.000
 -0.000   0.000  -0.000   0.000  -0.000   0.000  -0.000   0.000
  0.000   0.000   0.000  -0.000   0.000  -0.000  -0.000  -0.000
  0.000   0.000   0.000   0.000  -0.000  -0.000  -0.000  -0.000
 total augmentation occupancy for first ion, spin component:           1
  1.840  -0.016  -0.010  -0.009  -0.016  -0.003   0.017  -0.020   0.010   0.017   0.030  -0.016  -0.000  -0.000  -0.000   0.000
 -0.016   1.961  -0.002  -0.019  -0.002   0.017  -0.088   0.009   0.023  -0.016   0.068   0.009   0.000   0.000  -0.000   0.000
 -0.010  -0.002   1.919   0.005  -0.026  -0.020   0.009  -0.049  -0.001   0.027  -0.072  -0.074   0.000  -0.000  -0.000   0.000
 -0.009  -0.019   0.005   1.921  -0.003   0.010   0.023  -0.001  -0.017   0.016   0.030  -0.002  -0.000   0.000   0.000  -0.000
 -0.016  -0.002  -0.026  -0.003   1.991   0.017  -0.016   0.027   0.016  -0.114   0.105   0.050  -0.000   0.000   0.000  -0.000
 -0.003   0.017  -0.020   0.010   0.017   0.253  -0.011   0.051  -0.006  -0.014   0.029   0.047  -0.000   0.000   0.000  -0.000
  0.017  -0.088   0.009   0.023  -0.016  -0.011   0.241  -0.016  -0.017   0.032  -0.024   0.025  -0.000  -0.000  -0.000  -0.000
 -0.020   0.009  -0.049  -0.001   0.027   0.051  -0.016   0.205  -0.005   0.003   0.135   0.003   0.000   0.000  -0.000   0.000
  0.010   0.023  -0.001  -0.017   0.016  -0.006  -0.017  -0.005   0.167  -0.028   0.001   0.022   0.000  -0.000   0.000   0.000
  0.017  -0.016   0.027   0.016  -0.114  -0.014   0.032   0.003  -0.028   0.144  -0.099   0.020   0.000  -0.000   0.000   0.000
  0.030   0.068  -0.072   0.030   0.105   0.029  -0.024   0.135   0.001  -0.099   1.075  -0.392  -0.000  -0.000   0.000  -0.000
 -0.016   0.009  -0.074  -0.002   0.050   0.047   0.025   0.003   0.022   0.020  -0.392   0.257  -0.000  -0.000   0.000   0.000
 -0.000   0.000   0.000  -0.000  -0.000  -0.000  -0.000   0.000   0.000   0.000  -0.000  -0.000   0.152   0.016  -0.007  -0.011
 -0.000   0.000  -0.000   0.000   0.000   0.000  -0.000   0.000  -0.000  -0.000  -0.000  -0.000   0.016   0.128   0.000  -0.001
 -0.000  -0.000  -0.000   0.000   0.000   0.000  -0.000  -0.000   0.000   0.000   0.000   0.000  -0.007   0.000   0.213  -0.001
  0.000   0.000   0.000  -0.000  -0.000  -0.000  -0.000   0.000   0.000   0.000  -0.000   0.000  -0.011  -0.001  -0.001   0.001
 -0.000  -0.000  -0.000  -0.000   0.000   0.000  -0.000   0.000  -0.000  -0.000  -0.000   0.000  -0.001  -0.009  -0.001   0.000
 -0.000  -0.000  -0.000   0.000  -0.000   0.000   0.000   0.000   0.000  -0.000   0.000   0.000  -0.001  -0.001  -0.015   0.000


------------------------ aborting loop because EDIFF is reached ----------------------------------------




--------------------------------------------------------------------------------------------------------


    CHARGE:  VPU time    1.36: CPU time    1.36
    FORLOC:  VPU time    0.00: CPU time    0.01
    FORNL :  VPU time    3.58: CPU time    3.60
    STRESS:  VPU time    8.63: CPU time    8.64
    FORCOR:  VPU time    0.15: CPU time    0.15
    FORHAR:  VPU time    0.04: CPU time    0.04
    MIXING:  VPU time    0.00: CPU time    0.01


--------------------------------------------------------------------------------------------------------



  FREE ENERGIE OF THE ION-ELECTRON SYSTEM (eV)
  ---------------------------------------------------
  free  energy   TOTEN  =       -12.963655 eV

  energy  without entropy=      -12.963549  energy(sigma->0) =      -12.963602
 

  FORCE on cell =-STRESS in cart. coord.  units (eV/reduce length):
  Direction    X        Y        Z        XY       YZ       ZX
  --------------------------------------------------------------------------------------
  Alpha Z    438.17    438.17    438.17
  Ewald    -1302.32  -1302.32  -1302.32      0.00      0.00      0.00
  Hartree    151.32    151.32    151.32     -0.00     -0.00     -0.00
  E(xc)     -199.05   -199.05   -199.05     -0.00     -0.00      0.00
  Local      327.16    327.16    327.16      0.00     -0.00      0.00
  n-local   -182.71   -200.02   -204.69      1.70      5.39      2.25
  augment    171.65    171.65    171.65     -0.00     -0.00     -0.00
  Kinetic    617.02    613.67    608.60     -4.41     -2.65     -2.90
  -------------------------------------------------------------------------------------
  Total        4.23      4.23      4.23      0.00      0.00      0.00
  in kB       99.02     99.02     99.02      0.00      0.00      0.00
  external pressure =       99.02 kB  Pullay stress =        0.00 kB


 VOLUME and BASIS-vectors are now :
 -----------------------------------------------------------------------------
  energy-cutoff  :      750.00
  volume of cell :       68.39
      direct lattice vectors                 reciprocal lattice vectors
     4.089394864  0.000000000  0.000000000     0.244534958  0.000000000  0.000000000
     0.000000000  4.089394864  0.000000000     0.000000000  0.244534958  0.000000000
     0.000000000  0.000000000  4.089394864     0.000000000  0.000000000  0.244534958

  length of vectors
     4.089394864  4.089394864  4.089394864     0.244534958  0.244534958  0.244534958


 FORCES acting on ions
    electron-ion (+dipol)            ewald-force                    non-local-force                 convergence-correction
 -----------------------------------------------------------------------------------------------
   0.122E-13 0.880E-14 0.833E-14   -.371E-14 0.106E-14 0.394E-14   0.646E-25 0.258E-25 0.116E-24   -.592E-13 -.475E-13 -.592E-13
   -.486E-13 -.763E-12 -.184E-11   -.214E-13 0.622E-15 0.396E-14   0.775E-25 -.155E-24 -.517E-25   0.322E-13 0.316E-13 -.531E-13
   -.495E-13 0.778E-14 -.261E-11   0.304E-13 0.921E-15 -.501E-14   0.775E-25 0.155E-24 -.103E-24   0.310E-13 -.487E-13 0.299E-13
   0.120E-13 -.521E-13 -.588E-13   -.490E-14 0.480E-15 -.499E-14   0.517E-25 0.000E+00 0.142E-24   -.600E-13 0.305E-13 0.256E-13
 -----------------------------------------------------------------------------------------------
   -.739E-13 -.799E-12 -.450E-11   0.366E-15 0.309E-14 -.210E-14   0.271E-24 0.258E-25 0.103E-24   -.560E-13 -.341E-13 -.568E-13
 
 
 POSITION                                       TOTAL-FORCE (eV/Angst)
 -----------------------------------------------------------------------------------
      0.00000      0.00000      0.00000        -0.000000      0.000000     -0.000000
      2.04470      2.04470      0.00000         0.000000     -0.000000     -0.000000
      2.04470      0.00000      2.04470        -0.000000      0.000000     -0.000000
      0.00000      2.04470      2.04470        -0.000000      0.000000     -0.000000
 -----------------------------------------------------------------------------------
    total drift:                               -0.000000     -0.000000     -0.000000


--------------------------------------------------------------------------------------------------------



 mean value of Nose-termostat <S>:     1.000 mean value of <T> :     0.000
 mean temperature <T/S>/<1/S>  :     0.000

     LOOP+:  VPU time  185.15: CPU time  185.36
  
  
 General timing and accounting informations for this job:
 ========================================================
  
                  Total CPU time used (sec):      187.885
                            User time (sec):      171.709
                          System time (sec):       16.177
                         Elapsed time (sec):      188.207
  
                   Maximum memory used (kb):      485524.
                   Average memory used (kb):           0.
  
                          Minor page faults:       200585
                          Major page faults:            0
                 Voluntary context switches:          848
