<?xml version="1.0" encoding="ISO-8859-1"?>
<modeling>
 <generator>
  <i name="program" type="string">vasp</i>
  <i name="version" type="string">4.6.28 </i>
  <i name="subversion" type="string">25Jul05 complex  parallel</i>
  <i name="platform" type="string">LinuxIFC</i>
  <i name="date" type="string">2017 01 06</i>
  <i name="time" type="string">05:31:12</i>
 </generator>
 <incar>
  <i type="string" name="PREC">accurate</i>
  <i type="int" name="IALGO">    38</i>
  <i type="logical" name="ADDGRID"> T  </i>
  <i name="EDIFF">      0.00000001</i>
  <i type="int" name="IBRION">    -1</i>
  <i name="ENCUT">    750.00000000</i>
  <i type="logical" name="LREAL"> F  </i>
  <i type="int" name="ISMEAR">     0</i>
  <i name="SIGMA">      0.01000000</i>
  <i type="logical" name="LWAVE"> F  </i>
  <i type="logical" name="LCHARG"> F  </i>
 </incar>
 <kpoints>
  <generation param="Gamma">
   <v type="int" name="divisions">      12      12      12</v>
   <v name="usershift">      0.00000000      0.00000000      0.00000000</v>
   <v name="genvec1">      0.08333333      0.00000000      0.00000000</v>
   <v name="genvec2">      0.00000000      0.08333333      0.00000000</v>
   <v name="genvec3">      0.00000000      0.00000000      0.08333333</v>
   <v name="shift">      0.00000000      0.00000000      0.00000000</v>
  </generation>
  <varray name="kpointlist" >
   <v>       0.00000000      0.00000000      0.00000000</v>
   <v>       0.08333333      0.00000000      0.00000000</v>
   <v>       0.16666667      0.00000000      0.00000000</v>
   <v>       0.25000000      0.00000000      0.00000000</v>
   <v>       0.33333333      0.00000000      0.00000000</v>
   <v>       0.41666667      0.00000000      0.00000000</v>
   <v>       0.50000000      0.00000000      0.00000000</v>
   <v>       0.08333333      0.08333333      0.00000000</v>
   <v>       0.16666667      0.08333333      0.00000000</v>
   <v>       0.25000000      0.08333333      0.00000000</v>
   <v>       0.33333333      0.08333333      0.00000000</v>
   <v>       0.41666667      0.08333333      0.00000000</v>
   <v>       0.50000000      0.08333333      0.00000000</v>
   <v>       0.16666667      0.16666667      0.00000000</v>
   <v>       0.25000000      0.16666667      0.00000000</v>
   <v>       0.33333333      0.16666667      0.00000000</v>
   <v>       0.41666667      0.16666667      0.00000000</v>
   <v>       0.50000000      0.16666667      0.00000000</v>
   <v>       0.25000000      0.25000000      0.00000000</v>
   <v>       0.33333333      0.25000000      0.00000000</v>
   <v>       0.41666667      0.25000000      0.00000000</v>
   <v>       0.50000000      0.25000000      0.00000000</v>
   <v>       0.33333333      0.33333333      0.00000000</v>
   <v>       0.41666667      0.33333333      0.00000000</v>
   <v>       0.50000000      0.33333333      0.00000000</v>
   <v>       0.41666667      0.41666667      0.00000000</v>
   <v>       0.50000000      0.41666667      0.00000000</v>
   <v>       0.50000000      0.50000000      0.00000000</v>
   <v>       0.08333333      0.08333333      0.08333333</v>
   <v>       0.16666667      0.08333333      0.08333333</v>
   <v>       0.25000000      0.08333333      0.08333333</v>
   <v>       0.33333333      0.08333333      0.08333333</v>
   <v>       0.41666667      0.08333333      0.08333333</v>
   <v>       0.50000000      0.08333333      0.08333333</v>
   <v>       0.16666667      0.16666667      0.08333333</v>
   <v>       0.25000000      0.16666667      0.08333333</v>
   <v>       0.33333333      0.16666667      0.08333333</v>
   <v>       0.41666667      0.16666667      0.08333333</v>
   <v>       0.50000000      0.16666667      0.08333333</v>
   <v>       0.25000000      0.25000000      0.08333333</v>
   <v>       0.33333333      0.25000000      0.08333333</v>
   <v>       0.41666667      0.25000000      0.08333333</v>
   <v>       0.50000000      0.25000000      0.08333333</v>
   <v>       0.33333333      0.33333333      0.08333333</v>
   <v>       0.41666667      0.33333333      0.08333333</v>
   <v>       0.50000000      0.33333333      0.08333333</v>
   <v>       0.41666667      0.41666667      0.08333333</v>
   <v>       0.50000000      0.41666667      0.08333333</v>
   <v>       0.50000000      0.50000000      0.08333333</v>
   <v>       0.16666667      0.16666667      0.16666667</v>
   <v>       0.25000000      0.16666667      0.16666667</v>
   <v>       0.33333333      0.16666667      0.16666667</v>
   <v>       0.41666667      0.16666667      0.16666667</v>
   <v>       0.50000000      0.16666667      0.16666667</v>
   <v>       0.25000000      0.25000000      0.16666667</v>
   <v>       0.33333333      0.25000000      0.16666667</v>
   <v>       0.41666667      0.25000000      0.16666667</v>
   <v>       0.50000000      0.25000000      0.16666667</v>
   <v>       0.33333333      0.33333333      0.16666667</v>
   <v>       0.41666667      0.33333333      0.16666667</v>
   <v>       0.50000000      0.33333333      0.16666667</v>
   <v>       0.41666667      0.41666667      0.16666667</v>
   <v>       0.50000000      0.41666667      0.16666667</v>
   <v>       0.50000000      0.50000000      0.16666667</v>
   <v>       0.25000000      0.25000000      0.25000000</v>
   <v>       0.33333333      0.25000000      0.25000000</v>
   <v>       0.41666667      0.25000000      0.25000000</v>
   <v>       0.50000000      0.25000000      0.25000000</v>
   <v>       0.33333333      0.33333333      0.25000000</v>
   <v>       0.41666667      0.33333333      0.25000000</v>
   <v>       0.50000000      0.33333333      0.25000000</v>
   <v>       0.41666667      0.41666667      0.25000000</v>
   <v>       0.50000000      0.41666667      0.25000000</v>
   <v>       0.50000000      0.50000000      0.25000000</v>
   <v>       0.33333333      0.33333333      0.33333333</v>
   <v>       0.41666667      0.33333333      0.33333333</v>
   <v>       0.50000000      0.33333333      0.33333333</v>
   <v>       0.41666667      0.41666667      0.33333333</v>
   <v>       0.50000000      0.41666667      0.33333333</v>
   <v>       0.50000000      0.50000000      0.33333333</v>
   <v>       0.41666667      0.41666667      0.41666667</v>
   <v>       0.50000000      0.41666667      0.41666667</v>
   <v>       0.50000000      0.50000000      0.41666667</v>
   <v>       0.50000000      0.50000000      0.50000000</v>
  </varray>
  <varray name="weights" >
   <v>       0.00057870</v>
   <v>       0.00347222</v>
   <v>       0.00347222</v>
   <v>       0.00347222</v>
   <v>       0.00347222</v>
   <v>       0.00347222</v>
   <v>       0.00173611</v>
   <v>       0.00694444</v>
   <v>       0.01388889</v>
   <v>       0.01388889</v>
   <v>       0.01388889</v>
   <v>       0.01388889</v>
   <v>       0.00694444</v>
   <v>       0.00694444</v>
   <v>       0.01388889</v>
   <v>       0.01388889</v>
   <v>       0.01388889</v>
   <v>       0.00694444</v>
   <v>       0.00694444</v>
   <v>       0.01388889</v>
   <v>       0.01388889</v>
   <v>       0.00694444</v>
   <v>       0.00694444</v>
   <v>       0.01388889</v>
   <v>       0.00694444</v>
   <v>       0.00694444</v>
   <v>       0.00694444</v>
   <v>       0.00173611</v>
   <v>       0.00462963</v>
   <v>       0.01388889</v>
   <v>       0.01388889</v>
   <v>       0.01388889</v>
   <v>       0.01388889</v>
   <v>       0.00694444</v>
   <v>       0.01388889</v>
   <v>       0.02777778</v>
   <v>       0.02777778</v>
   <v>       0.02777778</v>
   <v>       0.01388889</v>
   <v>       0.01388889</v>
   <v>       0.02777778</v>
   <v>       0.02777778</v>
   <v>       0.01388889</v>
   <v>       0.01388889</v>
   <v>       0.02777778</v>
   <v>       0.01388889</v>
   <v>       0.01388889</v>
   <v>       0.01388889</v>
   <v>       0.00347222</v>
   <v>       0.00462963</v>
   <v>       0.01388889</v>
   <v>       0.01388889</v>
   <v>       0.01388889</v>
   <v>       0.00694444</v>
   <v>       0.01388889</v>
   <v>       0.02777778</v>
   <v>       0.02777778</v>
   <v>       0.01388889</v>
   <v>       0.01388889</v>
   <v>       0.02777778</v>
   <v>       0.01388889</v>
   <v>       0.01388889</v>
   <v>       0.01388889</v>
   <v>       0.00347222</v>
   <v>       0.00462963</v>
   <v>       0.01388889</v>
   <v>       0.01388889</v>
   <v>       0.00694444</v>
   <v>       0.01388889</v>
   <v>       0.02777778</v>
   <v>       0.01388889</v>
   <v>       0.01388889</v>
   <v>       0.01388889</v>
   <v>       0.00347222</v>
   <v>       0.00462963</v>
   <v>       0.01388889</v>
   <v>       0.00694444</v>
   <v>       0.01388889</v>
   <v>       0.01388889</v>
   <v>       0.00347222</v>
   <v>       0.00462963</v>
   <v>       0.00694444</v>
   <v>       0.00347222</v>
   <v>       0.00057870</v>
  </varray>
 </kpoints>
 <parameters>
  <separator name="general" >
   <i type="string" name="SYSTEM">unknown system</i>
   <i type="logical" name="LCOMPAT"> F  </i>
  </separator>
  <separator name="electronic" >
   <i type="string" name="PREC">accura</i>
   <i name="ENMAX">    750.00000000</i>
   <i name="ENAUG">    356.67000000</i>
   <i name="EDIFF">      0.00000001</i>
   <i type="int" name="IALGO">    38</i>
   <i type="int" name="IWAVPR">    10</i>
   <i type="int" name="NBANDS">    26</i>
   <i name="NELECT">     44.00000000</i>
   <separator name="electronic smearing" >
    <i type="int" name="ISMEAR">     0</i>
    <i name="SIGMA">      0.01000000</i>
   </separator>
   <separator name="electronic projectors" >
    <i type="logical" name="LREAL"> F  </i>
    <v name="ROPT">      0.00000000</v>
    <i type="int" name="LMAXPAW">  -100</i>
    <i type="int" name="LMAXMIX">     2</i>
   </separator>
   <separator name="electronic startup" >
    <i type="int" name="ISTART">     0</i>
    <i type="int" name="ICHARG">     2</i>
    <i type="int" name="INIWAV">     1</i>
   </separator>
   <separator name="electronic spin" >
    <i type="int" name="ISPIN">     1</i>
    <i type="logical" name="LNONCOLLINEAR"> F  </i>
    <v name="MAGMOM">      1.00000000      1.00000000      1.00000000      1.00000000</v>
    <i name="NUPDOWN">     -1.00000000</i>
    <i type="logical" name="LSORBIT"> F  </i>
    <v name="SAXIS">      0.00000000      0.00000000      1.00000000</v>
    <i type="logical" name="LSPIRAL"> F  </i>
    <v name="QSPIRAL">      0.00000000      0.00000000      0.00000000</v>
    <i type="logical" name="LZEROZ"> F  </i>
   </separator>
   <separator name="electronic exchange-correlation" >
    <i type="string" name="GGA">--</i>
    <i type="int" name="VOSKOWN">     0</i>
    <i type="logical" name="LASPH"> F  </i>
    <i type="logical" name="LMETAGGA"> F  </i>
    <i type="string" name="GGA2">--</i>
   </separator>
   <separator name="electronic convergence" >
    <i type="int" name="NELM">    60</i>
    <i type="int" name="NELMDL">     0</i>
    <i type="int" name="NELMIN">     2</i>
    <i name="ENINI">    750.00000000</i>
    <separator name="electronic convergence detail" >
     <i type="logical" name="LDIAG"> T  </i>
     <i name="WEIMIN">      0.00000000</i>
     <i name="EBREAK">      0.00000000</i>
     <i name="DEPER">      0.30000000</i>
     <i type="int" name="NRMM">     4</i>
     <i name="TIME">      0.10000000</i>
    </separator>
   </separator>
   <separator name="electronic mixer" >
    <i name="AMIX">      0.40000000</i>
    <i name="BMIX">      1.00000000</i>
    <i name="AMIN">      0.10000000</i>
    <i name="AMIX_MAG">      1.60000000</i>
    <i name="BMIX_MAG">      1.00000000</i>
    <separator name="electronic mixer details" >
     <i type="int" name="IMIX">     4</i>
     <i type="int" name="MAXMIX">   -45</i>
     <i name="WC">    100.00000000</i>
     <i type="int" name="INIMIX">     1</i>
     <i type="int" name="MIXPRE">     1</i>
     <i type="int" name="MREMOVE">     5</i>
    </separator>
   </separator>
   <separator name="electronic dipolcorrection" >
    <i type="int" name="IDIPOL">     0</i>
    <i type="logical" name="LDIPOL"> F  </i>
    <v name="DIPOL">   -100.00000000</v>
    <i name="EFIELD">      0.00000000</i>
   </separator>
  </separator>
  <separator name="grids" >
   <i type="int" name="NGX">    40</i>
   <i type="int" name="NGY">    40</i>
   <i type="int" name="NGZ">    40</i>
   <i type="int" name="NGXF">    80</i>
   <i type="int" name="NGYF">    80</i>
   <i type="int" name="NGZF">    80</i>
   <i type="logical" name="ADDGRID"> T  </i>
  </separator>
  <separator name="ionic" >
   <i type="int" name="NSW">     0</i>
   <i type="int" name="IBRION">    -1</i>
   <i type="int" name="ISIF">     2</i>
   <i name="PSTRESS">      0.00000000</i>
   <i name="EDIFFG">      0.00000010</i>
   <i type="int" name="NFREE">     0</i>
   <i name="POTIM">      0.50000000</i>
   <i name="SMASS">     -3.00000000</i>
  </separator>
  <separator name="ionic md" >
   <i name="TEBEG">      0.00010000</i>
   <i name="TEEND">      0.00010000</i>
   <i type="int" name="NBLOCK">     1</i>
   <i type="int" name="KBLOCK">     1</i>
   <i type="int" name="NPACO">   256</i>
   <i name="APACO">     16.00000000</i>
  </separator>
  <separator name="symmetry" >
   <i type="int" name="ISYM">     2</i>
   <i name="SYMPREC">      0.00001000</i>
  </separator>
  <separator name="dos" >
   <i type="logical" name="LORBIT"> F  </i>
   <v name="RWIGS">     -1.00000000</v>
   <i type="int" name="NEDOS">   301</i>
   <i name="EMIN">     10.00000000</i>
   <i name="EMAX">    -10.00000000</i>
  </separator>
  <separator name="writing" >
   <i type="int" name="NWRITE">     2</i>
   <i type="logical" name="LWAVE"> F  </i>
   <i type="logical" name="LCHARG"> F  </i>
   <i type="logical" name="LPARD"> F  </i>
   <i type="logical" name="LVTOT"> F  </i>
   <i type="logical" name="LELF"> F  </i>
   <i type="logical" name="LOPTICS"> F  </i>
   <i name="STM">      0.00000000</i>
  </separator>
  <separator name="performance" >
   <i type="int" name="NPAR">     4</i>
   <i type="int" name="NSIM">     4</i>
   <i type="int" name="NBLK">   256</i>
   <i type="logical" name="LPLANE"> T  </i>
   <i type="logical" name="LCRITICAL_MEM"> F  </i>
   <i type="logical" name="LSCALAPACK"> F  </i>
   <i type="logical" name="LSCALU"> F  </i>
   <i type="logical" name="LASYNC"> F  </i>
  </separator>
  <separator name="miscellaneous" >
   <i type="int" name="IDIOT">     3</i>
   <i type="logical" name="LMUSIC"> F  </i>
   <v name="POMASS">    196.96600000</v>
   <i type="logical" name="LCORR"> T  </i>
  </separator>
  <i type="logical" name="LREAL_COMPAT"> F  </i>
  <i type="logical" name="GGA_COMPAT"> T  </i>
  <i type="logical" name="LBERRY"> F  </i>
  <i type="int" name="ICORELEVEL">     0</i>
  <i type="logical" name="LDAU"> F  </i>
  <i type="int" name="I_CONSTRAINED_M">     0</i>
 </parameters>
 <atominfo>
  <atoms>       4</atoms>
  <types>       1</types>
  <array name="atoms" >
   <dimension dim="1">ion</dimension>
   <field type="string">element</field>
   <field type="int">atomtype</field>
   <set>
    <rc><c>Au</c><c>   1</c></rc>
    <rc><c>Au</c><c>   1</c></rc>
    <rc><c>Au</c><c>   1</c></rc>
    <rc><c>Au</c><c>   1</c></rc>
   </set>
  </array>
  <array name="atomtypes" >
   <dimension dim="1">type</dimension>
   <field type="int">atomspertype</field>
   <field type="string">element</field>
   <field>mass</field>
   <field>valence</field>
   <field type="string">pseudopotential</field>
   <set>
    <rc><c>   4</c><c>Au</c><c>    196.96600000</c><c>     11.00000000</c><c> PAW_PBE Au 06Sep2000                   </c></rc>
   </set>
  </array>
 </atominfo>
 <structure name="initialpos" >
  <crystal>
   <varray name="basis" >
    <v>       4.08939486      0.00000000      0.00000000</v>
    <v>       0.00000000      4.08939486      0.00000000</v>
    <v>       0.00000000      0.00000000      4.08939486</v>
   </varray>
   <i name="volume">     68.38756518</i>
   <varray name="rec_basis" >
    <v>       0.24453496      0.00000000      0.00000000</v>
    <v>       0.00000000      0.24453496      0.00000000</v>
    <v>       0.00000000      0.00000000      0.24453496</v>
   </varray>
  </crystal>
  <varray name="positions" >
   <v>       0.00000000      0.00000000      0.00000000</v>
   <v>       0.50000000      0.50000000      0.00000000</v>
   <v>       0.50000000      0.00000000      0.50000000</v>
   <v>       0.00000000      0.50000000      0.50000000</v>
  </varray>
 </structure>
 <calculation>
  <scstep>
   <time name="dav">   11.80   11.82</time>
   <time name="total">   12.41   12.43</time>
   <energy>
    <i name="alphaZ">    438.16629999</i>
    <i name="ewald">  -3906.95736399</i>
    <i name="hartreedc">   -497.24818883</i>
    <i name="XCdc">     61.42420967</i>
    <i name="pawpsdc">   2990.04966927</i>
    <i name="pawaedc">  -2896.51663641</i>
    <i name="eentropy">     -0.00034060</i>
    <i name="bandstr">    658.42945729</i>
    <i name="atom">   3704.22372399</i>
    <i name="e_fr_energy">    551.57083038</i>
    <i name="e_wo_entrp">    551.57117097</i>
    <i name="e_0_energy">    551.57100068</i>
   </energy>
  </scstep>
  <scstep>
   <time name="dav">    7.76    7.76</time>
   <time name="total">    7.77    7.77</time>
   <energy>
    <i name="e_fr_energy">      9.71598094</i>
    <i name="e_wo_entrp">      9.71608200</i>
    <i name="e_0_energy">      9.71603147</i>
   </energy>
  </scstep>
  <scstep>
   <time name="dav">    7.08    7.08</time>
   <time name="total">    7.08    7.09</time>
   <energy>
    <i name="e_fr_energy">    -13.54050892</i>
    <i name="e_wo_entrp">    -13.54037033</i>
    <i name="e_0_energy">    -13.54043962</i>
   </energy>
  </scstep>
  <scstep>
   <time name="dav">    5.46    5.47</time>
   <time name="total">    5.47    5.47</time>
   <energy>
    <i name="e_fr_energy">    -13.96618140</i>
    <i name="e_wo_entrp">    -13.96610006</i>
    <i name="e_0_energy">    -13.96614073</i>
   </energy>
  </scstep>
  <scstep>
   <time name="dav">    6.98    6.99</time>
   <time name="total">    8.32    8.33</time>
   <energy>
    <i name="e_fr_energy">    -13.97016864</i>
    <i name="e_wo_entrp">    -13.97008744</i>
    <i name="e_0_energy">    -13.97012804</i>
   </energy>
  </scstep>
  <scstep>
   <time name="dav">   12.35   12.36</time>
   <time name="total">   14.36   14.38</time>
   <energy>
    <i name="e_fr_energy">    -13.05139445</i>
    <i name="e_wo_entrp">    -13.05125105</i>
    <i name="e_0_energy">    -13.05132275</i>
   </energy>
  </scstep>
  <scstep>
   <time name="dav">   12.97   12.98</time>
   <time name="total">   14.98   14.99</time>
   <energy>
    <i name="e_fr_energy">    -12.97658519</i>
    <i name="e_wo_entrp">    -12.97647946</i>
    <i name="e_0_energy">    -12.97653233</i>
   </energy>
  </scstep>
  <scstep>
   <time name="dav">   11.95   11.96</time>
   <time name="total">   13.96   13.98</time>
   <energy>
    <i name="e_fr_energy">    -12.96358534</i>
    <i name="e_wo_entrp">    -12.96347960</i>
    <i name="e_0_energy">    -12.96353247</i>
   </energy>
  </scstep>
  <scstep>
   <time name="dav">   12.70   12.71</time>
   <time name="total">   14.70   14.72</time>
   <energy>
    <i name="e_fr_energy">    -12.96364474</i>
    <i name="e_wo_entrp">    -12.96353900</i>
    <i name="e_0_energy">    -12.96359187</i>
   </energy>
  </scstep>
  <scstep>
   <time name="dav">   12.13   12.15</time>
   <time name="total">   14.14   14.16</time>
   <energy>
    <i name="e_fr_energy">    -12.96365365</i>
    <i name="e_wo_entrp">    -12.96354791</i>
    <i name="e_0_energy">    -12.96360078</i>
   </energy>
  </scstep>
  <scstep>
   <time name="dav">   12.58   12.59</time>
   <time name="total">   14.57   14.58</time>
   <energy>
    <i name="e_fr_energy">    -12.96365583</i>
    <i name="e_wo_entrp">    -12.96355009</i>
    <i name="e_0_energy">    -12.96360296</i>
   </energy>
  </scstep>
  <scstep>
   <time name="dav">   11.84   11.85</time>
   <time name="total">   13.85   13.87</time>
   <energy>
    <i name="e_fr_energy">    -12.96365514</i>
    <i name="e_wo_entrp">    -12.96354941</i>
    <i name="e_0_energy">    -12.96360228</i>
   </energy>
  </scstep>
  <scstep>
   <time name="dav">    8.40    8.40</time>
   <time name="total">   10.41   10.42</time>
   <energy>
    <i name="e_fr_energy">    -12.96365507</i>
    <i name="e_wo_entrp">    -12.96354934</i>
    <i name="e_0_energy">    -12.96360221</i>
   </energy>
  </scstep>
  <scstep>
   <time name="dav">    8.17    8.18</time>
   <time name="total">   10.22   10.22</time>
   <energy>
    <i name="e_fr_energy">    -12.96365509</i>
    <i name="e_wo_entrp">    -12.96354935</i>
    <i name="e_0_energy">    -12.96360222</i>
   </energy>
  </scstep>
  <scstep>
   <time name="dav">    8.28    8.29</time>
   <time name="total">    9.11    9.12</time>
   <energy>
    <i name="alphaZ">    438.16629999</i>
    <i name="ewald">  -3906.95736399</i>
    <i name="hartreedc">   -453.97018608</i>
    <i name="XCdc">     59.49654988</i>
    <i name="pawpsdc">   3024.46316357</i>
    <i name="pawaedc">  -2941.84963880</i>
    <i name="eentropy">     -0.00010574</i>
    <i name="bandstr">     63.46390210</i>
    <i name="atom">   3704.22372399</i>
    <i name="e_fr_energy">    -12.96365508</i>
    <i name="e_wo_entrp">    -12.96354935</i>
    <i name="e_0_energy">    -12.96360222</i>
   </energy>
  </scstep>
  <structure>
   <crystal>
    <varray name="basis" >
     <v>       4.08939486      0.00000000      0.00000000</v>
     <v>       0.00000000      4.08939486      0.00000000</v>
     <v>       0.00000000      0.00000000      4.08939486</v>
    </varray>
    <i name="volume">     68.38756518</i>
    <varray name="rec_basis" >
     <v>       0.24453496      0.00000000      0.00000000</v>
     <v>       0.00000000      0.24453496      0.00000000</v>
     <v>       0.00000000      0.00000000      0.24453496</v>
    </varray>
   </crystal>
   <varray name="positions" >
    <v>       0.00000000      0.00000000      0.00000000</v>
    <v>       0.50000000      0.50000000      0.00000000</v>
    <v>       0.50000000      0.00000000      0.50000000</v>
    <v>       0.00000000      0.50000000      0.50000000</v>
   </varray>
  </structure>
  <varray name="forces" >
   <v>      -0.00000000      0.00000000     -0.00000000</v>
   <v>       0.00000000     -0.00000000     -0.00000000</v>
   <v>      -0.00000000      0.00000000     -0.00000000</v>
   <v>      -0.00000000      0.00000000     -0.00000000</v>
  </varray>
  <varray name="stress" >
   <v>      99.02312543      0.00000000      0.00000000</v>
   <v>       0.00000000     99.02312543      0.00000000</v>
   <v>      -0.00000000      0.00000000     99.02312543</v>
  </varray>
  <energy>
   <i name="e_fr_energy">    -12.96365508</i>
   <i name="e_wo_entrp">    -12.96360222</i>
   <i name="e_0_energy">     -0.00010574</i>
  </energy>
  <eigenvalues>
   <array>
    <dimension dim="1">band</dimension>
    <dimension dim="2">kpoint</dimension>
    <dimension dim="3">spin</dimension>
    <field>eigene</field>
    <field>occ</field>
    <set>
     <set comment="spin 1">
      <set comment="kpoint 1">
       <r>  -4.1080  1.0000</r>
       <r>  -1.3712  1.0000</r>
       <r>  -1.3712  1.0000</r>
       <r>  -1.3712  1.0000</r>
       <r>  -1.0659  1.0000</r>
       <r>  -1.0659  1.0000</r>
       <r>  -1.0659  1.0000</r>
       <r>   0.9846  1.0000</r>
       <r>   0.9846  1.0000</r>
       <r>   0.9846  1.0000</r>
       <r>   2.4960  1.0000</r>
       <r>   2.4960  1.0000</r>
       <r>   3.6466  1.0000</r>
       <r>   3.6466  1.0000</r>
       <r>   3.6466  1.0000</r>
       <r>   4.0094  1.0000</r>
       <r>   4.0094  1.0000</r>
       <r>   4.0094  1.0000</r>
       <r>   4.0094  1.0000</r>
       <r>   4.0094  1.0000</r>
       <r>   4.0094  1.0000</r>
       <r>   6.7512  0.0000</r>
       <r>   6.7512  0.0000</r>
       <r>   6.7512  0.0000</r>
       <r>  11.5065  0.0000</r>
       <r>  11.5065  0.0000</r>
       <r>  11.5065  0.0000</r>
       <r>  15.9226  0.0000</r>
      </set>
      <set comment="kpoint 2">
       <r>  -4.0269  1.0000</r>
       <r>  -1.3428  1.0000</r>
       <r>  -1.3169  1.0000</r>
       <r>  -1.3169  1.0000</r>
       <r>  -1.0363  1.0000</r>
       <r>  -1.0209  1.0000</r>
       <r>  -1.0209  1.0000</r>
       <r>   0.9427  1.0000</r>
       <r>   1.0212  1.0000</r>
       <r>   1.0212  1.0000</r>
       <r>   2.4511  1.0000</r>
       <r>   2.5140  1.0000</r>
       <r>   3.5825  1.0000</r>
       <r>   3.5825  1.0000</r>
       <r>   3.6253  1.0000</r>
       <r>   3.7186  1.0000</r>
       <r>   3.7186  1.0000</r>
       <r>   3.9311  1.0000</r>
       <r>   3.9311  1.0000</r>
       <r>   4.0096  1.0000</r>
       <r>   4.0096  1.0000</r>
       <r>   6.1771  0.0000</r>
       <r>   7.0977  0.0000</r>
       <r>   7.0977  0.0000</r>
       <r>  11.4301  0.0000</r>
       <r>  11.4301  0.0000</r>
       <r>  12.2190  0.0000</r>
       <r>  15.7858  0.0000</r>
      </set>
      <set comment="kpoint 3">
       <r>  -3.7864  1.0000</r>
       <r>  -1.2668  1.0000</r>
       <r>  -1.1598  1.0000</r>
       <r>  -1.1598  1.0000</r>
       <r>  -0.9485  1.0000</r>
       <r>  -0.8860  1.0000</r>
       <r>  -0.8860  1.0000</r>
       <r>   0.8217  1.0000</r>
       <r>   1.1303  1.0000</r>
       <r>   1.1303  1.0000</r>
       <r>   2.3226  1.0000</r>
       <r>   2.5674  1.0000</r>
       <r>   3.0939  1.0000</r>
       <r>   3.0939  1.0000</r>
       <r>   3.3961  1.0000</r>
       <r>   3.3961  1.0000</r>
       <r>   3.5632  1.0000</r>
       <r>   3.7113  1.0000</r>
       <r>   3.7113  1.0000</r>
       <r>   4.0099  1.0000</r>
       <r>   4.0099  1.0000</r>
       <r>   5.0034  1.0000</r>
       <r>   7.8876  0.0000</r>
       <r>   7.8876  0.0000</r>
       <r>  11.2292  0.0000</r>
       <r>  11.2292  0.0000</r>
       <r>  13.8141  0.0000</r>
       <r>  15.3886  0.0000</r>
      </set>
      <set comment="kpoint 4">
       <r>  -3.3967  1.0000</r>
       <r>  -1.1756  1.0000</r>
       <r>  -0.9190  1.0000</r>
       <r>  -0.9190  1.0000</r>
       <r>  -0.8063  1.0000</r>
       <r>  -0.6620  1.0000</r>
       <r>  -0.6620  1.0000</r>
       <r>   0.6346  1.0000</r>
       <r>   1.3096  1.0000</r>
       <r>   1.3096  1.0000</r>
       <r>   2.1299  1.0000</r>
       <r>   2.3939  1.0000</r>
       <r>   2.3939  1.0000</r>
       <r>   2.6530  1.0000</r>
       <r>   3.1102  1.0000</r>
       <r>   3.1102  1.0000</r>
       <r>   3.3878  1.0000</r>
       <r>   3.3878  1.0000</r>
       <r>   3.4655  1.0000</r>
       <r>   3.7719  1.0000</r>
       <r>   4.0104  1.0000</r>
       <r>   4.0104  1.0000</r>
       <r>   8.8564  0.0000</r>
       <r>   8.8564  0.0000</r>
       <r>  10.9737  0.0000</r>
       <r>  10.9737  0.0000</r>
       <r>  14.7671  0.0000</r>
       <r>  14.7671  0.0000</r>
      </set>
      <set comment="kpoint 5">
       <r>  -2.8795  1.0000</r>
       <r>  -1.1410  1.0000</r>
       <r>  -0.6346  1.0000</r>
       <r>  -0.6346  1.0000</r>
       <r>  -0.6160  1.0000</r>
       <r>  -0.3501  1.0000</r>
       <r>  -0.3501  1.0000</r>
       <r>   0.3998  1.0000</r>
       <r>   1.5552  1.0000</r>
       <r>   1.5552  1.0000</r>
       <r>   1.7130  1.0000</r>
       <r>   1.7130  1.0000</r>
       <r>   1.9093  1.0000</r>
       <r>   2.7113  1.0000</r>
       <r>   2.7662  1.0000</r>
       <r>   2.7748  1.0000</r>
       <r>   2.7748  1.0000</r>
       <r>   3.0056  1.0000</r>
       <r>   3.0056  1.0000</r>
       <r>   3.3403  1.0000</r>
       <r>   4.0109  1.0000</r>
       <r>   4.0109  1.0000</r>
       <r>   9.8999  0.0000</r>
       <r>   9.8999  0.0000</r>
       <r>  10.7400  0.0000</r>
       <r>  10.7400  0.0000</r>
       <r>  13.9681  0.0000</r>
       <r>  13.9681  0.0000</r>
      </set>
      <set comment="kpoint 6">
       <r>  -2.2809  1.0000</r>
       <r>  -1.2860  1.0000</r>
       <r>  -0.3865  1.0000</r>
       <r>  -0.3820  1.0000</r>
       <r>  -0.3820  1.0000</r>
       <r>   0.0475  1.0000</r>
       <r>   0.0475  1.0000</r>
       <r>   0.1381  1.0000</r>
       <r>   1.0858  1.0000</r>
       <r>   1.0858  1.0000</r>
       <r>   1.7252  1.0000</r>
       <r>   1.8604  1.0000</r>
       <r>   1.8605  1.0000</r>
       <r>   1.9876  1.0000</r>
       <r>   2.4814  1.0000</r>
       <r>   2.4814  1.0000</r>
       <r>   2.6044  1.0000</r>
       <r>   2.6044  1.0000</r>
       <r>   2.9004  1.0000</r>
       <r>   3.1974  1.0000</r>
       <r>   4.0112  1.0000</r>
       <r>   4.0112  1.0000</r>
       <r>  10.5820  0.0000</r>
       <r>  10.5820  0.0000</r>
       <r>  10.9688  0.0000</r>
       <r>  10.9688  0.0000</r>
       <r>  13.0400  0.0000</r>
       <r>  13.0400  0.0000</r>
      </set>
      <set comment="kpoint 7">
       <r>  -1.6971  1.0000</r>
       <r>  -1.6971  1.0000</r>
       <r>  -0.2750  1.0000</r>
       <r>  -0.2750  1.0000</r>
       <r>  -0.1300  1.0000</r>
       <r>  -0.1300  1.0000</r>
       <r>   0.5279  1.0000</r>
       <r>   0.5279  1.0000</r>
       <r>   0.5279  1.0000</r>
       <r>   0.5279  1.0000</r>
       <r>   1.6931  1.0000</r>
       <r>   1.6931  1.0000</r>
       <r>   2.2153  1.0000</r>
       <r>   2.2153  1.0000</r>
       <r>   2.2153  1.0000</r>
       <r>   2.2153  1.0000</r>
       <r>   2.3587  1.0000</r>
       <r>   2.3587  1.0000</r>
       <r>   3.0473  1.0000</r>
       <r>   3.0473  1.0000</r>
       <r>   4.0114  1.0000</r>
       <r>   4.0114  1.0000</r>
       <r>  10.5268  0.0000</r>
       <r>  10.5268  0.0000</r>
       <r>  12.0272  0.0000</r>
       <r>  12.0272  0.0000</r>
       <r>  12.0272  0.0000</r>
       <r>  12.0272  0.0000</r>
      </set>
      <set comment="kpoint 8">
       <r>  -3.9466  1.0000</r>
       <r>  -1.2880  1.0000</r>
       <r>  -1.2880  1.0000</r>
       <r>  -1.2697  1.0000</r>
       <r>  -0.9918  1.0000</r>
       <r>  -0.9918  1.0000</r>
       <r>  -0.9710  1.0000</r>
       <r>   0.9248  1.0000</r>
       <r>   1.0350  1.0000</r>
       <r>   1.0546  1.0000</r>
       <r>   2.4389  1.0000</r>
       <r>   2.5035  1.0000</r>
       <r>   3.5036  1.0000</r>
       <r>   3.5036  1.0000</r>
       <r>   3.5222  1.0000</r>
       <r>   3.5238  1.0000</r>
       <r>   3.6811  1.0000</r>
       <r>   3.6811  1.0000</r>
       <r>   3.9310  1.0000</r>
       <r>   3.9310  1.0000</r>
       <r>   3.9583  1.0000</r>
       <r>   6.5265  0.0000</r>
       <r>   6.5265  0.0000</r>
       <r>   7.4000  0.0000</r>
       <r>  11.3417  0.0000</r>
       <r>  12.1428  0.0000</r>
       <r>  12.1428  0.0000</r>
       <r>  15.2425  0.0000</r>
      </set>
      <set comment="kpoint 9">
       <r>  -3.7088  1.0000</r>
       <r>  -1.2105  1.0000</r>
       <r>  -1.1323  1.0000</r>
       <r>  -1.1293  1.0000</r>
       <r>  -0.9058  1.0000</r>
       <r>  -0.8587  1.0000</r>
       <r>  -0.8233  1.0000</r>
       <r>   0.8187  1.0000</r>
       <r>   1.1325  1.0000</r>
       <r>   1.1532  1.0000</r>
       <r>   2.3280  1.0000</r>
       <r>   2.5522  1.0000</r>
       <r>   2.9382  1.0000</r>
       <r>   2.9892  1.0000</r>
       <r>   3.2487  1.0000</r>
       <r>   3.3462  1.0000</r>
       <r>   3.4313  1.0000</r>
       <r>   3.5906  1.0000</r>
       <r>   3.7107  1.0000</r>
       <r>   3.9307  1.0000</r>
       <r>   3.9311  1.0000</r>
       <r>   5.4116  1.0000</r>
       <r>   7.2725  0.0000</r>
       <r>   8.1285  0.0000</r>
       <r>  11.1052  0.0000</r>
       <r>  11.9510  0.0000</r>
       <r>  13.6915  0.0000</r>
       <r>  14.6639  0.0000</r>
      </set>
      <set comment="kpoint 10">
       <r>  -3.3235  1.0000</r>
       <r>  -1.1169  1.0000</r>
       <r>  -0.9164  1.0000</r>
       <r>  -0.8856  1.0000</r>
       <r>  -0.7664  1.0000</r>
       <r>  -0.6377  1.0000</r>
       <r>  -0.5862  1.0000</r>
       <r>   0.6393  1.0000</r>
       <r>   1.3091  1.0000</r>
       <r>   1.3093  1.0000</r>
       <r>   2.1518  1.0000</r>
       <r>   2.2524  1.0000</r>
       <r>   2.3382  1.0000</r>
       <r>   2.6480  1.0000</r>
       <r>   2.8130  1.0000</r>
       <r>   3.0745  1.0000</r>
       <r>   3.1474  1.0000</r>
       <r>   3.3866  1.0000</r>
       <r>   3.4464  1.0000</r>
       <r>   3.9251  1.0000</r>
       <r>   3.9302  1.0000</r>
       <r>   4.3465  1.0000</r>
       <r>   8.1177  0.0000</r>
       <r>   9.0572  0.0000</r>
       <r>  10.7929  0.0000</r>
       <r>  11.7432  0.0000</r>
       <r>  14.1047  0.0000</r>
       <r>  14.9210  0.0000</r>
      </set>
      <set comment="kpoint 11">
       <r>  -2.8121  1.0000</r>
       <r>  -1.0800  1.0000</r>
       <r>  -0.6434  1.0000</r>
       <r>  -0.5965  1.0000</r>
       <r>  -0.5800  1.0000</r>
       <r>  -0.3304  1.0000</r>
       <r>  -0.2808  1.0000</r>
       <r>   0.4116  1.0000</r>
       <r>   1.4864  1.0000</r>
       <r>   1.5537  1.0000</r>
       <r>   1.5919  1.0000</r>
       <r>   1.6862  1.0000</r>
       <r>   1.9870  1.0000</r>
       <r>   2.2353  1.0000</r>
       <r>   2.7545  1.0000</r>
       <r>   2.7773  1.0000</r>
       <r>   2.8155  1.0000</r>
       <r>   3.0038  1.0000</r>
       <r>   3.1829  1.0000</r>
       <r>   3.6310  1.0000</r>
       <r>   3.9243  1.0000</r>
       <r>   3.9293  1.0000</r>
       <r>   8.9151  0.0000</r>
       <r>  10.0762  0.0000</r>
       <r>  10.4801  0.0000</r>
       <r>  11.6546  0.0000</r>
       <r>  13.5299  0.0000</r>
       <r>  14.1180  0.0000</r>
      </set>
      <set comment="kpoint 12">
       <r>  -2.2194  1.0000</r>
       <r>  -1.2257  1.0000</r>
       <r>  -0.3703  1.0000</r>
       <r>  -0.3554  1.0000</r>
       <r>  -0.3386  1.0000</r>
       <r>   0.0609  1.0000</r>
       <r>   0.0693  1.0000</r>
       <r>   0.1568  1.0000</r>
       <r>   0.9943  1.0000</r>
       <r>   1.0776  1.0000</r>
       <r>   1.5354  1.0000</r>
       <r>   1.7297  1.0000</r>
       <r>   1.8585  1.0000</r>
       <r>   2.0392  1.0000</r>
       <r>   2.4780  1.0000</r>
       <r>   2.5164  1.0000</r>
       <r>   2.6023  1.0000</r>
       <r>   2.7529  1.0000</r>
       <r>   2.9328  1.0000</r>
       <r>   3.3120  1.0000</r>
       <r>   3.9253  1.0000</r>
       <r>   3.9282  1.0000</r>
       <r>   9.5348  0.0000</r>
       <r>  10.2025  0.0000</r>
       <r>  11.1302  0.0000</r>
       <r>  11.8250  0.0000</r>
       <r>  12.9102  0.0000</r>
       <r>  13.1893  0.0000</r>
      </set>
      <set comment="kpoint 13">
       <r>  -1.6385  1.0000</r>
       <r>  -1.6385  1.0000</r>
       <r>  -0.2356  1.0000</r>
       <r>  -0.2356  1.0000</r>
       <r>  -0.1048  1.0000</r>
       <r>  -0.1048  1.0000</r>
       <r>   0.4832  1.0000</r>
       <r>   0.4832  1.0000</r>
       <r>   0.5323  1.0000</r>
       <r>   0.5323  1.0000</r>
       <r>   1.5194  1.0000</r>
       <r>   1.5194  1.0000</r>
       <r>   2.2132  1.0000</r>
       <r>   2.2132  1.0000</r>
       <r>   2.3442  1.0000</r>
       <r>   2.3442  1.0000</r>
       <r>   2.3759  1.0000</r>
       <r>   2.3759  1.0000</r>
       <r>   3.1092  1.0000</r>
       <r>   3.1092  1.0000</r>
       <r>   3.9267  1.0000</r>
       <r>   3.9267  1.0000</r>
       <r>   9.9265  0.0000</r>
       <r>   9.9265  0.0000</r>
       <r>  12.1800  0.0000</r>
       <r>  12.1800  0.0000</r>
       <r>  12.2919  0.0000</r>
       <r>  12.2919  0.0000</r>
      </set>
      <set comment="kpoint 14">
       <r>  -3.4791  1.0000</r>
       <r>  -1.0469  1.0000</r>
       <r>  -1.0469  1.0000</r>
       <r>  -1.0409  1.0000</r>
       <r>  -0.7779  1.0000</r>
       <r>  -0.7779  1.0000</r>
       <r>  -0.6501  1.0000</r>
       <r>   0.7691  1.0000</r>
       <r>   1.1831  1.0000</r>
       <r>   1.2196  1.0000</r>
       <r>   2.2894  1.0000</r>
       <r>   2.5677  1.0000</r>
       <r>   2.5925  1.0000</r>
       <r>   2.5925  1.0000</r>
       <r>   2.6590  1.0000</r>
       <r>   3.1986  1.0000</r>
       <r>   3.4228  1.0000</r>
       <r>   3.4228  1.0000</r>
       <r>   3.7089  1.0000</r>
       <r>   3.7089  1.0000</r>
       <r>   3.8077  1.0000</r>
       <r>   6.1523  0.0000</r>
       <r>   6.1523  0.0000</r>
       <r>   8.7529  0.0000</r>
       <r>  10.7654  0.0000</r>
       <r>  13.3744  0.0000</r>
       <r>  13.3744  0.0000</r>
       <r>  13.9983  0.0000</r>
      </set>
      <set comment="kpoint 15">
       <r>  -3.1071  1.0000</r>
       <r>  -0.9456  1.0000</r>
       <r>  -0.8754  1.0000</r>
       <r>  -0.7940  1.0000</r>
       <r>  -0.6472  1.0000</r>
       <r>  -0.5660  1.0000</r>
       <r>  -0.3978  1.0000</r>
       <r>   0.6344  1.0000</r>
       <r>   1.3153  1.0000</r>
       <r>   1.3294  1.0000</r>
       <r>   1.9223  1.0000</r>
       <r>   2.1412  1.0000</r>
       <r>   2.1591  1.0000</r>
       <r>   2.1665  1.0000</r>
       <r>   2.6802  1.0000</r>
       <r>   2.9657  1.0000</r>
       <r>   3.1715  1.0000</r>
       <r>   3.3116  1.0000</r>
       <r>   3.3832  1.0000</r>
       <r>   3.7060  1.0000</r>
       <r>   3.7384  1.0000</r>
       <r>   5.0937  1.0000</r>
       <r>   6.9305  0.0000</r>
       <r>   9.6003  0.0000</r>
       <r>  10.3008  0.0000</r>
       <r>  12.9946  0.0000</r>
       <r>  13.4976  0.0000</r>
       <r>  14.8739  0.0000</r>
      </set>
      <set comment="kpoint 16">
       <r>  -2.6136  1.0000</r>
       <r>  -0.9019  1.0000</r>
       <r>  -0.6367  1.0000</r>
       <r>  -0.4898  1.0000</r>
       <r>  -0.4729  1.0000</r>
       <r>  -0.2724  1.0000</r>
       <r>  -0.1105  1.0000</r>
       <r>   0.4377  1.0000</r>
       <r>   1.3030  1.0000</r>
       <r>   1.3850  1.0000</r>
       <r>   1.5604  1.0000</r>
       <r>   1.5994  1.0000</r>
       <r>   1.6653  1.0000</r>
       <r>   2.0691  1.0000</r>
       <r>   2.6874  1.0000</r>
       <r>   2.8593  1.0000</r>
       <r>   2.8639  1.0000</r>
       <r>   2.9994  1.0000</r>
       <r>   3.0853  1.0000</r>
       <r>   3.7026  1.0000</r>
       <r>   3.7093  1.0000</r>
       <r>   4.2741  1.0000</r>
       <r>   7.6632  0.0000</r>
       <r>   9.8105  0.0000</r>
       <r>  10.5647  0.0000</r>
       <r>  12.6929  0.0000</r>
       <r>  13.1116  0.0000</r>
       <r>  14.5470  0.0000</r>
      </set>
      <set comment="kpoint 17">
       <r>  -2.0397  1.0000</r>
       <r>  -1.0511  1.0000</r>
       <r>  -0.3466  1.0000</r>
       <r>  -0.2638  1.0000</r>
       <r>  -0.2128  1.0000</r>
       <r>   0.0994  1.0000</r>
       <r>   0.1474  1.0000</r>
       <r>   0.2081  1.0000</r>
       <r>   0.7667  1.0000</r>
       <r>   1.0493  1.0000</r>
       <r>   1.3269  1.0000</r>
       <r>   1.3359  1.0000</r>
       <r>   1.8588  1.0000</r>
       <r>   2.1522  1.0000</r>
       <r>   2.4544  1.0000</r>
       <r>   2.5681  1.0000</r>
       <r>   2.5979  1.0000</r>
       <r>   2.7588  1.0000</r>
       <r>   3.0862  1.0000</r>
       <r>   3.6990  1.0000</r>
       <r>   3.6992  1.0000</r>
       <r>   3.7268  1.0000</r>
       <r>   8.3070  0.0000</r>
       <r>   9.3360  0.0000</r>
       <r>  11.5837  0.0000</r>
       <r>  12.5576  0.0000</r>
       <r>  12.8093  0.0000</r>
       <r>  13.6149  0.0000</r>
      </set>
      <set comment="kpoint 18">
       <r>  -1.4693  1.0000</r>
       <r>  -1.4693  1.0000</r>
       <r>  -0.1271  1.0000</r>
       <r>  -0.1271  1.0000</r>
       <r>  -0.0318  1.0000</r>
       <r>  -0.0318  1.0000</r>
       <r>   0.3755  1.0000</r>
       <r>   0.3755  1.0000</r>
       <r>   0.5433  1.0000</r>
       <r>   0.5433  1.0000</r>
       <r>   1.2499  1.0000</r>
       <r>   1.2499  1.0000</r>
       <r>   2.2102  1.0000</r>
       <r>   2.2102  1.0000</r>
       <r>   2.3986  1.0000</r>
       <r>   2.3986  1.0000</r>
       <r>   2.4145  1.0000</r>
       <r>   2.4145  1.0000</r>
       <r>   3.3630  1.0000</r>
       <r>   3.3630  1.0000</r>
       <r>   3.6972  1.0000</r>
       <r>   3.6972  1.0000</r>
       <r>   8.8530  0.0000</r>
       <r>   8.8530  0.0000</r>
       <r>  12.6082  0.0000</r>
       <r>  12.6082  0.0000</r>
       <r>  12.6135  0.0000</r>
       <r>  12.6135  0.0000</r>
      </set>
      <set comment="kpoint 19">
       <r>  -2.7578  1.0000</r>
       <r>  -0.7667  1.0000</r>
       <r>  -0.6778  1.0000</r>
       <r>  -0.6778  1.0000</r>
       <r>  -0.4506  1.0000</r>
       <r>  -0.4506  1.0000</r>
       <r>  -0.1469  1.0000</r>
       <r>   0.5774  1.0000</r>
       <r>   1.3308  1.0000</r>
       <r>   1.4198  1.0000</r>
       <r>   1.5176  1.0000</r>
       <r>   1.5176  1.0000</r>
       <r>   1.8474  1.0000</r>
       <r>   2.1014  1.0000</r>
       <r>   2.7858  1.0000</r>
       <r>   2.8293  1.0000</r>
       <r>   3.0958  1.0000</r>
       <r>   3.0958  1.0000</r>
       <r>   3.3785  1.0000</r>
       <r>   3.3785  1.0000</r>
       <r>   3.5671  1.0000</r>
       <r>   5.8325  0.0000</r>
       <r>   5.8325  0.0000</r>
       <r>   9.6487  0.0000</r>
       <r>  10.3723  0.0000</r>
       <r>  13.1286  0.0000</r>
       <r>  14.1650  0.0000</r>
       <r>  14.1650  0.0000</r>
      </set>
      <set comment="kpoint 20">
       <r>  -2.2957  1.0000</r>
       <r>  -0.6225  1.0000</r>
       <r>  -0.5828  1.0000</r>
       <r>  -0.3470  1.0000</r>
       <r>  -0.2978  1.0000</r>
       <r>  -0.1801  1.0000</r>
       <r>   0.1133  1.0000</r>
       <r>   0.4514  1.0000</r>
       <r>   0.9588  1.0000</r>
       <r>   1.1448  1.0000</r>
       <r>   1.3160  1.0000</r>
       <r>   1.4379  1.0000</r>
       <r>   1.6069  1.0000</r>
       <r>   2.0304  1.0000</r>
       <r>   2.5625  1.0000</r>
       <r>   2.8241  1.0000</r>
       <r>   2.8991  1.0000</r>
       <r>   2.9947  1.0000</r>
       <r>   3.0812  1.0000</r>
       <r>   3.3741  1.0000</r>
       <r>   3.4594  1.0000</r>
       <r>   4.9415  1.0000</r>
       <r>   6.5334  0.0000</r>
       <r>   8.9853  0.0000</r>
       <r>  11.2802  0.0000</r>
       <r>  12.9189  0.0000</r>
       <r>  13.5581  0.0000</r>
       <r>  15.2102  0.0000</r>
      </set>
      <set comment="kpoint 21">
       <r>  -1.7572  1.0000</r>
       <r>  -0.7841  1.0000</r>
       <r>  -0.3243  1.0000</r>
       <r>  -0.1168  1.0000</r>
       <r>  -0.0235  1.0000</r>
       <r>   0.1582  1.0000</r>
       <r>   0.2767  1.0000</r>
       <r>   0.2933  1.0000</r>
       <r>   0.4830  1.0000</r>
       <r>   0.9641  1.0000</r>
       <r>   0.9907  1.0000</r>
       <r>   1.2002  1.0000</r>
       <r>   1.8792  1.0000</r>
       <r>   2.0950  1.0000</r>
       <r>   2.3804  1.0000</r>
       <r>   2.5491  1.0000</r>
       <r>   2.5964  1.0000</r>
       <r>   2.6117  1.0000</r>
       <r>   3.3731  1.0000</r>
       <r>   3.4011  1.0000</r>
       <r>   3.4042  1.0000</r>
       <r>   4.2777  1.0000</r>
       <r>   7.1811  0.0000</r>
       <r>   8.3688  0.0000</r>
       <r>  12.2609  0.0000</r>
       <r>  12.8360  0.0000</r>
       <r>  13.1297  0.0000</r>
       <r>  14.2626  0.0000</r>
      </set>
      <set comment="kpoint 22">
       <r>  -1.2108  1.0000</r>
       <r>  -1.2108  1.0000</r>
       <r>  -0.0127  1.0000</r>
       <r>  -0.0127  1.0000</r>
       <r>   0.0802  1.0000</r>
       <r>   0.0802  1.0000</r>
       <r>   0.2957  1.0000</r>
       <r>   0.2957  1.0000</r>
       <r>   0.5542  1.0000</r>
       <r>   0.5542  1.0000</r>
       <r>   1.0312  1.0000</r>
       <r>   1.0312  1.0000</r>
       <r>   2.2161  1.0000</r>
       <r>   2.2161  1.0000</r>
       <r>   2.3134  1.0000</r>
       <r>   2.3134  1.0000</r>
       <r>   2.3668  1.0000</r>
       <r>   2.3668  1.0000</r>
       <r>   3.3803  1.0000</r>
       <r>   3.3803  1.0000</r>
       <r>   3.7877  1.0000</r>
       <r>   3.7877  1.0000</r>
       <r>   7.7821  0.0000</r>
       <r>   7.7821  0.0000</r>
       <r>  12.8955  0.0000</r>
       <r>  12.8955  0.0000</r>
       <r>  13.2683  0.0000</r>
       <r>  13.2683  0.0000</r>
      </set>
      <set comment="kpoint 23">
       <r>  -1.8796  1.0000</r>
       <r>  -0.4707  1.0000</r>
       <r>  -0.2752  1.0000</r>
       <r>  -0.2752  1.0000</r>
       <r>  -0.0606  1.0000</r>
       <r>  -0.0606  1.0000</r>
       <r>   0.3399  1.0000</r>
       <r>   0.4216  1.0000</r>
       <r>   0.6911  1.0000</r>
       <r>   0.6911  1.0000</r>
       <r>   1.1947  1.0000</r>
       <r>   1.2573  1.0000</r>
       <r>   1.7306  1.0000</r>
       <r>   1.9398  1.0000</r>
       <r>   2.3894  1.0000</r>
       <r>   2.6599  1.0000</r>
       <r>   2.6599  1.0000</r>
       <r>   2.9941  1.0000</r>
       <r>   2.9941  1.0000</r>
       <r>   3.2518  1.0000</r>
       <r>   3.4141  1.0000</r>
       <r>   5.5946  1.0000</r>
       <r>   5.5946  1.0000</r>
       <r>   8.1894  0.0000</r>
       <r>  12.1423  0.0000</r>
       <r>  12.8804  0.0000</r>
       <r>  14.3578  0.0000</r>
       <r>  14.3578  0.0000</r>
      </set>
      <set comment="kpoint 24">
       <r>  -1.3992  1.0000</r>
       <r>  -0.4770  1.0000</r>
       <r>  -0.2956  1.0000</r>
       <r>   0.0511  1.0000</r>
       <r>   0.0760  1.0000</r>
       <r>   0.2288  1.0000</r>
       <r>   0.3379  1.0000</r>
       <r>   0.3429  1.0000</r>
       <r>   0.4790  1.0000</r>
       <r>   0.6948  1.0000</r>
       <r>   0.8876  1.0000</r>
       <r>   1.1245  1.0000</r>
       <r>   1.9483  1.0000</r>
       <r>   1.9522  1.0000</r>
       <r>   2.2398  1.0000</r>
       <r>   2.3998  1.0000</r>
       <r>   2.4125  1.0000</r>
       <r>   2.6070  1.0000</r>
       <r>   3.0052  1.0000</r>
       <r>   3.1151  1.0000</r>
       <r>   3.8166  1.0000</r>
       <r>   4.8596  1.0000</r>
       <r>   6.2240  0.0000</r>
       <r>   7.4811  0.0000</r>
       <r>  12.9824  0.0000</r>
       <r>  13.0904  0.0000</r>
       <r>  13.7003  0.0000</r>
       <r>  15.0687  0.0000</r>
      </set>
      <set comment="kpoint 25">
       <r>  -0.9046  1.0000</r>
       <r>  -0.9046  1.0000</r>
       <r>  -0.0615  1.0000</r>
       <r>  -0.0615  1.0000</r>
       <r>   0.2153  1.0000</r>
       <r>   0.2153  1.0000</r>
       <r>   0.4191  1.0000</r>
       <r>   0.4191  1.0000</r>
       <r>   0.5536  1.0000</r>
       <r>   0.5536  1.0000</r>
       <r>   0.9014  1.0000</r>
       <r>   0.9014  1.0000</r>
       <r>   2.1294  1.0000</r>
       <r>   2.1294  1.0000</r>
       <r>   2.2396  1.0000</r>
       <r>   2.2396  1.0000</r>
       <r>   2.2486  1.0000</r>
       <r>   2.2486  1.0000</r>
       <r>   3.0397  1.0000</r>
       <r>   3.0397  1.0000</r>
       <r>   4.2866  1.0000</r>
       <r>   4.2866  1.0000</r>
       <r>   6.8411  0.0000</r>
       <r>   6.8411  0.0000</r>
       <r>  13.2467  0.0000</r>
       <r>  13.2467  0.0000</r>
       <r>  14.0787  0.0000</r>
       <r>  14.0787  0.0000</r>
      </set>
      <set comment="kpoint 26">
       <r>  -1.0038  1.0000</r>
       <r>  -0.2495  1.0000</r>
       <r>  -0.2468  1.0000</r>
       <r>  -0.2468  1.0000</r>
       <r>   0.2983  1.0000</r>
       <r>   0.2983  1.0000</r>
       <r>   0.3661  1.0000</r>
       <r>   0.5863  1.0000</r>
       <r>   0.5863  1.0000</r>
       <r>   0.6278  1.0000</r>
       <r>   0.7306  1.0000</r>
       <r>   1.0433  1.0000</r>
       <r>   1.8610  1.0000</r>
       <r>   2.0825  1.0000</r>
       <r>   2.0951  1.0000</r>
       <r>   2.1805  1.0000</r>
       <r>   2.1805  1.0000</r>
       <r>   2.6447  1.0000</r>
       <r>   2.6447  1.0000</r>
       <r>   2.8837  1.0000</r>
       <r>   4.2900  1.0000</r>
       <r>   5.4494  1.0000</r>
       <r>   5.4494  1.0000</r>
       <r>   6.7184  0.0000</r>
       <r>  13.2668  0.0000</r>
       <r>  14.0144  0.0000</r>
       <r>  14.3492  0.0000</r>
       <r>  14.3492  0.0000</r>
      </set>
      <set comment="kpoint 27">
       <r>  -0.6111  1.0000</r>
       <r>  -0.6111  1.0000</r>
       <r>  -0.2024  1.0000</r>
       <r>  -0.2024  1.0000</r>
       <r>   0.3500  1.0000</r>
       <r>   0.3500  1.0000</r>
       <r>   0.5263  1.0000</r>
       <r>   0.5263  1.0000</r>
       <r>   0.6391  1.0000</r>
       <r>   0.6391  1.0000</r>
       <r>   0.8561  1.0000</r>
       <r>   0.8561  1.0000</r>
       <r>   1.9514  1.0000</r>
       <r>   1.9514  1.0000</r>
       <r>   2.0433  1.0000</r>
       <r>   2.0433  1.0000</r>
       <r>   2.3315  1.0000</r>
       <r>   2.3315  1.0000</r>
       <r>   2.7298  1.0000</r>
       <r>   2.7298  1.0000</r>
       <r>   4.8226  1.0000</r>
       <r>   4.8226  1.0000</r>
       <r>   6.0570  0.0000</r>
       <r>   6.0570  0.0000</r>
       <r>  13.7157  0.0000</r>
       <r>  13.7157  0.0000</r>
       <r>  14.9880  0.0000</r>
       <r>  14.9907  0.0000</r>
      </set>
      <set comment="kpoint 28">
       <r>  -0.3781  1.0000</r>
       <r>  -0.3781  1.0000</r>
       <r>  -0.3781  1.0000</r>
       <r>  -0.3781  1.0000</r>
       <r>   0.4590  1.0000</r>
       <r>   0.4590  1.0000</r>
       <r>   0.4590  1.0000</r>
       <r>   0.4590  1.0000</r>
       <r>   0.8036  1.0000</r>
       <r>   0.8036  1.0000</r>
       <r>   0.8036  1.0000</r>
       <r>   0.8036  1.0000</r>
       <r>   1.9033  1.0000</r>
       <r>   1.9033  1.0000</r>
       <r>   1.9033  1.0000</r>
       <r>   1.9033  1.0000</r>
       <r>   2.4887  1.0000</r>
       <r>   2.4887  1.0000</r>
       <r>   2.4887  1.0000</r>
       <r>   2.4887  1.0000</r>
       <r>   5.4008  1.0000</r>
       <r>   5.4008  1.0000</r>
       <r>   5.4008  1.0000</r>
       <r>   5.4008  1.0000</r>
       <r>  14.3306  0.0000</r>
       <r>  14.3306  0.0000</r>
       <r>  14.3306  0.0000</r>
       <r>  14.3306  0.0000</r>
      </set>
      <set comment="kpoint 29">
       <r>  -3.8674  1.0000</r>
       <r>  -1.2409  1.0000</r>
       <r>  -1.2409  1.0000</r>
       <r>  -1.2409  1.0000</r>
       <r>  -0.9421  1.0000</r>
       <r>  -0.9421  1.0000</r>
       <r>  -0.9421  1.0000</r>
       <r>   0.9099  1.0000</r>
       <r>   1.0659  1.0000</r>
       <r>   1.0659  1.0000</r>
       <r>   2.4619  1.0000</r>
       <r>   2.4619  1.0000</r>
       <r>   3.4158  1.0000</r>
       <r>   3.4158  1.0000</r>
       <r>   3.4158  1.0000</r>
       <r>   3.4681  1.0000</r>
       <r>   3.4681  1.0000</r>
       <r>   3.4681  1.0000</r>
       <r>   3.9206  1.0000</r>
       <r>   3.9206  1.0000</r>
       <r>   3.9206  1.0000</r>
       <r>   6.8189  0.0000</r>
       <r>   6.8189  0.0000</r>
       <r>   6.8189  0.0000</r>
       <r>  12.0473  0.0000</r>
       <r>  12.0473  0.0000</r>
       <r>  12.0473  0.0000</r>
       <r>  15.4338  0.0000</r>
      </set>
      <set comment="kpoint 30">
       <r>  -3.6327  1.0000</r>
       <r>  -1.1635  1.0000</r>
       <r>  -1.1036  1.0000</r>
       <r>  -1.1036  1.0000</r>
       <r>  -0.8564  1.0000</r>
       <r>  -0.7947  1.0000</r>
       <r>  -0.7947  1.0000</r>
       <r>   0.8173  1.0000</r>
       <r>   1.1493  1.0000</r>
       <r>   1.1583  1.0000</r>
       <r>   2.3451  1.0000</r>
       <r>   2.5295  1.0000</r>
       <r>   2.8560  1.0000</r>
       <r>   2.8560  1.0000</r>
       <r>   3.1019  1.0000</r>
       <r>   3.3080  1.0000</r>
       <r>   3.3191  1.0000</r>
       <r>   3.3191  1.0000</r>
       <r>   3.8198  1.0000</r>
       <r>   3.8960  1.0000</r>
       <r>   3.8960  1.0000</r>
       <r>   5.7083  0.0000</r>
       <r>   7.4921  0.0000</r>
       <r>   7.4921  0.0000</r>
       <r>  11.7974  0.0000</r>
       <r>  11.7974  0.0000</r>
       <r>  13.5180  0.0000</r>
       <r>  14.9073  0.0000</r>
      </set>
      <set comment="kpoint 31">
       <r>  -3.2526  1.0000</r>
       <r>  -1.0699  1.0000</r>
       <r>  -0.8879  1.0000</r>
       <r>  -0.8879  1.0000</r>
       <r>  -0.7179  1.0000</r>
       <r>  -0.5584  1.0000</r>
       <r>  -0.5584  1.0000</r>
       <r>   0.6477  1.0000</r>
       <r>   1.3023  1.0000</r>
       <r>   1.3106  1.0000</r>
       <r>   2.1832  1.0000</r>
       <r>   2.2083  1.0000</r>
       <r>   2.2083  1.0000</r>
       <r>   2.6140  1.0000</r>
       <r>   2.6379  1.0000</r>
       <r>   3.0567  1.0000</r>
       <r>   3.0770  1.0000</r>
       <r>   3.0770  1.0000</r>
       <r>   3.6777  1.0000</r>
       <r>   3.8755  1.0000</r>
       <r>   3.8755  1.0000</r>
       <r>   4.6280  1.0000</r>
       <r>   8.2889  0.0000</r>
       <r>   8.2889  0.0000</r>
       <r>  11.4931  0.0000</r>
       <r>  11.4931  0.0000</r>
       <r>  14.4314  0.0000</r>
       <r>  14.4314  0.0000</r>
      </set>
      <set comment="kpoint 32">
       <r>  -2.7483  1.0000</r>
       <r>  -1.0325  1.0000</r>
       <r>  -0.6134  1.0000</r>
       <r>  -0.6134  1.0000</r>
       <r>  -0.5339  1.0000</r>
       <r>  -0.2570  1.0000</r>
       <r>  -0.2570  1.0000</r>
       <r>   0.4286  1.0000</r>
       <r>   1.4543  1.0000</r>
       <r>   1.5195  1.0000</r>
       <r>   1.5759  1.0000</r>
       <r>   1.5759  1.0000</r>
       <r>   2.0418  1.0000</r>
       <r>   2.0677  1.0000</r>
       <r>   2.7456  1.0000</r>
       <r>   2.7739  1.0000</r>
       <r>   2.7739  1.0000</r>
       <r>   2.7807  1.0000</r>
       <r>   3.5093  1.0000</r>
       <r>   3.7509  1.0000</r>
       <r>   3.8636  1.0000</r>
       <r>   3.8636  1.0000</r>
       <r>   9.0434  0.0000</r>
       <r>   9.0434  0.0000</r>
       <r>  11.2619  0.0000</r>
       <r>  11.2619  0.0000</r>
       <r>  13.9754  0.0000</r>
       <r>  13.9754  0.0000</r>
      </set>
      <set comment="kpoint 33">
       <r>  -2.1637  1.0000</r>
       <r>  -1.1778  1.0000</r>
       <r>  -0.3327  1.0000</r>
       <r>  -0.3327  1.0000</r>
       <r>  -0.3147  1.0000</r>
       <r>   0.0751  1.0000</r>
       <r>   0.0751  1.0000</r>
       <r>   0.1823  1.0000</r>
       <r>   1.0061  1.0000</r>
       <r>   1.0061  1.0000</r>
       <r>   1.4591  1.0000</r>
       <r>   1.5877  1.0000</r>
       <r>   1.7796  1.0000</r>
       <r>   2.1970  1.0000</r>
       <r>   2.4106  1.0000</r>
       <r>   2.4972  1.0000</r>
       <r>   2.4972  1.0000</r>
       <r>   2.9495  1.0000</r>
       <r>   3.0805  1.0000</r>
       <r>   3.3248  1.0000</r>
       <r>   3.8579  1.0000</r>
       <r>   3.8579  1.0000</r>
       <r>   9.5784  0.0000</r>
       <r>   9.5784  0.0000</r>
       <r>  11.2076  0.0000</r>
       <r>  11.2076  0.0000</r>
       <r>  13.5557  0.0000</r>
       <r>  13.5557  0.0000</r>
      </set>
      <set comment="kpoint 34">
       <r>  -1.5890  1.0000</r>
       <r>  -1.5890  1.0000</r>
       <r>  -0.1963  1.0000</r>
       <r>  -0.1963  1.0000</r>
       <r>  -0.0713  1.0000</r>
       <r>  -0.0713  1.0000</r>
       <r>   0.3553  1.0000</r>
       <r>   0.3553  1.0000</r>
       <r>   0.6271  1.0000</r>
       <r>   0.6271  1.0000</r>
       <r>   1.4207  1.0000</r>
       <r>   1.4207  1.0000</r>
       <r>   2.0814  1.0000</r>
       <r>   2.0814  1.0000</r>
       <r>   2.3784  1.0000</r>
       <r>   2.3784  1.0000</r>
       <r>   2.5656  1.0000</r>
       <r>   2.5656  1.0000</r>
       <r>   3.1345  1.0000</r>
       <r>   3.1345  1.0000</r>
       <r>   3.8563  1.0000</r>
       <r>   3.8563  1.0000</r>
       <r>   9.7571  0.0000</r>
       <r>   9.7571  0.0000</r>
       <r>  11.2511  0.0000</r>
       <r>  11.2511  0.0000</r>
       <r>  13.3561  0.0000</r>
       <r>  13.3561  0.0000</r>
      </set>
      <set comment="kpoint 35">
       <r>  -3.4074  1.0000</r>
       <r>  -1.0271  1.0000</r>
       <r>  -1.0271  1.0000</r>
       <r>  -1.0163  1.0000</r>
       <r>  -0.7097  1.0000</r>
       <r>  -0.7097  1.0000</r>
       <r>  -0.6194  1.0000</r>
       <r>   0.7766  1.0000</r>
       <r>   1.1937  1.0000</r>
       <r>   1.2162  1.0000</r>
       <r>   2.3302  1.0000</r>
       <r>   2.5241  1.0000</r>
       <r>   2.5241  1.0000</r>
       <r>   2.5344  1.0000</r>
       <r>   2.5503  1.0000</r>
       <r>   3.1093  1.0000</r>
       <r>   3.1829  1.0000</r>
       <r>   3.1829  1.0000</r>
       <r>   3.8072  1.0000</r>
       <r>   3.8072  1.0000</r>
       <r>   3.8254  1.0000</r>
       <r>   6.3503  0.0000</r>
       <r>   6.3503  0.0000</r>
       <r>   8.0425  0.0000</r>
       <r>  11.3867  0.0000</r>
       <r>  13.0673  0.0000</r>
       <r>  13.0673  0.0000</r>
       <r>  14.3778  0.0000</r>
      </set>
      <set comment="kpoint 36">
       <r>  -3.0432  1.0000</r>
       <r>  -0.9349  1.0000</r>
       <r>  -0.8555  1.0000</r>
       <r>  -0.8130  1.0000</r>
       <r>  -0.5725  1.0000</r>
       <r>  -0.4746  1.0000</r>
       <r>  -0.3666  1.0000</r>
       <r>   0.6548  1.0000</r>
       <r>   1.3057  1.0000</r>
       <r>   1.3183  1.0000</r>
       <r>   1.8945  1.0000</r>
       <r>   2.0574  1.0000</r>
       <r>   2.0739  1.0000</r>
       <r>   2.2238  1.0000</r>
       <r>   2.6569  1.0000</r>
       <r>   2.8961  1.0000</r>
       <r>   2.9304  1.0000</r>
       <r>   3.0104  1.0000</r>
       <r>   3.6731  1.0000</r>
       <r>   3.7521  1.0000</r>
       <r>   3.7550  1.0000</r>
       <r>   5.2490  1.0000</r>
       <r>   7.0801  0.0000</r>
       <r>   8.7300  0.0000</r>
       <r>  10.8705  0.0000</r>
       <r>  12.5092  0.0000</r>
       <r>  14.0635  0.0000</r>
       <r>  14.3126  0.0000</r>
      </set>
      <set comment="kpoint 37">
       <r>  -2.5610  1.0000</r>
       <r>  -0.8980  1.0000</r>
       <r>  -0.6212  1.0000</r>
       <r>  -0.5370  1.0000</r>
       <r>  -0.3944  1.0000</r>
       <r>  -0.1813  1.0000</r>
       <r>  -0.0848  1.0000</r>
       <r>   0.4710  1.0000</r>
       <r>   1.3103  1.0000</r>
       <r>   1.3702  1.0000</r>
       <r>   1.5005  1.0000</r>
       <r>   1.5201  1.0000</r>
       <r>   1.6026  1.0000</r>
       <r>   2.1746  1.0000</r>
       <r>   2.6179  1.0000</r>
       <r>   2.6517  1.0000</r>
       <r>   2.7643  1.0000</r>
       <r>   2.8433  1.0000</r>
       <r>   3.4709  1.0000</r>
       <r>   3.7044  1.0000</r>
       <r>   3.7062  1.0000</r>
       <r>   4.3403  1.0000</r>
       <r>   7.7890  0.0000</r>
       <r>   9.3205  0.0000</r>
       <r>  10.4812  0.0000</r>
       <r>  11.9833  0.0000</r>
       <r>  13.9176  0.0000</r>
       <r>  15.0097  0.0000</r>
      </set>
      <set comment="kpoint 38">
       <r>  -2.0020  1.0000</r>
       <r>  -1.0435  1.0000</r>
       <r>  -0.3301  1.0000</r>
       <r>  -0.2346  1.0000</r>
       <r>  -0.1908  1.0000</r>
       <r>   0.0928  1.0000</r>
       <r>   0.1369  1.0000</r>
       <r>   0.2547  1.0000</r>
       <r>   0.8392  1.0000</r>
       <r>   1.0319  1.0000</r>
       <r>   1.2780  1.0000</r>
       <r>   1.3102  1.0000</r>
       <r>   1.7256  1.0000</r>
       <r>   2.2951  1.0000</r>
       <r>   2.3453  1.0000</r>
       <r>   2.4306  1.0000</r>
       <r>   2.5071  1.0000</r>
       <r>   3.0696  1.0000</r>
       <r>   3.1462  1.0000</r>
       <r>   3.6776  1.0000</r>
       <r>   3.6798  1.0000</r>
       <r>   3.7073  1.0000</r>
       <r>   8.4215  0.0000</r>
       <r>   9.3505  0.0000</r>
       <r>  10.6280  0.0000</r>
       <r>  11.5263  0.0000</r>
       <r>  13.9433  0.0000</r>
       <r>  14.5749  0.0000</r>
      </set>
      <set comment="kpoint 39">
       <r>  -1.4483  1.0000</r>
       <r>  -1.4483  1.0000</r>
       <r>  -0.0893  1.0000</r>
       <r>  -0.0893  1.0000</r>
       <r>   0.0287  1.0000</r>
       <r>   0.0287  1.0000</r>
       <r>   0.1873  1.0000</r>
       <r>   0.1873  1.0000</r>
       <r>   0.7157  1.0000</r>
       <r>   0.7157  1.0000</r>
       <r>   1.2149  1.0000</r>
       <r>   1.2149  1.0000</r>
       <r>   1.9923  1.0000</r>
       <r>   1.9923  1.0000</r>
       <r>   2.3622  1.0000</r>
       <r>   2.3622  1.0000</r>
       <r>   2.7131  1.0000</r>
       <r>   2.7131  1.0000</r>
       <r>   3.3365  1.0000</r>
       <r>   3.3365  1.0000</r>
       <r>   3.6706  1.0000</r>
       <r>   3.6706  1.0000</r>
       <r>   8.9527  0.0000</r>
       <r>   8.9527  0.0000</r>
       <r>  11.0854  0.0000</r>
       <r>  11.0854  0.0000</r>
       <r>  14.1738  0.0000</r>
       <r>  14.1738  0.0000</r>
      </set>
      <set comment="kpoint 40">
       <r>  -2.7062  1.0000</r>
       <r>  -0.7567  1.0000</r>
       <r>  -0.7263  1.0000</r>
       <r>  -0.7263  1.0000</r>
       <r>  -0.3367  1.0000</r>
       <r>  -0.3367  1.0000</r>
       <r>  -0.1167  1.0000</r>
       <r>   0.6168  1.0000</r>
       <r>   1.3210  1.0000</r>
       <r>   1.3797  1.0000</r>
       <r>   1.5030  1.0000</r>
       <r>   1.5030  1.0000</r>
       <r>   1.7758  1.0000</r>
       <r>   2.1887  1.0000</r>
       <r>   2.6798  1.0000</r>
       <r>   2.8018  1.0000</r>
       <r>   2.8124  1.0000</r>
       <r>   2.8124  1.0000</r>
       <r>   3.5861  1.0000</r>
       <r>   3.5861  1.0000</r>
       <r>   3.6261  1.0000</r>
       <r>   5.9429  0.0000</r>
       <r>   5.9429  0.0000</r>
       <r>   9.2286  0.0000</r>
       <r>  10.2169  0.0000</r>
       <r>  13.4571  0.0000</r>
       <r>  13.4571  0.0000</r>
       <r>  13.9491  0.0000</r>
      </set>
      <set comment="kpoint 41">
       <r>  -2.2629  1.0000</r>
       <r>  -0.6983  1.0000</r>
       <r>  -0.5852  1.0000</r>
       <r>  -0.4605  1.0000</r>
       <r>  -0.1613  1.0000</r>
       <r>  -0.0436  1.0000</r>
       <r>   0.1309  1.0000</r>
       <r>   0.5123  1.0000</r>
       <r>   0.9953  1.0000</r>
       <r>   1.1405  1.0000</r>
       <r>   1.3068  1.0000</r>
       <r>   1.4070  1.0000</r>
       <r>   1.5097  1.0000</r>
       <r>   2.1737  1.0000</r>
       <r>   2.4700  1.0000</r>
       <r>   2.5230  1.0000</r>
       <r>   2.6382  1.0000</r>
       <r>   3.0538  1.0000</r>
       <r>   3.3572  1.0000</r>
       <r>   3.4965  1.0000</r>
       <r>   3.5175  1.0000</r>
       <r>   4.9907  1.0000</r>
       <r>   6.6261  0.0000</r>
       <r>   9.0803  0.0000</r>
       <r>  10.2932  0.0000</r>
       <r>  12.6885  0.0000</r>
       <r>  14.0276  0.0000</r>
       <r>  14.3952  0.0000</r>
      </set>
      <set comment="kpoint 42">
       <r>  -1.7512  1.0000</r>
       <r>  -0.8511  1.0000</r>
       <r>  -0.3441  1.0000</r>
       <r>  -0.1605  1.0000</r>
       <r>   0.0185  1.0000</r>
       <r>   0.1594  1.0000</r>
       <r>   0.2605  1.0000</r>
       <r>   0.3609  1.0000</r>
       <r>   0.6738  1.0000</r>
       <r>   0.9606  1.0000</r>
       <r>   1.0527  1.0000</r>
       <r>   1.1916  1.0000</r>
       <r>   1.6912  1.0000</r>
       <r>   2.2115  1.0000</r>
       <r>   2.3027  1.0000</r>
       <r>   2.3352  1.0000</r>
       <r>   2.4288  1.0000</r>
       <r>   3.0367  1.0000</r>
       <r>   3.3712  1.0000</r>
       <r>   3.4394  1.0000</r>
       <r>   3.4478  1.0000</r>
       <r>   4.2707  1.0000</r>
       <r>   7.2719  0.0000</r>
       <r>   8.4863  0.0000</r>
       <r>  10.8645  0.0000</r>
       <r>  12.0310  0.0000</r>
       <r>  14.3042  0.0000</r>
       <r>  15.3532  0.0000</r>
      </set>
      <set comment="kpoint 43">
       <r>  -1.2403  1.0000</r>
       <r>  -1.2403  1.0000</r>
       <r>  -0.0591  1.0000</r>
       <r>  -0.0591  1.0000</r>
       <r>   0.1460  1.0000</r>
       <r>   0.1460  1.0000</r>
       <r>   0.1912  1.0000</r>
       <r>   0.1912  1.0000</r>
       <r>   0.7884  1.0000</r>
       <r>   0.7884  1.0000</r>
       <r>   1.0242  1.0000</r>
       <r>   1.0242  1.0000</r>
       <r>   1.9262  1.0000</r>
       <r>   1.9262  1.0000</r>
       <r>   2.2798  1.0000</r>
       <r>   2.2798  1.0000</r>
       <r>   2.6604  1.0000</r>
       <r>   2.6604  1.0000</r>
       <r>   3.4226  1.0000</r>
       <r>   3.4226  1.0000</r>
       <r>   3.7582  1.0000</r>
       <r>   3.7582  1.0000</r>
       <r>   7.8833  0.0000</r>
       <r>   7.8833  0.0000</r>
       <r>  11.4447  0.0000</r>
       <r>  11.4447  0.0000</r>
       <r>  14.7828  0.0000</r>
       <r>  14.7828  0.0000</r>
      </set>
      <set comment="kpoint 44">
       <r>  -1.8771  1.0000</r>
       <r>  -0.4970  1.0000</r>
       <r>  -0.4650  1.0000</r>
       <r>  -0.4650  1.0000</r>
       <r>   0.1451  1.0000</r>
       <r>   0.1451  1.0000</r>
       <r>   0.3293  1.0000</r>
       <r>   0.5172  1.0000</r>
       <r>   0.7424  1.0000</r>
       <r>   0.7424  1.0000</r>
       <r>   1.2372  1.0000</r>
       <r>   1.2547  1.0000</r>
       <r>   1.5560  1.0000</r>
       <r>   2.1544  1.0000</r>
       <r>   2.2746  1.0000</r>
       <r>   2.3980  1.0000</r>
       <r>   2.3980  1.0000</r>
       <r>   3.2399  1.0000</r>
       <r>   3.2399  1.0000</r>
       <r>   3.3440  1.0000</r>
       <r>   3.3834  1.0000</r>
       <r>   5.6374  0.8125</r>
       <r>   5.6374  0.8125</r>
       <r>   8.3067  0.0000</r>
       <r>  10.7859  0.0000</r>
       <r>  13.4644  0.0000</r>
       <r>  13.4644  0.0000</r>
       <r>  14.3047  0.0000</r>
      </set>
      <set comment="kpoint 45">
       <r>  -1.4396  1.0000</r>
       <r>  -0.6463  1.0000</r>
       <r>  -0.3617  1.0000</r>
       <r>  -0.2557  1.0000</r>
       <r>   0.3053  1.0000</r>
       <r>   0.3514  1.0000</r>
       <r>   0.4054  1.0000</r>
       <r>   0.4723  1.0000</r>
       <r>   0.5923  1.0000</r>
       <r>   0.7118  1.0000</r>
       <r>   1.0570  1.0000</r>
       <r>   1.1273  1.0000</r>
       <r>   1.6590  1.0000</r>
       <r>   2.1123  1.0000</r>
       <r>   2.1255  1.0000</r>
       <r>   2.2396  1.0000</r>
       <r>   2.2814  1.0000</r>
       <r>   2.9187  1.0000</r>
       <r>   3.1623  1.0000</r>
       <r>   3.2133  1.0000</r>
       <r>   3.7847  1.0000</r>
       <r>   4.8570  1.0000</r>
       <r>   6.2698  0.0000</r>
       <r>   7.5668  0.0000</r>
       <r>  11.3726  0.0000</r>
       <r>  12.6696  0.0000</r>
       <r>  14.3143  0.0000</r>
       <r>  14.7680  0.0000</r>
      </set>
      <set comment="kpoint 46">
       <r>  -1.0031  1.0000</r>
       <r>  -1.0031  1.0000</r>
       <r>  -0.2242  1.0000</r>
       <r>  -0.2242  1.0000</r>
       <r>   0.3342  1.0000</r>
       <r>   0.3342  1.0000</r>
       <r>   0.3968  1.0000</r>
       <r>   0.3968  1.0000</r>
       <r>   0.8542  1.0000</r>
       <r>   0.8542  1.0000</r>
       <r>   0.9068  1.0000</r>
       <r>   0.9068  1.0000</r>
       <r>   1.8500  1.0000</r>
       <r>   1.8500  1.0000</r>
       <r>   2.1126  1.0000</r>
       <r>   2.1126  1.0000</r>
       <r>   2.5683  1.0000</r>
       <r>   2.5683  1.0000</r>
       <r>   3.1505  1.0000</r>
       <r>   3.1505  1.0000</r>
       <r>   4.2605  1.0000</r>
       <r>   4.2605  1.0000</r>
       <r>   6.9009  0.0000</r>
       <r>   6.9009  0.0000</r>
       <r>  11.9883  0.0000</r>
       <r>  11.9883  0.0000</r>
       <r>  15.2237  0.0000</r>
       <r>  15.2237  0.0000</r>
      </set>
      <set comment="kpoint 47">
       <r>  -1.1032  1.0000</r>
       <r>  -0.4835  1.0000</r>
       <r>  -0.4835  1.0000</r>
       <r>  -0.3736  1.0000</r>
       <r>   0.4962  1.0000</r>
       <r>   0.5416  1.0000</r>
       <r>   0.5416  1.0000</r>
       <r>   0.5480  1.0000</r>
       <r>   0.6579  1.0000</r>
       <r>   0.6579  1.0000</r>
       <r>   1.0382  1.0000</r>
       <r>   1.0651  1.0000</r>
       <r>   1.6507  1.0000</r>
       <r>   1.9567  1.0000</r>
       <r>   1.9902  1.0000</r>
       <r>   1.9902  1.0000</r>
       <r>   2.3352  1.0000</r>
       <r>   2.8509  1.0000</r>
       <r>   2.8509  1.0000</r>
       <r>   3.0080  1.0000</r>
       <r>   4.2599  1.0000</r>
       <r>   5.4537  1.0000</r>
       <r>   5.4537  1.0000</r>
       <r>   6.7655  0.0000</r>
       <r>  11.9684  0.0000</r>
       <r>  13.4130  0.0000</r>
       <r>  13.4130  0.0000</r>
       <r>  15.1697  0.0000</r>
      </set>
      <set comment="kpoint 48">
       <r>  -0.7760  1.0000</r>
       <r>  -0.7760  1.0000</r>
       <r>  -0.3991  1.0000</r>
       <r>  -0.3991  1.0000</r>
       <r>   0.5133  1.0000</r>
       <r>   0.5133  1.0000</r>
       <r>   0.5681  1.0000</r>
       <r>   0.5681  1.0000</r>
       <r>   0.8980  1.0000</r>
       <r>   0.8980  1.0000</r>
       <r>   0.9195  1.0000</r>
       <r>   0.9195  1.0000</r>
       <r>   1.7639  1.0000</r>
       <r>   1.7639  1.0000</r>
       <r>   1.9029  1.0000</r>
       <r>   1.9029  1.0000</r>
       <r>   2.5463  1.0000</r>
       <r>   2.5463  1.0000</r>
       <r>   2.8772  1.0000</r>
       <r>   2.8772  1.0000</r>
       <r>   4.8020  1.0000</r>
       <r>   4.8020  1.0000</r>
       <r>   6.0765  0.0000</r>
       <r>   6.0765  0.0000</r>
       <r>  12.6396  0.0000</r>
       <r>  12.6396  0.0000</r>
       <r>  14.2475  0.0000</r>
       <r>  14.2475  0.0000</r>
      </set>
      <set comment="kpoint 49">
       <r>  -0.5776  1.0000</r>
       <r>  -0.5776  1.0000</r>
       <r>  -0.5776  1.0000</r>
       <r>  -0.5776  1.0000</r>
       <r>   0.6015  1.0000</r>
       <r>   0.6015  1.0000</r>
       <r>   0.6015  1.0000</r>
       <r>   0.6015  1.0000</r>
       <r>   0.9511  1.0000</r>
       <r>   0.9511  1.0000</r>
       <r>   0.9511  1.0000</r>
       <r>   0.9511  1.0000</r>
       <r>   1.7540  1.0000</r>
       <r>   1.7540  1.0000</r>
       <r>   1.7540  1.0000</r>
       <r>   1.7540  1.0000</r>
       <r>   2.6541  1.0000</r>
       <r>   2.6541  1.0000</r>
       <r>   2.6541  1.0000</r>
       <r>   2.6541  1.0000</r>
       <r>   5.3935  1.0000</r>
       <r>   5.3935  1.0000</r>
       <r>   5.3935  1.0000</r>
       <r>   5.3935  1.0000</r>
       <r>  13.3896  0.0000</r>
       <r>  13.3896  0.0000</r>
       <r>  13.3896  0.0000</r>
       <r>  13.3896  0.0000</r>
      </set>
      <set comment="kpoint 50">
       <r>  -3.1958  1.0000</r>
       <r>  -0.9526  1.0000</r>
       <r>  -0.9526  1.0000</r>
       <r>  -0.9526  1.0000</r>
       <r>  -0.5273  1.0000</r>
       <r>  -0.5273  1.0000</r>
       <r>  -0.5273  1.0000</r>
       <r>   0.7711  1.0000</r>
       <r>   1.2301  1.0000</r>
       <r>   1.2301  1.0000</r>
       <r>   2.2504  1.0000</r>
       <r>   2.2504  1.0000</r>
       <r>   2.2504  1.0000</r>
       <r>   2.4463  1.0000</r>
       <r>   2.4463  1.0000</r>
       <r>   2.8923  1.0000</r>
       <r>   2.8923  1.0000</r>
       <r>   2.8923  1.0000</r>
       <r>   3.8354  1.0000</r>
       <r>   3.8354  1.0000</r>
       <r>   3.8354  1.0000</r>
       <r>   6.8465  0.0000</r>
       <r>   6.8465  0.0000</r>
       <r>   6.8465  0.0000</r>
       <r>  12.3528  0.0000</r>
       <r>  12.3528  0.0000</r>
       <r>  12.3528  0.0000</r>
       <r>  15.4514  0.0000</r>
      </set>
      <set comment="kpoint 51">
       <r>  -2.8553  1.0000</r>
       <r>  -0.8819  1.0000</r>
       <r>  -0.8079  1.0000</r>
       <r>  -0.8079  1.0000</r>
       <r>  -0.3773  1.0000</r>
       <r>  -0.2708  1.0000</r>
       <r>  -0.2708  1.0000</r>
       <r>   0.7008  1.0000</r>
       <r>   1.2907  1.0000</r>
       <r>   1.3017  1.0000</r>
       <r>   1.7928  1.0000</r>
       <r>   1.7928  1.0000</r>
       <r>   1.8308  1.0000</r>
       <r>   2.3508  1.0000</r>
       <r>   2.6167  1.0000</r>
       <r>   2.6215  1.0000</r>
       <r>   2.7063  1.0000</r>
       <r>   2.7063  1.0000</r>
       <r>   3.7763  1.0000</r>
       <r>   3.7763  1.0000</r>
       <r>   3.7904  1.0000</r>
       <r>   5.6778  0.0000</r>
       <r>   7.4781  0.0000</r>
       <r>   7.4781  0.0000</r>
       <r>  11.5469  0.0000</r>
       <r>  11.5469  0.0000</r>
       <r>  13.3049  0.0000</r>
       <r>  15.4062  0.0000</r>
      </set>
      <set comment="kpoint 52">
       <r>  -2.4077  1.0000</r>
       <r>  -0.8679  1.0000</r>
       <r>  -0.5926  1.0000</r>
       <r>  -0.5926  1.0000</r>
       <r>  -0.1859  1.0000</r>
       <r>  -0.0013  1.0000</r>
       <r>  -0.0013  1.0000</r>
       <r>   0.5642  1.0000</r>
       <r>   1.3256  1.0000</r>
       <r>   1.3262  1.0000</r>
       <r>   1.3262  1.0000</r>
       <r>   1.4062  1.0000</r>
       <r>   1.4170  1.0000</r>
       <r>   2.3247  1.0000</r>
       <r>   2.3649  1.0000</r>
       <r>   2.5253  1.0000</r>
       <r>   2.5253  1.0000</r>
       <r>   2.8360  1.0000</r>
       <r>   3.6796  1.0000</r>
       <r>   3.6910  1.0000</r>
       <r>   3.6910  1.0000</r>
       <r>   4.6454  1.0000</r>
       <r>   8.1324  0.0000</r>
       <r>   8.1324  0.0000</r>
       <r>  10.8063  0.0000</r>
       <r>  10.8063  0.0000</r>
       <r>  14.2763  0.0000</r>
       <r>  15.4454  0.0000</r>
      </set>
      <set comment="kpoint 53">
       <r>  -1.8937  1.0000</r>
       <r>  -1.0164  1.0000</r>
       <r>  -0.3195  1.0000</r>
       <r>  -0.3195  1.0000</r>
       <r>   0.0158  1.0000</r>
       <r>   0.1380  1.0000</r>
       <r>   0.1380  1.0000</r>
       <r>   0.3919  1.0000</r>
       <r>   1.0035  1.0000</r>
       <r>   1.0035  1.0000</r>
       <r>   1.1383  1.0000</r>
       <r>   1.2408  1.0000</r>
       <r>   1.5806  1.0000</r>
       <r>   2.0434  1.0000</r>
       <r>   2.3400  1.0000</r>
       <r>   2.3400  1.0000</r>
       <r>   2.6184  1.0000</r>
       <r>   3.0694  1.0000</r>
       <r>   3.5111  1.0000</r>
       <r>   3.6260  1.0000</r>
       <r>   3.6260  1.0000</r>
       <r>   3.7845  1.0000</r>
       <r>   8.7330  0.0000</r>
       <r>   8.7330  0.0000</r>
       <r>  10.1830  0.0000</r>
       <r>  10.1830  0.0000</r>
       <r>  15.2723  0.0000</r>
       <r>  15.5233  0.0000</r>
      </set>
      <set comment="kpoint 54">
       <r>  -1.3888  1.0000</r>
       <r>  -1.3888  1.0000</r>
       <r>  -0.0687  1.0000</r>
       <r>  -0.0687  1.0000</r>
       <r>   0.0214  1.0000</r>
       <r>   0.0214  1.0000</r>
       <r>   0.2073  1.0000</r>
       <r>   0.2073  1.0000</r>
       <r>   0.9270  1.0000</r>
       <r>   0.9270  1.0000</r>
       <r>   1.1197  1.0000</r>
       <r>   1.1197  1.0000</r>
       <r>   1.7914  1.0000</r>
       <r>   1.7914  1.0000</r>
       <r>   2.2500  1.0000</r>
       <r>   2.2500  1.0000</r>
       <r>   3.1049  1.0000</r>
       <r>   3.1049  1.0000</r>
       <r>   3.3012  1.0000</r>
       <r>   3.3012  1.0000</r>
       <r>   3.6030  1.0000</r>
       <r>   3.6030  1.0000</r>
       <r>   9.0832  0.0000</r>
       <r>   9.0832  0.0000</r>
       <r>   9.8318  0.0000</r>
       <r>   9.8318  0.0000</r>
       <r>  15.5667  0.0000</r>
       <r>  15.5667  0.0000</r>
      </set>
      <set comment="kpoint 55">
       <r>  -2.5557  1.0000</r>
       <r>  -0.7682  1.0000</r>
       <r>  -0.7682  1.0000</r>
       <r>  -0.7413  1.0000</r>
       <r>  -0.1096  1.0000</r>
       <r>  -0.1096  1.0000</r>
       <r>  -0.0220  1.0000</r>
       <r>   0.7262  1.0000</r>
       <r>   1.2950  1.0000</r>
       <r>   1.3086  1.0000</r>
       <r>   1.4497  1.0000</r>
       <r>   1.4497  1.0000</r>
       <r>   1.5876  1.0000</r>
       <r>   2.3982  1.0000</r>
       <r>   2.4420  1.0000</r>
       <r>   2.4438  1.0000</r>
       <r>   2.4438  1.0000</r>
       <r>   2.7310  1.0000</r>
       <r>   3.7253  1.0000</r>
       <r>   3.7525  1.0000</r>
       <r>   3.7525  1.0000</r>
       <r>   6.2591  0.0000</r>
       <r>   6.2591  0.0000</r>
       <r>   8.0215  0.0000</r>
       <r>  10.5536  0.0000</r>
       <r>  12.2990  0.0000</r>
       <r>  12.2990  0.0000</r>
       <r>  15.5260  0.0000</r>
      </set>
      <set comment="kpoint 56">
       <r>  -2.1675  1.0000</r>
       <r>  -0.7959  1.0000</r>
       <r>  -0.6126  1.0000</r>
       <r>  -0.5985  1.0000</r>
       <r>   0.1034  1.0000</r>
       <r>   0.1533  1.0000</r>
       <r>   0.1950  1.0000</r>
       <r>   0.6899  1.0000</r>
       <r>   1.1034  1.0000</r>
       <r>   1.1293  1.0000</r>
       <r>   1.2781  1.0000</r>
       <r>   1.3372  1.0000</r>
       <r>   1.3696  1.0000</r>
       <r>   2.1595  1.0000</r>
       <r>   2.2540  1.0000</r>
       <r>   2.3089  1.0000</r>
       <r>   2.4471  1.0000</r>
       <r>   2.9837  1.0000</r>
       <r>   3.6276  1.0000</r>
       <r>   3.6478  1.0000</r>
       <r>   3.6495  1.0000</r>
       <r>   5.1733  1.0000</r>
       <r>   6.8898  0.0000</r>
       <r>   8.6187  0.0000</r>
       <r>   9.6690  0.0000</r>
       <r>  11.3978  0.0000</r>
       <r>  13.1552  0.0000</r>
       <r>  15.7393  0.0000</r>
      </set>
      <set comment="kpoint 57">
       <r>  -1.7285  1.0000</r>
       <r>  -0.9653  1.0000</r>
       <r>  -0.4412  1.0000</r>
       <r>  -0.4056  1.0000</r>
       <r>   0.2330  1.0000</r>
       <r>   0.2526  1.0000</r>
       <r>   0.3246  1.0000</r>
       <r>   0.6037  1.0000</r>
       <r>   0.9553  1.0000</r>
       <r>   1.0023  1.0000</r>
       <r>   1.1656  1.0000</r>
       <r>   1.1903  1.0000</r>
       <r>   1.4870  1.0000</r>
       <r>   1.8912  1.0000</r>
       <r>   2.1126  1.0000</r>
       <r>   2.1678  1.0000</r>
       <r>   2.6906  1.0000</r>
       <r>   3.2884  1.0000</r>
       <r>   3.4409  1.0000</r>
       <r>   3.5368  1.0000</r>
       <r>   3.5475  1.0000</r>
       <r>   4.2872  1.0000</r>
       <r>   7.5264  0.0000</r>
       <r>   8.8201  0.0000</r>
       <r>   9.3186  0.0000</r>
       <r>  10.6157  0.0000</r>
       <r>  14.0865  0.0000</r>
       <r>  16.0604  0.0000</r>
      </set>
      <set comment="kpoint 58">
       <r>  -1.2991  1.0000</r>
       <r>  -1.2991  1.0000</r>
       <r>  -0.3148  1.0000</r>
       <r>  -0.3148  1.0000</r>
       <r>   0.1858  1.0000</r>
       <r>   0.1858  1.0000</r>
       <r>   0.4901  1.0000</r>
       <r>   0.4901  1.0000</r>
       <r>   1.0026  1.0000</r>
       <r>   1.0026  1.0000</r>
       <r>   1.1150  1.0000</r>
       <r>   1.1150  1.0000</r>
       <r>   1.6626  1.0000</r>
       <r>   1.6626  1.0000</r>
       <r>   2.0706  1.0000</r>
       <r>   2.0706  1.0000</r>
       <r>   3.0905  1.0000</r>
       <r>   3.0905  1.0000</r>
       <r>   3.5037  1.0000</r>
       <r>   3.5037  1.0000</r>
       <r>   3.6744  1.0000</r>
       <r>   3.6744  1.0000</r>
       <r>   8.1679  0.0000</r>
       <r>   8.1679  0.0000</r>
       <r>   9.9276  0.0000</r>
       <r>   9.9276  0.0000</r>
       <r>  15.0594  0.0000</r>
       <r>  15.0594  0.0000</r>
      </set>
      <set comment="kpoint 59">
       <r>  -1.8629  1.0000</r>
       <r>  -0.6917  1.0000</r>
       <r>  -0.6917  1.0000</r>
       <r>  -0.5954  1.0000</r>
       <r>   0.3437  1.0000</r>
       <r>   0.3784  1.0000</r>
       <r>   0.3784  1.0000</r>
       <r>   0.7914  1.0000</r>
       <r>   0.9283  1.0000</r>
       <r>   0.9283  1.0000</r>
       <r>   1.2470  1.0000</r>
       <r>   1.3444  1.0000</r>
       <r>   1.3572  1.0000</r>
       <r>   2.0307  1.0000</r>
       <r>   2.0476  1.0000</r>
       <r>   2.0476  1.0000</r>
       <r>   2.4699  1.0000</r>
       <r>   3.2969  1.0000</r>
       <r>   3.5180  1.0000</r>
       <r>   3.5292  1.0000</r>
       <r>   3.5292  1.0000</r>
       <r>   5.7748  0.0000</r>
       <r>   5.7748  0.0000</r>
       <r>   8.6407  0.0000</r>
       <r>   9.2143  0.0000</r>
       <r>  12.1512  0.0000</r>
       <r>  12.1512  0.0000</r>
       <r>  15.9710  0.0000</r>
      </set>
      <set comment="kpoint 60">
       <r>  -1.5241  1.0000</r>
       <r>  -0.8953  1.0000</r>
       <r>  -0.5894  1.0000</r>
       <r>  -0.5575  1.0000</r>
       <r>   0.3882  1.0000</r>
       <r>   0.4209  1.0000</r>
       <r>   0.6484  1.0000</r>
       <r>   0.8251  1.0000</r>
       <r>   0.8407  1.0000</r>
       <r>   1.0423  1.0000</r>
       <r>   1.1430  1.0000</r>
       <r>   1.3589  1.0000</r>
       <r>   1.4230  1.0000</r>
       <r>   1.7909  1.0000</r>
       <r>   1.8854  1.0000</r>
       <r>   1.9431  1.0000</r>
       <r>   2.6361  1.0000</r>
       <r>   3.2973  1.0000</r>
       <r>   3.4037  1.0000</r>
       <r>   3.4079  1.0000</r>
       <r>   3.6909  1.0000</r>
       <r>   4.8625  1.0000</r>
       <r>   6.4012  0.0000</r>
       <r>   7.7937  0.0000</r>
       <r>   9.8316  0.0000</r>
       <r>  11.2758  0.0000</r>
       <r>  13.0116  0.0000</r>
       <r>  14.9317  0.0000</r>
      </set>
      <set comment="kpoint 61">
       <r>  -1.1874  1.0000</r>
       <r>  -1.1874  1.0000</r>
       <r>  -0.5402  1.0000</r>
       <r>  -0.5402  1.0000</r>
       <r>   0.3811  1.0000</r>
       <r>   0.3811  1.0000</r>
       <r>   0.8191  1.0000</r>
       <r>   0.8191  1.0000</r>
       <r>   0.9266  1.0000</r>
       <r>   0.9266  1.0000</r>
       <r>   1.2753  1.0000</r>
       <r>   1.2753  1.0000</r>
       <r>   1.5748  1.0000</r>
[...]
       <r>   5.3660  1.0000</r>
       <r>   5.3660  1.0000</r>
       <r>   5.3660  1.0000</r>
       <r>  12.0302  0.0000</r>
       <r>  12.0302  0.0000</r>
       <r>  12.0302  0.0000</r>
       <r>  12.0302  0.0000</r>
      </set>
      <set comment="kpoint 65">
       <r>  -2.3191  1.0000</r>
       <r>  -0.7587  1.0000</r>
       <r>  -0.7587  1.0000</r>
       <r>  -0.7587  1.0000</r>
       <r>   0.1432  1.0000</r>
       <r>   0.1432  1.0000</r>
       <r>   0.1432  1.0000</r>
       <r>   0.8674  1.0000</r>
       <r>   1.2649  1.0000</r>
       <r>   1.2649  1.0000</r>
       <r>   1.3492  1.0000</r>
       <r>   1.3492  1.0000</r>
       <r>   1.3492  1.0000</r>
       <r>   2.1657  1.0000</r>
       <r>   2.1657  1.0000</r>
       <r>   2.1657  1.0000</r>
       <r>   2.6637  1.0000</r>
       <r>   2.6637  1.0000</r>
       <r>   3.7783  1.0000</r>
       <r>   3.7783  1.0000</r>
       <r>   3.7783  1.0000</r>
       <r>   6.7278  0.0000</r>
       <r>   6.7278  0.0000</r>
       <r>   6.7278  0.0000</r>
       <r>  11.1801  0.0000</r>
       <r>  11.1801  0.0000</r>
       <r>  11.1801  0.0000</r>
       <r>  16.9731  0.0000</r>
      </set>
      <set comment="kpoint 66">
       <r>  -2.0172  1.0000</r>
       <r>  -0.8540  1.0000</r>
       <r>  -0.7044  1.0000</r>
       <r>  -0.7044  1.0000</r>
       <r>   0.3254  1.0000</r>
       <r>   0.3254  1.0000</r>
       <r>   0.3732  1.0000</r>
       <r>   0.9572  1.0000</r>
       <r>   1.1382  1.0000</r>
       <r>   1.2359  1.0000</r>
       <r>   1.2731  1.0000</r>
       <r>   1.2765  1.0000</r>
       <r>   1.2765  1.0000</r>
       <r>   1.8968  1.0000</r>
       <r>   1.9970  1.0000</r>
       <r>   1.9970  1.0000</r>
       <r>   2.7116  1.0000</r>
       <r>   2.9468  1.0000</r>
       <r>   3.7046  1.0000</r>
       <r>   3.7046  1.0000</r>
       <r>   3.7527  1.0000</r>
       <r>   5.5302  1.0000</r>
       <r>   7.2818  0.0000</r>
       <r>   7.2818  0.0000</r>
       <r>  10.1903  0.0000</r>
       <r>  10.1903  0.0000</r>
       <r>  11.9730  0.0000</r>
       <r>  15.8819  0.0000</r>
      </set>
      <set comment="kpoint 67">
       <r>  -1.6795  1.0000</r>
       <r>  -1.0535  1.0000</r>
       <r>  -0.6337  1.0000</r>
       <r>  -0.6337  1.0000</r>
       <r>   0.3498  1.0000</r>
       <r>   0.3498  1.0000</r>
       <r>   0.6436  1.0000</r>
       <r>   0.9635  1.0000</r>
       <r>   1.0100  1.0000</r>
       <r>   1.1385  1.0000</r>
       <r>   1.3421  1.0000</r>
       <r>   1.3478  1.0000</r>
       <r>   1.3478  1.0000</r>
       <r>   1.6607  1.0000</r>
       <r>   1.8827  1.0000</r>
       <r>   1.8827  1.0000</r>
       <r>   3.0238  1.0000</r>
       <r>   3.2203  1.0000</r>
       <r>   3.6024  1.0000</r>
       <r>   3.6024  1.0000</r>
       <r>   3.6433  1.0000</r>
       <r>   4.4857  1.0000</r>
       <r>   7.8740  0.0000</r>
       <r>   7.8740  0.0000</r>
       <r>   9.3519  0.0000</r>
       <r>   9.3519  0.0000</r>
       <r>  12.8703  0.0000</r>
       <r>  14.8370  0.0000</r>
      </set>
      <set comment="kpoint 68">
       <r>  -1.3431  1.0000</r>
       <r>  -1.3431  1.0000</r>
       <r>  -0.5985  1.0000</r>
       <r>  -0.5985  1.0000</r>
       <r>   0.3240  1.0000</r>
       <r>   0.3240  1.0000</r>
       <r>   0.9034  1.0000</r>
       <r>   0.9034  1.0000</r>
       <r>   0.9794  1.0000</r>
       <r>   0.9794  1.0000</r>
       <r>   1.4317  1.0000</r>
       <r>   1.4317  1.0000</r>
       <r>   1.4727  1.0000</r>
       <r>   1.4727  1.0000</r>
       <r>   1.8203  1.0000</r>
       <r>   1.8203  1.0000</r>
       <r>   3.4598  1.0000</r>
       <r>   3.4598  1.0000</r>
       <r>   3.5544  1.0000</r>
       <r>   3.5544  1.0000</r>
       <r>   3.6340  1.0000</r>
       <r>   3.6340  1.0000</r>
       <r>   8.3397  0.0000</r>
       <r>   8.3397  0.0000</r>
       <r>   8.8071  0.0000</r>
       <r>   8.8071  0.0000</r>
       <r>  13.8319  0.0000</r>
       <r>  13.8319  0.0000</r>
      </set>
      <set comment="kpoint 69">
       <r>  -1.8226  1.0000</r>
       <r>  -0.8737  1.0000</r>
       <r>  -0.8737  1.0000</r>
       <r>  -0.7762  1.0000</r>
       <r>   0.4353  1.0000</r>
       <r>   0.5166  1.0000</r>
       <r>   0.5166  1.0000</r>
       <r>   1.1391  1.0000</r>
       <r>   1.2142  1.0000</r>
       <r>   1.2612  1.0000</r>
       <r>   1.2612  1.0000</r>
       <r>   1.3016  1.0000</r>
       <r>   1.4880  1.0000</r>
       <r>   1.7475  1.0000</r>
       <r>   1.7475  1.0000</r>
       <r>   1.7652  1.0000</r>
       <r>   2.7963  1.0000</r>
       <r>   3.1779  1.0000</r>
       <r>   3.6634  1.0000</r>
       <r>   3.7014  1.0000</r>
       <r>   3.7014  1.0000</r>
       <r>   6.0202  0.0000</r>
       <r>   6.0202  0.0000</r>
       <r>   7.7181  0.0000</r>
       <r>   9.1855  0.0000</r>
       <r>  10.9216  0.0000</r>
       <r>  10.9216  0.0000</r>
       <r>  14.7570  0.0000</r>
      </set>
      <set comment="kpoint 70">
       <r>  -1.5950  1.0000</r>
       <r>  -1.0987  1.0000</r>
       <r>  -0.8678  1.0000</r>
       <r>  -0.8207  1.0000</r>
       <r>   0.4788  1.0000</r>
       <r>   0.5181  1.0000</r>
       <r>   0.7320  1.0000</r>
       <r>   1.0642  1.0000</r>
       <r>   1.2373  1.0000</r>
       <r>   1.2967  1.0000</r>
       <r>   1.4436  1.0000</r>
       <r>   1.4715  1.0000</r>
       <r>   1.5392  1.0000</r>
       <r>   1.6213  1.0000</r>
       <r>   1.6843  1.0000</r>
       <r>   1.6982  1.0000</r>
       <r>   2.9985  1.0000</r>
       <r>   3.5428  1.0000</r>
       <r>   3.5723  1.0000</r>
       <r>   3.5907  1.0000</r>
       <r>   3.5912  1.0000</r>
       <r>   4.9274  1.0000</r>
       <r>   6.5874  0.0000</r>
       <r>   7.7930  0.0000</r>
       <r>   8.7852  0.0000</r>
       <r>  10.0200  0.0000</r>
       <r>  11.7704  0.0000</r>
       <r>  13.6979  0.0000</r>
      </set>
      <set comment="kpoint 71">
       <r>  -1.3477  1.0000</r>
       <r>  -1.3477  1.0000</r>
       <r>  -0.8489  1.0000</r>
       <r>  -0.8489  1.0000</r>
       <r>   0.4942  1.0000</r>
       <r>   0.4942  1.0000</r>
       <r>   0.9237  1.0000</r>
       <r>   0.9237  1.0000</r>
       <r>   1.3101  1.0000</r>
       <r>   1.3101  1.0000</r>
       <r>   1.4420  1.0000</r>
       <r>   1.4420  1.0000</r>
       <r>   1.5701  1.0000</r>
       <r>   1.5701  1.0000</r>
       <r>   1.7345  1.0000</r>
       <r>   1.7345  1.0000</r>
       <r>   3.3461  1.0000</r>
       <r>   3.3461  1.0000</r>
       <r>   3.5275  1.0000</r>
       <r>   3.5275  1.0000</r>
       <r>   4.0809  1.0000</r>
       <r>   4.0809  1.0000</r>
       <r>   7.2103  0.0000</r>
       <r>   7.2103  0.0000</r>
       <r>   9.2741  0.0000</r>
       <r>   9.2741  0.0000</r>
       <r>  12.7014  0.0000</r>
       <r>  12.7014  0.0000</r>
      </set>
      <set comment="kpoint 72">
       <r>  -1.4698  1.0000</r>
       <r>  -1.0986  1.0000</r>
       <r>  -1.0986  1.0000</r>
       <r>  -0.9607  1.0000</r>
       <r>   0.5899  1.0000</r>
       <r>   0.7076  1.0000</r>
       <r>   0.7076  1.0000</r>
       <r>   1.0069  1.0000</r>
       <r>   1.1999  1.0000</r>
       <r>   1.3879  1.0000</r>
       <r>   1.3879  1.0000</r>
       <r>   1.4600  1.0000</r>
       <r>   1.7534  1.0000</r>
       <r>   1.7534  1.0000</r>
       <r>   1.7898  1.0000</r>
       <r>   1.9170  1.0000</r>
       <r>   3.0018  1.0000</r>
       <r>   3.4629  1.0000</r>
       <r>   3.4629  1.0000</r>
       <r>   3.4736  1.0000</r>
       <r>   4.0130  1.0000</r>
       <r>   5.4899  1.0000</r>
       <r>   5.4899  1.0000</r>
       <r>   6.9460  0.0000</r>
       <r>   9.2637  0.0000</r>
       <r>  10.8033  0.0000</r>
       <r>  10.8033  0.0000</r>
       <r>  12.6464  0.0000</r>
      </set>
      <set comment="kpoint 73">
       <r>  -1.3030  1.0000</r>
       <r>  -1.3030  1.0000</r>
       <r>  -1.0529  1.0000</r>
       <r>  -1.0529  1.0000</r>
       <r>   0.6636  1.0000</r>
       <r>   0.6636  1.0000</r>
       <r>   0.8805  1.0000</r>
       <r>   0.8805  1.0000</r>
       <r>   1.2595  1.0000</r>
       <r>   1.2595  1.0000</r>
       <r>   1.3843  1.0000</r>
       <r>   1.3843  1.0000</r>
       <r>   1.8614  1.0000</r>
       <r>   1.8614  1.0000</r>
       <r>   1.9680  1.0000</r>
       <r>   1.9680  1.0000</r>
       <r>   3.2182  1.0000</r>
       <r>   3.2182  1.0000</r>
       <r>   3.4028  1.0000</r>
       <r>   3.4028  1.0000</r>
       <r>   4.6316  1.0000</r>
       <r>   4.6316  1.0000</r>
       <r>   6.1536  0.0000</r>
       <r>   6.1536  0.0000</r>
       <r>   9.9680  0.0000</r>
       <r>   9.9680  0.0000</r>
       <r>  11.6816  0.0000</r>
       <r>  11.6816  0.0000</r>
      </set>
      <set comment="kpoint 74">
       <r>  -1.2049  1.0000</r>
       <r>  -1.2049  1.0000</r>
       <r>  -1.2049  1.0000</r>
       <r>  -1.2049  1.0000</r>
       <r>   0.8000  1.0000</r>
       <r>   0.8000  1.0000</r>
       <r>   0.8000  1.0000</r>
       <r>   0.8000  1.0000</r>
       <r>   1.2724  1.0000</r>
       <r>   1.2724  1.0000</r>
       <r>   1.2724  1.0000</r>
       <r>   1.2724  1.0000</r>
       <r>   2.0628  1.0000</r>
       <r>   2.0628  1.0000</r>
       <r>   2.0628  1.0000</r>
       <r>   2.0628  1.0000</r>
       <r>   3.2410  1.0000</r>
       <r>   3.2410  1.0000</r>
       <r>   3.2410  1.0000</r>
       <r>   3.2410  1.0000</r>
       <r>   5.3005  1.0000</r>
       <r>   5.3005  1.0000</r>
       <r>   5.3005  1.0000</r>
       <r>   5.3005  1.0000</r>
       <r>  10.7717  0.0000</r>
       <r>  10.7717  0.0000</r>
       <r>  10.7717  0.0000</r>
       <r>  10.7717  0.0000</r>
      </set>
      <set comment="kpoint 75">
       <r>  -1.7434  1.0000</r>
       <r>  -1.0043  1.0000</r>
       <r>  -1.0043  1.0000</r>
       <r>  -1.0043  1.0000</r>
       <r>   0.5899  1.0000</r>
       <r>   0.5899  1.0000</r>
       <r>   0.5899  1.0000</r>
       <r>   1.1378  1.0000</r>
       <r>   1.1378  1.0000</r>
       <r>   1.5243  1.0000</r>
       <r>   1.5243  1.0000</r>
       <r>   1.5243  1.0000</r>
       <r>   1.6559  1.0000</r>
       <r>   1.6559  1.0000</r>
       <r>   1.6559  1.0000</r>
       <r>   1.7499  1.0000</r>
       <r>   3.1072  1.0000</r>
       <r>   3.1072  1.0000</r>
       <r>   3.7321  1.0000</r>
       <r>   3.7321  1.0000</r>
       <r>   3.7321  1.0000</r>
       <r>   6.3577  0.0000</r>
       <r>   6.3577  0.0000</r>
       <r>   6.3577  0.0000</r>
       <r>   9.8687  0.0000</r>
       <r>   9.8687  0.0000</r>
       <r>   9.8687  0.0000</r>
       <r>  13.6137  0.0000</r>
      </set>
      <set comment="kpoint 76">
       <r>  -1.6184  1.0000</r>
       <r>  -1.2375  1.0000</r>
       <r>  -1.0823  1.0000</r>
       <r>  -1.0823  1.0000</r>
       <r>   0.6238  1.0000</r>
       <r>   0.6238  1.0000</r>
       <r>   0.7660  1.0000</r>
       <r>   1.0538  1.0000</r>
       <r>   1.1321  1.0000</r>
       <r>   1.3307  1.0000</r>
       <r>   1.3978  1.0000</r>
       <r>   1.3978  1.0000</r>
       <r>   1.8409  1.0000</r>
       <r>   1.9933  1.0000</r>
       <r>   1.9933  1.0000</r>
       <r>   2.0582  1.0000</r>
       <r>   3.3531  1.0000</r>
       <r>   3.3776  1.0000</r>
       <r>   3.6656  1.0000</r>
       <r>   3.6656  1.0000</r>
       <r>   3.7060  1.0000</r>
       <r>   5.1391  1.0000</r>
       <r>   6.7159  0.0000</r>
       <r>   6.7159  0.0000</r>
       <r>   9.0798  0.0000</r>
       <r>   9.0798  0.0000</r>
       <r>  10.6721  0.0000</r>
       <r>  12.5517  0.0000</r>
      </set>
      <set comment="kpoint 77">
       <r>  -1.4474  1.0000</r>
       <r>  -1.4474  1.0000</r>
       <r>  -1.1082  1.0000</r>
       <r>  -1.1082  1.0000</r>
       <r>   0.6326  1.0000</r>
       <r>   0.6326  1.0000</r>
       <r>   0.9275  1.0000</r>
       <r>   0.9275  1.0000</r>
       <r>   1.1975  1.0000</r>
       <r>   1.1975  1.0000</r>
       <r>   1.3571  1.0000</r>
       <r>   1.3571  1.0000</r>
       <r>   2.0140  1.0000</r>
       <r>   2.0140  1.0000</r>
       <r>   2.1378  1.0000</r>
       <r>   2.1378  1.0000</r>
       <r>   3.5839  1.0000</r>
       <r>   3.5839  1.0000</r>
       <r>   3.6150  1.0000</r>
       <r>   3.6150  1.0000</r>
       <r>   4.1002  1.0000</r>
       <r>   4.1002  1.0000</r>
       <r>   6.9013  0.0000</r>
       <r>   6.9013  0.0000</r>
       <r>   8.7507  0.0000</r>
       <r>   8.7507  0.0000</r>
       <r>  11.5704  0.0000</r>
       <r>  11.5704  0.0000</r>
      </set>
      <set comment="kpoint 78">
       <r>  -1.5798  1.0000</r>
       <r>  -1.3063  1.0000</r>
       <r>  -1.3063  1.0000</r>
       <r>  -1.2284  1.0000</r>
       <r>   0.7145  1.0000</r>
       <r>   0.7810  1.0000</r>
       <r>   0.7810  1.0000</r>
       <r>   1.0248  1.0000</r>
       <r>   1.0654  1.0000</r>
       <r>   1.2204  1.0000</r>
       <r>   1.2204  1.0000</r>
       <r>   1.2497  1.0000</r>
       <r>   2.2935  1.0000</r>
       <r>   2.2935  1.0000</r>
       <r>   2.3593  1.0000</r>
       <r>   2.5710  1.0000</r>
       <r>   3.2942  1.0000</r>
       <r>   3.6339  1.0000</r>
       <r>   3.6521  1.0000</r>
       <r>   3.6521  1.0000</r>
       <r>   3.7924  1.0000</r>
       <r>   5.5248  1.0000</r>
       <r>   5.5248  1.0000</r>
       <r>   6.5299  0.0000</r>
       <r>   8.7535  0.0000</r>
       <r>   9.7571  0.0000</r>
       <r>   9.7571  0.0000</r>
       <r>  11.5100  0.0000</r>
      </set>
      <set comment="kpoint 79">
       <r>  -1.4750  1.0000</r>
       <r>  -1.4750  1.0000</r>
       <r>  -1.3034  1.0000</r>
       <r>  -1.3034  1.0000</r>
       <r>   0.7686  1.0000</r>
       <r>   0.7686  1.0000</r>
       <r>   0.9215  1.0000</r>
       <r>   0.9215  1.0000</r>
       <r>   1.1060  1.0000</r>
       <r>   1.1060  1.0000</r>
       <r>   1.1887  1.0000</r>
       <r>   1.1887  1.0000</r>
       <r>   2.5082  1.0000</r>
       <r>   2.5082  1.0000</r>
       <r>   2.5497  1.0000</r>
       <r>   2.5497  1.0000</r>
       <r>   3.5062  1.0000</r>
       <r>   3.5062  1.0000</r>
       <r>   3.5886  1.0000</r>
       <r>   3.5886  1.0000</r>
       <r>   4.5005  1.0000</r>
       <r>   4.5005  1.0000</r>
       <r>   6.0332  0.0000</r>
       <r>   6.0332  0.0000</r>
       <r>   9.0734  0.0000</r>
       <r>   9.0734  0.0000</r>
       <r>  10.5765  0.0000</r>
       <r>  10.5765  0.0000</r>
      </set>
      <set comment="kpoint 80">
       <r>  -1.4268  1.0000</r>
       <r>  -1.4268  1.0000</r>
       <r>  -1.4268  1.0000</r>
       <r>  -1.4268  1.0000</r>
       <r>   0.8754  1.0000</r>
       <r>   0.8754  1.0000</r>
       <r>   0.8754  1.0000</r>
       <r>   0.8754  1.0000</r>
       <r>   1.0961  1.0000</r>
       <r>   1.0961  1.0000</r>
       <r>   1.0961  1.0000</r>
       <r>   1.0961  1.0000</r>
       <r>   2.7362  1.0000</r>
       <r>   2.7362  1.0000</r>
       <r>   2.7362  1.0000</r>
       <r>   2.7362  1.0000</r>
       <r>   3.4794  1.0000</r>
       <r>   3.4794  1.0000</r>
       <r>   3.4794  1.0000</r>
       <r>   3.4794  1.0000</r>
       <r>   5.1645  1.0000</r>
       <r>   5.1645  1.0000</r>
       <r>   5.1645  1.0000</r>
       <r>   5.1645  1.0000</r>
       <r>   9.7339  0.0000</r>
       <r>   9.7339  0.0000</r>
       <r>   9.7339  0.0000</r>
       <r>   9.7339  0.0000</r>
      </set>
      <set comment="kpoint 81">
       <r>  -1.6122  1.0000</r>
       <r>  -1.4331  1.0000</r>
       <r>  -1.4331  1.0000</r>
       <r>  -1.4331  1.0000</r>
       <r>   0.8389  1.0000</r>
       <r>   0.8389  1.0000</r>
       <r>   0.8389  1.0000</r>
       <r>   1.0024  1.0000</r>
       <r>   1.0024  1.0000</r>
       <r>   1.0975  1.0000</r>
       <r>   1.0975  1.0000</r>
       <r>   1.0975  1.0000</r>
       <r>   2.7796  1.0000</r>
       <r>   2.7796  1.0000</r>
       <r>   2.7796  1.0000</r>
       <r>   3.4670  1.0000</r>
       <r>   3.5222  1.0000</r>
       <r>   3.5222  1.0000</r>
       <r>   3.7008  1.0000</r>
       <r>   3.7008  1.0000</r>
       <r>   3.7008  1.0000</r>
       <r>   5.5664  1.0000</r>
       <r>   5.5664  1.0000</r>
       <r>   5.5664  1.0000</r>
       <r>   9.0344  0.0000</r>
       <r>   9.0344  0.0000</r>
       <r>   9.0344  0.0000</r>
       <r>  10.5124  0.0000</r>
      </set>
      <set comment="kpoint 82">
       <r>  -1.5630  1.0000</r>
       <r>  -1.5630  1.0000</r>
       <r>  -1.4757  1.0000</r>
       <r>  -1.4757  1.0000</r>
       <r>   0.8632  1.0000</r>
       <r>   0.8632  1.0000</r>
       <r>   0.9393  1.0000</r>
       <r>   0.9393  1.0000</r>
       <r>   1.0134  1.0000</r>
       <r>   1.0134  1.0000</r>
       <r>   1.0520  1.0000</r>
       <r>   1.0520  1.0000</r>
       <r>   3.0074  1.0000</r>
       <r>   3.0074  1.0000</r>
       <r>   3.1660  1.0000</r>
       <r>   3.1660  1.0000</r>
       <r>   3.6626  1.0000</r>
       <r>   3.6626  1.0000</r>
       <r>   3.6699  1.0000</r>
       <r>   3.6699  1.0000</r>
       <r>   4.4955  1.0000</r>
       <r>   4.4955  1.0000</r>
       <r>   5.5878  1.0000</r>
       <r>   5.5878  1.0000</r>
       <r>   8.7696  0.0000</r>
       <r>   8.7696  0.0000</r>
       <r>   9.6737  0.0000</r>
       <r>   9.6737  0.0000</r>
      </set>
      <set comment="kpoint 83">
       <r>  -1.5632  1.0000</r>
       <r>  -1.5632  1.0000</r>
       <r>  -1.5632  1.0000</r>
       <r>  -1.5632  1.0000</r>
       <r>   0.9293  1.0000</r>
       <r>   0.9293  1.0000</r>
       <r>   0.9293  1.0000</r>
       <r>   0.9293  1.0000</r>
       <r>   0.9862  1.0000</r>
       <r>   0.9862  1.0000</r>
       <r>   0.9862  1.0000</r>
       <r>   0.9862  1.0000</r>
       <r>   3.3643  1.0000</r>
       <r>   3.3643  1.0000</r>
       <r>   3.3643  1.0000</r>
       <r>   3.3643  1.0000</r>
       <r>   3.6354  1.0000</r>
       <r>   3.6354  1.0000</r>
       <r>   3.6354  1.0000</r>
       <r>   3.6354  1.0000</r>
       <r>   4.9343  1.0000</r>
       <r>   4.9343  1.0000</r>
       <r>   4.9343  1.0000</r>
       <r>   4.9343  1.0000</r>
       <r>   9.0336  0.0000</r>
       <r>   9.0336  0.0000</r>
       <r>   9.0336  0.0000</r>
       <r>   9.0336  0.0000</r>
      </set>
      <set comment="kpoint 84">
       <r>  -1.6092  1.0000</r>
       <r>  -1.6092  1.0000</r>
       <r>  -1.6092  1.0000</r>
       <r>  -1.6092  1.0000</r>
       <r>   0.9489  1.0000</r>
       <r>   0.9489  1.0000</r>
       <r>   0.9489  1.0000</r>
       <r>   0.9489  1.0000</r>
       <r>   0.9489  1.0000</r>
       <r>   0.9489  1.0000</r>
       <r>   0.9489  1.0000</r>
       <r>   0.9489  1.0000</r>
       <r>   3.6897  1.0000</r>
       <r>   3.6897  1.0000</r>
       <r>   3.6897  1.0000</r>
       <r>   3.6897  1.0000</r>
       <r>   3.6897  1.0000</r>
       <r>   3.6897  1.0000</r>
       <r>   3.6897  1.0000</r>
       <r>   3.6897  1.0000</r>
       <r>   4.7572  1.0000</r>
       <r>   4.7572  1.0000</r>
       <r>   4.7572  1.0000</r>
       <r>   4.7572  1.0000</r>
       <r>   8.7842  0.0000</r>
       <r>   8.7842  0.0000</r>
       <r>   8.7842  0.0000</r>
       <r>   8.7842  0.0000</r>
      </set>
     </set>
    </set>
   </array>
  </eigenvalues>
 </calculation>
 <structure name="finalpos" >
  <crystal>
   <varray name="basis" >
    <v>       4.08939486      0.00000000      0.00000000</v>
    <v>       0.00000000      4.08939486      0.00000000</v>
    <v>       0.00000000      0.00000000      4.08939486</v>
   </varray>
   <i name="volume">     68.38756518</i>
   <varray name="rec_basis" >
    <v>       0.24453496      0.00000000      0.00000000</v>
    <v>       0.00000000      0.24453496      0.00000000</v>
    <v>       0.00000000      0.00000000      0.24453496</v>
   </varray>
  </crystal>
  <varray name="positions" >
   <v>       0.00000000      0.00000000      0.00000000</v>
   <v>       0.50000000      0.50000000      0.00000000</v>
   <v>       0.50000000      0.00000000      0.50000000</v>
   <v>       0.00000000      0.50000000      0.50000000</v>
  </varray>
 </structure>
</modeling>
