   4   4   0   0
  0.1131840E+02  0.3564088E-09  0.3564088E-09  0.3564088E-09  0.5000000E-15
  1.000000000000000E-004
  CAR 
 unknown system                          
     27.66583651     -7.09152481  301      4.17954859      1.00000000
     -7.092  0.0000E+00  0.0000E+00
     -6.976  0.0000E+00  0.0000E+00
     -6.860  0.0000E+00  0.0000E+00
     -6.744  0.0000E+00  0.0000E+00
     -6.628  0.0000E+00  0.0000E+00
     -6.512  0.0000E+00  0.0000E+00
     -6.396  0.0000E+00  0.0000E+00
     -6.281  0.0000E+00  0.0000E+00
     -6.165  0.0000E+00  0.0000E+00
     -6.049  0.0000E+00  0.0000E+00
     -5.933  0.0000E+00  0.0000E+00
     -5.817  0.0000E+00  0.0000E+00
     -5.701  0.0000E+00  0.0000E+00
     -5.585  0.0000E+00  0.0000E+00
     -5.470  0.1317E-01  0.1526E-02
     -5.354  0.6345E-01  0.1134E-01
     -5.238  0.9075E-01  0.2719E-01
     -5.122  0.1167E+00  0.4572E-01
     -5.006  0.1349E+00  0.6866E-01
     -4.890  0.1394E+00  0.9293E-01
     -4.774  0.1874E+00  0.1234E+00
     -4.659  0.1994E+00  0.1547E+00
     -4.543  0.2121E+00  0.1871E+00
     -4.427  0.1993E+00  0.2213E+00
     -4.311  0.2193E+00  0.2590E+00
     -4.195  0.2377E+00  0.3000E+00
     -4.079  0.3213E+00  0.3439E+00
     -3.963  0.2725E+00  0.3869E+00
     -3.848  0.2863E+00  0.4325E+00
     -3.732  0.2828E+00  0.4784E+00
     -3.616  0.3040E+00  0.5349E+00
     -3.500  0.2728E+00  0.5853E+00
     -3.384  0.3709E+00  0.6450E+00
     -3.268  0.3417E+00  0.7026E+00
     -3.152  0.3635E+00  0.7636E+00
     -3.036  0.3879E+00  0.8284E+00
     -2.921  0.3481E+00  0.8907E+00
     -2.805  0.4391E+00  0.9651E+00
     -2.689  0.3962E+00  0.1035E+01
     -2.573  0.4694E+00  0.1115E+01
     -2.457  0.4606E+00  0.1197E+01
     -2.341  0.5200E+00  0.1280E+01
     -2.225  0.5475E+00  0.1374E+01
     -2.110  0.6277E+00  0.1469E+01
     -1.994  0.6201E+00  0.1569E+01
     -1.878  0.7341E+00  0.1682E+01
     -1.762  0.7038E+00  0.1796E+01
     -1.646  0.8285E+00  0.1932E+01
     -1.530  0.8927E+00  0.2075E+01
     -1.414  0.1018E+01  0.2234E+01
     -1.299  0.1279E+01  0.2429E+01
     -1.183  0.1556E+01  0.2673E+01
     -1.067  0.1942E+01  0.2999E+01
     -0.951  0.2645E+01  0.3416E+01
     -0.835  0.3088E+01  0.3934E+01
     -0.719  0.3091E+01  0.4471E+01
     -0.603  0.3266E+01  0.5044E+01
     -0.488  0.3525E+01  0.5629E+01
     -0.372  0.4896E+01  0.6415E+01
     -0.256  0.5683E+01  0.7331E+01
     -0.140  0.6561E+01  0.8413E+01
     -0.024  0.5995E+01  0.9420E+01
      0.092  0.5290E+01  0.1033E+02
      0.208  0.5591E+01  0.1127E+02
      0.323  0.5340E+01  0.1217E+02
      0.439  0.5727E+01  0.1309E+02
      0.555  0.7188E+01  0.1427E+02
      0.671  0.8084E+01  0.1556E+02
      0.787  0.8152E+01  0.1693E+02
      0.903  0.9254E+01  0.1841E+02
      1.019  0.1009E+02  0.2013E+02
      1.134  0.1097E+02  0.2194E+02
      1.250  0.9817E+01  0.2386E+02
      1.366  0.7565E+01  0.2517E+02
      1.482  0.6548E+01  0.2630E+02
      1.598  0.6843E+01  0.2743E+02
      1.714  0.8873E+01  0.2890E+02
      1.830  0.1018E+02  0.3057E+02
      1.945  0.9170E+01  0.3211E+02
      2.061  0.8038E+01  0.3351E+02
      2.177  0.8229E+01  0.3487E+02
      2.293  0.9290E+01  0.3639E+02
      2.409  0.1280E+02  0.3841E+02
      2.525  0.1375E+02  0.4095E+02
      2.641  0.4667E+01  0.4189E+02
      2.756  0.1268E+01  0.4208E+02
      2.872  0.1148E+01  0.4227E+02
      2.988  0.1157E+01  0.4245E+02
      3.104  0.1076E+01  0.4262E+02
      3.220  0.9772E+00  0.4279E+02
      3.336  0.1004E+01  0.4295E+02
      3.452  0.8273E+00  0.4309E+02
      3.567  0.9138E+00  0.4325E+02
      3.683  0.8633E+00  0.4340E+02
      3.799  0.8888E+00  0.4354E+02
      3.915  0.9977E+00  0.4369E+02
      4.031  0.7640E+00  0.4381E+02
      4.147  0.9025E+00  0.4396E+02
      4.263  0.7166E+00  0.4409E+02
      4.378  0.7736E+00  0.4422E+02
      4.494  0.6846E+00  0.4435E+02
      4.610  0.8605E+00  0.4449E+02
      4.726  0.7080E+00  0.4461E+02
      4.842  0.7615E+00  0.4474E+02
      4.958  0.7245E+00  0.4487E+02
      5.074  0.7172E+00  0.4497E+02
      5.189  0.7842E+00  0.4511E+02
      5.305  0.7104E+00  0.4523E+02
      5.421  0.7762E+00  0.4534E+02
      5.537  0.6551E+00  0.4547E+02
      5.653  0.6707E+00  0.4557E+02
      5.769  0.7849E+00  0.4570E+02
      5.885  0.7249E+00  0.4581E+02
      6.000  0.5601E+00  0.4592E+02
      6.116  0.8145E+00  0.4604E+02
      6.232  0.6770E+00  0.4615E+02
      6.348  0.6451E+00  0.4625E+02
      6.464  0.7199E+00  0.4635E+02
      6.580  0.4553E+00  0.4645E+02
      6.696  0.4937E+00  0.4654E+02
      6.811  0.6859E+00  0.4665E+02
      6.927  0.6091E+00  0.4674E+02
      7.043  0.5864E+00  0.4683E+02
      7.159  0.5539E+00  0.4692E+02
      7.275  0.4243E+00  0.4700E+02
      7.391  0.5746E+00  0.4708E+02
      7.507  0.4432E+00  0.4715E+02
      7.622  0.5039E+00  0.4724E+02
      7.738  0.3151E+00  0.4730E+02
      7.854  0.4811E+00  0.4737E+02
      7.970  0.4615E+00  0.4744E+02
      8.086  0.3729E+00  0.4750E+02
      8.202  0.3789E+00  0.4757E+02
      8.318  0.8359E+00  0.4769E+02
      8.433  0.7682E+00  0.4782E+02
      8.549  0.7160E+00  0.4793E+02
      8.665  0.7933E+00  0.4807E+02
      8.781  0.8481E+00  0.4820E+02
      8.897  0.6797E+00  0.4832E+02
      9.013  0.8015E+00  0.4847E+02
      9.129  0.8322E+00  0.4859E+02
      9.244  0.7255E+00  0.4872E+02
      9.360  0.7980E+00  0.4886E+02
      9.476  0.8103E+00  0.4900E+02
      9.592  0.7836E+00  0.4912E+02
      9.708  0.7983E+00  0.4926E+02
      9.824  0.7158E+00  0.4938E+02
      9.940  0.6802E+00  0.4950E+02
     10.055  0.7365E+00  0.4962E+02
     10.171  0.7915E+00  0.4974E+02
     10.287  0.6709E+00  0.4985E+02
     10.403  0.6632E+00  0.4997E+02
     10.519  0.7036E+00  0.5007E+02
     10.635  0.5876E+00  0.5018E+02
     10.751  0.6732E+00  0.5030E+02
     10.866  0.6705E+00  0.5041E+02
     10.982  0.6118E+00  0.5051E+02
     11.098  0.6053E+00  0.5061E+02
     11.214  0.7461E+00  0.5072E+02
     11.330  0.6927E+00  0.5082E+02
     11.446  0.6777E+00  0.5093E+02
     11.562  0.5793E+00  0.5102E+02
     11.677  0.7166E+00  0.5114E+02
     11.793  0.8235E+00  0.5128E+02
     11.909  0.7735E+00  0.5141E+02
     12.025  0.9374E+00  0.5157E+02
     12.141  0.7714E+00  0.5169E+02
     12.257  0.6970E+00  0.5181E+02
     12.373  0.9101E+00  0.5196E+02
     12.488  0.9199E+00  0.5211E+02
     12.604  0.1017E+01  0.5228E+02
     12.720  0.8809E+00  0.5242E+02
     12.836  0.1026E+01  0.5259E+02
     12.952  0.9867E+00  0.5274E+02
     13.068  0.9315E+00  0.5291E+02
     13.184  0.1059E+01  0.5307E+02
     13.299  0.7905E+00  0.5320E+02
     13.415  0.9215E+00  0.5337E+02
     13.531  0.9982E+00  0.5353E+02
     13.647  0.1096E+01  0.5371E+02
     13.763  0.9337E+00  0.5386E+02
     13.879  0.9742E+00  0.5401E+02
     13.995  0.9283E+00  0.5416E+02
     14.110  0.1062E+01  0.5434E+02
     14.226  0.9492E+00  0.5451E+02
     14.342  0.9179E+00  0.5467E+02
     14.458  0.9267E+00  0.5482E+02
     14.574  0.9251E+00  0.5499E+02
     14.690  0.1117E+01  0.5517E+02
     14.806  0.1041E+01  0.5534E+02
     14.921  0.9323E+00  0.5550E+02
     15.037  0.9557E+00  0.5566E+02
     15.153  0.1043E+01  0.5583E+02
     15.269  0.9976E+00  0.5600E+02
     15.385  0.1038E+01  0.5618E+02
     15.501  0.1111E+01  0.5635E+02
     15.617  0.8957E+00  0.5651E+02
     15.732  0.1152E+01  0.5669E+02
     15.848  0.9530E+00  0.5685E+02
     15.964  0.1015E+01  0.5703E+02
     16.080  0.1032E+01  0.5721E+02
     16.196  0.1090E+01  0.5739E+02
     16.312  0.1061E+01  0.5756E+02
     16.428  0.1186E+01  0.5774E+02
     16.543  0.9211E+00  0.5790E+02
     16.659  0.1078E+01  0.5809E+02
     16.775  0.1077E+01  0.5826E+02
     16.891  0.1092E+01  0.5845E+02
     17.007  0.1014E+01  0.5863E+02
     17.123  0.1130E+01  0.5882E+02
     17.239  0.1187E+01  0.5901E+02
     17.354  0.1021E+01  0.5919E+02
     17.470  0.1098E+01  0.5938E+02
     17.586  0.1272E+01  0.5958E+02
     17.702  0.1084E+01  0.5977E+02
     17.818  0.1171E+01  0.5998E+02
     17.934  0.1129E+01  0.6017E+02
     18.050  0.1085E+01  0.6035E+02
     18.165  0.1091E+01  0.6053E+02
     18.281  0.1148E+01  0.6071E+02
     18.397  0.9550E+00  0.6087E+02
     18.513  0.1232E+01  0.6106E+02
     18.629  0.1022E+01  0.6122E+02
     18.745  0.8351E+00  0.6137E+02
     18.861  0.8574E+00  0.6152E+02
     18.976  0.9529E+00  0.6167E+02
     19.092  0.7863E+00  0.6181E+02
     19.208  0.7471E+00  0.6193E+02
     19.324  0.6545E+00  0.6206E+02
     19.440  0.4516E+00  0.6216E+02
     19.556  0.6949E+00  0.6226E+02
     19.672  0.5481E+00  0.6236E+02
     19.788  0.5036E+00  0.6244E+02
     19.903  0.5950E+00  0.6253E+02
     20.019  0.5650E+00  0.6262E+02
     20.135  0.3796E+00  0.6268E+02
     20.251  0.4994E+00  0.6276E+02
     20.367  0.3881E+00  0.6283E+02
     20.483  0.3863E+00  0.6289E+02
     20.599  0.3363E+00  0.6295E+02
     20.714  0.3698E+00  0.6301E+02
     20.830  0.1551E+00  0.6306E+02
     20.946  0.4227E+00  0.6313E+02
     21.062  0.2973E+00  0.6318E+02
     21.178  0.2268E+00  0.6322E+02
     21.294  0.3144E+00  0.6327E+02
     21.410  0.2785E+00  0.6331E+02
     21.525  0.1746E+00  0.6335E+02
     21.641  0.2490E+00  0.6339E+02
     21.757  0.2082E+00  0.6342E+02
     21.873  0.2323E+00  0.6346E+02
     21.989  0.3117E+00  0.6350E+02
     22.105  0.1838E+00  0.6352E+02
     22.221  0.1274E+00  0.6355E+02
     22.336  0.1864E+00  0.6358E+02
     22.452  0.2119E+00  0.6361E+02
     22.568  0.2043E+00  0.6364E+02
     22.684  0.9128E-01  0.6365E+02
     22.800  0.1119E+00  0.6368E+02
     22.916  0.2792E-01  0.6370E+02
     23.032  0.1669E+00  0.6373E+02
     23.147  0.1154E+00  0.6375E+02
     23.263  0.1282E+00  0.6377E+02
     23.379  0.1469E+00  0.6378E+02
     23.495  0.1004E+00  0.6380E+02
     23.611  0.2664E-01  0.6382E+02
     23.727  0.1228E+00  0.6383E+02
     23.843  0.1249E+00  0.6385E+02
     23.958  0.9864E-01  0.6386E+02
     24.074  0.5351E-01  0.6387E+02
     24.190  0.7992E-01  0.6389E+02
     24.306  0.6762E-01  0.6390E+02
     24.422  0.7018E-01  0.6391E+02
     24.538  0.5022E-01  0.6392E+02
     24.654  0.5497E-01  0.6393E+02
     24.769  0.3386E-01  0.6393E+02
     24.885  0.9211E-01  0.6395E+02
     25.001  0.1777E-01  0.6395E+02
     25.117  0.1776E-01  0.6396E+02
     25.233  0.7459E-01  0.6397E+02
     25.349  0.4730E-01  0.6397E+02
     25.465  0.1965E-01  0.6398E+02
     25.580  0.3137E-01  0.6398E+02
     25.696  0.5081E-01  0.6399E+02
     25.812  0.1071E-01  0.6399E+02
     25.928  0.3901E-03  0.6400E+02
     26.044  0.2220E-01  0.6400E+02
     26.160  0.2960E-02  0.6400E+02
     26.276  0.0000E+00  0.6400E+02
     26.391  0.0000E+00  0.6400E+02
     26.507  0.0000E+00  0.6400E+02
     26.623  0.0000E+00  0.6400E+02
     26.739  0.0000E+00  0.6400E+02
     26.855  0.0000E+00  0.6400E+02
     26.971  0.0000E+00  0.6400E+02
     27.087  0.0000E+00  0.6400E+02
     27.202  0.0000E+00  0.6400E+02
     27.318  0.0000E+00  0.6400E+02
     27.434  0.0000E+00  0.6400E+02
     27.550  0.0000E+00  0.6400E+02
     27.666  0.0000E+00  0.6400E+02
