    4    4    1    1
  0.1131840E+02  0.3564088E-09  0.3564088E-09  0.3564088E-09  0.5000000E-15
  1.000000000000000E-004
  CAR 
 unknown system                          
   44 1330   32
 
  0.0000000E+00  0.0000000E+00  0.0000000E+00  0.2143347E-04
   1       -5.5116
   2       -0.9879
   3       -0.9879
   4       -0.9879
   5       -0.5075
   6       -0.5075
   7       -0.5075
   8        0.9790
   9        0.9790
  10        0.9790
  11        1.8635
  12        1.8635
  13        2.4503
  14        2.4503
  15        2.4503
  16        2.6151
  17        2.6151
  18        2.6151
  19        2.6151
  20        2.6151
  21        2.6151
  22        5.6478
  23        5.6478
  24        5.6478
  25       11.5885
  26       11.5885
  27       11.5885
  28       17.6840
  29       17.6840
  30       17.6840
  31       17.6840
  32       17.6840
 
  0.2777778E-01  0.0000000E+00  0.0000000E+00  0.1286008E-03
   1       -5.5020
   2       -0.9878
   3       -0.9833
   4       -0.9833
   5       -0.5049
   6       -0.5047
   7       -0.5047
   8        0.9760
   9        0.9813
  10        0.9813
  11        1.8607
  12        1.8646
  13        2.4468
  14        2.4468
  15        2.4492
  16        2.5959
  17        2.5959
  18        2.6109
  19        2.6109
  20        2.6151
  21        2.6151
  22        5.5838
  23        5.6756
  24        5.6756
  25       11.5918
  26       11.5918
  27       11.6713
  28       17.6103
  29       17.6103
  30       17.6406
  31       17.6406
  32       17.6984
 
  0.5555556E-01  0.0000000E+00  0.0000000E+00  0.1286008E-03
   1       -5.4729
   2       -0.9874
   3       -0.9694
   4       -0.9694
   5       -0.4969
   6       -0.4963
   7       -0.4963
   8        0.9670
   9        0.9885
  10        0.9885
  11        1.8526
  12        1.8678
  13        2.4363
  14        2.4363
  15        2.4458
  16        2.5404
  17        2.5404
  18        2.5985
  19        2.5985
  20        2.6151
  21        2.6151
  22        5.4021
  23        5.7567
  24        5.7567
  25       11.6019
  26       11.6019
  27       11.9095
  28       17.4037
  29       17.4037
  30       17.5149
  31       17.5149
  32       17.7414
 
  0.8333333E-01  0.0000000E+00  0.0000000E+00  0.1286008E-03
   1       -5.4245
   2       -0.9875
   3       -0.9464
   4       -0.9464
   5       -0.4836
   6       -0.4822
   7       -0.4822
   8        0.9522
   9        1.0003
  10        1.0003
  11        1.8391
  12        1.8732
  13        2.4188
  14        2.4188
  15        2.4401
  16        2.4539
  17        2.4539
  18        2.5780
  19        2.5780
  20        2.6152
  21        2.6152
  22        5.1282
  23        5.8860
  24        5.8860
  25       11.6187
  26       11.6187
  27       12.2783
  28       17.0969
  29       17.0969
  30       17.3192
  31       17.3192
  32       17.8129
 
  0.1111111E+00  0.0000000E+00  0.0000000E+00  0.1286008E-03
   1       -5.3570
   2       -0.9890
   3       -0.9147
   4       -0.9147
   5       -0.4652
   6       -0.4624
   7       -0.4624
   8        0.9316
   9        1.0169
  10        1.0169
  11        1.8205
  12        1.8808
  13        2.3433
  14        2.3433
  15        2.3947
  16        2.3947
  17        2.4322
  18        2.5498
  19        2.5498
  20        2.6152
  21        2.6152
  22        4.7910
  23        6.0564
  24        6.0564
  25       11.6425
  26       11.6425
  27       12.7492
  28       16.7233
  29       16.7233
  30       17.0693
  31       17.0693
  32       17.9124
 
  0.1388889E+00  0.0000000E+00  0.0000000E+00  0.1286008E-03
   1       -5.2704
   2       -0.9934
   3       -0.8749
   4       -0.8749
   5       -0.4416
   6       -0.4369
   7       -0.4369
   8        0.9054
   9        1.0381
  10        1.0381
  11        1.7970
  12        1.8904
  13        2.2153
  14        2.2153
  15        2.3641
  16        2.3641
  17        2.4222
  18        2.5142
  19        2.5142
  20        2.6152
  21        2.6152
  22        4.4160
  23        6.2612
  24        6.2612
  25       11.6736
  26       11.6736
  27       13.2980
  28       16.3080
  29       16.3080
  30       16.7812
  31       16.7812
  32       18.0395
 
  0.1666667E+00  0.0000000E+00  0.0000000E+00  0.1286008E-03
   1       -5.1651
   2       -1.0028
   3       -0.8276
   4       -0.8276
   5       -0.4132
   6       -0.4057
   7       -0.4057
   8        0.8739
   9        1.0639
  10        1.0639
  11        1.7689
  12        1.9020
  13        2.0758
  14        2.0758
  15        2.3274
  16        2.3274
  17        2.4102
  18        2.4719
  19        2.4719
  20        2.6153
  21        2.6153
  22        4.0234
  23        6.4945
  24        6.4945
  25       11.7122
  26       11.7122
  27       13.9063
  28       15.8681
  29       15.8681
  30       16.4690
  31       16.4690
  32       18.1936
 
  0.1944444E+00  0.0000000E+00  0.0000000E+00  0.1286008E-03
   1       -5.0413
   2       -1.0201
   3       -0.7735
   4       -0.7735
   5       -0.3800
   6       -0.3687
   7       -0.3687
   8        0.8373
   9        1.0942
  10        1.0942
  11        1.7367
  12        1.9155
  13        1.9294
  14        1.9294
  15        2.2851
  16        2.2851
  17        2.3962
  18        2.4234
  19        2.4234
  20        2.6154
  21        2.6154
  22        3.6284
  23        6.7516
  24        6.7516
  25       11.7587
  26       11.7587
  27       14.5609
  28       15.4144
  29       15.4144
  30       16.1440
  31       16.1440
  32       18.3740
 
  0.2222222E+00  0.0000000E+00  0.0000000E+00  0.1286008E-03
   1       -4.8994
   2       -1.0487
   3       -0.7139
   4       -0.7139
   5       -0.3423
   6       -0.3258
   7       -0.3258
   8        0.7960
   9        1.1289
  10        1.1289
  11        1.7008
  12        1.7796
  13        1.7796
  14        1.9308
  15        2.2380
  16        2.2380
  17        2.3694
  18        2.3694
  19        2.3803
  20        2.6154
  21        2.6154
  22        3.2434
  23        7.0290
  24        7.0290
  25       11.8135
  26       11.8135
  27       14.9542
  28       14.9542
  29       15.2524
  30       15.8149
  31       15.8149
  32       18.5798
 
  0.2500000E+00  0.0000000E+00  0.0000000E+00  0.1286008E-03
   1       -4.7399
   2       -1.0931
   3       -0.6499
   4       -0.6499
   5       -0.3004
   6       -0.2769
   7       -0.2769
   8        0.7503
   9        1.1680
  10        1.1680
  11        1.6290
  12        1.6290
  13        1.6619
  14        1.9478
  15        2.1869
  16        2.1869
  17        2.3106
  18        2.3106
  19        2.3627
  20        2.6155
  21        2.6155
  22        2.8787
  23        7.3239
  24        7.3239
  25       11.8769
  26       11.8769
  27       14.4919
  28       14.4919
  29       15.4884
  30       15.4884
  31       15.9739
  32       18.8103
 
  0.2777778E+00  0.0000000E+00  0.0000000E+00  0.1286008E-03
   1       -4.5633
   2       -1.1583
   3       -0.5831
   4       -0.5831
   5       -0.2544
   6       -0.2221
   7       -0.2221
   8        0.7006
   9        1.2113
  10        1.2113
  11        1.4796
  12        1.4796
  13        1.6208
  14        1.9664
  15        2.1328
  16        2.1328
  17        2.2477
  18        2.2477
  19        2.3435
  20        2.5435
  21        2.6156
  22        2.6156
  23        7.6343
  24        7.6343
  25       11.9496
  26       11.9496
  27       14.0308
  28       14.0308
  29       15.1698
  30       15.1698
  31       16.7201
  32       19.0645
 
  0.3055556E+00  0.0000000E+00  0.0000000E+00  0.1286008E-03
   1       -4.3704
   2       -1.2496
   3       -0.5152
   4       -0.5152
   5       -0.2048
   6       -0.1613
   7       -0.1613
   8        0.6474
   9        1.2586
  10        1.2586
  11        1.3327
  12        1.3327
  13        1.5783
  14        1.9864
  15        2.0773
  16        2.0773
  17        2.1815
  18        2.1815
  19        2.2459
  20        2.3229
  21        2.6157
  22        2.6157
  23        7.9587
  24        7.9587
  25       12.0316
  26       12.0316
  27       13.5729
  28       13.5729
  29       14.8629
  30       14.8629
  31       17.4869
  32       19.3416
 
  0.3333333E+00  0.0000000E+00  0.0000000E+00  0.1286008E-03
   1       -4.1621
   2       -1.3713
   3       -0.4483
   4       -0.4483
   5       -0.1518
   6       -0.0943
   7       -0.0943
   8        0.5910
   9        1.1894
  10        1.1894
  11        1.3098
  12        1.3098
  13        1.5357
  14        1.9921
  15        2.0077
  16        2.0219
  17        2.0219
  18        2.1128
  19        2.1128
  20        2.3011
  21        2.6157
  22        2.6157
  23        8.2959
  24        8.2959
  25       12.1233
  26       12.1233
  27       13.1198
  28       13.1198
  29       14.5709
  30       14.5709
  31       18.2706
  32       19.6407
 
  0.3611111E+00  0.0000000E+00  0.0000000E+00  0.1286008E-03
   1       -3.9395
   2       -1.5259
   3       -0.3848
   4       -0.3848
   5       -0.0959
   6       -0.0212
   7       -0.0212
   8        0.5319
   9        1.0506
  10        1.0506
  11        1.3646
  12        1.3646
  13        1.4942
  14        1.7860
  15        1.9688
  16        1.9688
  17        2.0302
  18        2.0422
  19        2.0422
  20        2.2782
  21        2.6158
  22        2.6158
  23        8.6450
  24        8.6450
  25       12.2245
  26       12.2245
  27       12.6726
  28       12.6726
  29       14.2964
  30       14.2964
  31       19.0675
  32       19.9608
 
  0.3888889E+00  0.0000000E+00  0.0000000E+00  0.1286008E-03
   1       -3.7040
   2       -1.7126
   3       -0.3272
   4       -0.3272
   5       -0.0373
   6        0.0581
   7        0.0581
   8        0.4707
   9        0.9167
  10        0.9167
  11        1.4228
  12        1.4228
  13        1.4555
  14        1.6277
  15        1.9201
  16        1.9201
  17        1.9704
  18        1.9704
  19        2.0536
  20        2.2543
  21        2.6158
  22        2.6158
  23        9.0052
  24        9.0052
  25       12.2320
  26       12.2320
  27       12.3341
  28       12.3341
  29       14.0426
  30       14.0426
  31       19.8738
  32       20.3011
 
  0.4166667E+00  0.0000000E+00  0.0000000E+00  0.1286008E-03
   1       -3.4574
   2       -1.9275
   3       -0.2784
   4       -0.2784
   5        0.0234
   6        0.1437
   7        0.1437
   8        0.4079
   9        0.7883
  10        0.7883
  11        1.4216
  12        1.4842
  13        1.4842
  14        1.5139
  15        1.8785
  16        1.8785
  17        1.8980
  18        1.8980
  19        2.0779
  20        2.2297
  21        2.6159
  22        2.6159
  23        9.3760
  24        9.3760
  25       11.7987
  26       11.7987
  27       12.4493
  28       12.4493
  29       13.8138
  30       13.8138
  31       20.6606
  32       20.6709
 
  0.4444444E+00  0.0000000E+00  0.0000000E+00  0.1286008E-03
   1       -3.2019
   2       -2.1645
   3       -0.2411
   4       -0.2411
   5        0.0859
   6        0.2356
   7        0.2356
   8        0.3438
   9        0.6656
  10        0.6656
  11        1.3951
  12        1.4388
  13        1.5484
  14        1.5484
  15        1.8258
  16        1.8258
  17        1.8465
  18        1.8465
  19        2.1027
  20        2.2046
  21        2.6159
  22        2.6159
  23        9.7569
  24        9.7569
  25       11.3732
  26       11.3732
  27       12.5631
  28       12.5631
  29       13.6181
  30       13.6181
  31       21.0384
  32       21.0384
 
  0.4722222E+00  0.0000000E+00  0.0000000E+00  0.1286008E-03
   1       -2.9407
   2       -2.4167
   3       -0.2175
   4       -0.2175
   5        0.1496
   6        0.2791
   7        0.3338
   8        0.3338
   9        0.5488
  10        0.5488
  11        1.3792
  12        1.3956
  13        1.6150
  14        1.6150
  15        1.7542
  16        1.7542
  17        1.8262
  18        1.8262
  19        2.1280
  20        2.1792
  21        2.6159
  22        2.6159
  23       10.1474
  24       10.1474
  25       10.9559
  26       10.9559
  27       12.6576
  28       12.6576
  29       13.4741
  30       13.4741
  31       21.4339
  32       21.4339
 
  0.5000000E+00  0.0000000E+00  0.0000000E+00  0.6430041E-04
   1       -2.6774
   2       -2.6774
   3       -0.2095
   4       -0.2095
   5        0.2142
   6        0.2142
   7        0.4382
   8        0.4382
   9        0.4382
  10        0.4382
  11        1.3777
  12        1.3777
  13        1.6838
  14        1.6838
  15        1.6838
  16        1.6838
  17        1.8193
  18        1.8193
  19        2.1536
  20        2.1536
  21        2.6159
  22        2.6159
  23       10.5472
  24       10.5472
  25       10.5472
  26       10.5472
  27       12.6976
  28       12.6976
  29       13.4175
  30       13.4175
  31       21.8461
  32       21.8461
 
  0.2777778E-01  0.2777778E-01  0.0000000E+00  0.2572016E-03
   1       -5.4923
   2       -0.9831
   3       -0.9831
   4       -0.9786
   5       -0.5021
   6       -0.5021
   7       -0.5019
   8        0.9742
   9        0.9825
  10        0.9837
  11        1.8599
  12        1.8638
  13        2.4433
  14        2.4455
  15        2.4455
  16        2.5797
  17        2.5918
  18        2.5918
  19        2.6109
  20        2.6109
  21        2.6125
  22        5.6115
  23        5.6115
  24        5.7030
  25       11.5952
  26       11.6748
  27       11.6748
  28       17.4311
  29       17.6245
  30       17.6245
  31       17.6549
  32       17.6549
 
  0.5555556E-01  0.2777778E-01  0.0000000E+00  0.5144033E-03
   1       -5.4632
   2       -0.9827
   3       -0.9691
   4       -0.9648
   5       -0.4941
   6       -0.4936
   7       -0.4935
   8        0.9659
   9        0.9890
  10        0.9907
  11        1.8526
  12        1.8663
  13        2.4328
  14        2.4343
  15        2.4416
  16        2.5265
  17        2.5366
  18        2.5794
  19        2.5985
  20        2.6110
  21        2.6110
  22        5.4298
  23        5.6924
  24        5.7833
  25       11.6052
  26       11.6854
  27       11.9135
  28       17.1494
  29       17.4175
  30       17.5289
  31       17.6671
  32       17.6848
 
  0.8333333E-01  0.2777778E-01  0.0000000E+00  0.5144033E-03
   1       -5.4149
   2       -0.9827
   3       -0.9461
   4       -0.9418
   5       -0.4808
   6       -0.4796
   7       -0.4795
   8        0.9513
   9        1.0006
  10        1.0025
  11        1.8393
  12        1.8717
  13        2.4125
  14        2.4155
  15        2.4350
  16        2.4417
  17        2.4541
  18        2.5592
  19        2.5780
  20        2.6106
  21        2.6110
  22        5.1560
  23        5.8212
  24        5.9113
  25       11.6220
  26       11.7032
  27       12.2828
  28       16.8023
  29       17.1103
  30       17.3328
  31       17.5556
  32       17.7378
 
  0.1111111E+00  0.2777778E-01  0.0000000E+00  0.5144033E-03
   1       -5.3473
   2       -0.9841
   3       -0.9144
   4       -0.9103
   5       -0.4624
   6       -0.4598
   7       -0.4598
   8        0.9308
   9        1.0171
  10        1.0188
  11        1.8208
  12        1.8793
  13        2.3325
  14        2.3326
  15        2.3914
  16        2.3989
  17        2.4254
  18        2.5315
  19        2.5498
  20        2.6105
  21        2.6110
  22        4.8193
  23        5.9908
  24        6.0804
  25       11.6458
  26       11.7283
  27       12.7543
  28       16.4115
  29       16.7363
  30       17.0825
  31       17.3454
  32       17.8363
 
  0.1388889E+00  0.2777778E-01  0.0000000E+00  0.5144033E-03
   1       -5.2608
   2       -0.9885
   3       -0.8744
   4       -0.8705
   5       -0.4390
   6       -0.4344
   7       -0.4344
   8        0.9047
   9        1.0383
  10        1.0398
  11        1.7974
  12        1.8890
  13        2.2061
  14        2.2065
  15        2.3610
  16        2.3661
  17        2.4122
  18        2.4976
  19        2.5142
  20        2.6105
  21        2.6110
  22        4.4455
  23        6.1941
  24        6.2837
  25       11.6768
  26       11.7611
  27       13.3037
  28       15.9931
  29       16.3207
  30       16.7940
  31       17.0773
  32       17.9620
 
  0.1666667E+00  0.2777778E-01  0.0000000E+00  0.5144033E-03
   1       -5.1556
   2       -0.9977
   3       -0.8270
   4       -0.8233
   5       -0.4106
   6       -0.4033
   7       -0.4032
   8        0.8733
   9        1.0641
  10        1.0652
  11        1.7695
  12        1.9008
  13        2.0674
  14        2.0680
  15        2.3244
  16        2.3289
  17        2.3931
  18        2.4597
  19        2.4718
  20        2.6105
  21        2.6111
  22        4.0549
  23        6.4255
  24        6.5157
  25       11.7153
  26       11.8018
  27       13.9124
  28       15.5585
  29       15.8805
  30       16.4813
  31       16.7717
  32       18.1143
 
  0.1944444E+00  0.2777778E-01  0.0000000E+00  0.5144033E-03
   1       -5.0318
   2       -1.0148
   3       -0.7728
   4       -0.7694
   5       -0.3775
   6       -0.3664
   7       -0.3663
   8        0.8369
   9        1.0944
  10        1.0951
  11        1.7375
  12        1.9145
  13        1.9212
  14        1.9229
  15        2.2824
  16        2.2864
  17        2.3627
  18        2.4233
  19        2.4238
  20        2.6106
  21        2.6111
  22        3.6635
  23        6.6800
  24        6.7716
  25       11.7616
  26       11.8509
  27       14.5672
  28       15.1156
  29       15.4267
  30       16.1558
  31       16.4443
  32       18.2923
 
  0.2222222E+00  0.2777778E-01  0.0000000E+00  0.5144033E-03
   1       -4.8900
   2       -1.0432
   3       -0.7130
   4       -0.7099
   5       -0.3399
   6       -0.3237
   7       -0.3235
   8        0.7957
   9        1.1291
  10        1.1294
  11        1.7019
  12        1.7715
  13        1.7742
  14        1.9300
  15        2.2355
  16        2.2392
  17        2.3151
  18        2.3693
  19        2.3954
  20        2.6107
  21        2.6112
  22        3.2844
  23        6.9542
  24        7.0479
  25       11.8160
  26       11.9087
  27       14.6695
  28       14.9663
  29       15.2589
  30       15.8263
  31       16.1071
  32       18.4955
 
  0.2500000E+00  0.2777778E-01  0.0000000E+00  0.5144033E-03
   1       -4.7306
   2       -1.0874
   3       -0.6488
   4       -0.6461
   5       -0.2980
   6       -0.2752
   7       -0.2748
   8        0.7501
   9        1.1677
  10        1.1682
  11        1.6211
  12        1.6245
  13        1.6635
  14        1.9472
  15        2.1846
  16        2.1880
  17        2.2515
  18        2.3105
  19        2.3715
  20        2.6107
  21        2.6112
  22        2.9306
  23        7.2454
  24        7.3418
  25       11.8787
  26       11.9758
  27       14.2239
  28       14.5040
  29       15.4995
  30       15.7686
  31       15.9803
  32       18.7228
 
  0.2777778E+00  0.2777778E-01  0.0000000E+00  0.5144033E-03
   1       -4.5541
   2       -1.1524
   3       -0.5818
   4       -0.5794
   5       -0.2522
   6       -0.2207
   7       -0.2201
   8        0.7005
   9        1.2100
  10        1.2114
  11        1.4720
  12        1.4759
  13        1.6231
  14        1.9661
  15        2.1307
  16        2.1340
  17        2.1707
  18        2.2476
  19        2.3475
  20        2.6108
  21        2.6113
  22        2.6180
  23        7.5513
  24        7.6514
  25       11.9499
  26       12.0525
  27       13.7814
  28       14.0428
  29       15.1806
  30       15.4354
  31       16.7264
  32       18.9898
 
  0.3055556E+00  0.2777778E-01  0.0000000E+00  0.5144033E-03
   1       -4.3613
   2       -1.2434
   3       -0.5136
   4       -0.5116
   5       -0.2027
   6       -0.1603
   7       -0.1594
   8        0.6474
   9        1.2557
  10        1.2587
  11        1.3254
  12        1.3298
  13        1.5819
  14        1.9864
  15        2.0592
  16        2.0754
  17        2.0784
  18        2.1815
  19        2.3112
  20        2.3813
  21        2.6109
  22        2.6113
  23        7.8706
  24        7.9751
  25       12.0288
  26       12.1393
  27       13.3447
  28       13.5850
  29       14.8734
  30       15.1125
  31       17.4927
  32       19.2459
 
  0.3333333E+00  0.2777778E-01  0.0000000E+00  0.5144033E-03
   1       -4.1531
   2       -1.3649
   3       -0.4465
   4       -0.4447
   5       -0.1498
   6       -0.0938
   7       -0.0926
   8        0.5912
   9        1.1825
  10        1.1872
  11        1.3041
  12        1.3098
  13        1.5417
  14        1.9037
  15        2.0081
  16        2.0203
  17        2.0230
  18        2.1127
  19        2.1906
  20        2.3129
  21        2.6110
  22        2.6114
  23        8.2019
  24        8.3116
  25       12.1118
  26       12.2363
  27       12.9187
  28       13.1320
  29       14.5812
  30       14.8035
  31       18.2749
  32       19.5408
 
  0.3611111E+00  0.2777778E-01  0.0000000E+00  0.5144033E-03
   1       -3.9306
   2       -1.5193
   3       -0.3826
   4       -0.3811
   5       -0.0940
   6       -0.0213
   7       -0.0196
   8        0.5323
   9        1.0440
  10        1.0489
  11        1.3526
  12        1.3646
  13        1.5062
  14        1.7370
  15        1.9674
  16        1.9698
  17        2.0309
  18        2.0421
  19        2.0847
  20        2.2858
  21        2.6111
  22        2.6114
  23        8.5443
  24        8.6601
  25       12.1714
  26       12.3433
  27       12.5318
  28       12.6848
  29       14.3070
  30       14.5115
  31       19.0678
  32       19.8536
 
  0.3888889E+00  0.2777778E-01  0.0000000E+00  0.5144033E-03
   1       -3.6953
   2       -1.7057
   3       -0.3247
   4       -0.3234
   5       -0.0356
   6        0.0573
   7        0.0595
   8        0.4713
   9        0.9106
  10        0.9156
  11        1.3906
  12        1.4228
  13        1.4874
  14        1.5956
  15        1.9190
  16        1.9210
  17        1.9703
  18        1.9976
  19        2.0547
  20        2.2603
  21        2.6112
  22        2.6114
  23        8.8969
  24        9.0199
  25       11.9823
  26       12.2444
  27       12.4092
  28       12.4589
  29       14.0539
  30       14.2394
  31       19.8578
  32       20.1865
 
  0.4166667E+00  0.2777778E-01  0.0000000E+00  0.5144033E-03
   1       -3.4489
   2       -1.9204
   3       -0.2756
   4       -0.2746
   5        0.0250
   6        0.1421
   7        0.1449
   8        0.4085
   9        0.7827
  10        0.7876
  11        1.3934
  12        1.4842
  13        1.4903
  14        1.5117
  15        1.8777
  16        1.8793
  17        1.8980
  18        1.9178
  19        2.0794
  20        2.2346
  21        2.6113
  22        2.6114
  23        9.2592
  24        9.3902
  25       11.5955
  26       11.8113
  27       12.4986
  28       12.5797
  29       13.8274
  30       13.9907
  31       20.5203
  32       20.5372
 
  0.4444444E+00  0.2777778E-01  0.0000000E+00  0.5144033E-03
   1       -3.1937
   2       -2.1571
   3       -0.2379
   4       -0.2372
   5        0.0873
   6        0.2332
   7        0.2366
   8        0.3446
   9        0.6605
  10        0.6653
  11        1.3768
  12        1.4200
  13        1.5484
  14        1.5656
  15        1.8257
  16        1.8415
  17        1.8460
  18        1.8471
  19        2.1046
  20        2.2087
  21        2.6113
  22        2.6114
  23        9.6304
  24        9.7707
  25       11.1926
  26       11.3859
  27       12.6139
  28       12.6958
  29       13.6383
  30       13.7716
  31       20.9046
  32       20.9399
 
  0.4722222E+00  0.2777778E-01  0.0000000E+00  0.5144033E-03
   1       -2.9326
   2       -2.4091
   3       -0.2141
   4       -0.2137
   5        0.1509
   6        0.2801
   7        0.3306
   8        0.3345
   9        0.5444
  10        0.5489
  11        1.3636
  12        1.3794
  13        1.6150
  14        1.6290
  15        1.7542
  16        1.7680
  17        1.8260
  18        1.8266
  19        2.1304
  20        2.1826
  21        2.6114
  22        2.6114
  23       10.0101
  24       10.1609
  25       10.7922
  26       10.9689
  27       12.7240
  28       12.7820
  29       13.5128
  30       13.5958
  31       21.2874
  32       21.3395
 
  0.5000000E+00  0.2777778E-01  0.0000000E+00  0.2572016E-03
   1       -2.6695
   2       -2.6695
   3       -0.2059
   4       -0.2059
   5        0.2154
   6        0.2154
   7        0.4344
   8        0.4344
   9        0.4386
  10        0.4386
  11        1.3626
  12        1.3626
  13        1.6838
  14        1.6838
  15        1.6969
  16        1.6969
  17        1.8193
  18        1.8193
  19        2.1564
  20        2.1564
  21        2.6114
  22        2.6114
  23       10.3976
  24       10.3976
  25       10.5604
  26       10.5604
  27       12.7944
  28       12.7944
  29       13.4954
  30       13.4954
  31       21.6850
  32       21.6928
 
  0.5555556E-01  0.5555556E-01  0.0000000E+00  0.2572016E-03
   1       -5.4342
   2       -0.9687
   3       -0.9687
   4       -0.9510
   5       -0.4857
   6       -0.4857
   7       -0.4852
   8        0.9601
   9        0.9930
  10        0.9975
  11        1.8494
  12        1.8649
  13        2.4225
  14        2.4280
  15        2.4280
  16        2.4807
  17        2.5256
  18        2.5256
  19        2.5985
  20        2.5985
  21        2.6046
  22        5.5104
  23        5.5104
  24        5.8612
  25       11.6152
  26       11.9255
  27       11.9255
  28       16.7875
  29       17.4590
  30       17.4590
  31       17.5709
  32       17.5709
 
  0.8333333E-01  0.5555556E-01  0.0000000E+00  0.5144033E-03
   1       -5.3859
   2       -0.9685
   3       -0.9455
   4       -0.9282
   5       -0.4726
   6       -0.4717
   7       -0.4713
   8        0.9472
   9        1.0031
  10        1.0089
  11        1.8384
  12        1.8684
  13        2.3949
  14        2.4028
  15        2.4054
  16        2.4168
  17        2.4531
  18        2.5082
  19        2.5780
  20        2.5985
  21        2.6007
  22        5.2366
  23        5.6381
  24        5.9858
  25       11.6320
  26       11.9456
  27       12.2966
  28       16.3838
  29       17.1505
  30       17.3737
  31       17.5278
  32       17.6407
 
  0.1111111E+00  0.5555556E-01  0.0000000E+00  0.5144033E-03
   1       -5.3185
   2       -0.9696
   3       -0.9135
   4       -0.8969
   5       -0.4543
   6       -0.4521
   7       -0.4518
   8        0.9276
   9        1.0188
  10        1.0246
  11        1.8209
  12        1.8756
  13        2.2995
  14        2.3062
  15        2.3817
  16        2.3987
  17        2.4055
  18        2.4862
  19        2.5497
  20        2.5985
  21        2.5988
  22        4.9011
  23        5.8055
  24        6.1509
  25       11.6557
  26       11.9741
  27       12.7698
  28       15.9553
  29       16.7752
  30       17.1221
  31       17.6236
  32       17.6890
 
  0.1388889E+00  0.5555556E-01  0.0000000E+00  0.5144033E-03
   1       -5.2321
   2       -0.9736
   3       -0.8732
   4       -0.8575
   5       -0.4310
   6       -0.4268
   7       -0.4268
   8        0.9022
   9        1.0395
  10        1.0448
  11        1.7981
  12        1.8855
  13        2.1781
  14        2.1816
  15        2.3517
  16        2.3704
  17        2.3713
  18        2.4624
  19        2.5141
  20        2.5978
  21        2.5985
  22        4.5299
  23        6.0055
  24        6.3503
  25       11.6865
  26       12.0111
  27       13.3206
  28       15.5134
  29       16.3586
  30       16.8322
  31       17.4960
  32       17.7457
 
  0.1666667E+00  0.5555556E-01  0.0000000E+00  0.5144033E-03
   1       -5.1270
   2       -0.9825
   3       -0.8253
   4       -0.8106
   5       -0.4028
   6       -0.3960
   7       -0.3959
   8        0.8712
   9        1.0651
  10        1.0693
  11        1.7708
  12        1.8976
  13        2.0429
  14        2.0443
  15        2.3156
  16        2.3320
  17        2.3323
  18        2.4390
  19        2.4718
  20        2.5973
  21        2.5985
  22        4.1440
  23        6.2320
  24        6.5785
  25       11.7246
  26       12.0572
  27       13.9304
  28       15.0659
  29       15.9177
  30       16.5182
  31       17.2407
  32       17.8936
 
  0.1944444E+00  0.5555556E-01  0.0000000E+00  0.5144033E-03
   1       -5.0035
   2       -0.9991
   3       -0.7707
   4       -0.7572
   5       -0.3699
   6       -0.3596
   7       -0.3592
   8        0.8352
   9        1.0952
  10        1.0980
  11        1.7395
  12        1.8970
  13        1.9030
  14        1.9118
  15        2.2741
  16        2.2797
  17        2.2896
  18        2.4164
  19        2.4232
  20        2.5971
  21        2.5985
  22        3.7601
  23        6.4802
  24        6.8309
  25       11.7701
  26       12.1127
  27       14.5861
  28       14.6182
  29       15.4634
  30       16.1914
  31       16.9444
  32       18.0665
 
  0.2222222E+00  0.5555556E-01  0.0000000E+00  0.5144033E-03
   1       -4.8619
   2       -1.0270
   3       -0.7104
   4       -0.6981
   5       -0.3325
   6       -0.3176
   7       -0.3166
   8        0.7944
   9        1.1298
  10        1.1306
  11        1.7049
  12        1.7478
  13        1.7577
  14        1.9280
  15        2.2141
  16        2.2278
  17        2.2422
  18        2.3692
  19        2.3937
  20        2.5970
  21        2.5985
  22        3.3925
  23        6.7466
  24        7.1041
  25       11.8230
  26       12.1781
  27       14.1743
  28       15.0027
  29       15.2782
  30       15.8607
  31       16.6240
  32       18.2633
 
  0.2500000E+00  0.5555556E-01  0.0000000E+00  0.5144033E-03
   1       -4.7027
   2       -1.0705
   3       -0.6456
   4       -0.6346
   5       -0.2910
   6       -0.2698
   7       -0.2682
   8        0.7493
   9        1.1669
  10        1.1687
  11        1.5980