 vasp.4.6.28 25Jul05 complex 
 executed on             LinuxIFC date 2016.09.01  15:55:11
 running on    4 nodes
 distr:  one band on    1 nodes,    4 groups


--------------------------------------------------------------------------------------------------------


 INCAR:
 POTCAR:   PAW_PBE Cu 05Jan2001                   
 POTCAR:   PAW_PBE Cu 05Jan2001                   
   VRHFIN =Cu: d10 p1                                                           
   LEXCH  = PE                                                                  
   EATOM  =  1390.9800 eV,  102.2341 Ry                                         
                                                                                
   TITEL  = PAW_PBE Cu 05Jan2001                                                
   LULTRA =        F    use ultrasoft PP ?                                      
   IUNSCR =        1    unscreen: 0-lin 1-nonlin 2-no                           
   RPACOR =    2.000    partial core radius                                     
   POMASS =   63.546; ZVAL   =   11.000    mass and valenz                      
   RCORE  =    2.300    outmost cutoff radius                                   
   RWIGS  =    2.480; RWIGS  =    1.312    wigner-seitz radius (au A)           
   ENMAX  =  273.214; ENMIN  =  204.910 eV                                      
   RCLOC  =    1.712    cutoff for local pot                                    
   LCOR   =        T    correct aug charges                                     
   LPAW   =        T    paw PP                                                  
   EAUG   =  516.456                                                            
   DEXC   =    -.008                                                            
   RMAX   =    2.789    core radius for proj-oper                               
   RAUG   =    1.300    factor for augmentation sphere                          
   RDEP   =    2.302    radius for radial grids                                 
   QCUT   =   -4.481; QGAM   =    8.962    optimization parameters              
                                                                                
   Description                                                                  
     l     E      TYP  RCUT    TYP  RCUT                                        
     2   .000     23  2.300                                                     
     2   .000     23  2.300                                                     
     0   .000     23  2.300                                                     
     0   .000     23  2.300                                                     
     1  -.200     23  2.300                                                     
     1   .000     23  2.300                                                     
     3   .000      7   .000                                                     
  local pseudopotential read in
  partial core-charges read in
  atomic valenz-charges read in
  non local Contribution for L=           2  read in
    real space projection operators read in
  non local Contribution for L=           2  read in
    real space projection operators read in
  non local Contribution for L=           0  read in
    real space projection operators read in
  non local Contribution for L=           0  read in
    real space projection operators read in
  non local Contribution for L=           1  read in
    real space projection operators read in
  non local Contribution for L=           1  read in
    real space projection operators read in
    PAW grid and wavefunctions read in
 
   number of l-projection  operators is LMAX  =           6
   number of lm-projection operators is LMMAX =          18
 

 ----------------------------------------------------------------------------- 
|                                                                             |
|  ADVICE TO THIS USER RUNNING 'VASP/VAMP'   (HEAR YOUR MASTER'S VOICE ...):  |
|                                                                             |
|      You have a (more or less) 'large supercell' and for larger cells       |
|      it might be more efficient to use real space projection operators      |
|      So try LREAL= Auto  in the INCAR   file.                               |
|      Mind: If you want to do an extremely accurate calculations keep the    |
|      reciprocal projection scheme          (i.e. LREAL=.FALSE.)             |
|                                                                             |
 ----------------------------------------------------------------------------- 

 PAW_PBE Cu 05Jan2001                   :
 energy of atom  1       EATOM=-1390.9800
 kinetic energy error for atom=    0.0395 (will be added to EATOM!!)
 
 EXHCAR: internal setup
 exchange correlation table for  LEXCH =        8
   RHO(1)=    0.500       N(1)  =     2000
   RHO(2)=  100.500       N(2)  =     4000
 
 POSCAR: No title                                
  positions in direct lattice
  No initial velocities read in
 


--------------------------------------------------------------------------------------------------------


 ion  position               nearest neighbor table
   1  0.667  0.667  0.333-   5 2.75   8 2.75   9 2.75  43 2.75  60 2.75   3 2.75  59 2.75  38 2.75
                             2 2.75  19 2.75  34 2.75 101 2.75
   2  0.667  0.833  0.500-   3 2.75   9 2.75  14 2.75  10 2.75  34 2.75  39 2.75   1 2.75   6 2.75
                            61 2.75  97 2.75  60 2.75  35 2.75
   3  0.833  0.667  0.500-   2 2.75   9 2.75  14 2.75  12 2.75   1 2.75  19 2.75  39 2.75  11 2.75
                            49 2.75  87 2.75  44 2.75  43 2.75
   4  0.667  0.667  0.000-  21 2.75  20 2.75  15 2.75  66 2.75  83 2.75   8 2.75   5 2.75  38 2.75
                            59 2.75  82 2.75 107 2.75  63 2.75
   5  0.667  0.833  0.167-   1 2.75   8 2.75   9 2.75  21 2.75  60 2.75  59 2.75  22 2.75   4 2.75
                             6 2.75  16 2.75  84 2.75  83 2.75
   6  0.667  0.000  0.333-  22 2.75  17 2.75   9 2.75  10 2.75  23 2.75  84 2.75   5 2.75  61 2.75
                             2 2.75  85 2.75  60 2.75   7 2.75
   7  0.667  0.167  0.500-  24 2.75  18 2.75  23 2.75  10 2.75  86 2.75  64 2.75  62 2.75  35 2.75
                           105 2.75  61 2.75  85 2.75   6 2.75
   8  0.833  0.667  0.167-   5 2.75   1 2.75   9 2.75  21 2.75  43 2.75  26 2.75  38 2.75   4 2.75
                            11 2.75  25 2.75  70 2.75  66 2.75
   9  0.833  0.833  0.333-   1 2.75   5 2.75   8 2.75   2 2.75   6 2.75   3 2.75  11 2.75  22 2.75
                            26 2.75  12 2.75  27 2.75  10 2.75
  10  0.833  0.000  0.500-   7 2.75  35 2.75   2 2.75   6 2.75  23 2.75  27 2.75  12 2.75  39 2.75
                            28 2.75  67 2.75  64 2.75   9 2.75
  11  0.000  0.667  0.333-  26 2.75   9 2.75  29 2.75  30 2.75   8 2.75  12 2.75  70 2.75  49 2.75
                             3 2.75  75 2.75  43 2.75  13 2.75
  12  0.000  0.833  0.500-  13 2.75  44 2.75   3 2.75  11 2.75  27 2.75  30 2.75  39 2.75  10 2.75
                             9 2.75  31 2.75  71 2.75  67 2.75
  13  0.167  0.667  0.500-  33 2.75  30 2.75  32 2.75  12 2.75  81 2.75  76 2.75  71 2.75  44 2.75
                           102 2.75  11 2.75  49 2.75  75 2.75
  14  0.667  0.667  0.667-  39 2.75  20 2.75  15 2.75   3 2.75   2 2.75  63 2.75  82 2.75  87 2.75
                            97 2.75  34 2.75 108 2.75  19 2.75
  15  0.667  0.833  0.833-  20 2.75  39 2.75  14 2.75  35 2.75   4 2.75  21 2.75  40 2.75  82 2.75
                            97 2.75  83 2.75  98 2.75  16 2.75
  16  0.667  0.000  0.000-  21 2.75  40 2.75  22 2.75  41 2.75   5 2.75  36 2.75  84 2.75  99 2.75
                            98 2.75  83 2.75  17 2.75  15 2.75
  17  0.667  0.167  0.167-  42 2.75  23 2.75  18 2.75   6 2.75  37 2.75  41 2.75  22 2.75  85 2.75
                           100 2.75  99 2.75  84 2.75  16 2.75
  18  0.667  0.333  0.333-  23 2.75  42 2.75  17 2.75  38 2.75   7 2.75  24 2.75  43 2.75  85 2.75
                           100 2.75  86 2.75 101 2.75  19 2.75
  19  0.667  0.500  0.500-  24 2.75  43 2.75   3 2.75  87 2.75   1 2.75  62 2.75  34 2.75 108 2.75
                           101 2.75  86 2.75  14 2.75  18 2.75
  20  0.833  0.667  0.833-  15 2.75  39 2.75  14 2.75   4 2.75  44 2.75  45 2.75  63 2.75  21 2.75
                            87 2.75  66 2.75  89 2.75  25 2.75
  21  0.833  0.833  0.000-   4 2.75   5 2.75   8 2.75  16 2.75  25 2.75  15 2.75  20 2.75  40 2.75
                            45 2.75  26 2.75  22 2.75  46 2.77
  22  0.833  0.000  0.167-   6 2.75   9 2.75  17 2.75  16 2.75   5 2.75  27 2.75  23 2.75  26 2.75
                            41 2.75  47 2.75  21 2.75  46 2.77
  23  0.833  0.167  0.333-  18 2.75  42 2.75  17 2.75   7 2.75  47 2.75   6 2.75  48 2.75  24 2.75
                            22 2.75  27 2.75  10 2.75  28 2.75
  24  0.833  0.333  0.500-   7 2.75  19 2.75  28 2.75  62 2.75  64 2.75  18 2.75  23 2.75  43 2.75
                            48 2.75  49 2.75  88 2.75  87 2.75
  25  0.000  0.667  0.000-  21 2.75  45 2.75  51 2.75  26 2.75  50 2.75   8 2.75  70 2.75  92 2.75
                            66 2.75  29 2.75  20 2.75  89 2.75
  26  0.000  0.833  0.167-  11 2.75   9 2.75  29 2.75   8 2.75  30 2.75  25 2.75  27 2.75  22 2.75
                            51 2.75  21 2.75  52 2.75  46 2.75
  27  0.000  0.000  0.333-  47 2.75  52 2.75  22 2.75  26 2.75  12 2.75  30 2.75  10 2.75  23 2.75
                             9 2.75  31 2.75  53 2.75  28 2.75
  28  0.000  0.167  0.500-  24 2.75  48 2.75  54 2.75  88 2.75  31 2.75  64 2.75  67 2.75  53 2.75
                            10 2.75  23 2.75  90 2.75  27 2.75
  29  0.167  0.667  0.167-  56 2.75  32 2.75  30 2.75  26 2.75  51 2.75  55 2.75  11 2.75  75 2.75
                            96 2.75  25 2.75  70 2.75  92 2.75
  30  0.167  0.833  0.333-  32 2.75  56 2.75  29 2.75  52 2.75  13 2.75  11 2.75  33 2.75  57 2.75
                            26 2.75  12 2.75  27 2.75  31 2.75
  31  0.167  0.000  0.500-  33 2.75  57 2.75  58 2.75  93 2.75  53 2.75  67 2.75  71 2.75  28 2.75
                            12 2.75  27 2.75  90 2.75  30 2.75
  32  0.333  0.667  0.333-  30 2.75  56 2.75  29 2.75  13 2.75  59 2.75  60 2.75  75 2.75  33 2.75
                            96 2.75  81 2.75 101 2.75  34 2.75
  33  0.333  0.833  0.500-  13 2.75  31 2.75  34 2.75  71 2.75  76 2.75  30 2.75  32 2.75  57 2.75
                            60 2.75  61 2.75  97 2.75  93 2.75
  34  0.500  0.667  0.500-  33 2.75  60 2.75   2 2.75  97 2.75  19 2.75  76 2.75   1 2.75 108 2.75
                            81 2.75  32 2.75  14 2.75 101 2.75
  35  0.667  0.000  0.667-  40 2.75  15 2.75  39 2.75  10 2.75  98 2.75  64 2.75  36 2.75   7 2.75
                           105 2.75  61 2.75  97 2.75   2 2.75
  36  0.667  0.167  0.833-  62 2.75  64 2.75  65 2.75  40 2.75 106 2.75  41 2.75 105 2.75  37 2.75
                            35 2.75  16 2.75  99 2.75  98 2.75
  37  0.667  0.333  0.000-  41 2.75  17 2.75  65 2.75  42 2.75  66 2.75  99 2.75  36 2.75  63 2.75
                           100 2.75 107 2.75 106 2.75  38 2.75
  38  0.667  0.500  0.167-  43 2.75  42 2.75  18 2.75  66 2.75 101 2.75   8 2.75   1 2.75   4 2.75
                            59 2.75 100 2.75 107 2.75  37 2.75
  39  0.833  0.833  0.667-  20 2.75  15 2.75  14 2.75  35 2.75  44 2.75   2 2.75  45 2.75   3 2.75
                            40 2.75  12 2.75  10 2.75  67 2.75
  40  0.833  0.000  0.833-  35 2.75  16 2.75  36 2.75  64 2.75  67 2.75  15 2.75  39 2.75  21 2.75
                            45 2.75  68 2.75  41 2.75  46 2.77
  41  0.833  0.167  0.000-  37 2.75  17 2.75  65 2.75  16 2.75  36 2.75  69 2.75  42 2.75  68 2.75
                            22 2.75  47 2.75  40 2.75  46 2.77
  42  0.833  0.333  0.167-  23 2.75  18 2.75  17 2.75  38 2.75  47 2.75  37 2.75  48 2.75  41 2.75
                            43 2.75  66 2.75  69 2.75  70 2.75
  43  0.833  0.500  0.333-  38 2.75   8 2.75  19 2.75   1 2.75  70 2.75  18 2.75  42 2.75  48 2.75
                            24 2.75  49 2.75  11 2.75   3 2.75
  44  0.000  0.667  0.667-  45 2.75  20 2.75  39 2.75  12 2.75  89 2.75  71 2.75  50 2.75  13 2.75
                           102 2.75   3 2.75  87 2.75  49 2.75
  45  0.000  0.833  0.833-  44 2.75  25 2.75  50 2.75  67 2.75  71 2.75  20 2.75  39 2.75  21 2.75
                            40 2.75  51 2.75  72 2.75  46 2.75
  46  0.002  0.000  0.000-  51 2.74  72 2.74  52 2.74  73 2.74  26 2.75  68 2.75  47 2.75  45 2.75
                            41 2.77  22 2.77  21 2.77  40 2.77
  47  0.000  0.167  0.167-  48 2.75  27 2.75  42 2.75  23 2.75  69 2.75  74 2.75  53 2.75  73 2.75
                            52 2.75  41 2.75  22 2.75  46 2.75
  48  0.000  0.333  0.333-  47 2.75  28 2.75  53 2.75  70 2.75  74 2.75  23 2.75  42 2.75  24 2.75
                            43 2.75  54 2.75  75 2.75  49 2.75
  49  0.000  0.500  0.500-   3 2.75  11 2.75  54 2.75  75 2.75  87 2.75  88 2.75  24 2.75  43 2.75
                            13 2.75 102 2.75  48 2.75  44 2.75
  50  0.167  0.667  0.833-  71 2.75  76 2.75  77 2.75  45 2.75 104 2.75  55 2.75  44 2.75 102 2.75
                            51 2.75  25 2.75  92 2.75  89 2.75
  51  0.167  0.833  0.000-  46 2.74  55 2.75  29 2.75  77 2.75  56 2.75  25 2.75  78 2.75  50 2.75
                            26 2.75  72 2.75  45 2.75  52 2.75
  52  0.167  0.000  0.167-  46 2.74  57 2.75  27 2.75  56 2.75  30 2.75  78 2.75  79 2.75  53 2.75
                            47 2.75  73 2.75  26 2.75  51 2.75
  53  0.167  0.167  0.333-  74 2.75  79 2.75  80 2.75  57 2.75  48 2.75  58 2.75  47 2.75  54 2.75
                            52 2.75  31 2.75  28 2.75  27 2.75
  54  0.167  0.333  0.500-  58 2.75  80 2.75  90 2.75  81 2.75  28 2.75 103 2.75  53 2.75  88 2.75
                            49 2.75  75 2.75  48 2.75 102 2.75
  55  0.333  0.667  0.000-  51 2.75  29 2.75  77 2.75  50 2.75  83 2.75  92 2.75  56 2.75  82 2.75
                            96 2.75 107 2.75  59 2.75 104 2.75
  56  0.333  0.833  0.167-  32 2.75  30 2.75  29 2.75  52 2.75  59 2.75  51 2.75  60 2.75  55 2.75
                            57 2.75  78 2.75  83 2.75  84 2.75
  57  0.333  0.000  0.333-  52 2.75  31 2.75  53 2.75  79 2.75  84 2.75  30 2.75  56 2.75  33 2.75
                            60 2.75  61 2.75  85 2.75  58 2.75
  58  0.333  0.167  0.500-  54 2.75  80 2.75  90 2.75  53 2.75  86 2.75  31 2.75 103 2.75  85 2.75
                            93 2.75  61 2.75 105 2.75  57 2.75
  59  0.500  0.667  0.167-  60 2.75  56 2.75  32 2.75  83 2.75 101 2.75   5 2.75   1 2.75   4 2.75
                            38 2.75  96 2.75  55 2.75 107 2.75
  60  0.500  0.833  0.333-  59 2.75   5 2.75  34 2.75   1 2.75  84 2.75  32 2.75  56 2.75  33 2.75
                            57 2.75   6 2.75   2 2.75  61 2.75
  61  0.500  0.000  0.500-   2 2.75   6 2.75  58 2.75  85 2.75  93 2.75  97 2.75   7 2.75  33 2.75
                            35 2.75  57 2.75  60 2.75 105 2.75
  62  0.667  0.333  0.667-  36 2.75  64 2.75  65 2.75  24 2.75 106 2.75 105 2.75  87 2.75  63 2.75
                             7 2.75  19 2.75 108 2.75  86 2.75
  63  0.667  0.500  0.833-  87 2.75  65 2.75  14 2.75  66 2.75  20 2.75 108 2.75  62 2.75  37 2.75
                           107 2.75  82 2.75 106 2.75   4 2.75
  64  0.833  0.167  0.667-  62 2.75  36 2.75  65 2.75  24 2.75  40 2.75   7 2.75  35 2.75  88 2.75
                            68 2.75  28 2.75  67 2.75  10 2.75
  65  0.833  0.333  0.833-  36 2.75  62 2.75  64 2.75  37 2.75  63 2.75  41 2.75  68 2.75  87 2.75
                            88 2.75  69 2.75  89 2.75  66 2.75
  66  0.833  0.500  0.000-   4 2.75  38 2.75  37 2.75  63 2.75  42 2.75  20 2.75  69 2.75  89 2.75
                            70 2.75  25 2.75  65 2.75   8 2.75
  67  0.000  0.000  0.667-  40 2.75  45 2.75  72 2.75  68 2.75  64 2.75  28 2.75  71 2.75  31 2.75
                            10 2.75  39 2.75  90 2.75  12 2.75
  68  0.000  0.167  0.833-  88 2.75  65 2.75  90 2.75  91 2.75  64 2.75  69 2.75  67 2.75  72 2.75
                            41 2.75  73 2.75  40 2.75  46 2.75
  69  0.000  0.333  0.000-  47 2.75  73 2.75  41 2.75  68 2.75  42 2.75  66 2.75  89 2.75  91 2.75
                            65 2.75  74 2.75  92 2.75  70 2.75
  70  0.000  0.500  0.167-  43 2.75  48 2.75  75 2.75  11 2.75  25 2.75  74 2.75   8 2.75  92 2.75
                            29 2.75  42 2.75  66 2.75  69 2.75
  71  0.167  0.833  0.667-  50 2.75  76 2.75  77 2.75  45 2.75  33 2.75  44 2.75  93 2.75  72 2.75
                            13 2.75  31 2.75  67 2.75  12 2.75
  72  0.167  0.000  0.833-  46 2.74  93 2.75  90 2.75  77 2.75  78 2.75  94 2.75  67 2.75  71 2.75
                            51 2.75  68 2.75  45 2.75  73 2.75
  73  0.167  0.167  0.000-  46 2.74  95 2.75  78 2.75  91 2.75  94 2.75  69 2.75  79 2.75  74 2.75
                            52 2.75  47 2.75  68 2.75  72 2.75
  74  0.167  0.333  0.167-  53 2.75  79 2.75  80 2.75  48 2.75  95 2.75  47 2.75  96 2.75  73 2.75
                            75 2.75  70 2.75  92 2.75  69 2.75
  75  0.167  0.500  0.333-  96 2.75  80 2.75  29 2.75  81 2.75  32 2.75  70 2.75  74 2.75  54 2.75
                            11 2.75  49 2.75  48 2.75  13 2.75
  76  0.333  0.667  0.667-  71 2.75  50 2.75  77 2.75  33 2.75 104 2.75  97 2.75 102 2.75  13 2.75
                            82 2.75  34 2.75 108 2.75  81 2.75
  77  0.333  0.833  0.833-  50 2.75  71 2.75  76 2.75  51 2.75  72 2.75  55 2.75  82 2.75  93 2.75
                            97 2.75  83 2.75  98 2.75  78 2.75
  78  0.333  0.000  0.000-  52 2.75  73 2.75  72 2.75  51 2.75  56 2.75  83 2.75  94 2.75  98 2.75
                            84 2.75  99 2.75  79 2.75  77 2.75
  79  0.333  0.167  0.167-  74 2.75  53 2.75  80 2.75  57 2.75  95 2.75  73 2.75  52 2.75 100 2.75
                            85 2.75  99 2.75  84 2.75  78 2.75
  80  0.333  0.333  0.333-  53 2.75  74 2.75  79 2.75  54 2.75  75 2.75  58 2.75  85 2.75  96 2.75
                           100 2.75  86 2.75 101 2.75  81 2.75
  81  0.333  0.500  0.500-  13 2.75 102 2.75  75 2.75  54 2.75  86 2.75 101 2.75  32 2.75 103 2.75
                            34 2.75 108 2.75  80 2.75  76 2.75
  82  0.500  0.667  0.833-  97 2.75  77 2.75  14 2.75  15 2.75  76 2.75  83 2.75 108 2.75  63 2.75
                           107 2.75  55 2.75   4 2.75 104 2.75
  83  0.500  0.833  0.000-   4 2.75  59 2.75  55 2.75  82 2.75  15 2.75  78 2.75  56 2.75  98 2.75
                            16 2.75   5 2.75  77 2.75  84 2.75
  84  0.500  0.000  0.167-  57 2.75  60 2.75   6 2.75  85 2.75  16 2.75  79 2.75   5 2.75  99 2.75
                            17 2.75  56 2.75  78 2.75  83 2.75
  85  0.500  0.167  0.333- 100 2.75  80 2.75  17 2.75  18 2.75  79 2.75  86 2.75  84 2.75  61 2.75
                             6 2.75  58 2.75  57 2.75   7 2.75
  86  0.500  0.333  0.500-   7 2.75 105 2.75  58 2.75  85 2.75  18 2.75 101 2.75 103 2.75  81 2.75
                            80 2.75  19 2.75  62 2.75 108 2.75
  87  0.833  0.500  0.667-  63 2.75  14 2.75  65 2.75  19 2.75  62 2.75  89 2.75  20 2.75   3 2.75
                            88 2.75  49 2.75  44 2.75  24 2.75
  88  0.000  0.333  0.667-  68 2.75  65 2.75  90 2.75  64 2.75  91 2.75  28 2.75  89 2.75  54 2.75
                            49 2.75  87 2.75  24 2.75 102 2.75
  89  0.000  0.500  0.833-  44 2.75 102 2.75  87 2.75  88 2.75  20 2.75  66 2.75  91 2.75  69 2.75
                            50 2.75  92 2.75  65 2.75  25 2.75
  90  0.167  0.167  0.667- 103 2.75  94 2.75  91 2.75  72 2.75  88 2.75  54 2.75  93 2.75  58 2.75
                            68 2.75  67 2.75  28 2.75  31 2.75
  91  0.167  0.333  0.833-  94 2.75 103 2.75  90 2.75 102 2.75  73 2.75  68 2.75  95 2.75 104 2.75
                            88 2.75  69 2.75  89 2.75  92 2.75
  92  0.167  0.500  0.000-  95 2.75 104 2.75  96 2.75  55 2.75  74 2.75  50 2.75  25 2.75  70 2.75
                            89 2.75  69 2.75  91 2.75  29 2.75
  93  0.333  0.000  0.667-  72 2.75  77 2.75  90 2.75  71 2.75  31 2.75  98 2.75  94 2.75  58 2.75
                            97 2.75  61 2.75 105 2.75  33 2.75
  94  0.333  0.167  0.833-  91 2.75 103 2.75  90 2.75  73 2.75 105 2.75  72 2.75 106 2.75  95 2.75
                            93 2.75  98 2.75  78 2.75  99 2.75
  95  0.333  0.333  0.000-  73 2.75  74 2.75  79 2.75  92 2.75  99 2.75  91 2.75  94 2.75 104 2.75
                           106 2.75 100 2.75 107 2.75  96 2.75
  96  0.333  0.500  0.167-  75 2.75  29 2.75  80 2.75  74 2.75  92 2.75 101 2.75  32 2.75 100 2.75
                            55 2.75 107 2.75  59 2.75  95 2.75
  97  0.500  0.833  0.667-  82 2.75  77 2.75  14 2.75  76 2.75  15 2.75  34 2.75  98 2.75   2 2.75
                            93 2.75  61 2.75  33 2.75  35 2.75
  98  0.500  0.000  0.833-  35 2.75 105 2.75  93 2.75  97 2.75  15 2.75  94 2.75  78 2.75  83 2.75
                            16 2.75  36 2.75  77 2.75  99 2.75
  99  0.500  0.167  0.000-  95 2.75 106 2.75  37 2.75 100 2.75  84 2.75  36 2.75  16 2.75  79 2.75
                            17 2.75  78 2.75  94 2.75  98 2.75
 100  0.500  0.333  0.167-  85 2.75  80 2.75  17 2.75  79 2.75  18 2.75  99 2.75 101 2.75  37 2.75
                            96 2.75 107 2.75  38 2.75  95 2.75
 101  0.500  0.500  0.333-  38 2.75  59 2.75  96 2.75 100 2.75  81 2.75  86 2.75  18 2.75  32 2.75
                             1 2.75  80 2.75  19 2.75  34 2.75
 102  0.167  0.500  0.667- 104 2.75  89 2.75  91 2.75 103 2.75  81 2.75  76 2.75  50 2.75  44 2.75
                            13 2.75  49 2.75  88 2.75  54 2.75
 103  0.333  0.333  0.667-  94 2.75  91 2.75  90 2.75 102 2.75 105 2.75  54 2.75 106 2.75  58 2.75
                           104 2.75  86 2.75  81 2.75 108 2.75
 104  0.333  0.500  0.833- 102 2.75  76 2.75  92 2.75  50 2.75 108 2.75  91 2.75 103 2.75 106 2.75
                            95 2.75 107 2.75  82 2.75  55 2.75
 105  0.500  0.167  0.667- 106 2.75  94 2.75  98 2.75 103 2.75  86 2.75  62 2.75  36 2.75  35 2.75
                             7 2.75  58 2.75  93 2.75  61 2.75
 106  0.500  0.333  0.833- 105 2.75  62 2.75  99 2.75  36 2.75 108 2.75  94 2.75 103 2.75  95 2.75
                           104 2.75  63 2.75  37 2.75 107 2.75
 107  0.500  0.500  0.000-  37 2.75  55 2.75  63 2.75  82 2.75  96 2.75 100 2.75  95 2.75  38 2.75
                             4 2.75 104 2.75  59 2.75 106 2.75
 108  0.500  0.500  0.667- 104 2.75 106 2.75  63 2.75  82 2.75  76 2.75  34 2.75  62 2.75  19 2.75
                           103 2.75  81 2.75  14 2.75  86 2.75
 
  LATTYP: Found a simple cubic cell.
 ALAT       =    11.6718076500
  
  Lattice vectors:
  
 A1 = (  11.6718076500,   0.0000000000,   0.0000000000)
 A2 = (   0.0000002100,  11.6718076500,   0.0000000000)
 A3 = (   0.0000002100,   0.0000002100,  11.6718076500)
 Subroutine PRICEL returns:
 Original cell was already a primitive cell.
 

Analysis of symmetry for initial positions (statically):

 Routine SETGRP: Setting up the symmetry group for a 
 simple cubic supercell.


 Subroutine GETGRP returns: Found  8 space group operations
 (whereof  8 operations were pure point group operations)
 out of a pool of 48 trial point group operations.


The static configuration has the point symmetry C_4v.

Analysis of symmetry for dynamics (positions and initial velocities):

 Subroutine DYNSYM returns: Found  8 space group operations
 (whereof  8 operations were pure point group operations)
 out of a pool of  8 trial space group operations
 (whereof  8 operations were pure point group operations)
 and found also     1 'primitive' translations


The dynamic configuration has the point symmetry C_4v.
 
 
 KPOINTS: Automatic mesh                          

Automatic generation of k-mesh.
 
 Subroutine IBZKPT returns following result:
 ===========================================
 
 Found      1 irreducible k-points:
 
 Following reciprocal coordinates:
            Coordinates               Weight
  0.250000  0.250000  0.250000      8.000000
 
 Following cartesian coordinates:
            Coordinates               Weight
  0.021419  0.021419  0.021419      8.000000
 


--------------------------------------------------------------------------------------------------------




 Dimension of arrays:
   k-Points           NKPTS =      1   number of bands    NBANDS=    712
   number of dos      NEDOS =    301   number of ions     NIONS =    108
   non local maximal  LDIM  =      6   non local SUM 2l+1 LMDIM =     18
   total plane-waves  NPLWV = 110592
   max r-space proj   IRMAX =      1   max aug-charges    IRDMAX=   2640
   dimension x,y,z NGX =    48 NGY =   48 NGZ =   48
   dimension x,y,z NGXF=    96 NGYF=   96 NGZF=   96
   support grid    NGXF=    96 NGYF=   96 NGZF=   96
   ions per type =             108
 NGX,Y,Z   is equivalent  to a cutoff of   6.84,  6.84,  6.84 a.u.
 NGXF,Y,Z  is equivalent  to a cutoff of  13.67, 13.67, 13.67 a.u.


 I would recommend the setting:
   dimension x,y,z NGX =    47 NGY =   47 NGZ =   47
 SYSTEM =  No title                                
 POSCAR =  No title                                

 Startparameter for this run:
   NWRITE =      2    write-flag & timer
   PREC   = normal    medium, high low
   ISTART =      1    job   : 0-new  1-cont  2-samecut
   ICHARG =      0    charge: 1-file 2-atom 10-const
   ISPIN  =      1    spin polarized calculation?
   LNONCOLLINEAR =      F non collinear calculations
   LSORBIT =      F    spin-orbit coupling
   INIWAV =      1    electr: 0-lowe 1-rand  2-diag
   LASPH  =      F    aspherical Exc in radial PAW
   METAGGA=      F    non-selfconsistent MetaGGA calc.

 Electronic Relaxation 1
   ENCUT  =  273.2 eV  20.08 Ry    4.48 a.u.  15.73 15.73 15.73*2*pi/ulx,y,z
   ENINI  =  273.2     initial cutoff
   ENAUG  =  516.5 eV  augmentation charge cutoff
   NELM   =     60;   NELMIN=  2; NELMDL=  0     # of ELM steps 
   EDIFF  = 0.1E-04   stopping-criterion for ELM
   LREAL  =      F    real-space projection
   LCOMPAT=      F    compatible to vasp.4.4
   LREAL_COMPAT= F    compatible to vasp.4.5.1-3
   GGA_COMPAT  = T    GGA compatible to vasp.4.4-vasp.4.6
   LMAXPAW     = -100 max onsite density
   LMAXMIX     =    2 max onsite mixed and CHGCAR
   VOSKOWN=      1    Vosko Wilk Nusair interpolation
   ROPT   =    0.00000
 Ionic relaxation
   EDIFFG = -.2E-01   stopping-criterion for IOM
   NSW    =      0    number of steps for IOM
   NBLOCK =      1;   KBLOCK =      1    inner block; outer block 
   IBRION =     -1    ionic relax: 0-MD 1-quasi-New 2-CG
   NFREE  =      0    steps in history (QN), initial steepest desc. (CG)
   ISIF   =      2    stress and relaxation
   IWAVPR =     10    prediction:  0-non 1-charg 2-wave 3-comb
   ISYM   =      2    0-nonsym 1-usesym 2-fastsym
   LCORR  =      T    Harris-Foulkes like correction to forces

   POTIM  =   0.50    time-step for ionic-motion
   TEIN   =    0.0    initial temperature
   TEBEG  =    0.0;   TEEND  =   0.0 temperature during run
   SMASS  =  -3.00    Nose mass-parameter (am)
   estimated Nose-frequenzy (Omega)   =  0.10E-29 period in steps =****** mass=  -0.311E-26a.u.
   NPACO  =    256;   APACO  = 16.0  distance and # of slots for P.C.
   PSTRESS=    0.0 pullay stress

  Mass of Ions in am
   POMASS =  63.55
  Ionic Valenz
   ZVAL   =  11.00
  Atomic Wigner-Seitz radii
   RWIGS  =   1.17
   NELECT =    1188.0000    total number of electrons
   NUPDOWN=      -1.0000    fix difference up-down

 DOS related values:
   EMIN   =  10.00;   EMAX   =-10.00  energy-range for DOS
   ISMEAR =     1;   SIGMA  =   0.20  broadening in eV -4-tet -1-fermi 0-gaus

 Electronic relaxation 2 (details)
   IALGO  =     38    algorithm
   LDIAG  =      T    sub-space diagonalisation
   IMIX   =      4    mixing-type and parameters
     AMIX     =   0.40;   BMIX     =  1.00
     AMIX_MAG =   1.60;   BMIX_MAG =  1.00
     AMIN     =   0.10
     WC   =   100.;   INIMIX=   1;  MIXPRE=   1

 Intra band minimization:
   WEIMIN = 0.0000     energy-eigenvalue tresh-hold
   EBREAK =  0.35E-08  absolut break condition
   DEPER  =   0.30     relativ break condition  

   TIME   =   0.10     timestep for ELM

  volume/ion in A,a.u.               =      14.72        99.35
  Fermi-wavevector in a.u.,eV,Ry     =   1.485510 30.024512  2.206739

 Second variation
   LSECVAR=     F    do a second variation
 
 Write flags
   LWAVE  =      F    write WAVECAR
   LCHARG =      F    write CHGCAR
   LVTOT  =      F    write LOCPOT, local potential
   LELF   =      F    write electronic localiz. function (ELF)
   LORBIT =      0    0 simple, 1 ext, 2 COOP (PROOUT)


 Dipole corrections
   IDIPOL =      0    1-x, 2-y, 3-z
   LDIPOL =      F    correct potential



--------------------------------------------------------------------------------------------------------


 Static calculation
 charge density will be updated during run
 non-spin polarized calculation
 Variant of blocked Davidson
 Davidson routine will perform the subspace rotation
 performe sub-space diagonalisation
    after iterative eigenvector-optimisation
 modified Broyden-mixing scheme, WC =      100.0
 initial mixing is a Kerker type mixing with AMIX =  0.4000 and BMIX =      1.0000
 Hartree-type preconditioning will be used
 using additional bands          118
 reciprocal scheme for non local part
 use partial core corrections
 calculate Harris-corrections to forces 
   (improved forces if not selfconsistent)
 use gradient corrections 
 use of overlap-Matrix (Vanderbilt PP)
 Methfessel and Paxton  Order N= 1 SIGMA  =   0.20


--------------------------------------------------------------------------------------------------------


  energy-cutoff  :      273.21
  volume of cell :     1590.06
      direct lattice vectors                 reciprocal lattice vectors
    11.671807650  0.000000000  0.000000000     0.085676532 -0.000000002 -0.000000002
     0.000000210 11.671807650  0.000000000     0.000000000  0.085676532 -0.000000002
     0.000000210  0.000000210 11.671807650     0.000000000  0.000000000  0.085676532

  length of vectors
    11.671807650 11.671807650 11.671807650     0.085676532  0.085676532  0.085676532


 
 old parameters found on file WAVECAR:
  energy-cutoff  :      273.21
  volume of cell :     1590.06
      direct lattice vectors                 reciprocal lattice vectors
    11.671807650  0.000000000  0.000000000     0.085676532 -0.000000002 -0.000000002
     0.000000210 11.671807650  0.000000000     0.000000000  0.085676532 -0.000000002
     0.000000210  0.000000210 11.671807650     0.000000000  0.000000000  0.085676532

  length of vectors

 
 k-points in units of 2pi/SCALE and weight: Automatic mesh                          
   0.02141913  0.02141913  0.02141913       1.000
 
 k-points in reciprocal lattice and weights: Automatic mesh                          
   0.25000000  0.25000000  0.25000000       1.000
 
 position of ions in fractional coordinates (direct lattice) 
   0.66666667  0.66666667  0.33333333
   0.66666667  0.83333333  0.50000000
   0.83333333  0.66666667  0.50000000
   0.66666667  0.66666667  0.00000000
   0.66666667  0.83333333  0.16666667
   0.66666667  0.00000000  0.33333333
   0.66666667  0.16666667  0.50000000
   0.83333333  0.66666667  0.16666667
   0.83333333  0.83333333  0.33333333
   0.83333333  0.00000000  0.50000000
   0.00000000  0.66666667  0.33333333
   0.00000000  0.83333333  0.50000000
   0.16666667  0.66666667  0.50000000
   0.66666667  0.66666667  0.66666667
   0.66666667  0.83333333  0.83333333
   0.66666667  0.00000000  0.00000000
   0.66666667  0.16666667  0.16666667
   0.66666667  0.33333333  0.33333333
   0.66666667  0.50000000  0.50000000
   0.83333333  0.66666667  0.83333333
   0.83333333  0.83333333  0.00000000
   0.83333333  0.00000000  0.16666667
   0.83333333  0.16666667  0.33333333
   0.83333333  0.33333333  0.50000000
   0.00000000  0.66666667  0.00000000
   0.00000000  0.83333333  0.16666667
   0.00000000  0.00000000  0.33333333
   0.00000000  0.16666667  0.50000000
   0.16666667  0.66666667  0.16666667
   0.16666667  0.83333333  0.33333333
   0.16666667  0.00000000  0.50000000
   0.33333333  0.66666667  0.33333333
   0.33333333  0.83333333  0.50000000
   0.50000000  0.66666667  0.50000000
   0.66666667  0.00000000  0.66666667
   0.66666667  0.16666667  0.83333333
   0.66666667  0.33333333  0.00000000
   0.66666667  0.50000000  0.16666667
   0.83333333  0.83333333  0.66666667
   0.83333333  0.00000000  0.83333333
   0.83333333  0.16666667  0.00000000
   0.83333333  0.33333333  0.16666667
   0.83333333  0.50000000  0.33333333
   0.00000000  0.66666667  0.66666667
   0.00000000  0.83333333  0.83333333
   0.00171400  0.00000000  0.00000000
   0.00000000  0.16666667  0.16666667
   0.00000000  0.33333333  0.33333333
   0.00000000  0.50000000  0.50000000
   0.16666667  0.66666667  0.83333333
   0.16666667  0.83333333  0.00000000
   0.16666667  0.00000000  0.16666667
   0.16666667  0.16666667  0.33333333
   0.16666667  0.33333333  0.50000000
   0.33333333  0.66666667  0.00000000
   0.33333333  0.83333333  0.16666667
   0.33333333  0.00000000  0.33333333
   0.33333333  0.16666667  0.50000000
   0.50000000  0.66666667  0.16666667
   0.50000000  0.83333333  0.33333333
   0.50000000  0.00000000  0.50000000
   0.66666667  0.33333333  0.66666667
   0.66666667  0.50000000  0.83333333
   0.83333333  0.16666667  0.66666667
   0.83333333  0.33333333  0.83333333
   0.83333333  0.50000000  0.00000000
   0.00000000  0.00000000  0.66666667
   0.00000000  0.16666667  0.83333333
   0.00000000  0.33333333  0.00000000
   0.00000000  0.50000000  0.16666667
   0.16666667  0.83333333  0.66666667
   0.16666667  0.00000000  0.83333333
   0.16666667  0.16666667  0.00000000
   0.16666667  0.33333333  0.16666667
   0.16666667  0.50000000  0.33333333
   0.33333333  0.66666667  0.66666667
   0.33333333  0.83333333  0.83333333
   0.33333333  0.00000000  0.00000000
   0.33333333  0.16666667  0.16666667
   0.33333333  0.33333333  0.33333333
   0.33333333  0.50000000  0.50000000
   0.50000000  0.66666667  0.83333333
   0.50000000  0.83333333  0.00000000
   0.50000000  0.00000000  0.16666667
   0.50000000  0.16666667  0.33333333
   0.50000000  0.33333333  0.50000000
   0.83333333  0.50000000  0.66666667
   0.00000000  0.33333333  0.66666667
   0.00000000  0.50000000  0.83333333
   0.16666667  0.16666667  0.66666667
   0.16666667  0.33333333  0.83333333
   0.16666667  0.50000000  0.00000000
   0.33333333  0.00000000  0.66666667
   0.33333333  0.16666667  0.83333333
   0.33333333  0.33333333  0.00000000
   0.33333333  0.50000000  0.16666667
   0.50000000  0.83333333  0.66666667
   0.50000000  0.00000000  0.83333333
   0.50000000  0.16666667  0.00000000
   0.50000000  0.33333333  0.16666667
   0.50000000  0.50000000  0.33333333
   0.16666667  0.50000000  0.66666667
   0.33333333  0.33333333  0.66666667
   0.33333333  0.50000000  0.83333333
   0.50000000  0.16666667  0.66666667
   0.50000000  0.33333333  0.83333333
   0.50000000  0.50000000  0.00000000
   0.50000000  0.50000000  0.66666667
 
 position of ions in cartesian coordinates  (Angst):
   7.78120535  7.78120521  3.89060251
   7.78120542  9.72650644  5.83590382
   9.72650658  7.78120524  5.83590382
   7.78120528  7.78120514  0.00000000
   7.78120535  9.72650637  1.94530131
   7.78120521  0.00000007  3.89060251
   7.78120528  1.94530142  5.83590382
   9.72650651  7.78120517  1.94530131
   9.72650658  9.72650641  3.89060251
   9.72650644  0.00000011  5.83590382
   0.00000021  7.78120521  3.89060251
   0.00000028  9.72650644  5.83590382
   1.94530156  7.78120524  5.83590382
   7.78120542  7.78120528  7.78120514
   7.78120549  9.72650651  9.72650634
   7.78120514  0.00000000  0.00000000
   7.78120521  1.94530135  1.94530131
   7.78120528  3.89060258  3.89060251
   7.78120535  5.83590393  5.83590382
   9.72650665  7.78120531  9.72650634
   9.72650651  9.72650634  0.00000000
   9.72650637  0.00000004  1.94530131
   9.72650644  1.94530138  3.89060251
   9.72650651  3.89060262  5.83590382
   0.00000014  7.78120514  0.00000000
   0.00000021  9.72650637  1.94530131
   0.00000007  0.00000007  3.89060251
   0.00000014  1.94530142  5.83590382
   1.94530149  7.78120517  1.94530131
   1.94530156  9.72650641  3.89060251
   1.94530142  0.00000011  5.83590382
   3.89060272  7.78120521  3.89060251
   3.89060279  9.72650644  5.83590382
   5.83590407  7.78120524  5.83590382
   7.78120528  0.00000014  7.78120514
   7.78120535  1.94530149  9.72650634
   7.78120521  3.89060251  0.00000000
   7.78120528  5.83590386  1.94530131
   9.72650665  9.72650648  7.78120514
   9.72650651  0.00000017  9.72650634
   9.72650637  1.94530131  0.00000000
   9.72650644  3.89060255  1.94530131
   9.72650651  5.83590389  3.89060251
   0.00000028  7.78120528  7.78120514
   0.00000035  9.72650651  9.72650634
   0.02000548  0.00000000  0.00000000
   0.00000007  1.94530135  1.94530131
   0.00000014  3.89060258  3.89060251
   0.00000021  5.83590393  5.83590382
   1.94530163  7.78120531  9.72650634
   1.94530149  9.72650634  0.00000000
   1.94530135  0.00000004  1.94530131
   1.94530142  1.94530138  3.89060251
   1.94530149  3.89060262  5.83590382
   3.89060265  7.78120514  0.00000000
   3.89060272  9.72650637  1.94530131
   3.89060258  0.00000007  3.89060251
   3.89060265  1.94530142  5.83590382
   5.83590400  7.78120517  1.94530131
   5.83590407  9.72650641  3.89060251
   5.83590393  0.00000011  5.83590382
   7.78120535  3.89060265  7.78120514
   7.78120542  5.83590400  9.72650634
   9.72650651  1.94530145  7.78120514
   9.72650658  3.89060269  9.72650634
   9.72650644  5.83590382  0.00000000
   0.00000014  0.00000014  7.78120514
   0.00000021  1.94530149  9.72650634
   0.00000007  3.89060251  0.00000000
   0.00000014  5.83590386  1.94530131
   1.94530163  9.72650648  7.78120514
   1.94530149  0.00000017  9.72650634
   1.94530135  1.94530131  0.00000000
   1.94530142  3.89060255  1.94530131
   1.94530149  5.83590389  3.89060251
   3.89060279  7.78120528  7.78120514
   3.89060286  9.72650651  9.72650634
   3.89060251  0.00000000  0.00000000
   3.89060258  1.94530135  1.94530131
   3.89060265  3.89060258  3.89060251
   3.89060272  5.83590393  5.83590382
   5.83590414  7.78120531  9.72650634
   5.83590400  9.72650634  0.00000000
   5.83590386  0.00000004  1.94530131
   5.83590393  1.94530138  3.89060251
   5.83590400  3.89060262  5.83590382
   9.72650658  5.83590397  7.78120514
   0.00000021  3.89060265  7.78120514
   0.00000028  5.83590400  9.72650634
   1.94530149  1.94530145  7.78120514
   1.94530156  3.89060269  9.72650634
   1.94530142  5.83590382  0.00000000
   3.89060265  0.00000014  7.78120514
   3.89060272  1.94530149  9.72650634
   3.89060258  3.89060251  0.00000000
   3.89060265  5.83590386  1.94530131
   5.83590414  9.72650648  7.78120514
   5.83590400  0.00000017  9.72650634
   5.83590386  1.94530131  0.00000000
   5.83590393  3.89060255  1.94530131
   5.83590400  5.83590389  3.89060251
   1.94530156  5.83590397  7.78120514
   3.89060272  3.89060265  7.78120514
   3.89060279  5.83590400  9.72650634
   5.83590400  1.94530145  7.78120514
   5.83590407  3.89060269  9.72650634
   5.83590393  5.83590382  0.00000000
   5.83590407  5.83590397  7.78120514
 


--------------------------------------------------------------------------------------------------------


 k-point  1 :  0.25000.25000.2500  plane waves:  16293

 maximum and minimum number of plane-waves per node :  16293 16293

 maximum number of plane-waves:  16293
 maximal index in each direction: 
   IXMAX= 15   IYMAX= 15   IZMAX= 15
   IXMIN=-15   IYMIN=-15   IZMIN=-15

 WARNING: wrap around error must be expected set NGX to  62
 WARNING: wrap around error must be expected set NGY to  62
 WARNING: wrap around error must be expected set NGZ to  62

 parallel 3dFFT wavefunction:
    minimum data exchange during FFTs selected (reduces bandwidth)
 parallel 3dFFT charge:
    minimum data exchange during FFTs selected (reduces bandwidth)

 For storing wavefunctions  185.61 MBYTES are necessary
 For predicting wavefunctions  418.52 MBYTES are necessary
Broyden mixing: mesh for mixing (old mesh)
   NGX = 31   NGY = 31   NGZ = 31
  (NGX  = 96   NGY  = 96   NGZ  = 96)
 gives a total of  29791 points
 charge density for first step will be calculated from the start-wavefunctions


--------------------------------------------------------------------------------------------------------


 Maximum index for augmentation-charges          585 (set IRDMAX)


--------------------------------------------------------------------------------------------------------


 initial charge from wavefunction
 First call to EWALD:  gamma=   0.152
 Maximum number of real-space cells 3x 3x 3
 Maximum number of reciprocal cells 3x 3x 3

    FEWALD:  VPU time    0.07: CPU time    0.07


----------------------------------------- Iteration    1(   1)  ---------------------------------------


    POTLOK:  VPU time    0.30: CPU time    0.30
    SETDIJ:  VPU time    0.07: CPU time    0.07
    EDDAV :  VPU time   71.14: CPU time   71.20
    DOS   :  VPU time    0.00: CPU time   -0.00
    CHARGE:  VPU time    0.38: CPU time    0.38
    MIXING:  VPU time    0.01: CPU time    0.01
    ------------------------------------------
      LOOP:  VPU time   71.93: CPU time   72.00

 eigenvalue-minimisations  :  1472
 total energy-change (2. order) :-0.3822445E+03  (-0.2209098E+00)
 number of electron 1188.0039034 magnetization 
 augmentation part   781.8687457 magnetization 

 Broyden mixing:
  rms(total) = 0.68273E-01    rms(broyden)= 0.68157E-01
  rms(prec ) = 0.14206E+00
  weight for this iteration     100.00

 Free energy of the ion-electron system (eV)
  ---------------------------------------------------
  alpha Z        PSCENC =      9372.09229896
  Ewald energy   TEWEN  =   -110877.72867572
  -1/2 Hartree   DENC   =    -37715.53445254
  -V(xc)+E(xc)   XCENC  =      4580.48547487
  PAW double counting   =    115989.13335899  -131537.42702868
  entropy T*S    EENTRO =         0.09280787
  eigenvalues    EBANDS =      -414.93336166
  atomic energy  EATOM  =    150221.57506482
  ---------------------------------------------------
  free energy    TOTEN  =      -382.24451309 eV

  energy without entropy =     -382.33732096  energy(sigma->0) =     -382.27544904


--------------------------------------------------------------------------------------------------------




----------------------------------------- Iteration    1(   2)  ---------------------------------------


    POTLOK:  VPU time    0.27: CPU time    0.27
    SETDIJ:  VPU time    0.06: CPU time    0.06
    EDDAV :  VPU time   74.58: CPU time   74.60
    DOS   :  VPU time    0.00: CPU time   -0.00
    CHARGE:  VPU time    0.38: CPU time    0.38
    MIXING:  VPU time    0.01: CPU time    0.01
    ------------------------------------------
      LOOP:  VPU time   75.34: CPU time   75.36

 eigenvalue-minimisations  :  1584
 total energy-change (2. order) : 0.1357295E-02  (-0.1028299E-01)
 number of electron 1188.0039034 magnetization 
 augmentation part   781.8489978 magnetization 

 Broyden mixing:
  rms(total) = 0.10259E+00    rms(broyden)= 0.10256E+00
  rms(prec ) = 0.16078E+00
  weight for this iteration     100.00

 eigenvalues of (default mixing * dielectric matrix)
  average eigenvalue GAMMA=   0.3481
  0.3481

 Free energy of the ion-electron system (eV)
  ---------------------------------------------------
  alpha Z        PSCENC =      9372.09229896
  Ewald energy   TEWEN  =   -110877.72867572
  -1/2 Hartree   DENC   =    -37716.23801996
  -V(xc)+E(xc)   XCENC  =      4580.51884096
  PAW double counting   =    115990.45131323  -131539.09421056
  entropy T*S    EENTRO =         0.09144013
  eigenvalues    EBANDS =      -413.91120765
  atomic energy  EATOM  =    150221.57506482
  ---------------------------------------------------
  free energy    TOTEN  =      -382.24315579 eV

  energy without entropy =     -382.33459592  energy(sigma->0) =     -382.27363584


--------------------------------------------------------------------------------------------------------




----------------------------------------- Iteration    1(   3)  ---------------------------------------


    POTLOK:  VPU time    0.27: CPU time    0.27
    SETDIJ:  VPU time    0.06: CPU time    0.06
    EDDAV :  VPU time   74.84: CPU time   74.86
    DOS   :  VPU time    0.00: CPU time   -0.00
    CHARGE:  VPU time    0.40: CPU time    0.40
    MIXING:  VPU time    0.01: CPU time    0.01
    ------------------------------------------
      LOOP:  VPU time   75.62: CPU time   75.63

 eigenvalue-minimisations  :  1584
 total energy-change (2. order) : 0.2380090E-01  (-0.5506162E-02)
 number of electron 1188.0039034 magnetization 
 augmentation part   781.8611772 magnetization 

 Broyden mixing:
  rms(total) = 0.27967E-01    rms(broyden)= 0.27931E-01
  rms(prec ) = 0.43688E-01
  weight for this iteration     100.00

 eigenvalues of (default mixing * dielectric matrix)
  average eigenvalue GAMMA=   0.8083
  1.2301  0.3865

 Free energy of the ion-electron system (eV)
  ---------------------------------------------------
  alpha Z        PSCENC =      9372.09229896
  Ewald energy   TEWEN  =   -110877.72867572
  -1/2 Hartree   DENC   =    -37716.10128356
  -V(xc)+E(xc)   XCENC  =      4580.51210864
  PAW double counting   =    115990.13244603  -131538.73496468
  entropy T*S    EENTRO =         0.09180070
  eigenvalues    EBANDS =      -414.05815010
  atomic energy  EATOM  =    150221.57506482
  ---------------------------------------------------
  free energy    TOTEN  =      -382.21935490 eV

  energy without entropy =     -382.31115560  energy(sigma->0) =     -382.24995513


--------------------------------------------------------------------------------------------------------




----------------------------------------- Iteration    1(   4)  ---------------------------------------


    POTLOK:  VPU time    0.29: CPU time    0.29
    SETDIJ:  VPU time    0.07: CPU time    0.07
    EDDAV :  VPU time  118.22: CPU time  118.26
    DOS   :  VPU time    0.00: CPU time   -0.00
    CHARGE:  VPU time    0.38: CPU time    0.38
    MIXING:  VPU time    0.01: CPU time    0.01
    ------------------------------------------
      LOOP:  VPU time  119.00: CPU time  119.04

 eigenvalue-minimisations  :  2096
 total energy-change (2. order) : 0.7634278E-04  (-0.2256309E-02)
 number of electron 1188.0039034 magnetization 
 augmentation part   781.8547055 magnetization 

 Broyden mixing:
  rms(total) = 0.19680E-01    rms(broyden)= 0.19672E-01
  rms(prec ) = 0.28334E-01
  weight for this iteration     100.00

 eigenvalues of (default mixing * dielectric matrix)
  average eigenvalue GAMMA=   0.9030
  1.8722  0.4184  0.4184

 Free energy of the ion-electron system (eV)
  ---------------------------------------------------
  alpha Z        PSCENC =      9372.09229896
  Ewald energy   TEWEN  =   -110877.72867572
  -1/2 Hartree   DENC   =    -37716.29702229
  -V(xc)+E(xc)   XCENC  =      4580.52138669
  PAW double counting   =    115990.43173693  -131539.12013654
  entropy T*S    EENTRO =         0.09158273
  eigenvalues    EBANDS =      -413.78551413
  atomic energy  EATOM  =    150221.57506482
  ---------------------------------------------------
  free energy    TOTEN  =      -382.21927855 eV

  energy without entropy =     -382.31086128  energy(sigma->0) =     -382.24980613


--------------------------------------------------------------------------------------------------------




----------------------------------------- Iteration    1(   5)  ---------------------------------------


    POTLOK:  VPU time    0.27: CPU time    0.27
    SETDIJ:  VPU time    0.06: CPU time    0.07
    EDDAV :  VPU time   75.12: CPU time   75.14
    DOS   :  VPU time    0.00: CPU time   -0.00
    CHARGE:  VPU time    0.38: CPU time    0.38
    MIXING:  VPU time    0.01: CPU time    0.01
    ------------------------------------------
      LOOP:  VPU time   75.88: CPU time   75.90

 eigenvalue-minimisations  :  1592
 total energy-change (2. order) : 0.3871555E-03  (-0.4803685E-03)
 number of electron 1188.0039034 magnetization 
 augmentation part   781.8550213 magnetization 

 Broyden mixing:
  rms(total) = 0.65153E-02    rms(broyden)= 0.65080E-02
  rms(prec ) = 0.84467E-02
  weight for this iteration     100.00

 eigenvalues of (default mixing * dielectric matrix)
  average eigenvalue GAMMA=   0.9404
  1.8098  1.1197  0.3742  0.4577

 Free energy of the ion-electron system (eV)
  ---------------------------------------------------
  alpha Z        PSCENC =      9372.09229896
  Ewald energy   TEWEN  =   -110877.72867572
  -1/2 Hartree   DENC   =    -37716.27131984
  -V(xc)+E(xc)   XCENC  =      4580.52000467
  PAW double counting   =    115990.36270702  -131539.03570950
  entropy T*S    EENTRO =         0.09162465
  eigenvalues    EBANDS =      -413.82488644
  atomic energy  EATOM  =    150221.57506482
  ---------------------------------------------------
  free energy    TOTEN  =      -382.21889140 eV

  energy without entropy =     -382.31051605  energy(sigma->0) =     -382.24943295


--------------------------------------------------------------------------------------------------------




----------------------------------------- Iteration    1(   6)  ---------------------------------------


    POTLOK:  VPU time    0.27: CPU time    0.27
    SETDIJ:  VPU time    0.07: CPU time    0.07
    EDDAV :  VPU time   72.00: CPU time   72.01
    DOS   :  VPU time    0.00: CPU time   -0.00
    CHARGE:  VPU time    0.38: CPU time    0.38
    MIXING:  VPU time    0.01: CPU time    0.01
    ------------------------------------------
      LOOP:  VPU time   72.76: CPU time   72.77

 eigenvalue-minimisations  :  1512
 total energy-change (2. order) :-0.5448560E-04  (-0.1283917E-03)
 number of electron 1188.0039034 magnetization 
 augmentation part   781.8571150 magnetization 

 Broyden mixing:
  rms(total) = 0.45822E-02    rms(broyden)= 0.45812E-02
  rms(prec ) = 0.54302E-02
  weight for this iteration     100.00

 eigenvalues of (default mixing * dielectric matrix)
  average eigenvalue GAMMA=   1.0123
  1.9582  1.6848  0.6294  0.4273  0.3618

 Free energy of the ion-electron system (eV)
  ---------------------------------------------------
  alpha Z        PSCENC =      9372.09229896
  Ewald energy   TEWEN  =   -110877.72867572
  -1/2 Hartree   DENC   =    -37716.19024202
  -V(xc)+E(xc)   XCENC  =      4580.51596266
  PAW double counting   =    115990.20593229  -131538.83470505
  entropy T*S    EENTRO =         0.09172481
  eigenvalues    EBANDS =      -413.94630664
  atomic energy  EATOM  =    150221.57506482
  ---------------------------------------------------
  free energy    TOTEN  =      -382.21894588 eV

  energy without entropy =     -382.31067069  energy(sigma->0) =     -382.24952082


--------------------------------------------------------------------------------------------------------




----------------------------------------- Iteration    1(   7)  ---------------------------------------


    POTLOK:  VPU time    0.30: CPU time    0.30
    SETDIJ:  VPU time    0.06: CPU time    0.07
    EDDAV :  VPU time   73.07: CPU time   73.09
    DOS   :  VPU time    0.00: CPU time   -0.00
    CHARGE:  VPU time    0.38: CPU time    0.38
    MIXING:  VPU time    0.01: CPU time    0.01
    ------------------------------------------
      LOOP:  VPU time   73.86: CPU time   73.88

 eigenvalue-minimisations  :  1544
 total energy-change (2. order) :-0.2364090E-04  (-0.4388609E-04)
 number of electron 1188.0039034 magnetization 
 augmentation part   781.8563250 magnetization 

 Broyden mixing:
  rms(total) = 0.42201E-02    rms(broyden)= 0.42189E-02
  rms(prec ) = 0.54767E-02
  weight for this iteration     100.00

 eigenvalues of (default mixing * dielectric matrix)
  average eigenvalue GAMMA=   1.0007
  2.4695  1.1832  1.1832  0.4396  0.3809  0.3479

 Free energy of the ion-electron system (eV)
  ---------------------------------------------------
  alpha Z        PSCENC =      9372.09229896
  Ewald energy   TEWEN  =   -110877.72867572
  -1/2 Hartree   DENC   =    -37716.21280533
  -V(xc)+E(xc)   XCENC  =      4580.51711635
  PAW double counting   =    115990.25762486  -131538.89561383
  entropy T*S    EENTRO =         0.09169804
  eigenvalues    EBANDS =      -413.91567768
  atomic energy  EATOM  =    150221.57506482
  ---------------------------------------------------
  free energy    TOTEN  =      -382.21896952 eV

  energy without entropy =     -382.31066756  energy(sigma->0) =     -382.24953554


--------------------------------------------------------------------------------------------------------




----------------------------------------- Iteration    1(   8)  ---------------------------------------


    POTLOK:  VPU time    0.27: CPU time    0.27
    SETDIJ:  VPU time    0.06: CPU time    0.06
    EDDAV :  VPU time   73.04: CPU time   73.06
    DOS   :  VPU time    0.00: CPU time   -0.00
    CHARGE:  VPU time    0.38: CPU time    0.38
    MIXING:  VPU time    0.01: CPU time    0.01
    ------------------------------------------
      LOOP:  VPU time   73.80: CPU time   73.82

 eigenvalue-minimisations  :  1544
 total energy-change (2. order) : 0.1809481E-04  (-0.1561963E-04)
 number of electron 1188.0039034 magnetization 
 augmentation part   781.8558337 magnetization 

 Broyden mixing:
  rms(total) = 0.12651E-02    rms(broyden)= 0.12640E-02
  rms(prec ) = 0.16206E-02
  weight for this iteration     100.00

 eigenvalues of (default mixing * dielectric matrix)
  average eigenvalue GAMMA=   0.9740
  2.5356  1.1871  1.1871  0.7199  0.4221  0.3713  0.3949

 Free energy of the ion-electron system (eV)
  ---------------------------------------------------
  alpha Z        PSCENC =      9372.09229896
  Ewald energy   TEWEN  =   -110877.72867572
  -1/2 Hartree   DENC   =    -37716.22562445
  -V(xc)+E(xc)   XCENC  =      4580.51776572
  PAW double counting   =    115990.28927932  -131538.93252031
  entropy T*S    EENTRO =         0.09168371
  eigenvalues    EBANDS =      -413.89822348
  atomic energy  EATOM  =    150221.57506482
  ---------------------------------------------------
  free energy    TOTEN  =      -382.21895143 eV

  energy without entropy =     -382.31063514  energy(sigma->0) =     -382.24951267


--------------------------------------------------------------------------------------------------------




----------------------------------------- Iteration    1(   9)  ---------------------------------------


    POTLOK:  VPU time    0.27: CPU time    0.27
    SETDIJ:  VPU time    0.06: CPU time    0.07
    EDDAV :  VPU time   44.80: CPU time   44.81
    DOS   :  VPU time    0.00: CPU time   -0.00
    ------------------------------------------
      LOOP:  VPU time   45.16: CPU time   45.17

 eigenvalue-minimisations  :   792
 total energy-change (2. order) : 0.2298795E-05  (-0.2255748E-05)
 number of electron 1188.0039034 magnetization 
 augmentation part   781.8558337 magnetization 

 Free energy of the ion-electron system (eV)
  ---------------------------------------------------
  alpha Z        PSCENC =      9372.09229896
  Ewald energy   TEWEN  =   -110877.72867572
  -1/2 Hartree   DENC   =    -37716.20930413
  -V(xc)+E(xc)   XCENC  =      4580.51692429
  PAW double counting   =    115990.26156512  -131538.89616635
  entropy T*S    EENTRO =         0.09170423
  eigenvalues    EBANDS =      -413.92236035
  atomic energy  EATOM  =    150221.57506482
  ---------------------------------------------------
  free energy    TOTEN  =      -382.21894913 eV

  energy without entropy =     -382.31065336  energy(sigma->0) =     -382.24951721


--------------------------------------------------------------------------------------------------------




 average (electrostatic) potential at core
  the test charge radii are     1.0053
  (the norm of the test charge is              1.0000)
       1 -41.1545       2 -41.1545       3 -41.1544       4 -41.1545       5 -41.1546
       6 -41.1545       7 -41.1545       8 -41.1545       9 -41.1545      10 -41.1546
      11 -41.1545      12 -41.1545      13 -41.1541      14 -41.1545      15 -41.1546
      16 -41.1545      17 -41.1546      18 -41.1545      19 -41.1545      20 -41.1545
      21 -41.1532      22 -41.1532      23 -41.1545      24 -41.1544      25 -41.1546
      26 -41.1547      27 -41.1546      28 -41.1545      29 -41.1544      30 -41.1544
      31 -41.1544      32 -41.1542      33 -41.1542      34 -41.1542      35 -41.1545
      36 -41.1546      37 -41.1545      38 -41.1545      39 -41.1545      40 -41.1532
      41 -41.1532      42 -41.1545      43 -41.1544      44 -41.1545      45 -41.1547
      46 -41.1545      47 -41.1547      48 -41.1545      49 -41.1544      50 -41.1544
      51 -41.1565      52 -41.1565      53 -41.1544      54 -41.1541      55 -41.1546
      56 -41.1545      57 -41.1546      58 -41.1542      59 -41.1544      60 -41.1544
      61 -41.1545      62 -41.1545      63 -41.1545      64 -41.1545      65 -41.1545
      66 -41.1546      67 -41.1546      68 -41.1547      69 -41.1546      70 -41.1545
      71 -41.1544      72 -41.1565      73 -41.1565      74 -41.1544      75 -41.1541
      76 -41.1542      77 -41.1545      78 -41.1548      79 -41.1545      80 -41.1542
      81 -41.1539      82 -41.1544      83 -41.1546      84 -41.1546      85 -41.1544
      86 -41.1542      87 -41.1544      88 -41.1545      89 -41.1545      90 -41.1544
      91 -41.1544      92 -41.1544      93 -41.1546      94 -41.1545      95 -41.1546
      96 -41.1542      97 -41.1544      98 -41.1546      99 -41.1546     100 -41.1544
     101 -41.1542     102 -41.1541     103 -41.1542     104 -41.1542     105 -41.1544
     106 -41.1544     107 -41.1545     108 -41.1542
 
 
 
 E-fermi :   1.9969     XC(G=0): -11.5565     alpha+bet : -7.7256
   add alpha+bet to get absolut eigen values

 k-point   1 :       0.2500    0.2500    0.2500
  band No.  band energies     occupation 
      1      -5.4719      2.00000
      2      -4.9069      2.00000
      3      -4.9062      2.00000
      4      -4.9054      2.00000
      5      -4.3616      2.00000
      6      -4.3608      2.00000
      7      -4.3601      2.00000
      8      -3.8506      2.00000
      9      -3.8321      2.00000
     10      -3.8313      2.00000
     11      -3.8306      2.00000
     12      -3.3411      2.00000
     13      -3.3398      2.00000
     14      -3.3394      2.00000
     15      -3.3394      2.00000
     16      -3.3391      2.00000
     17      -3.3379      2.00000
     18      -2.9294      2.00000
     19      -2.9287      2.00000
     20      -2.9281      2.00000
     21      -2.4937      2.00000
     22      -2.4930      2.00000
     23      -2.4925      2.00000
     24      -2.4722      2.00000
     25      -2.4715      2.00000
     26      -2.4708      2.00000
     27      -2.2814      2.00000
     28      -2.2809      2.00000
     29      -2.2805      2.00000
     30      -2.1178      2.00000
     31      -2.1168      2.00000
     32      -2.1165      2.00000
     33      -2.1165      2.00000
     34      -2.1162      2.00000
     35      -2.1152      2.00000
     36      -2.0374      2.00000
     37      -1.9193      2.00000
     38      -1.9186      2.00000
     39      -1.9180      2.00000
     40      -1.7868      2.00000
     41      -1.7868      2.00000
     42      -1.7867      2.00000
     43      -1.7037      2.00000
     44      -1.7033      2.00000
     45      -1.7030      2.00000
     46      -1.6955      2.00000
     47      -1.6954      2.00000
     48      -1.6949      2.00000
     49      -1.6949      2.00000
     50      -1.6944      2.00000
     51      -1.6944      2.00000
     52      -1.5918      2.00000
     53      -1.5917      2.00000
     54      -1.5917      2.00000
     55      -1.5737      2.00000
     56      -1.5733      2.00000
     57      -1.5729      2.00000
     58      -1.5729      2.00000
     59      -1.5724      2.00000
     60      -1.5721      2.00000
     61      -1.4975      2.00000
     62      -1.4969      2.00000
     63      -1.4964      2.00000
     64      -1.4434      2.00000
     65      -1.4430      2.00000
     66      -1.4427      2.00000
     67      -1.4427      2.00000
     68      -1.4424      2.00000
     69      -1.4421      2.00000
     70      -1.3788      2.00000
     71      -1.3784      2.00000
     72      -1.3782      2.00000
     73      -1.3782      2.00000
     74      -1.3780      2.00000
     75      -1.3776      2.00000
     76      -1.3498      2.00000
     77      -1.3497      2.00000
     78      -1.3497      2.00000
     79      -1.2825      2.00000
     80      -1.2824      2.00000
     81      -1.2820      2.00000
     82      -1.2820      2.00000
     83      -1.2817      2.00000
     84      -1.2816      2.00000
     85      -1.2707      2.00000
     86      -1.2706      2.00000
     87      -1.2706      2.00000
     88      -1.2286      2.00000
     89      -1.2283      2.00000
     90      -1.2279      2.00000
     91      -1.2025      2.00000
     92      -1.2023      2.00000
     93      -1.2020      2.00000
     94      -1.1518      2.00000
     95      -1.1516      2.00000
     96      -1.1513      2.00000
     97      -1.1382      2.00000
     98      -1.1382      2.00000
     99      -1.1379      2.00000
    100      -1.1379      2.00000
    101      -1.1376      2.00000
    102      -1.1375      2.00000
    103      -1.0988      2.00000
    104      -1.0980      2.00000
    105      -1.0979      2.00000
    106      -1.0979      2.00000
    107      -1.0978      2.00000
    108      -1.0973      2.00000
    109      -1.0965      2.00000
    110      -1.0960      2.00000
    111      -1.0958      2.00000
    112      -1.0958      2.00000
    113      -1.0955      2.00000
    114      -1.0948      2.00000
    115      -1.0344      2.00000
    116      -1.0342      2.00000
    117      -1.0341      2.00000
    118      -1.0338      2.00000
    119      -1.0337      2.00000
    120      -1.0335      2.00000
    121      -1.0334      2.00000
    122      -1.0332      2.00000
    123      -1.0330      2.00000
    124      -1.0276      2.00000
    125      -1.0273      2.00000
    126      -1.0271      2.00000
    127      -1.0271      2.00000
    128      -1.0268      2.00000
    129      -1.0266      2.00000
    130      -0.9430      2.00000
    131      -0.9427      2.00000
    132      -0.9425      2.00000
    133      -0.8970      2.00000
    134      -0.8964      2.00000
    135      -0.8964      2.00000
    136      -0.8964      2.00000
    137      -0.8963      2.00000
    138      -0.8959      2.00000
    139      -0.8947      2.00000
    140      -0.8947      2.00000
    141      -0.8945      2.00000
    142      -0.8832      2.00000
    143      -0.8831      2.00000
    144      -0.8829      2.00000
    145      -0.8828      2.00000
    146      -0.8825      2.00000
    147      -0.8825      2.00000
    148      -0.8551      2.00000
    149      -0.8546      2.00000
    150      -0.8544      2.00000
    151      -0.8544      2.00000
    152      -0.8542      2.00000
    153      -0.8538      2.00000
    154      -0.8347      2.00000
    155      -0.8343      2.00000
    156      -0.8341      2.00000
    157      -0.8341      2.00000
    158      -0.8340      2.00000
    159      -0.8335      2.00000
    160      -0.7300      2.00000
    161      -0.7294      2.00000
    162      -0.7293      2.00000
    163      -0.7293      2.00000
    164      -0.7292      2.00000
    165      -0.7287      2.00000
    166      -0.6999      2.00000
    167      -0.6996      2.00000
    168      -0.6994      2.00000
    169      -0.6871      2.00000
    170      -0.6868      2.00000
    171      -0.6865      2.00000
    172      -0.6780      2.00000
    173      -0.6775      2.00000
    174      -0.6773      2.00000
    175      -0.6773      2.00000
    176      -0.6771      2.00000
    177      -0.6768      2.00000
    178      -0.6672      2.00000
    179      -0.6669      2.00000
    180      -0.6668      2.00000
    181      -0.6641      2.00000
    182      -0.6636      2.00000
    183      -0.6635      2.00000
    184      -0.6635      2.00000
    185      -0.6633      2.00000
    186      -0.6627      2.00000
    187      -0.6385      2.00000
    188      -0.6383      2.00000
    189      -0.6380      2.00000
    190      -0.5952      2.00000
    191      -0.5947      2.00000
    192      -0.5944      2.00000
    193      -0.5944      2.00000
    194      -0.5942      2.00000
    195      -0.5937      2.00000
    196      -0.5565      2.00000
    197      -0.5563      2.00000
    198      -0.5560      2.00000
    199      -0.5455      2.00000
    200      -0.5453      2.00000
    201      -0.5450      2.00000
    202      -0.5450      2.00000
    203      -0.5448      2.00000
    204      -0.5445      2.00000
    205      -0.5267      2.00000
    206      -0.5265      2.00000
    207      -0.5262      2.00000
    208      -0.5201      2.00000
    209      -0.5198      2.00000
    210      -0.5194      2.00000
    211      -0.5088      2.00000
    212      -0.5086      2.00000
    213      -0.5083      2.00000
    214      -0.4952      2.00000
    215      -0.4887      2.00000
    216      -0.4884      2.00000
    217      -0.4883      2.00000
    218      -0.4882      2.00000
    219      -0.4881      2.00000
    220      -0.4878      2.00000
    221      -0.4873      2.00000
    222      -0.4871      2.00000
    223      -0.4869      2.00000
    224      -0.4636      2.00000
    225      -0.4635      2.00000
    226      -0.4633      2.00000
    227      -0.4633      2.00000
    228      -0.4632      2.00000
    229      -0.4630      2.00000
    230      -0.4566      2.00000
    231      -0.4566      2.00000
    232      -0.4563      2.00000
    233      -0.4563      2.00000
    234      -0.4561      2.00000
    235      -0.4561      2.00000
    236      -0.4093      2.00000
    237      -0.4093      2.00000
    238      -0.4092      2.00000
    239      -0.3826      2.00000
    240      -0.3824      2.00000
    241      -0.3821      2.00000
    242      -0.3760      2.00000
    243      -0.3756      2.00000
    244      -0.3754      2.00000
    245      -0.3754      2.00000
    246      -0.3752      2.00000
    247      -0.3748      2.00000
    248      -0.3717      2.00000
    249      -0.3536      2.00000
    250      -0.3536      2.00000
    251      -0.3533      2.00000
    252      -0.3532      2.00000
    253      -0.3531      2.00000
    254      -0.3530      2.00000
    255      -0.3529      2.00000
    256      -0.3527      2.00000
    257      -0.3527      2.00000
    258      -0.3338      2.00000
    259      -0.3336      2.00000
    260      -0.3334      2.00000
    261      -0.3314      2.00000
    262      -0.3313      2.00000
    263      -0.3028      2.00000
    264      -0.3027      2.00000
    265      -0.2948      2.00000
    266      -0.2948      2.00000
    267      -0.2946      2.00000
    268      -0.2937      2.00000
    269      -0.2936      2.00000
    270      -0.2936      2.00000
    271      -0.2847      2.00000
    272      -0.2846      2.00000
    273      -0.2845      2.00000
    274      -0.2622      2.00000
    275      -0.2621      2.00000
    276      -0.2619      2.00000
    277      -0.2619      2.00000
    278      -0.2618      2.00000
    279      -0.2617      2.00000
    280      -0.2509      2.00000
    281      -0.2505      2.00000
    282      -0.2504      2.00000
    283      -0.2504      2.00000
    284      -0.2502      2.00000
    285      -0.2499      2.00000
    286      -0.2486      2.00000
    287      -0.2486      2.00000
    288      -0.2485      2.00000
    289      -0.2484      2.00000
    290      -0.2481      2.00000
    291      -0.2477      2.00000
    292      -0.2227      2.00000
    293      -0.2227      2.00000
    294      -0.2115      2.00000
    295      -0.2111      2.00000
    296      -0.2108      2.00000
    297      -0.2106      2.00000
    298      -0.2105      2.00000
    299      -0.2102      2.00000
    300      -0.2087      2.00000
    301      -0.2085      2.00000
    302      -0.2083      2.00000
    303      -0.2083      2.00000
    304      -0.2082      2.00000
    305      -0.2081      2.00000
    306      -0.2080      2.00000
    307      -0.2078      2.00000
    308      -0.2076      2.00000
    309      -0.1943      2.00000
    310      -0.1942      2.00000
    311      -0.1942      2.00000
    312      -0.1735      2.00000
    313      -0.1733      2.00000
    314      -0.1731      2.00000
    315      -0.1508      2.00000
    316      -0.1506      2.00000
    317      -0.1505      2.00000
    318      -0.1500      2.00000
    319      -0.1500      2.00000
    320      -0.1496      2.00000
    321      -0.1496      2.00000
    322      -0.1494      2.00000
    323      -0.1493      2.00000
    324      -0.1473      2.00000
    325      -0.1469      2.00000
    326      -0.1466      2.00000
    327      -0.1464      2.00000
    328      -0.1460      2.00000
    329      -0.1459      2.00000
    330      -0.1372      2.00000
    331      -0.1369      2.00000
    332      -0.1366      2.00000
    333      -0.1286      2.00000
    334      -0.1285      2.00000
    335      -0.1283      2.00000
    336      -0.0695      2.00000
    337      -0.0690      2.00000
    338      -0.0687      2.00000
    339      -0.0674      2.00000
    340      -0.0670      2.00000
    341      -0.0667      2.00000
    342      -0.0555      2.00000
    343      -0.0552      2.00000
    344      -0.0549      2.00000
    345      -0.0549      2.00000
    346      -0.0546      2.00000
    347      -0.0543      2.00000
    348      -0.0261      2.00000
    349      -0.0257      2.00000
    350      -0.0254      2.00000
    351       0.0122      2.00000
    352       0.0123      2.00000
    353       0.0125      2.00000
    354       0.0125      2.00000
    355       0.0127      2.00000
    356       0.0127      2.00000
    357       0.0476      2.00000
    358       0.0477      2.00000
    359       0.0478      2.00000
    360       0.0519      2.00000
    361       0.0521      2.00000
    362       0.0522      2.00000
    363       0.0522      2.00000
    364       0.0524      2.00000
    365       0.0526      2.00000
    366       0.0676      2.00000
    367       0.0677      2.00000
    368       0.0679      2.00000
    369       0.0679      2.00000
    370       0.0682      2.00000
    371       0.0682      2.00000
    372       0.1259      2.00000
    373       0.1259      2.00000
    374       0.1260      2.00000
    375       0.1389      2.00000
    376       0.1390      2.00000
    377       0.1393      2.00000
    378       0.1397      2.00000
    379       0.1399      2.00000
    380       0.1400      2.00000
    381       0.1401      2.00000
    382       0.1402      2.00000
    383       0.1403      2.00000
    384       0.1403      2.00000
    385       0.1403      2.00000
    386       0.1405      2.00000
    387       0.1405      2.00000
    388       0.1407      2.00000
    389       0.1411      2.00000
    390       0.1796      2.00000
    391       0.1798      2.00000
    392       0.1800      2.00000
    393       0.1800      2.00000
    394       0.1801      2.00000
    395       0.1803      2.00000
    396       0.1919      2.00000
    397       0.1921      2.00000
    398       0.1923      2.00000
    399       0.1923      2.00000
    400       0.1924      2.00000
    401       0.1926      2.00000
    402       0.1943      2.00000
    403       0.1944      2.00000
    404       0.1945      2.00000
    405       0.2136      2.00000
    406       0.2138      2.00000
    407       0.2139      2.00000
    408       0.2146      2.00000
    409       0.2149      2.00000
    410       0.2150      2.00000
    411       0.2150      2.00000
    412       0.2151      2.00000
    413       0.2155      2.00000
    414       0.2408      2.00000
    415       0.2409      2.00000
    416       0.2615      2.00000
    417       0.2617      2.00000
    418       0.2619      2.00000
    419       0.2633      2.00000
    420       0.2635      2.00000
    421       0.2636      2.00000
    422       0.2636      2.00000
    423       0.2637      2.00000
    424       0.2640      2.00000
    425       0.2834      2.00000
    426       0.2838      2.00000
    427       0.2841      2.00000
    428       0.3024      2.00000
    429       0.3026      2.00000
    430       0.3028      2.00000
    431       0.3119      2.00000
    432       0.3119      2.00000
    433       0.3181      2.00000
    434       0.3184      2.00000
    435       0.3187      2.00000
    436       0.3578      2.00000
    437       0.3578      2.00000
    438       0.3580      2.00000
    439       0.3580      2.00000
    440       0.3583      2.00000
    441       0.3583      2.00000
    442       0.3628      2.00000
    443       0.3629      2.00000
    444       0.3630      2.00000
    445       0.3742      2.00000
    446       0.3743      2.00000
    447       0.3745      2.00000
    448       0.3746      2.00000
    449       0.3748      2.00000
    450       0.3749      2.00000
    451       0.4103      2.00000
    452       0.4104      2.00000
    453       0.4105      2.00000
    454       0.4278      2.00000
    455       0.4281      2.00000
    456       0.4284      2.00000
    457       0.4310      2.00000
    458       0.4313      2.00000
    459       0.4316      2.00000
    460       0.4438      2.00000
    461       0.4442      2.00000
    462       0.4443      2.00000
    463       0.4443      2.00000
    464       0.4444      2.00000
    465       0.4447      2.00000
    466       0.4457      2.00000
    467       0.4460      2.00000
    468       0.4464      2.00000
    469       0.4551      2.00000
    470       0.4552      2.00000
    471       0.4554      2.00000
    472       0.4555      2.00000
    473       0.4555      2.00000
    474       0.4556      2.00000
    475       0.4556      2.00000
    476       0.4559      2.00000
    477       0.4559      2.00000
    478       0.5014      2.00000
    479       0.5015      2.00000
    480       0.5018      2.00000
    481       0.5018      2.00000
    482       0.5021      2.00000
    483       0.5023      2.00000
    484       0.5369      2.00000
    485       0.5371      2.00000
    486       0.5373      2.00000
    487       0.5593      2.00000
    488       0.5593      2.00000
    489       0.5594      2.00000
    490       0.5735      2.00000
    491       0.5735      2.00000
    492       0.5737      2.00000
    493       0.5737      2.00000
    494       0.5739      2.00000
    495       0.5739      2.00000
    496       0.5756      2.00000
    497       0.5759      2.00000
    498       0.5760      2.00000
    499       0.5760      2.00000
    500       0.5761      2.00000
    501       0.5763      2.00000
    502       0.5784      2.00000
    503       0.5785      2.00000
    504       0.5786      2.00000
    505       0.5786      2.00000
    506       0.5788      2.00000
    507       0.5788      2.00000
    508       0.5804      2.00000
    509       0.5806      2.00000
    510       0.5807      2.00000
    511       0.5807      2.00000
    512       0.5808      2.00000
    513       0.5810      2.00000
    514       0.5853      2.00000
    515       0.5854      2.00000
    516       0.5855      2.00000
    517       0.5856      2.00000
    518       0.5856      2.00000
    519       0.5856      2.00000
    520       0.6028      2.00000
    521       0.6028      2.00000
    522       0.6204      2.00000
    523       0.6205      2.00000
    524       0.6206      2.00000
    525       0.6206      2.00000
    526       0.6207      2.00000
    527       0.6209      2.00000
    528       0.6300      2.00000
    529       0.6301      2.00000
    530       0.6302      2.00000
    531       0.6302      2.00000
    532       0.6302      2.00000
    533       0.6303      2.00000
    534       0.6357      2.00000
    535       0.6358      2.00000
    536       0.6359      2.00000
    537       0.6408      2.00000
    538       0.6409      2.00000
    539       0.6410      2.00000
    540       0.6515      2.00000
    541       0.6516      2.00000
    542       0.6516      2.00000
    543       0.6572      2.00000
    544       0.6572      2.00000
    545       0.6573      2.00000
    546       0.6832      2.00000
    547       0.6832      2.00000
    548       0.6832      2.00000
    549       0.6954      2.00000
    550       0.7074      2.00000
    551       0.7074      2.00000
    552       0.7075      2.00000
    553       0.7075      2.00000
    554       0.7076      2.00000
    555       0.7076      2.00000
    556       0.7134      2.00000
    557       0.7135      2.00000
    558       0.7136      2.00000
    559       0.7136      2.00000
    560       0.7136      2.00000
    561       0.7137      2.00000
    562       0.7268      2.00000
    563       0.7268      2.00000
    564       0.7268      2.00000
    565       0.8612      2.00000
    566       0.8615      2.00000
    567       0.8618      2.00000
    568       0.9742      2.00000
    569       0.9743      2.00000
    570       0.9744      2.00000
    571       1.0297      2.00000
    572       1.0301      2.00000
    573       1.0303      2.00000
    574       1.0303      2.00000
    575       1.0304      2.00000
    576       1.0308      2.00000
    577       1.2177      2.00000
    578       1.2180      2.00000
    579       1.2183      2.00000
    580       1.5332      2.00502
    581       1.5337      2.00507
    582       1.5342      2.00512
    583       1.7835      2.06149
    584       1.7836      2.06143
    585       1.7840      2.06118
    586       1.7840      2.06118
    587       1.7844      2.06093
[...]
   0.160E+01 0.471E-02 0.471E-02   -.160E+01 -.129E-01 -.129E-01   0.920E-02 -.190E-03 -.190E-03   -.841E-02 0.835E-02 0.835E-02
   0.183E+00 -.599E-02 -.599E-02   -.189E+00 -.620E-03 -.620E-03   -.224E-02 -.207E-03 -.207E-03   0.814E-02 0.694E-02 0.694E-02
   0.910E-01 -.433E-08 -.433E-08   -.982E-01 0.450E-08 0.451E-08   -.264E-02 0.254E-20 -.678E-20   0.100E-01 0.109E-09 0.109E-09
   0.935E-01 0.288E+00 0.158E+00   -.100E+00 -.277E+00 -.151E+00   -.200E-02 0.236E-02 0.694E-03   0.947E-02 -.139E-01 -.811E-02
   -.948E+00 0.253E+01 -.291E-08   0.933E+00 -.251E+01 0.477E-09   0.186E-01 -.956E-02 0.136E-19   0.951E-03 -.188E-01 -.371E-09
   -.948E+00 -.374E-07 -.253E+01   0.933E+00 0.454E-07 0.251E+01   0.186E-01 0.172E-09 0.956E-02   0.951E-03 0.227E-09 0.188E-01
   0.935E-01 -.158E+00 -.288E+00   -.100E+00 0.151E+00 0.277E+00   -.200E-02 -.694E-03 -.236E-02   0.947E-02 0.811E-02 0.139E-01
   0.475E-01 -.487E-01 0.936E-09   -.569E-01 0.421E-01 -.611E-09   -.123E-02 -.621E-03 0.339E-20   0.105E-01 0.745E-02 -.380E-09
   -.236E+00 0.243E+00 -.312E-10   0.232E+00 -.227E+00 -.259E-09   0.435E-02 -.395E-02 0.678E-20   -.475E-03 -.118E-01 0.319E-09
   -.476E+00 0.290E+00 -.290E+00   0.472E+00 -.279E+00 0.279E+00   -.271E-02 0.252E-02 -.252E-02   0.670E-02 -.135E-01 0.135E-01
   -.236E+00 -.337E-08 -.243E+00   0.232E+00 0.367E-08 0.227E+00   0.435E-02 0.712E-10 0.395E-02   -.475E-03 0.446E-09 0.118E-01
   -.924E-01 -.497E-01 0.950E-08   0.957E-01 0.423E-01 -.941E-08   -.128E-02 -.121E-03 0.000E+00   -.181E-02 0.775E-02 -.705E-09
   -.224E+00 0.726E-02 -.731E-02   0.235E+00 -.806E-03 0.405E-03   -.166E-02 0.341E-03 -.176E-03   -.958E-02 -.694E-02 0.719E-02
   -.224E+00 0.731E-02 -.726E-02   0.235E+00 -.405E-03 0.806E-03   -.166E-02 0.176E-03 -.341E-03   -.958E-02 -.719E-02 0.694E-02
   -.179E+00 0.462E-09 0.106E-07   0.187E+00 -.623E-09 -.107E-07   0.360E-02 0.297E-20 -.136E-19   -.115E-01 0.553E-09 -.543E-09
   -.857E-01 0.612E-01 -.612E-01   0.924E-01 -.662E-01 0.662E-01   0.406E-03 -.356E-03 0.356E-03   -.755E-02 0.557E-02 -.557E-02
   -.882E-01 0.851E-08 -.355E-01   0.969E-01 -.868E-08 0.421E-01   -.836E-03 0.398E-11 0.221E-03   -.790E-02 -.393E-09 -.679E-02
   0.965E-01 0.145E+00 -.274E+00   -.963E-01 -.151E+00 0.277E+00   -.192E-02 0.557E-03 -.221E-02   0.215E-02 0.555E-02 -.268E-03
   0.965E-01 0.274E+00 -.145E+00   -.963E-01 -.277E+00 0.151E+00   -.192E-02 0.221E-02 -.557E-03   0.215E-02 0.269E-03 -.555E-02
   0.852E-01 -.448E-08 -.380E-09   -.891E-01 0.472E-08 0.307E-09   0.129E-02 0.273E-20 -.678E-20   0.237E-02 0.233E-09 -.175E-09
   0.545E+00 -.101E-08 0.314E-02   -.551E+00 0.760E-09 0.422E-02   0.218E-02 -.402E-11 -.223E-03   0.382E-02 -.522E-09 -.714E-02
   0.160E+01 0.471E-02 -.471E-02   -.160E+01 -.129E-01 0.129E-01   0.920E-02 -.190E-03 0.190E-03   -.841E-02 0.835E-02 -.835E-02
   0.545E+00 -.314E-02 -.920E-09   -.551E+00 -.422E-02 0.683E-09   0.218E-02 0.223E-03 0.136E-19   0.382E-02 0.714E-02 -.602E-09
   0.186E+00 -.124E-07 -.596E-02   -.196E+00 0.129E-07 -.409E-03   0.599E-03 -.390E-11 -.217E-03   0.953E-02 0.440E-09 0.671E-02
   0.935E-01 0.158E+00 0.288E+00   -.100E+00 -.151E+00 -.277E+00   -.200E-02 0.694E-03 0.236E-02   0.947E-02 -.811E-02 -.139E-01
   -.948E+00 0.426E-07 0.253E+01   0.933E+00 -.446E-07 -.251E+01   0.186E-01 -.172E-09 -.956E-02   0.951E-03 -.709E-09 -.188E-01
   -.948E+00 -.253E+01 0.834E-08   0.933E+00 0.251E+01 0.313E-09   0.186E-01 0.956E-02 -.339E-20   0.951E-03 0.188E-01 -.111E-09
   0.935E-01 -.288E+00 -.158E+00   -.100E+00 0.277E+00 0.151E+00   -.200E-02 -.236E-02 -.694E-03   0.947E-02 0.139E-01 0.811E-02
   0.475E-01 0.548E-10 -.487E-01   -.569E-01 0.148E-09 0.421E-01   -.123E-02 -.112E-10 -.621E-03   0.105E-01 -.246E-09 0.745E-02
   -.906E-01 0.757E-01 0.757E-01   0.913E-01 -.668E-01 -.668E-01   -.163E-04 0.214E-03 0.214E-03   -.936E-03 -.906E-02 -.906E-02
   -.476E+00 0.290E+00 0.290E+00   0.472E+00 -.279E+00 -.279E+00   -.271E-02 0.252E-02 0.252E-02   0.670E-02 -.135E-01 -.135E-01
   -.138E+01 0.151E-08 0.140E-08   0.139E+01 -.422E-09 -.422E-09   -.228E-01 0.373E-20 -.136E-19   0.201E-01 0.413E-09 0.413E-09
   -.476E+00 -.290E+00 -.290E+00   0.472E+00 0.279E+00 0.279E+00   -.271E-02 -.252E-02 -.252E-02   0.670E-02 0.135E-01 0.135E-01
   -.906E-01 -.757E-01 -.757E-01   0.913E-01 0.668E-01 0.668E-01   -.163E-04 -.214E-03 -.214E-03   -.936E-03 0.906E-02 0.906E-02
   -.462E-01 0.221E-08 0.210E-08   0.486E-01 -.222E-08 -.222E-08   -.684E-03 -.339E-20 0.000E+00   -.159E-02 -.149E-09 -.149E-09
   -.224E+00 0.726E-02 0.731E-02   0.235E+00 -.806E-03 -.405E-03   -.166E-02 0.341E-03 0.176E-03   -.958E-02 -.694E-02 -.719E-02
   -.565E+00 0.779E-02 0.676E-09   0.562E+00 -.154E-02 -.781E-09   0.290E-02 0.174E-03 0.000E+00   -.786E-03 -.654E-02 0.873E-09
   -.565E+00 0.893E-09 -.779E-02   0.562E+00 -.752E-09 0.154E-02   0.290E-02 -.313E-11 -.174E-03   -.786E-03 0.729E-09 0.654E-02
   -.224E+00 -.731E-02 -.726E-02   0.235E+00 0.405E-03 0.806E-03   -.166E-02 -.176E-03 -.341E-03   -.958E-02 0.719E-02 0.694E-02
   -.999E-01 -.728E-02 0.524E-08   0.113E+00 0.251E-03 -.542E-08   -.449E-03 -.283E-03 0.339E-20   -.128E-01 0.745E-02 -.318E-09
   0.540E-01 -.552E-10 -.354E-01   -.555E-01 0.670E-10 0.422E-01   -.101E-02 -.964E-13 -.536E-05   0.226E-02 -.240E-10 -.687E-02
   0.183E+00 -.599E-02 0.599E-02   -.189E+00 -.620E-03 0.620E-03   -.224E-02 -.207E-03 0.207E-03   0.814E-02 0.694E-02 -.694E-02
   0.186E+00 -.124E-07 0.596E-02   -.196E+00 0.128E-07 0.409E-03   0.599E-03 0.390E-11 0.217E-03   0.953E-02 0.486E-09 -.671E-02
   0.935E-01 -.158E+00 0.288E+00   -.100E+00 0.151E+00 -.277E+00   -.200E-02 -.694E-03 0.236E-02   0.947E-02 0.811E-02 -.139E-01
   0.935E-01 -.288E+00 0.158E+00   -.100E+00 0.277E+00 -.151E+00   -.200E-02 -.236E-02 0.694E-03   0.947E-02 0.139E-01 -.811E-02
   0.811E-01 -.453E-08 -.295E-10   -.916E-01 0.491E-08 0.316E-09   0.951E-03 0.329E-20 0.000E+00   0.952E-02 0.539E-10 -.323E-09
   -.236E+00 0.435E-08 0.243E+00   0.232E+00 -.435E-08 -.227E+00   0.435E-02 -.712E-10 -.395E-02   -.475E-03 0.106E-09 -.118E-01
   -.476E+00 -.290E+00 0.290E+00   0.472E+00 0.279E+00 -.279E+00   -.271E-02 -.252E-02 0.252E-02   0.670E-02 0.135E-01 -.135E-01
   -.236E+00 -.243E+00 0.805E-09   0.232E+00 0.227E+00 -.420E-09   0.435E-02 0.395E-02 0.678E-20   -.475E-03 0.118E-01 0.232E-09
   -.924E-01 0.860E-08 -.497E-01   0.957E-01 -.865E-08 0.423E-01   -.128E-02 -.217E-11 -.121E-03   -.181E-02 -.565E-09 0.775E-02
   -.224E+00 0.731E-02 0.726E-02   0.235E+00 -.405E-03 -.806E-03   -.166E-02 0.176E-03 0.341E-03   -.958E-02 -.719E-02 -.694E-02
   -.565E+00 0.907E-09 0.779E-02   0.562E+00 -.809E-09 -.154E-02   0.290E-02 0.313E-11 0.174E-03   -.786E-03 0.755E-09 -.654E-02
   -.565E+00 -.779E-02 0.114E-08   0.562E+00 0.154E-02 -.780E-09   0.290E-02 -.174E-03 0.136E-19   -.786E-03 0.654E-02 0.611E-09
   -.224E+00 -.726E-02 -.731E-02   0.235E+00 0.806E-03 0.405E-03   -.166E-02 -.341E-03 -.176E-03   -.958E-02 0.694E-02 0.719E-02
   -.999E-01 0.522E-08 -.728E-02   0.113E+00 -.542E-08 0.251E-03   -.449E-03 -.508E-11 -.283E-03   -.128E-01 -.183E-09 0.745E-02
   0.475E-01 -.497E-08 0.487E-01   -.569E-01 0.521E-08 -.421E-01   -.123E-02 0.112E-10 0.621E-03   0.105E-01 0.161E-09 -.745E-02
   -.906E-01 -.757E-01 0.757E-01   0.913E-01 0.668E-01 -.668E-01   -.163E-04 -.214E-03 0.214E-03   -.936E-03 0.906E-02 -.906E-02
   -.924E-01 0.360E-08 0.497E-01   0.957E-01 -.355E-08 -.423E-01   -.128E-02 0.217E-11 0.121E-03   -.181E-02 -.211E-09 -.775E-02
   -.224E+00 -.731E-02 0.726E-02   0.235E+00 0.405E-03 -.806E-03   -.166E-02 -.176E-03 0.341E-03   -.958E-02 0.719E-02 -.694E-02
   -.224E+00 -.726E-02 0.731E-02   0.235E+00 0.806E-03 -.405E-03   -.166E-02 -.341E-03 0.176E-03   -.958E-02 0.694E-02 -.719E-02
   -.179E+00 0.106E-07 0.462E-09   0.187E+00 -.107E-07 -.623E-09   0.360E-02 0.397E-20 0.000E+00   -.115E-01 -.543E-09 0.554E-09
   -.999E-01 0.518E-08 0.728E-02   0.113E+00 -.540E-08 -.251E-03   -.449E-03 0.508E-11 0.283E-03   -.128E-01 -.163E-09 -.745E-02
 -----------------------------------------------------------------------------------------------
   0.662E-02 0.111E-09 0.481E-04   0.657E-11 -.210E-11 0.594E-11   -.108E-01 -.358E-17 0.553E-17   -.879E-02 -.922E-10 -.850E-10
 
 
 POSITION                                       TOTAL-FORCE (eV/Angst)
 -----------------------------------------------------------------------------------
      7.78121      7.78121      3.89060        -0.000354     -0.000294      0.000294
      7.78121      9.72651      5.83590         0.000108     -0.000017     -0.000000
      9.72651      7.78121      5.83590        -0.000130     -0.000071      0.000000
      7.78121      7.78121      0.00000        -0.000284     -0.000475      0.000000
      7.78121      9.72651      1.94530         0.000758      0.000094     -0.000094
      7.78121      0.00000      3.89060        -0.000284      0.000000      0.000475
      7.78121      1.94530      5.83590         0.000108      0.000017     -0.000000
      9.72651      7.78121      1.94530         0.000509      0.000099      0.000094
      9.72651      9.72651      3.89060         0.000509     -0.000094     -0.000099
      9.72651      0.00000      5.83590        -0.000115     -0.000000      0.000000
      0.00000      7.78121      3.89060         0.000281     -0.000127      0.000127
      0.00000      9.72651      5.83590        -0.000056     -0.000121     -0.000000
      1.94530      7.78121      5.83590        -0.000010     -0.000230      0.000000
      7.78121      7.78121      7.78121        -0.000354     -0.000294     -0.000294
      7.78121      9.72651      9.72651         0.000758      0.000094      0.000094
      7.78121      0.00000      0.00000         0.002262      0.000000     -0.000000
      7.78121      1.94530      1.94530         0.000758     -0.000094     -0.000094
      7.78121      3.89060      3.89060        -0.000354      0.000294      0.000294
      7.78121      5.83590      5.83590         0.000075      0.000000     -0.000000
      9.72651      7.78121      9.72651         0.000509      0.000099     -0.000094
      9.72651      9.72651      0.00000         0.003651      0.003126     -0.000000
      9.72651      0.00000      1.94530         0.003651     -0.000000     -0.003126
      9.72651      1.94530      3.89060         0.000509      0.000094     -0.000099
      9.72651      3.89060      5.83590        -0.000130      0.000071      0.000000
      0.00000      7.78121      0.00000         0.000178     -0.000010     -0.000000
      0.00000      9.72651      1.94530        -0.000036     -0.000024      0.000024
      0.00000      0.00000      3.89060         0.000178      0.000000      0.000010
      0.00000      1.94530      5.83590        -0.000056      0.000121     -0.000000
      1.94530      7.78121      1.94530         0.000598     -0.000307      0.000088
      1.94530      9.72651      3.89060         0.000598     -0.000088      0.000307
      1.94530      0.00000      5.83590         0.000014     -0.000000      0.000000
      3.89060      7.78121      3.89060        -0.000169      0.000020     -0.000020
      3.89060      9.72651      5.83590         0.000316     -0.000210     -0.000000
      5.83590      7.78121      5.83590         0.000248     -0.000142     -0.000000
      7.78121      0.00000      7.78121        -0.000284     -0.000000     -0.000475
      7.78121      1.94530      9.72651         0.000758     -0.000094      0.000094
      7.78121      3.89060      0.00000        -0.000284      0.000475     -0.000000
      7.78121      5.83590      1.94530         0.000108      0.000000      0.000017
      9.72651      9.72651      7.78121         0.000509     -0.000094      0.000099
      9.72651      0.00000      9.72651         0.003651      0.000000      0.003126
      9.72651      1.94530      0.00000         0.003651     -0.003126     -0.000000
      9.72651      3.89060      1.94530         0.000509     -0.000099      0.000094
      9.72651      5.83590      3.89060        -0.000130      0.000000      0.000071
      0.00000      7.78121      7.78121         0.000281     -0.000127     -0.000127
      0.00000      9.72651      9.72651        -0.000036     -0.000024     -0.000024
      0.02001      0.00000      0.00000        -0.049477      0.000000     -0.000000
      0.00000      1.94530      1.94530        -0.000036      0.000024      0.000024
      0.00000      3.89060      3.89060         0.000281      0.000127      0.000127
      0.00000      5.83590      5.83590         0.000272     -0.000000      0.000000
      1.94530      7.78121      9.72651         0.000598     -0.000307     -0.000088
      1.94530      9.72651      0.00000         0.004042     -0.003828     -0.000000
      1.94530      0.00000      1.94530         0.004042      0.000000      0.003828
      1.94530      1.94530      3.89060         0.000598      0.000088      0.000307
      1.94530      3.89060      5.83590        -0.000010      0.000230     -0.000000
      3.89060      7.78121      0.00000        -0.000135      0.000216      0.000000
      3.89060      9.72651      1.94530         0.000869     -0.000306      0.000306
      3.89060      0.00000      3.89060        -0.000135     -0.000000     -0.000216
      3.89060      1.94530      5.83590         0.000316      0.000210     -0.000000
      5.83590      7.78121      1.94530         0.000141     -0.000146      0.000112
      5.83590      9.72651      3.89060         0.000141     -0.000112      0.000146
      5.83590      0.00000      5.83590         0.000329     -0.000000     -0.000000
      7.78121      3.89060      7.78121        -0.000354      0.000294     -0.000294
      7.78121      5.83590      9.72651         0.000108     -0.000000     -0.000017
      9.72651      1.94530      7.78121         0.000509      0.000094      0.000099
      9.72651      3.89060      9.72651         0.000509     -0.000099     -0.000094
      9.72651      5.83590      0.00000        -0.000115      0.000000     -0.000000
      0.00000      0.00000      7.78121         0.000178     -0.000000     -0.000010
      0.00000      1.94530      9.72651        -0.000036      0.000024     -0.000024
      0.00000      3.89060      0.00000         0.000178      0.000010      0.000000
      0.00000      5.83590      1.94530        -0.000056      0.000000      0.000121
      1.94530      9.72651      7.78121         0.000598     -0.000088     -0.000307
      1.94530      0.00000      9.72651         0.004042     -0.000000     -0.003828
      1.94530      1.94530      0.00000         0.004042      0.003828     -0.000000
      1.94530      3.89060      1.94530         0.000598      0.000307      0.000088
      1.94530      5.83590      3.89060        -0.000010      0.000000      0.000230
      3.89060      7.78121      7.78121        -0.000169      0.000020      0.000020
      3.89060      9.72651      9.72651         0.000869     -0.000306     -0.000306
      3.89060      0.00000      0.00000         0.002354     -0.000000      0.000000
      3.89060      1.94530      1.94530         0.000869      0.000306      0.000306
      3.89060      3.89060      3.89060        -0.000169     -0.000020     -0.000020
      3.89060      5.83590      5.83590         0.000275     -0.000000     -0.000000
      5.83590      7.78121      9.72651         0.000141     -0.000146     -0.000112
      5.83590      9.72651      0.00000        -0.000829     -0.000111      0.000000
      5.83590      0.00000      1.94530        -0.000829      0.000000      0.000111
      5.83590      1.94530      3.89060         0.000141      0.000112      0.000146
      5.83590      3.89060      5.83590         0.000248      0.000142      0.000000
      9.72651      5.83590      7.78121        -0.000130     -0.000000     -0.000071
      0.00000      3.89060      7.78121         0.000281      0.000127     -0.000127
      0.00000      5.83590      9.72651        -0.000056     -0.000000     -0.000121
      1.94530      1.94530      7.78121         0.000598      0.000088     -0.000307
      1.94530      3.89060      9.72651         0.000598      0.000307     -0.000088
      1.94530      5.83590      0.00000         0.000014     -0.000000      0.000000
      3.89060      0.00000      7.78121        -0.000135      0.000000      0.000216
      3.89060      1.94530      9.72651         0.000869      0.000306     -0.000306
      3.89060      3.89060      0.00000        -0.000135     -0.000216     -0.000000
      3.89060      5.83590      1.94530         0.000316      0.000000      0.000210
      5.83590      9.72651      7.78121         0.000141     -0.000112     -0.000146
      5.83590      0.00000      9.72651        -0.000829     -0.000000     -0.000111
      5.83590      1.94530      0.00000        -0.000829      0.000111     -0.000000
      5.83590      3.89060      1.94530         0.000141      0.000146      0.000112
      5.83590      5.83590      3.89060         0.000248      0.000000      0.000142
      1.94530      5.83590      7.78121        -0.000010     -0.000000     -0.000230
      3.89060      3.89060      7.78121        -0.000169     -0.000020      0.000020
      3.89060      5.83590      9.72651         0.000316     -0.000000     -0.000210
      5.83590      1.94530      7.78121         0.000141      0.000112     -0.000146
      5.83590      3.89060      9.72651         0.000141      0.000146     -0.000112
      5.83590      5.83590      0.00000         0.000329      0.000000      0.000000
      5.83590      5.83590      7.78121         0.000248     -0.000000     -0.000142
 -----------------------------------------------------------------------------------
    total drift:                               -0.012935      0.000000      0.000048


--------------------------------------------------------------------------------------------------------



 mean value of Nose-termostat <S>:     1.000 mean value of <T> :     0.000
 mean temperature <T/S>/<1/S>  :     0.000

     LOOP+:  VPU time  790.90: CPU time  791.16

 ----------------------------------------------------------------------------- 
|                                                                             |
|           W    W    AA    RRRRR   N    N  II  N    N   GGGG   !!!           |
|           W    W   A  A   R    R  NN   N  II  NN   N  G    G  !!!           |
|           W    W  A    A  R    R  N N  N  II  N N  N  G       !!!           |
|           W WW W  AAAAAA  RRRRR   N  N N  II  N  N N  G  GGG   !            |
|           WW  WW  A    A  R   R   N   NN  II  N   NN  G    G                |
|           W    W  A    A  R    R  N    N  II  N    N   GGGG   !!!           |
|                                                                             |
|      The partial DOS and the PROCAR file are not evaluated for NPAR/=1      |
|      please rerun with NPAR=1                                               |
|                                                                             |
 ----------------------------------------------------------------------------- 

  
  
 General timing and accounting informations for this job:
 ========================================================
  
                  Total CPU time used (sec):      804.178
                            User time (sec):      786.177
                          System time (sec):       18.000
                         Elapsed time (sec):      804.459
  
                   Maximum memory used (kb):      361532.
                   Average memory used (kb):           0.
  
                          Minor page faults:        70073
                          Major page faults:            0
                 Voluntary context switches:          852
