 running on    4 nodes
 distr:  one band on    1 nodes,    4 groups
 vasp.4.6.28 25Jul05 complex 
 POSCAR found :  1 types and   32 ions

 ----------------------------------------------------------------------------- 
|                                                                             |
|  ADVICE TO THIS USER RUNNING 'VASP/VAMP'   (HEAR YOUR MASTER'S VOICE ...):  |
|                                                                             |
|      You have a (more or less) 'large supercell' and for larger cells       |
|      it might be more efficient to use real space projection operators      |
|      So try LREAL= Auto  in the INCAR   file.                               |
|      Mind: If you want to do an extremely accurate calculations keep the    |
|      reciprocal projection scheme          (i.e. LREAL=.FALSE.)             |
|                                                                             |
 ----------------------------------------------------------------------------- 

 LDA part: xc-table for Pade appr. of Perdew
 found WAVECAR, reading the header
  number of k-points has changed, file:  20 present:  40
  trying to continue reading WAVECAR, but it might fail
 POSCAR, INCAR and KPOINTS ok, starting setup
 FFT: planning ...           1
 reading WAVECAR
 the WAVECAR file was read sucessfully
 initial charge from wavefunction
 entering main loop
       N       E                     dE             d eps       ncg     rms          rms(c)
RMM:   1    -0.104687471753E+03   -0.10469E+03   -0.64107E+02 17598   0.432E+01BRMIX: very serious problems
 the old and the new charge density differ
 old charge density:   344.46066 new  352.00000
    0.845E+00
RMM:   2    -0.101938500338E+03    0.27490E+01   -0.13140E+01 17962   0.101E+01    0.134E+00
RMM:   3    -0.101968711925E+03   -0.30212E-01   -0.92209E-01 18761   0.201E+00    0.789E-01
RMM:   4    -0.101971402304E+03   -0.26904E-02   -0.34893E-02 18685   0.325E-01    0.262E-01
RMM:   5    -0.101971902216E+03   -0.49991E-03   -0.21567E-03 18719   0.106E-01    0.687E-02
RMM:   6    -0.101971795483E+03    0.10673E-03   -0.11010E-03 18304   0.945E-02    0.178E-02
RMM:   7    -0.101971787577E+03    0.79065E-05   -0.66486E-05 14471   0.164E-02
   1 F= -.10197179E+03 E0= -.10197328E+03  d E =0.447327E-02

 ----------------------------------------------------------------------------- 
|                                                                             |
|           W    W    AA    RRRRR   N    N  II  N    N   GGGG   !!!           |
|           W    W   A  A   R    R  NN   N  II  NN   N  G    G  !!!           |
|           W    W  A    A  R    R  N N  N  II  N N  N  G       !!!           |
|           W WW W  AAAAAA  RRRRR   N  N N  II  N  N N  G  GGG   !            |
|           WW  WW  A    A  R   R   N   NN  II  N   NN  G    G                |
|           W    W  A    A  R    R  N    N  II  N    N   GGGG   !!!           |
|                                                                             |
|      The partial DOS and the PROCAR file are not evaluated for NPAR/=1      |
|      please rerun with NPAR=1                                               |
|                                                                             |
 ----------------------------------------------------------------------------- 

