       N       E                     dE             d eps       ncg     rms          rms(c)
RMM:   1     0.444348047082E+04    0.44435E+04   -0.15710E+05  4240   0.164E+03
RMM:   2     0.980017869318E+03   -0.34635E+04   -0.36983E+04  4240   0.412E+02
RMM:   3     0.243598103042E+03   -0.73642E+03   -0.78879E+03  4240   0.153E+02
RMM:   4     0.216131973870E+02   -0.22198E+03   -0.17223E+03  4240   0.909E+01
RMM:   5    -0.608310751683E+02   -0.82444E+02   -0.56821E+02  4240   0.572E+01
RMM:   6    -0.894858483544E+02   -0.28655E+02   -0.22170E+02  4240   0.347E+01
RMM:   7    -0.102026375109E+03   -0.12541E+02   -0.97061E+01  4240   0.230E+01
RMM:   8    -0.106372359528E+03   -0.43460E+01   -0.38656E+01  4240   0.145E+01
RMM:   9    -0.108965830028E+03   -0.25935E+01   -0.24105E+01  8973   0.895E+00
RMM:  10    -0.109241202901E+03   -0.27537E+00   -0.28218E+00  9819   0.160E+00
RMM:  11    -0.109251407186E+03   -0.10204E-01   -0.78729E-02  9147   0.530E-01
RMM:  12    -0.109253025584E+03   -0.16184E-02   -0.15235E-02  9088   0.759E-02    0.152E+01
RMM:  13    -0.102273493117E+03    0.69795E+01   -0.21525E+01  8480   0.142E+01    0.393E+00
RMM:  14    -0.102025740478E+03    0.24775E+00   -0.20056E+00  8483   0.305E+00    0.180E+00
RMM:  15    -0.101973009400E+03    0.52731E-01   -0.97727E-02  8485   0.112E+00    0.302E-01
RMM:  16    -0.101972558039E+03    0.45136E-03   -0.22556E-02  8514   0.361E-01    0.121E-01
RMM:  17    -0.101972271484E+03    0.28656E-03   -0.79143E-04  8660   0.469E-02    0.544E-02
RMM:  18    -0.101972197376E+03    0.74108E-04   -0.38103E-04  8480   0.600E-02    0.314E-03
RMM:  19    -0.101972193630E+03    0.37457E-05   -0.67333E-06  4773   0.405E-03
   1 F= -.10197219E+03 E0= -.10197368E+03  d E =-.101972E+03
