 vasp.4.6.28 25Jul05 complex 
 executed on             LinuxIFC date 2017.01.24  12:36:41
 running on    4 nodes
 distr:  one band on    1 nodes,    4 groups


--------------------------------------------------------------------------------------------------------


 INCAR:
 POTCAR:   PAW_PBE Au 06Sep2000                   
 POTCAR:   PAW_PBE Au 06Sep2000                   
   VRHFIN =Au: s1d10                                                            
   LEXCH  = PE                                                                  
   EATOM  =   926.0567 eV,   68.0632 Ry                                         
                                                                                
   TITEL  = PAW_PBE Au 06Sep2000                                                
   LULTRA =        F    use ultrasoft PP ?                                      
   IUNSCR =        1    unscreen: 0-lin 1-nonlin 2-no                           
   RPACOR =    2.330    partial core radius                                     
   POMASS =  196.966; ZVAL   =   11.000    mass and valenz                      
   RCORE  =    2.500    outmost cutoff radius                                   
   RWIGS  =    2.840; RWIGS  =    1.503    wigner-seitz radius (au A)           
   ENMAX  =  229.948; ENMIN  =  172.461 eV                                      
   RCLOC  =    1.964    cutoff for local pot                                    
   LCOR   =        T    correct aug charges                                     
   LPAW   =        T    paw PP                                                  
   EAUG   =  356.670                                                            
   DEXC   =    -.025                                                            
   RMAX   =    3.041    core radius for proj-oper                               
   RAUG   =    1.300    factor for augmentation sphere                          
   RDEP   =    2.598    radius for radial grids                                 
   QCUT   =   -4.111; QGAM   =    8.222    optimization parameters              
                                                                                
   Description                                                                  
     l     E      TYP  RCUT    TYP  RCUT                                        
     2   .000     23  2.500                                                     
     2   .000     23  2.500                                                     
     0   .000     23  2.500                                                     
     0   .000     23  2.500                                                     
     1  -.200     23  2.500                                                     
     1   .000     23  2.500                                                     
     3   .000      7   .000                                                     
  local pseudopotential read in
  partial core-charges read in
  atomic valenz-charges read in
  non local Contribution for L=           2  read in
    real space projection operators read in
  non local Contribution for L=           2  read in
    real space projection operators read in
  non local Contribution for L=           0  read in
    real space projection operators read in
  non local Contribution for L=           0  read in
    real space projection operators read in
  non local Contribution for L=           1  read in
    real space projection operators read in
  non local Contribution for L=           1  read in
    real space projection operators read in
    PAW grid and wavefunctions read in
 
   number of l-projection  operators is LMAX  =           6
   number of lm-projection operators is LMMAX =          18
 

 ----------------------------------------------------------------------------- 
|                                                                             |
|  ADVICE TO THIS USER RUNNING 'VASP/VAMP'   (HEAR YOUR MASTER'S VOICE ...):  |
|                                                                             |
|      You have a (more or less) 'large supercell' and for larger cells       |
|      it might be more efficient to use real space projection operators      |
|      So try LREAL= Auto  in the INCAR   file.                               |
|      Mind: If you want to do an extremely accurate calculations keep the    |
|      reciprocal projection scheme          (i.e. LREAL=.FALSE.)             |
|                                                                             |
 ----------------------------------------------------------------------------- 

 PAW_PBE Au 06Sep2000                   :
 energy of atom  1       EATOM= -926.0567
 kinetic energy error for atom=    0.0013 (will be added to EATOM!!)
 
 EXHCAR: internal setup
 exchange correlation table for  LEXCH =        8
   RHO(1)=    0.500       N(1)  =     2000
   RHO(2)=  100.500       N(2)  =     4000
 
 POSCAR: No title                                
  positions in direct lattice
  No initial velocities read in
 


--------------------------------------------------------------------------------------------------------


 ion  position               nearest neighbor table
   1  0.750  0.750  0.500-   3 3.06   5 3.06  14 3.06  19 3.06  20 3.06  26 3.06  11 3.06   6 3.06
                            18 3.06  29 3.06  10 3.06   8 3.06
   2  0.750  0.750  0.000-   8 3.06  10 3.06  11 3.06  18 3.06  22 3.06  27 3.06  12 3.06  26 3.06
                             5 3.06  32 3.06   3 3.06  20 3.06
   3  0.750  0.000  0.250-   1 3.06   5 3.06   9 3.06  12 3.06  19 3.06  28 3.06  18 3.06   6 3.06
                            27 3.06  13 3.06   4 3.06   2 3.06
   4  0.750  0.250  0.500-   6 3.06   8 3.06  10 3.06  13 3.06  29 3.06  31 3.06  21 3.06  28 3.06
                            14 3.06  19 3.06   3 3.06  20 3.06
   5  0.000  0.750  0.250-   1 3.06   3 3.06  12 3.06  14 3.06  15 3.06  25 3.06   7 3.06  10 3.06
                            16 3.06   2 3.06  22 3.06   6 3.06
   6  0.000  0.000  0.500-   4 3.06   7 3.06   8 3.06  11 3.06  13 3.06  16 3.06   1 3.06   3 3.06
                            17 3.06  23 3.06  21 3.06   5 3.06
   7  0.250  0.750  0.500-   6 3.06  11 3.06  16 3.06  18 3.06  29 3.06  30 3.06  19 3.06  26 3.06
                             5 3.06  14 3.06  25 3.06  23 3.06
   8  0.750  0.000  0.750-   2 3.06   4 3.06   6 3.06  11 3.06  27 3.06  31 3.06  21 3.06  26 3.06
                            12 3.06  19 3.06   9 3.06   1 3.06
   9  0.750  0.250  0.000-   3 3.06  12 3.06  20 3.06  21 3.06  28 3.06  32 3.06  27 3.06  13 3.06
                            31 3.06  22 3.06  10 3.06   8 3.06
  10  0.750  0.500  0.250-   2 3.06   4 3.06  13 3.06  18 3.06  22 3.06  29 3.06  14 3.06  28 3.06
                             5 3.06  32 3.06   9 3.06   1 3.06
  11  0.000  0.750  0.750-   2 3.06   6 3.06   7 3.06   8 3.06  22 3.06  30 3.06  20 3.06   1 3.06
                            23 3.06  15 3.06  14 3.06  12 3.06
  12  0.000  0.000  0.000-   3 3.06   5 3.06   9 3.06  15 3.06  21 3.06  23 3.06  16 3.06   2 3.06
                             8 3.06  24 3.06  13 3.06  11 3.06
  13  0.000  0.250  0.250-   4 3.06   6 3.06  10 3.06  16 3.06  22 3.06  24 3.06  17 3.06   3 3.06
                             9 3.06  25 3.06  14 3.06  12 3.06
  14  0.000  0.500  0.500-   1 3.06   5 3.06  17 3.06  20 3.06  21 3.06  25 3.06   7 3.06  10 3.06
                             4 3.06  30 3.06  13 3.06  11 3.06
  15  0.250  0.750  0.000-   5 3.06  12 3.06  23 3.06  25 3.06  26 3.06  32 3.06  18 3.06  22 3.06
                            27 3.06  11 3.06  30 3.06  16 3.06
  16  0.250  0.000  0.250-   6 3.06   7 3.06  13 3.06  18 3.06  24 3.06  27 3.06  19 3.06   5 3.06
                            12 3.06  28 3.06  17 3.06  15 3.06
  17  0.250  0.250  0.500-  14 3.06  19 3.06  21 3.06  23 3.06  25 3.06  28 3.06   6 3.06  13 3.06
                            29 3.06  31 3.06  30 3.06  16 3.06
  18  0.500  0.750  0.250-   2 3.06   7 3.06  10 3.06  16 3.06  27 3.06  29 3.06   1 3.06  25 3.06
                             3 3.06  15 3.06  19 3.06  32 3.06
  19  0.500  0.000  0.500-   1 3.06   3 3.06  17 3.06  23 3.06  26 3.06  28 3.06   4 3.06   7 3.06
                             8 3.06  16 3.06  18 3.06  31 3.06
  20  0.750  0.500  0.750-   1 3.06   9 3.06  14 3.06  21 3.06  26 3.06  32 3.06  11 3.06  29 3.06
                            31 3.06  22 3.06   4 3.06   2 3.06
  21  0.000  0.250  0.750-   9 3.06  12 3.06  14 3.06  17 3.06  20 3.06  23 3.06   4 3.06   8 3.06
                            24 3.06  30 3.06  22 3.06   6 3.06
  22  0.000  0.500  0.000-   2 3.06  10 3.06  11 3.06  13 3.06  24 3.06  30 3.06  20 3.06   9 3.06
                            25 3.06  15 3.06  21 3.06   5 3.06
  23  0.250  0.000  0.750-  12 3.06  15 3.06  17 3.06  19 3.06  21 3.06  26 3.06   6 3.06  11 3.06
                            27 3.06  31 3.06  24 3.06   7 3.06
  24  0.250  0.250  0.000-  13 3.06  16 3.06  22 3.06  27 3.06  30 3.06  31 3.06  28 3.06  12 3.06
                            21 3.06  32 3.06  25 3.06  23 3.06
  25  0.250  0.500  0.250-   5 3.06  14 3.06  15 3.06  17 3.06  28 3.06  32 3.06  22 3.06  13 3.06
                            29 3.06  18 3.06  24 3.06   7 3.06
  26  0.500  0.750  0.750-   1 3.06  15 3.06  19 3.06  20 3.06  23 3.06  32 3.06   8 3.06   2 3.06
                            30 3.06   7 3.06  27 3.06  29 3.06
  27  0.500  0.000  0.000-   2 3.06   8 3.06  16 3.06  18 3.06  24 3.06  31 3.06   9 3.06  23 3.06
                            15 3.06   3 3.06  28 3.06  26 3.06
  28  0.500  0.250  0.250-   3 3.06   9 3.06  17 3.06  19 3.06  25 3.06  32 3.06  10 3.06  24 3.06
                            16 3.06   4 3.06  29 3.06  27 3.06
  29  0.500  0.500  0.500-   4 3.06   7 3.06  10 3.06  18 3.06  30 3.06  31 3.06  20 3.06  25 3.06
                            17 3.06   1 3.06  26 3.06  28 3.06
  30  0.250  0.500  0.750-   7 3.06  11 3.06  22 3.06  24 3.06  29 3.06  31 3.06  26 3.06  14 3.06
                            21 3.06  32 3.06  17 3.06  15 3.06
  31  0.500  0.250  0.750-   4 3.06   8 3.06  24 3.06  27 3.06  29 3.06  30 3.06   9 3.06  17 3.06
                            20 3.06  23 3.06  19 3.06  32 3.06
  32  0.500  0.500  0.000-   9 3.06  15 3.06  20 3.06  25 3.06  26 3.06  28 3.06   2 3.06  10 3.06
                            24 3.06  30 3.06  18 3.06  31 3.06
 
  LATTYP: Found a simple cubic cell.
 ALAT       =     8.6679608100
  
  Lattice vectors:
  
 A1 = (   8.6679608100,   0.0000000000,   0.0000000000)
 A2 = (   0.0000001600,   8.6679608100,   0.0000000000)
 A3 = (   0.0000001600,   0.0000001600,   8.6679608100)
 Subroutine PRICEL returns following result:
 
  LATTYP: Found a face centered cubic cell.
 ALAT       =     4.3339804450
  
  Lattice vectors:
  
 A1 = (   2.1669902425,   2.1669902025,   0.0000000000)
 A2 = (   2.1669901625,  -0.0000000400,  -2.1669902025)
 A3 = (  -0.0000000000,   2.1669901625,  -2.1669902025)
 
  32 primitive cells build up your supercell.
 

Analysis of symmetry for initial positions (statically):

 Routine SETGRP: Setting up the symmetry group for a 
 simple cubic supercell.


 Subroutine GETGRP returns: Found 48 space group operations
 (whereof 48 operations were pure point group operations)
 out of a pool of 48 trial point group operations.


The static configuration has the point symmetry O_h .

Analysis of symmetry for dynamics (positions and initial velocities):

 Subroutine DYNSYM returns: Found 48 space group operations
 (whereof 48 operations were pure point group operations)
 out of a pool of 48 trial space group operations
 (whereof 48 operations were pure point group operations)
 and found also    32 'primitive' translations


The dynamic configuration has the point symmetry O_h .
 
 
 KPOINTS: Automatic mesh                          

Automatic generation of k-mesh.
 
 Subroutine IBZKPT returns following result:
 ===========================================
 
 Found     20 irreducible k-points:
 
 Following reciprocal coordinates:
            Coordinates               Weight
  0.062500  0.062500  0.062500      8.000000
  0.187500  0.062500  0.062500     24.000000
  0.312500  0.062500  0.062500     24.000000
  0.437500  0.062500  0.062500     24.000000
  0.187500  0.187500  0.062500     24.000000
  0.312500  0.187500  0.062500     48.000000
  0.437500  0.187500  0.062500     48.000000
  0.312500  0.312500  0.062500     24.000000
  0.437500  0.312500  0.062500     48.000000
  0.437500  0.437500  0.062500     24.000000
  0.187500  0.187500  0.187500      8.000000
  0.312500  0.187500  0.187500     24.000000
  0.437500  0.187500  0.187500     24.000000
  0.312500  0.312500  0.187500     24.000000
  0.437500  0.312500  0.187500     48.000000
  0.437500  0.437500  0.187500     24.000000
  0.312500  0.312500  0.312500      8.000000
  0.437500  0.312500  0.312500     24.000000
  0.437500  0.437500  0.312500     24.000000
  0.437500  0.437500  0.437500      8.000000
 
 Following cartesian coordinates:
            Coordinates               Weight
  0.007210  0.007210  0.007210      8.000000
  0.021631  0.007210  0.007210     24.000000
  0.036052  0.007210  0.007210     24.000000
  0.050473  0.007210  0.007210     24.000000
  0.021631  0.021631  0.007210     24.000000
  0.036052  0.021631  0.007210     48.000000
  0.050473  0.021631  0.007210     48.000000
  0.036052  0.036052  0.007210     24.000000
  0.050473  0.036052  0.007210     48.000000
  0.050473  0.050473  0.007210     24.000000
  0.021631  0.021631  0.021631      8.000000
  0.036052  0.021631  0.021631     24.000000
  0.050473  0.021631  0.021631     24.000000
  0.036052  0.036052  0.021631     24.000000
  0.050473  0.036052  0.021631     48.000000
  0.050473  0.050473  0.021631     24.000000
  0.036052  0.036052  0.036052      8.000000
  0.050473  0.036052  0.036052     24.000000
  0.050473  0.050473  0.036052     24.000000
  0.050473  0.050473  0.050473      8.000000
 


--------------------------------------------------------------------------------------------------------




 Dimension of arrays:
   k-Points           NKPTS =     20   number of bands    NBANDS=    212
   number of dos      NEDOS =    301   number of ions     NIONS =     32
   non local maximal  LDIM  =      6   non local SUM 2l+1 LMDIM =     18
   total plane-waves  NPLWV = 343000
   max r-space proj   IRMAX =      1   max aug-charges    IRDMAX= 257832
   dimension x,y,z NGX =    70 NGY =   70 NGZ =   70
   dimension x,y,z NGXF=   140 NGYF=  140 NGZF=  140
   support grid    NGXF=   280 NGYF=  280 NGZF=  280
   ions per type =              32
 NGX,Y,Z   is equivalent  to a cutoff of  13.43, 13.43, 13.43 a.u.
 NGXF,Y,Z  is equivalent  to a cutoff of  26.85, 26.85, 26.85 a.u.


 I would recommend the setting:
   dimension x,y,z NGX =    69 NGY =   69 NGZ =   69
 SYSTEM =  No title                                
 POSCAR =  No title                                

 Startparameter for this run:
   NWRITE =      2    write-flag & timer
   PREC   = accura    medium, high low
   ISTART =      0    job   : 0-new  1-cont  2-samecut
   ICHARG =      2    charge: 1-file 2-atom 10-const
   ISPIN  =      1    spin polarized calculation?
   LNONCOLLINEAR =      F non collinear calculations
   LSORBIT =      F    spin-orbit coupling
   INIWAV =      1    electr: 0-lowe 1-rand  2-diag
   LASPH  =      F    aspherical Exc in radial PAW
   METAGGA=      F    non-selfconsistent MetaGGA calc.

 Electronic Relaxation 1
   ENCUT  =  600.0 eV  44.10 Ry    6.64 a.u.  17.31 17.31 17.31*2*pi/ulx,y,z
   ENINI  =  600.0     initial cutoff
   ENAUG  =  356.7 eV  augmentation charge cutoff
   NELM   =     60;   NELMIN=  2; NELMDL=-12     # of ELM steps 
   EDIFF  = 0.1E-04   stopping-criterion for ELM
   LREAL  =      F    real-space projection
   LCOMPAT=      F    compatible to vasp.4.4
   LREAL_COMPAT= F    compatible to vasp.4.5.1-3
   GGA_COMPAT  = T    GGA compatible to vasp.4.4-vasp.4.6
   LMAXPAW     = -100 max onsite density
   LMAXMIX     =    2 max onsite mixed and CHGCAR
   VOSKOWN=      1    Vosko Wilk Nusair interpolation
   ROPT   =    0.00000
 Ionic relaxation
   EDIFFG = -.2E-01   stopping-criterion for IOM
   NSW    =    100    number of steps for IOM
   NBLOCK =      1;   KBLOCK =    100    inner block; outer block 
   IBRION =      2    ionic relax: 0-MD 1-quasi-New 2-CG
   NFREE  =      1    steps in history (QN), initial steepest desc. (CG)
   ISIF   =      2    stress and relaxation
   IWAVPR =     11    prediction:  0-non 1-charg 2-wave 3-comb
   ISYM   =      2    0-nonsym 1-usesym 2-fastsym
   LCORR  =      T    Harris-Foulkes like correction to forces

   POTIM  =   0.50    time-step for ionic-motion
   TEIN   =    0.0    initial temperature
   TEBEG  =    0.0;   TEEND  =   0.0 temperature during run
   SMASS  =  -3.00    Nose mass-parameter (am)
   estimated Nose-frequenzy (Omega)   =  0.10E-29 period in steps =****** mass=  -0.172E-26a.u.
   NPACO  =    256;   APACO  = 16.0  distance and # of slots for P.C.
   PSTRESS=    0.0 pullay stress

  Mass of Ions in am
   POMASS = 196.97
  Ionic Valenz
   ZVAL   =  11.00
  Atomic Wigner-Seitz radii
   RWIGS  =   1.34
   NELECT =     352.0000    total number of electrons
   NUPDOWN=      -1.0000    fix difference up-down

 DOS related values:
   EMIN   =  10.00;   EMAX   =-10.00  energy-range for DOS
   ISMEAR =     1;   SIGMA  =   0.20  broadening in eV -4-tet -1-fermi 0-gaus

 Electronic relaxation 2 (details)
   IALGO  =     48    algorithm
   LDIAG  =      T    sub-space diagonalisation
   IMIX   =      4    mixing-type and parameters
     AMIX     =   0.40;   BMIX     =  1.00
     AMIX_MAG =   1.60;   BMIX_MAG =  1.00
     AMIN     =   0.10
     WC   =   100.;   INIMIX=   1;  MIXPRE=   1

 Intra band minimization:
   WEIMIN = 0.0010     energy-eigenvalue tresh-hold
   EBREAK =  0.12E-07  absolut break condition
   DEPER  =   0.30     relativ break condition  

   TIME   =   0.10     timestep for ELM

  volume/ion in A,a.u.               =      20.35       137.34
  Fermi-wavevector in a.u.,eV,Ry     =   1.333538 24.195567  1.778324

 Second variation
   LSECVAR=     F    do a second variation
 
 Write flags
   LWAVE  =      T    write WAVECAR
   LCHARG =      F    write CHGCAR
   LVTOT  =      F    write LOCPOT, local potential
   LELF   =      F    write electronic localiz. function (ELF)
   LORBIT =      0    0 simple, 1 ext, 2 COOP (PROOUT)


 Dipole corrections
   IDIPOL =      0    1-x, 2-y, 3-z
   LDIPOL =      F    correct potential



--------------------------------------------------------------------------------------------------------


 conjugate gradient relaxation of ions
 charge density will be updated during run
 non-spin polarized calculation
 RMM-DIIS sequential band-by-band
 performe sub-space diagonalisation
    before iterative eigenvector-optimisation
 modified Broyden-mixing scheme, WC =      100.0
 initial mixing is a Kerker type mixing with AMIX =  0.4000 and BMIX =      1.0000
 Hartree-type preconditioning will be used
 using additional bands           36
 reciprocal scheme for non local part
 use partial core corrections
 calculate Harris-corrections to forces 
   (improved forces if not selfconsistent)
 use gradient corrections 
 use of overlap-Matrix (Vanderbilt PP)
 Methfessel and Paxton  Order N= 1 SIGMA  =   0.20


--------------------------------------------------------------------------------------------------------


  energy-cutoff  :      600.00
  volume of cell :      651.25
      direct lattice vectors                 reciprocal lattice vectors
     8.667960810  0.000000000  0.000000000     0.115367388 -0.000000002 -0.000000002
     0.000000160  8.667960810  0.000000000     0.000000000  0.115367388 -0.000000002
     0.000000160  0.000000160  8.667960810     0.000000000  0.000000000  0.115367388

  length of vectors
     8.667960810  8.667960810  8.667960810     0.115367388  0.115367388  0.115367388


 
 k-points in units of 2pi/SCALE and weight: Automatic mesh                          
   0.00721046  0.00721046  0.00721046       0.016
   0.02163139  0.00721046  0.00721046       0.047
   0.03605231  0.00721046  0.00721046       0.047
   0.05047323  0.00721046  0.00721046       0.047
   0.02163139  0.02163138  0.00721046       0.047
   0.03605231  0.02163138  0.00721046       0.094
   0.05047323  0.02163138  0.00721046       0.094
   0.03605231  0.03605231  0.00721046       0.047
   0.05047323  0.03605231  0.00721046       0.094
   0.05047323  0.05047323  0.00721046       0.047
   0.02163139  0.02163138  0.02163138       0.016
   0.03605231  0.02163138  0.02163138       0.047
   0.05047323  0.02163138  0.02163138       0.047
   0.03605231  0.03605231  0.02163138       0.047
   0.05047323  0.03605231  0.02163138       0.094
   0.05047323  0.05047323  0.02163138       0.047
   0.03605231  0.03605231  0.03605231       0.016
   0.05047323  0.03605231  0.03605231       0.047
   0.05047323  0.05047323  0.03605231       0.047
   0.05047323  0.05047323  0.05047323       0.016
 
 k-points in reciprocal lattice and weights: Automatic mesh                          
   0.06250000  0.06250000  0.06250000       0.016
   0.18750000  0.06250000  0.06250000       0.047
   0.31250000  0.06250000  0.06250000       0.047
   0.43750000  0.06250000  0.06250000       0.047
   0.18750000  0.18750000  0.06250000       0.047
   0.31250000  0.18750000  0.06250000       0.094
   0.43750000  0.18750000  0.06250000       0.094
   0.31250000  0.31250000  0.06250000       0.047
   0.43750000  0.31250000  0.06250000       0.094
   0.43750000  0.43750000  0.06250000       0.047
   0.18750000  0.18750000  0.18750000       0.016
   0.31250000  0.18750000  0.18750000       0.047
   0.43750000  0.18750000  0.18750000       0.047
   0.31250000  0.31250000  0.18750000       0.047
   0.43750000  0.31250000  0.18750000       0.094
   0.43750000  0.43750000  0.18750000       0.047
   0.31250000  0.31250000  0.31250000       0.016
   0.43750000  0.31250000  0.31250000       0.047
   0.43750000  0.43750000  0.31250000       0.047
   0.43750000  0.43750000  0.43750000       0.016
 
 position of ions in fractional coordinates (direct lattice) 
   0.75000000  0.75000000  0.50000000
   0.75000000  0.75000000  0.00000000
   0.75000000  0.00000000  0.25000000
   0.75000000  0.25000000  0.50000000
   0.00000000  0.75000000  0.25000000
   0.00000000  0.00000000  0.50000000
   0.25000000  0.75000000  0.50000000
   0.75000000  0.00000000  0.75000000
   0.75000000  0.25000000  0.00000000
   0.75000000  0.50000000  0.25000000
   0.00000000  0.75000000  0.75000000
   0.00000000  0.00000000  0.00000000
   0.00000000  0.25000000  0.25000000
   0.00000000  0.50000000  0.50000000
   0.25000000  0.75000000  0.00000000
   0.25000000  0.00000000  0.25000000
   0.25000000  0.25000000  0.50000000
   0.50000000  0.75000000  0.25000000
   0.50000000  0.00000000  0.50000000
   0.75000000  0.50000000  0.75000000
   0.00000000  0.25000000  0.75000000
   0.00000000  0.50000000  0.00000000
   0.25000000  0.00000000  0.75000000
   0.25000000  0.25000000  0.00000000
   0.25000000  0.50000000  0.25000000
   0.50000000  0.75000000  0.75000000
   0.50000000  0.00000000  0.00000000
   0.50000000  0.25000000  0.25000000
   0.50000000  0.50000000  0.50000000
   0.25000000  0.50000000  0.75000000
   0.50000000  0.25000000  0.75000000
   0.50000000  0.50000000  0.00000000
 
 position of ions in cartesian coordinates  (Angst):
   6.50097081  6.50097069  4.33398041
   6.50097073  6.50097061  0.00000000
   6.50097065  0.00000004  2.16699020
   6.50097073  2.16699028  4.33398041
   0.00000016  6.50097065  2.16699020
   0.00000008  0.00000008  4.33398041
   2.16699040  6.50097069  4.33398041
   6.50097073  0.00000012  6.50097061
   6.50097065  2.16699020  0.00000000
   6.50097073  4.33398044  2.16699020
   0.00000024  6.50097073  6.50097061
   0.00000000  0.00000000  0.00000000
   0.00000008  2.16699024  2.16699020
   0.00000016  4.33398049  4.33398041
   2.16699032  6.50097061  0.00000000
   2.16699024  0.00000004  2.16699020
   2.16699032  2.16699028  4.33398041
   4.33398057  6.50097065  2.16699020
   4.33398049  0.00000008  4.33398041
   6.50097081  4.33398053  6.50097061
   0.00000016  2.16699032  6.50097061
   0.00000008  4.33398041  0.00000000
   2.16699032  0.00000012  6.50097061
   2.16699024  2.16699020  0.00000000
   2.16699032  4.33398044  2.16699020
   4.33398065  6.50097073  6.50097061
   4.33398041  0.00000000  0.00000000
   4.33398048  2.16699024  2.16699020
   4.33398057  4.33398049  4.33398041
   2.16699040  4.33398053  6.50097061
   4.33398057  2.16699032  6.50097061
   4.33398049  4.33398041  0.00000000
 


--------------------------------------------------------------------------------------------------------


 k-point  1 :  0.06250.06250.0625  plane waves:  21770
 k-point  2 :  0.18750.06250.0625  plane waves:  21750
 k-point  3 :  0.31250.06250.0625  plane waves:  21746
 k-point  4 :  0.43750.06250.0625  plane waves:  21744
 k-point  5 :  0.18750.18750.0625  plane waves:  21744
 k-point  6 :  0.31250.18750.0625  plane waves:  21730
 k-point  7 :  0.43750.18750.0625  plane waves:  21737
 k-point  8 :  0.31250.31250.0625  plane waves:  21738
 k-point  9 :  0.43750.31250.0625  plane waves:  21719
 k-point 10 :  0.43750.43750.0625  plane waves:  21699
 k-point 11 :  0.18750.18750.1875  plane waves:  21737
 k-point 12 :  0.31250.18750.1875  plane waves:  21719
 k-point 13 :  0.43750.18750.1875  plane waves:  21743
 k-point 14 :  0.31250.31250.1875  plane waves:  21719
 k-point 15 :  0.43750.31250.1875  plane waves:  21727
 k-point 16 :  0.43750.43750.1875  plane waves:  21712
 k-point 17 :  0.31250.31250.3125  plane waves:  21740
 k-point 18 :  0.43750.31250.3125  plane waves:  21726
 k-point 19 :  0.43750.43750.3125  plane waves:  21751
 k-point 20 :  0.43750.43750.4375  plane waves:  21764

 maximum and minimum number of plane-waves per node :  21770 21699

 maximum number of plane-waves:  21770
 maximal index in each direction: 
   IXMAX= 17   IYMAX= 17   IZMAX= 17
   IXMIN=-17   IYMIN=-17   IZMIN=-17

 NGX is ok and might be reduce to  70
 NGY is ok and might be reduce to  70
 NGZ is ok and might be reduce to  70

 parallel 3dFFT wavefunction:
    minimum data exchange during FFTs selected (reduces bandwidth)
 parallel 3dFFT charge:
    minimum data exchange during FFTs selected (reduces bandwidth)

 For storing wavefunctions 1474.55 MBYTES are necessary
 For predicting wavefunctions  158.60 MBYTES are necessary
Broyden mixing: mesh for mixing (old mesh)
   NGX = 35   NGY = 35   NGZ = 35
  (NGX  =140   NGY  =140   NGZ  =140)
 gives a total of  42875 points
 initial charge density was supplied:
 charge density of overlapping atoms calculated
 number of electron  352.0000000 magnetization 
 keeping initial charge density in first step


--------------------------------------------------------------------------------------------------------


 Maximum index for augmentation-charges        62636 (set IRDMAX)


--------------------------------------------------------------------------------------------------------


 First call to EWALD:  gamma=   0.204
 Maximum number of real-space cells 3x 3x 3
 Maximum number of reciprocal cells 3x 3x 3

    FEWALD:  VPU time    0.01: CPU time    0.01


----------------------------------------- Iteration    1(   1)  ---------------------------------------


    POTLOK:  VPU time    1.52: CPU time    1.52
    SETDIJ:  VPU time    3.03: CPU time    3.04
    EDDIAG:  VPU time   62.26: CPU time   62.42
  RMM-DIIS:  VPU time  198.13: CPU time  198.62
    ORTHCH:  VPU time    8.39: CPU time    8.41
    DOS   :  VPU time    0.00: CPU time   -0.00
    ------------------------------------------
      LOOP:  VPU time  273.41: CPU time  274.09

 eigenvalue-minimisations  :  4240
 total energy-change (2. order) : 0.4443480E+04  (-0.1571036E+05)
 number of electron  352.0000000 magnetization 
 augmentation part   352.0000000 magnetization 

 Free energy of the ion-electron system (eV)
  ---------------------------------------------------
  alpha Z        PSCENC =      2944.72857511
  Ewald energy   TEWEN  =    -29491.76803322
  -1/2 Hartree   DENC   =     -4719.10190753
  -V(xc)+E(xc)   XCENC  =       473.49448110
  PAW double counting   =     23920.39735419   -23172.13309131
  entropy T*S    EENTRO =         0.00501149
  eigenvalues    EBANDS =      4854.08408568
  atomic energy  EATOM  =     29633.77399530
  ---------------------------------------------------
  free energy    TOTEN  =      4443.48047082 eV

  energy without entropy =     4443.47545933  energy(sigma->0) =     4443.47880032


--------------------------------------------------------------------------------------------------------




----------------------------------------- Iteration    1(   2)  ---------------------------------------


    EDDIAG:  VPU time   62.31: CPU time   62.47
  RMM-DIIS:  VPU time  583.40: CPU time  585.16
    ORTHCH:  VPU time   22.01: CPU time   22.15
    DOS   :  VPU time    0.00: CPU time   -0.00
    ------------------------------------------
      LOOP:  VPU time  667.80: CPU time  669.87

 eigenvalue-minimisations  :  4240
 total energy-change (2. order) :-0.3463463E+04  (-0.3698303E+04)
 number of electron  352.0000000 magnetization 
 augmentation part   352.0000000 magnetization 

 Free energy of the ion-electron system (eV)
  ---------------------------------------------------
  alpha Z        PSCENC =      2944.72857511
  Ewald energy   TEWEN  =    -29491.76803322
  -1/2 Hartree   DENC   =     -4719.10190753
  -V(xc)+E(xc)   XCENC  =       473.49448110
  PAW double counting   =     23920.39735419   -23172.13309131
  entropy T*S    EENTRO =         0.00290829
  eigenvalues    EBANDS =      1390.62358738
  atomic energy  EATOM  =     29633.77399530
  ---------------------------------------------------
  free energy    TOTEN  =       980.01786932 eV

  energy without entropy =      980.01496102  energy(sigma->0) =      980.01689989


--------------------------------------------------------------------------------------------------------




----------------------------------------- Iteration    1(   3)  ---------------------------------------


    EDDIAG:  VPU time  146.99: CPU time  147.57
  RMM-DIIS:  VPU time  760.23: CPU time  765.00
    ORTHCH:  VPU time   16.51: CPU time   16.60
    DOS   :  VPU time    0.00: CPU time   -0.00
    ------------------------------------------
      LOOP:  VPU time  923.81: CPU time  929.26

 eigenvalue-minimisations  :  4240
 total energy-change (2. order) :-0.7364198E+03  (-0.7887853E+03)
 number of electron  352.0000000 magnetization 
 augmentation part   352.0000000 magnetization 

 Free energy of the ion-electron system (eV)
  ---------------------------------------------------
  alpha Z        PSCENC =      2944.72857511
  Ewald energy   TEWEN  =    -29491.76803322
  -1/2 Hartree   DENC   =     -4719.10190753
  -V(xc)+E(xc)   XCENC  =       473.49448110
  PAW double counting   =     23920.39735419   -23172.13309131
  entropy T*S    EENTRO =        -0.01298190
  eigenvalues    EBANDS =       654.21971129
  atomic energy  EATOM  =     29633.77399530
  ---------------------------------------------------
  free energy    TOTEN  =       243.59810304 eV

  energy without entropy =      243.61108494  energy(sigma->0) =      243.60243034


--------------------------------------------------------------------------------------------------------




----------------------------------------- Iteration    1(   4)  ---------------------------------------


    EDDIAG:  VPU time  144.58: CPU time  145.57
  RMM-DIIS:  VPU time  782.41: CPU time  789.27
    ORTHCH:  VPU time   16.50: CPU time   16.59
    DOS   :  VPU time   -0.00: CPU time   -0.00
    ------------------------------------------
      LOOP:  VPU time  943.58: CPU time  951.54

 eigenvalue-minimisations  :  4240
 total energy-change (2. order) :-0.2219849E+03  (-0.1722317E+03)
 number of electron  352.0000000 magnetization 
 augmentation part   352.0000000 magnetization 

 Free energy of the ion-electron system (eV)
  ---------------------------------------------------
  alpha Z        PSCENC =      2944.72857511
  Ewald energy   TEWEN  =    -29491.76803322
  -1/2 Hartree   DENC   =     -4719.10190753
  -V(xc)+E(xc)   XCENC  =       473.49448110
  PAW double counting   =     23920.39735419   -23172.13309131
  entropy T*S    EENTRO =        -0.01792670
  eigenvalues    EBANDS =       432.23975044
  atomic energy  EATOM  =     29633.77399530
  ---------------------------------------------------
  free energy    TOTEN  =        21.61319739 eV

  energy without entropy =       21.63112409  energy(sigma->0) =       21.61917295


--------------------------------------------------------------------------------------------------------




----------------------------------------- Iteration    1(   5)  ---------------------------------------


    EDDIAG:  VPU time  136.19: CPU time  136.70
  RMM-DIIS:  VPU time  801.55: CPU time  803.95
    ORTHCH:  VPU time   16.20: CPU time   16.29
    DOS   :  VPU time    0.00: CPU time   -0.00
    ------------------------------------------
      LOOP:  VPU time  954.02: CPU time  957.04

 eigenvalue-minimisations  :  4240
 total energy-change (2. order) :-0.8244427E+02  (-0.5682104E+02)
 number of electron  352.0000000 magnetization 
 augmentation part   352.0000000 magnetization 

 Free energy of the ion-electron system (eV)
  ---------------------------------------------------
  alpha Z        PSCENC =      2944.72857511
  Ewald energy   TEWEN  =    -29491.76803322
  -1/2 Hartree   DENC   =     -4719.10190753
  -V(xc)+E(xc)   XCENC  =       473.49448110
  PAW double counting   =     23920.39735419   -23172.13309131
  entropy T*S    EENTRO =         0.00826586
  eigenvalues    EBANDS =       349.76928533
  atomic energy  EATOM  =     29633.77399530
  ---------------------------------------------------
  free energy    TOTEN  =       -60.83107517 eV

  energy without entropy =      -60.83934102  energy(sigma->0) =      -60.83383045


--------------------------------------------------------------------------------------------------------




----------------------------------------- Iteration    1(   6)  ---------------------------------------


    EDDIAG:  VPU time  128.51: CPU time  128.85
  RMM-DIIS:  VPU time  820.81: CPU time  822.82
    ORTHCH:  VPU time   16.66: CPU time   16.71
    DOS   :  VPU time   -0.00: CPU time   -0.00
    ------------------------------------------
      LOOP:  VPU time  966.06: CPU time  968.46

 eigenvalue-minimisations  :  4240
 total energy-change (2. order) :-0.2865477E+02  (-0.2217034E+02)
 number of electron  352.0000000 magnetization 
 augmentation part   352.0000000 magnetization 

 Free energy of the ion-electron system (eV)
  ---------------------------------------------------
  alpha Z        PSCENC =      2944.72857511
  Ewald energy   TEWEN  =    -29491.76803322
  -1/2 Hartree   DENC   =     -4719.10190753
  -V(xc)+E(xc)   XCENC  =       473.49448110
  PAW double counting   =     23920.39735419   -23172.13309131
  entropy T*S    EENTRO =        -0.00095202
  eigenvalues    EBANDS =       321.12373002
  atomic energy  EATOM  =     29633.77399530
  ---------------------------------------------------
  free energy    TOTEN  =       -89.48584835 eV

  energy without entropy =      -89.48489633  energy(sigma->0) =      -89.48553101


--------------------------------------------------------------------------------------------------------




----------------------------------------- Iteration    1(   7)  ---------------------------------------


    EDDIAG:  VPU time  121.36: CPU time  122.06
  RMM-DIIS:  VPU time  839.94: CPU time  844.86
    ORTHCH:  VPU time   11.82: CPU time   11.86
    DOS   :  VPU time    0.00: CPU time   -0.00
    ------------------------------------------
      LOOP:  VPU time  973.20: CPU time  978.87

 eigenvalue-minimisations  :  4240
 total energy-change (2. order) :-0.1254053E+02  (-0.9706060E+01)
 number of electron  352.0000000 magnetization 
 augmentation part   352.0000000 magnetization 

 Free energy of the ion-electron system (eV)
  ---------------------------------------------------
  alpha Z        PSCENC =      2944.72857511
  Ewald energy   TEWEN  =    -29491.76803322
  -1/2 Hartree   DENC   =     -4719.10190753
  -V(xc)+E(xc)   XCENC  =       473.49448110
  PAW double counting   =     23920.39735419   -23172.13309131
  entropy T*S    EENTRO =         0.00838934
  eigenvalues    EBANDS =       308.57386191
  atomic energy  EATOM  =     29633.77399530
  ---------------------------------------------------
  free energy    TOTEN  =      -102.02637511 eV

  energy without entropy =     -102.03476445  energy(sigma->0) =     -102.02917155


--------------------------------------------------------------------------------------------------------




----------------------------------------- Iteration    1(   8)  ---------------------------------------


    EDDIAG:  VPU time  118.36: CPU time  118.70
  RMM-DIIS:  VPU time  844.49: CPU time  847.14
    ORTHCH:  VPU time   15.93: CPU time   15.95
    DOS   :  VPU time    0.00: CPU time   -0.00
    ------------------------------------------
      LOOP:  VPU time  978.86: CPU time  981.88

 eigenvalue-minimisations  :  4240
 total energy-change (2. order) :-0.4345984E+01  (-0.3865621E+01)
 number of electron  352.0000000 magnetization 
 augmentation part   352.0000000 magnetization 

 Free energy of the ion-electron system (eV)
  ---------------------------------------------------
  alpha Z        PSCENC =      2944.72857511
  Ewald energy   TEWEN  =    -29491.76803322
  -1/2 Hartree   DENC   =     -4719.10190753
  -V(xc)+E(xc)   XCENC  =       473.49448110
  PAW double counting   =     23920.39735419   -23172.13309131
  entropy T*S    EENTRO =         0.01076277
  eigenvalues    EBANDS =       304.22550405
  atomic energy  EATOM  =     29633.77399530
  ---------------------------------------------------
  free energy    TOTEN  =      -106.37235953 eV

  energy without entropy =     -106.38312230  energy(sigma->0) =     -106.37594712


--------------------------------------------------------------------------------------------------------




----------------------------------------- Iteration    1(   9)  ---------------------------------------


    EDDIAG:  VPU time  115.52: CPU time  115.83
  RMM-DIIS:  VPU time 1622.50: CPU time 1627.32
    ORTHCH:  VPU time   21.68: CPU time   21.77
    DOS   :  VPU time   -0.00: CPU time   -0.00
    ------------------------------------------
      LOOP:  VPU time 1759.79: CPU time 1765.01

 eigenvalue-minimisations  :  8973
 total energy-change (2. order) :-0.2593470E+01  (-0.2410455E+01)
 number of electron  352.0000000 magnetization 
 augmentation part   352.0000000 magnetization 

 Free energy of the ion-electron system (eV)
  ---------------------------------------------------
  alpha Z        PSCENC =      2944.72857511
  Ewald energy   TEWEN  =    -29491.76803322
  -1/2 Hartree   DENC   =     -4719.10190753
  -V(xc)+E(xc)   XCENC  =       473.49448110
  PAW double counting   =     23920.39735419   -23172.13309131
  entropy T*S    EENTRO =         0.01120538
  eigenvalues    EBANDS =       301.63159094
  atomic energy  EATOM  =     29633.77399530
  ---------------------------------------------------
  free energy    TOTEN  =      -108.96583003 eV

  energy without entropy =     -108.97703541  energy(sigma->0) =     -108.96956515


--------------------------------------------------------------------------------------------------------




----------------------------------------- Iteration    1(  10)  ---------------------------------------


    EDDIAG:  VPU time  136.23: CPU time  136.60
  RMM-DIIS:  VPU time 1730.72: CPU time 1739.94
    ORTHCH:  VPU time   18.64: CPU time   18.67
    DOS   :  VPU time    0.00: CPU time   -0.00
    ------------------------------------------
      LOOP:  VPU time 1885.68: CPU time 1895.32

 eigenvalue-minimisations  :  9819
 total energy-change (2. order) :-0.2753729E+00  (-0.2821844E+00)
 number of electron  352.0000000 magnetization 
 augmentation part   352.0000000 magnetization 

 Free energy of the ion-electron system (eV)
  ---------------------------------------------------
  alpha Z        PSCENC =      2944.72857511
  Ewald energy   TEWEN  =    -29491.76803322
  -1/2 Hartree   DENC   =     -4719.10190753
  -V(xc)+E(xc)   XCENC  =       473.49448110
  PAW double counting   =     23920.39735419   -23172.13309131
  entropy T*S    EENTRO =         0.01133850
  eigenvalues    EBANDS =       301.35608495
  atomic energy  EATOM  =     29633.77399530
  ---------------------------------------------------
  free energy    TOTEN  =      -109.24120290 eV

  energy without entropy =     -109.25254140  energy(sigma->0) =     -109.24498240


--------------------------------------------------------------------------------------------------------




----------------------------------------- Iteration    1(  11)  ---------------------------------------


    EDDIAG:  VPU time  114.02: CPU time  114.25
  RMM-DIIS:  VPU time 1696.66: CPU time 1700.41
    ORTHCH:  VPU time   16.11: CPU time   16.19
    DOS   :  VPU time    0.00: CPU time   -0.00
    ------------------------------------------
      LOOP:  VPU time 1826.88: CPU time 1830.95

 eigenvalue-minimisations  :  9147
 total energy-change (2. order) :-0.1020429E-01  (-0.7872871E-02)
 number of electron  352.0000000 magnetization 
 augmentation part   352.0000000 magnetization 

 Free energy of the ion-electron system (eV)
  ---------------------------------------------------
  alpha Z        PSCENC =      2944.72857511
  Ewald energy   TEWEN  =    -29491.76803322
  -1/2 Hartree   DENC   =     -4719.10190753
  -V(xc)+E(xc)   XCENC  =       473.49448110
  PAW double counting   =     23920.39735419   -23172.13309131
  entropy T*S    EENTRO =         0.01137926
  eigenvalues    EBANDS =       301.34583990
  atomic energy  EATOM  =     29633.77399530
  ---------------------------------------------------
  free energy    TOTEN  =      -109.25140719 eV

  energy without entropy =     -109.26278645  energy(sigma->0) =     -109.25520027


--------------------------------------------------------------------------------------------------------




----------------------------------------- Iteration    1(  12)  ---------------------------------------


    EDDIAG:  VPU time  125.28: CPU time  125.59
  RMM-DIIS:  VPU time 1669.90: CPU time 1673.61
    ORTHCH:  VPU time   16.55: CPU time   16.60
    DOS   :  VPU time    0.00: CPU time   -0.00
    CHARGE:  VPU time   75.09: CPU time   75.36
    MIXING:  VPU time    0.08: CPU time    0.08
    ------------------------------------------
      LOOP:  VPU time 1887.00: CPU time 1891.34

 eigenvalue-minimisations  :  9088
 total energy-change (2. order) :-0.1618397E-02  (-0.1523487E-02)
 number of electron  352.0000009 magnetization 
 augmentation part   124.8067180 magnetization 

 Broyden mixing:
  rms(total) = 0.15210E+01    rms(broyden)= 0.15210E+01
  rms(prec ) = 0.23240E+01
  weight for this iteration     100.00

 Free energy of the ion-electron system (eV)
  ---------------------------------------------------
  alpha Z        PSCENC =      2944.72857511
  Ewald energy   TEWEN  =    -29491.76803322
  -1/2 Hartree   DENC   =     -4719.10190753
  -V(xc)+E(xc)   XCENC  =       473.49448110
  PAW double counting   =     23920.39735419   -23172.13309131
  entropy T*S    EENTRO =         0.01138240
  eigenvalues    EBANDS =       301.34421837
  atomic energy  EATOM  =     29633.77399530
  ---------------------------------------------------
  free energy    TOTEN  =      -109.25302558 eV

  energy without entropy =     -109.26440798  energy(sigma->0) =     -109.25681972


--------------------------------------------------------------------------------------------------------




----------------------------------------- Iteration    1(  13)  ---------------------------------------


    POTLOK:  VPU time    3.09: CPU time    3.11
    SETDIJ:  VPU time    8.21: CPU time    8.24
    EDDIAG:  VPU time  145.52: CPU time  146.05
  RMM-DIIS:  VPU time 1524.80: CPU time 1528.52
    ORTHCH:  VPU time   22.28: CPU time   22.36
    DOS   :  VPU time    0.00: CPU time   -0.00
    CHARGE:  VPU time   77.83: CPU time   78.03
    MIXING:  VPU time    0.10: CPU time    0.10
    ------------------------------------------
      LOOP:  VPU time 1781.93: CPU time 1786.50

 eigenvalue-minimisations  :  8480
 total energy-change (2. order) : 0.6979532E+01  (-0.2152482E+01)
 number of electron  352.0000010 magnetization 
 augmentation part   129.1842712 magnetization 

 Broyden mixing:
  rms(total) = 0.39281E+00    rms(broyden)= 0.39280E+00
  rms(prec ) = 0.57051E+00
  weight for this iteration     100.00

 eigenvalues of (default mixing * dielectric matrix)
  average eigenvalue GAMMA=   1.1770
  1.1770

 Free energy of the ion-electron system (eV)
  ---------------------------------------------------
  alpha Z        PSCENC =      2944.72857511
  Ewald energy   TEWEN  =    -29491.76803322
  -1/2 Hartree   DENC   =     -4469.07616922
  -V(xc)+E(xc)   XCENC  =       462.38974802
  PAW double counting   =     23514.99859632   -22796.13825950
  entropy T*S    EENTRO =         0.00766517
  eigenvalues    EBANDS =        98.81038891
  atomic energy  EATOM  =     29633.77399530
  ---------------------------------------------------
  free energy    TOTEN  =      -102.27349312 eV

  energy without entropy =     -102.28115829  energy(sigma->0) =     -102.27604817


--------------------------------------------------------------------------------------------------------




----------------------------------------- Iteration    1(  14)  ---------------------------------------


    POTLOK:  VPU time    3.10: CPU time    3.11
    SETDIJ:  VPU time    8.19: CPU time    8.21
    EDDIAG:  VPU time  145.50: CPU time  145.94
  RMM-DIIS:  VPU time 1333.74: CPU time 1336.29
    ORTHCH:  VPU time   21.84: CPU time   21.98
    DOS   :  VPU time   -0.00: CPU time   -0.00
    CHARGE:  VPU time   77.45: CPU time   77.90
    MIXING:  VPU time    0.08: CPU time    0.08
    ------------------------------------------
      LOOP:  VPU time 1589.99: CPU time 1593.61

 eigenvalue-minimisations  :  8483
 total energy-change (2. order) : 0.2477526E+00  (-0.2005556E+00)
 number of electron  352.0000010 magnetization 
 augmentation part   130.1961576 magnetization 

 Broyden mixing:
  rms(total) = 0.17998E+00    rms(broyden)= 0.17998E+00
  rms(prec ) = 0.20457E+00
  weight for this iteration     100.00

 eigenvalues of (default mixing * dielectric matrix)
  average eigenvalue GAMMA=   1.7384
  1.2435  2.2332

 Free energy of the ion-electron system (eV)
  ---------------------------------------------------
  alpha Z        PSCENC =      2944.72857511
  Ewald energy   TEWEN  =    -29491.76803322
  -1/2 Hartree   DENC   =     -4401.55773675
  -V(xc)+E(xc)   XCENC  =       459.23751203
  PAW double counting   =     23470.11208950   -22767.91212049
  entropy T*S    EENTRO =         0.00392206
  eigenvalues    EBANDS =        51.35605598
  atomic energy  EATOM  =     29633.77399530
  ---------------------------------------------------
  free energy    TOTEN  =      -102.02574048 eV

  energy without entropy =     -102.02966254  energy(sigma->0) =     -102.02704783


--------------------------------------------------------------------------------------------------------




----------------------------------------- Iteration    1(  15)  ---------------------------------------


    POTLOK:  VPU time    3.13: CPU time    3.14
    SETDIJ:  VPU time    8.29: CPU time    8.30
    EDDIAG:  VPU time  145.76: CPU time  146.18
  RMM-DIIS:  VPU time 1329.46: CPU time 1332.52
    ORTHCH:  VPU time   22.03: CPU time   22.12
    DOS   :  VPU time   -0.00: CPU time   -0.00
    CHARGE:  VPU time   77.78: CPU time   78.06
    MIXING:  VPU time    0.10: CPU time    0.10
    ------------------------------------------
      LOOP:  VPU time 1586.64: CPU time 1590.52

 eigenvalue-minimisations  :  8485
 total energy-change (2. order) : 0.5273108E-01  (-0.9772731E-02)
 number of electron  352.0000010 magnetization 
 augmentation part   130.0512753 magnetization 

 Broyden mixing:
  rms(total) = 0.30211E-01    rms(broyden)= 0.30210E-01
  rms(prec ) = 0.46500E-01
  weight for this iteration     100.00

 eigenvalues of (default mixing * dielectric matrix)
  average eigenvalue GAMMA=   1.7590
  1.2553  1.2553  2.7663

 Free energy of the ion-electron system (eV)
  ---------------------------------------------------
  alpha Z        PSCENC =      2944.72857511
  Ewald energy   TEWEN  =    -29491.76803322
  -1/2 Hartree   DENC   =     -4391.04151835
  -V(xc)+E(xc)   XCENC  =       458.54288433
  PAW double counting   =     23572.49252458   -22883.20159835
  entropy T*S    EENTRO =         0.00492190
  eigenvalues    EBANDS =        54.49523930
  atomic energy  EATOM  =     29633.77399530
  ---------------------------------------------------
  free energy    TOTEN  =      -101.97300940 eV

  energy without entropy =     -101.97793130  energy(sigma->0) =     -101.97465003


--------------------------------------------------------------------------------------------------------




----------------------------------------- Iteration    1(  16)  ---------------------------------------


    POTLOK:  VPU time    3.12: CPU time    3.13
    SETDIJ:  VPU time    8.29: CPU time    8.34
    EDDIAG:  VPU time  145.47: CPU time  146.51
  RMM-DIIS:  VPU time 1414.38: CPU time 1420.77
    ORTHCH:  VPU time   21.90: CPU time   22.03
    DOS   :  VPU time    0.00: CPU time   -0.00
    CHARGE:  VPU time   77.45: CPU time   77.90
    MIXING:  VPU time    0.08: CPU time    0.08
    ------------------------------------------
      LOOP:  VPU time 1670.78: CPU time 1678.88

 eigenvalue-minimisations  :  8514
 total energy-change (2. order) : 0.4513609E-03  (-0.2255574E-02)
 number of electron  352.0000010 magnetization 
 augmentation part   130.1766428 magnetization 

 Broyden mixing:
  rms(total) = 0.12139E-01    rms(broyden)= 0.12139E-01
  rms(prec ) = 0.17020E-01
  weight for this iteration     100.00

 eigenvalues of (default mixing * dielectric matrix)
  average eigenvalue GAMMA=   1.8660
  1.0876  1.0876  2.6443  2.6443

 Free energy of the ion-electron system (eV)
  ---------------------------------------------------
  alpha Z        PSCENC =      2944.72857511
  Ewald energy   TEWEN  =    -29491.76803322
  -1/2 Hartree   DENC   =     -4381.52096322
  -V(xc)+E(xc)   XCENC  =       458.08796939
  PAW double counting   =     23579.11901906   -22891.92843827
  entropy T*S    EENTRO =         0.00426217
  eigenvalues    EBANDS =        47.53105564
  atomic energy  EATOM  =     29633.77399530
  ---------------------------------------------------
  free energy    TOTEN  =      -101.97255804 eV

  energy without entropy =     -101.97682021  energy(sigma->0) =     -101.97397876


--------------------------------------------------------------------------------------------------------




----------------------------------------- Iteration    1(  17)  ---------------------------------------


    POTLOK:  VPU time    3.16: CPU time    3.17
    SETDIJ:  VPU time    8.25: CPU time    8.27
    EDDIAG:  VPU time  145.64: CPU time  146.04
  RMM-DIIS:  VPU time 1510.05: CPU time 1517.03
    ORTHCH:  VPU time   21.94: CPU time   22.08
    DOS   :  VPU time    0.00: CPU time   -0.00
    CHARGE:  VPU time   77.25: CPU time   77.69
    MIXING:  VPU time    0.10: CPU time    0.10
    ------------------------------------------
      LOOP:  VPU time 1766.48: CPU time 1774.48

 eigenvalue-minimisations  :  8660
 total energy-change (2. order) : 0.2865550E-03  (-0.7914256E-04)
 number of electron  352.0000010 magnetization 
 augmentation part   130.1719113 magnetization 

 Broyden mixing:
  rms(total) = 0.54375E-02    rms(broyden)= 0.54375E-02
  rms(prec ) = 0.77193E-02
  weight for this iteration     100.00

 eigenvalues of (default mixing * dielectric matrix)
  average eigenvalue GAMMA=   1.7230
  2.8551  2.3691  1.0743  1.1581  1.1581

 Free energy of the ion-electron system (eV)
  ---------------------------------------------------
  alpha Z        PSCENC =      2944.72857511
  Ewald energy   TEWEN  =    -29491.76803322
  -1/2 Hartree   DENC   =     -4383.65984324
  -V(xc)+E(xc)   XCENC  =       458.18063663
  PAW double counting   =     23586.49980104   -22898.11393819
  entropy T*S    EENTRO =         0.00437077
  eigenvalues    EBANDS =        48.38216433
  atomic energy  EATOM  =     29633.77399530
  ---------------------------------------------------
  free energy    TOTEN  =      -101.97227148 eV

  energy without entropy =     -101.97664225  energy(sigma->0) =     -101.97372841


--------------------------------------------------------------------------------------------------------




----------------------------------------- Iteration    1(  18)  ---------------------------------------


    POTLOK:  VPU time    3.09: CPU time    3.09
    SETDIJ:  VPU time    8.29: CPU time    8.31
    EDDIAG:  VPU time  146.00: CPU time  146.48
  RMM-DIIS:  VPU time 1466.61: CPU time 1471.49
    ORTHCH:  VPU time   20.95: CPU time   21.06
    DOS   :  VPU time   -0.00: CPU time   -0.00
    CHARGE:  VPU time   77.44: CPU time   77.79
    MIXING:  VPU time    0.09: CPU time    0.09
    ------------------------------------------
      LOOP:  VPU time 1722.56: CPU time 1728.41

 eigenvalue-minimisations  :  8480
 total energy-change (2. order) : 0.7410807E-04  (-0.3810345E-04)
 number of electron  352.0000010 magnetization 
 augmentation part   130.1543103 magnetization 

 Broyden mixing:
  rms(total) = 0.31395E-03    rms(broyden)= 0.31383E-03
  rms(prec ) = 0.41122E-03
  weight for this iteration     100.00

 eigenvalues of (default mixing * dielectric matrix)
  average eigenvalue GAMMA=   1.8971
  2.9255  2.9255  2.3362  0.9729  1.1114  1.1114

 Free energy of the ion-electron system (eV)
  ---------------------------------------------------
  alpha Z        PSCENC =      2944.72857511
  Ewald energy   TEWEN  =    -29491.76803322
  -1/2 Hartree   DENC   =     -4384.51366574
  -V(xc)+E(xc)   XCENC  =       458.21625620
  PAW double counting   =     23588.46604265   -22900.07659738
  entropy T*S    EENTRO =         0.00446716
  eigenvalues    EBANDS =        49.19676255
  atomic energy  EATOM  =     29633.77399530
  ---------------------------------------------------
  free energy    TOTEN  =      -101.97219738 eV

  energy without entropy =     -101.97666453  energy(sigma->0) =     -101.97368643


--------------------------------------------------------------------------------------------------------




----------------------------------------- Iteration    1(  19)  ---------------------------------------


    POTLOK:  VPU time    3.07: CPU time    3.08
    SETDIJ:  VPU time    8.22: CPU time    8.25
    EDDIAG:  VPU time  145.17: CPU time  145.86
  RMM-DIIS:  VPU time  954.91: CPU time  957.94
    ORTHCH:  VPU time   21.82: CPU time   21.91
    DOS   :  VPU time    0.00: CPU time   -0.00
    ------------------------------------------
      LOOP:  VPU time 1133.28: CPU time 1137.13

 eigenvalue-minimisations  :  4773
 total energy-change (2. order) : 0.3745678E-05  (-0.6733304E-06)
 number of electron  352.0000010 magnetization 
 augmentation part   130.1543103 magnetization 

 Free energy of the ion-electron system (eV)
  ---------------------------------------------------
  alpha Z        PSCENC =      2944.72857511
  Ewald energy   TEWEN  =    -29491.76803322
  -1/2 Hartree   DENC   =     -4384.55281126
  -V(xc)+E(xc)   XCENC  =       458.21810991
  PAW double counting   =     23588.03905346   -22899.63349474
  entropy T*S    EENTRO =         0.00446964
  eigenvalues    EBANDS =        49.21794217
  atomic energy  EATOM  =     29633.77399530
  ---------------------------------------------------
  free energy    TOTEN  =      -101.97219363 eV

  energy without entropy =     -101.97666327  energy(sigma->0) =     -101.97368351


--------------------------------------------------------------------------------------------------------




 average (electrostatic) potential at core
  the test charge radii are     1.2098
  (the norm of the test charge is              1.0000)
       1 -47.0630       2 -47.0630       3 -47.0630       4 -47.0630       5 -47.0630
       6 -47.0630       7 -47.0630       8 -47.0630       9 -47.0630      10 -47.0630
      11 -47.0630      12 -47.0630      13 -47.0630      14 -47.0630      15 -47.0630
      16 -47.0630      17 -47.0630      18 -47.0630      19 -47.0630      20 -47.0630
      21 -47.0630      22 -47.0630      23 -47.0630      24 -47.0630      25 -47.0630
      26 -47.0630      27 -47.0630      28 -47.0630      29 -47.0630      30 -47.0630
      31 -47.0630      32 -47.0630
 
 
 
 E-fermi :   3.6792     XC(G=0): -11.6788     alpha+bet : -8.5271
   add alpha+bet to get absolut eigen values

 k-point   1 :       0.0625    0.0625    0.0625
  band No.  band energies     occupation 
      1      -4.4191      2.00000
      2      -2.5167      2.00000
      3      -2.5167      2.00000
      4      -2.5167      2.00000
      5      -2.2145      2.00000
      6      -2.1936      2.00000
      7      -2.1936      2.00000
      8      -2.1936      2.00000
      9      -2.1618      2.00000
     10      -2.1618      2.00000
     11      -2.1618      2.00000
     12      -1.9485      2.00000
     13      -1.9485      2.00000
     14      -1.9485      2.00000
     15      -1.7293      2.00000
     16      -1.7293      2.00000
     17      -1.7293      2.00000
     18      -1.4133      2.00000
     19      -1.4133      2.00000
     20      -1.4133      2.00000
     21      -1.2479      2.00000
     22      -1.2479      2.00000
     23      -1.2479      2.00000
     24      -1.2479      2.00000
     25      -1.2479      2.00000
     26      -1.2479      2.00000
     27      -1.1743      2.00000
     28      -1.1743      2.00000
     29      -1.1743      2.00000
     30      -1.1058      2.00000
     31      -1.1058      2.00000
     32      -1.1058      2.00000
     33      -1.1058      2.00000
     34      -1.1058      2.00000
     35      -1.1058      2.00000
     36      -1.1016      2.00000
     37      -1.1016      2.00000
     38      -1.1016      2.00000
     39      -0.9546      2.00000
     40      -0.9546      2.00000
     41      -0.9546      2.00000
     42      -0.6645      2.00000
     43      -0.6645      2.00000
     44      -0.6645      2.00000
     45      -0.6645      2.00000
     46      -0.6645      2.00000
     47      -0.6645      2.00000
     48      -0.5903      2.00000
     49      -0.5903      2.00000
     50      -0.5903      2.00000
     51      -0.5688      2.00000
     52      -0.5688      2.00000
     53      -0.5688      2.00000
     54      -0.5688      2.00000
     55      -0.5688      2.00000
     56      -0.5688      2.00000
     57      -0.5089      2.00000
     58      -0.5089      2.00000
     59      -0.5089      2.00000
     60      -0.3692      2.00000
     61      -0.3692      2.00000
     62      -0.3692      2.00000
     63      -0.3692      2.00000
     64      -0.3692      2.00000
     65      -0.3692      2.00000
     66      -0.3046      2.00000
     67      -0.3046      2.00000
     68      -0.3046      2.00000
     69      -0.3046      2.00000
     70      -0.3046      2.00000
     71      -0.3046      2.00000
     72      -0.2937      2.00000
     73      -0.2937      2.00000
     74      -0.2937      2.00000
     75      -0.2492      2.00000
     76      -0.2492      2.00000
     77      -0.2492      2.00000
     78      -0.2323      2.00000
     79      -0.2323      2.00000
     80      -0.2277      2.00000
     81      -0.2245      2.00000
     82      -0.2245      2.00000
     83      -0.2245      2.00000
     84      -0.2221      2.00000
     85      -0.2221      2.00000
     86      -0.2221      2.00000
     87      -0.2107      2.00000
     88      -0.2107      2.00000
     89       0.2829      2.00000
     90       0.2829      2.00000
     91       0.2829      2.00000
     92       0.3602      2.00000
     93       0.3602      2.00000
     94       0.3602      2.00000
     95       0.4306      2.00000
     96       0.4306      2.00000
     97       0.4306      2.00000
     98       0.4959      2.00000
     99       0.4959      2.00000
    100       0.4959      2.00000
    101       0.4959      2.00000
    102       0.4959      2.00000
    103       0.4959      2.00000
    104       0.4993      2.00000
    105       0.4993      2.00000
    106       0.4993      2.00000
    107       0.5881      2.00000
    108       0.5881      2.00000
    109       0.5881      2.00000
    110       0.6582      2.00000
    111       0.6582      2.00000
    112       0.6582      2.00000
    113       0.7906      2.00000
    114       0.7906      2.00000
    115       0.7906      2.00000
    116       0.8144      2.00000
    117       0.8144      2.00000
    118       0.8144      2.00000
    119       0.8389      2.00000
    120       0.8389      2.00000
    121       0.8389      2.00000
    122       0.8389      2.00000
    123       0.8389      2.00000
    124       0.8389      2.00000
    125       0.8760      2.00000
    126       0.8760      2.00000
    127       0.8760      2.00000
    128       0.8821      2.00000
    129       0.8821      2.00000
    130       0.9389      2.00000
    131       0.9389      2.00000
    132       0.9389      2.00000
    133       0.9389      2.00000
    134       0.9389      2.00000
    135       0.9389      2.00000
    136       1.0260      2.00000
    137       1.0260      2.00000
    138       1.0260      2.00000
    139       1.2598      2.00000
    140       1.2598      2.00000
    141       1.2598      2.00000
    142       1.3463      2.00000
    143       1.3463      2.00000
    144       1.3463      2.00000
    145       1.6662      2.00000
    146       1.6662      2.00000
    147       1.6662      2.00000
    148       1.7116      2.00000
    149       1.7116      2.00000
    150       1.7116      2.00000
    151       1.7454      2.00000
    152       1.7454      2.00000
    153       1.7639      2.00000
    154       1.7639      2.00000
    155       1.7639      2.00000
    156       1.9398      2.00000
    157       1.9398      2.00000
    158       1.9398      2.00000
    159       1.9792      2.00000
    160       1.9792      2.00000
    161       1.9792      2.00000
    162       1.9792      2.00000
    163       1.9792      2.00000
    164       1.9792      2.00000
    165       1.9825      2.00000
    166       1.9825      2.00000
    167       1.9825      2.00000
    168       2.8421      2.00000
    169       2.8421      2.00000
    170       2.8421      2.00000
    171       3.1830      2.00252
    172       3.2361      2.00750
    173       3.2361      2.00750
    174       3.2361      2.00750
    175       3.2361      2.00750
    176       3.2361      2.00750
    177       3.2361      2.00750
    178       3.5567      1.85107
    179       3.5567      1.85107
    180       3.5567      1.85107
    181       3.6517      1.23004
    182       3.6517      1.23003
    183       3.6517      1.23003
    184       5.1287     -0.00000
    185       5.1287     -0.00000
    186       5.1287     -0.00000
    187       5.9596     -0.00000
    188       5.9596     -0.00000
    189       5.9596     -0.00000
    190       6.2707     -0.00000
    191       7.4478     -0.00000
    192       7.4478     -0.00000
    193       7.4478     -0.00000
    194       7.4478     -0.00000
    195       7.4478     -0.00000
    196       7.4478     -0.00000
    197       8.3074     -0.00000
    198       8.3074     -0.00000
    199       8.3089     -0.00000
    200       9.1318     -0.00000
    201       9.1318     -0.00000
    202       9.1319     -0.00000
    203       9.1323     -0.00000
    204       9.1340     -0.00000
    205       9.1371     -0.00000
    206       9.8484      0.00000
    207       9.8501      0.00000
    208       9.8502      0.00000
    209       9.8618      0.00000
    210       9.8953      0.00000
    211      10.6844      0.00000
    212      11.0683      0.00000

 k-point   2 :       0.1875    0.0625    0.0625
  band No.  band energies     occupation 
      1      -4.3413      2.00000
      2      -2.9180      2.00000
      3      -2.4610      2.00000
      4      -2.4610      2.00000
      5      -2.1950      2.00000
      6      -2.1529      2.00000
      7      -2.1529      2.00000
      8      -2.1325      2.00000
      9      -2.1079      2.00000
     10      -2.1079      2.00000
     11      -1.9252      2.00000
     12      -1.9176      2.00000
     13      -1.9014      2.00000
     14      -1.9014      2.00000
     15      -1.7039      2.00000
     16      -1.6897      2.00000
     17      -1.6897      2.00000
     18      -1.6013      2.00000
     19      -1.6013      2.00000
     20      -1.5570      2.00000
     21      -1.4135      2.00000
     22      -1.4135      2.00000
     23      -1.3585      2.00000
     24      -1.3585      2.00000
     25      -1.3308      2.00000
     26      -1.2422      2.00000
     27      -1.2012      2.00000
     28      -1.2012      2.00000
     29      -1.1207      2.00000
     30      -1.1207      2.00000
     31      -1.1012      2.00000
     32      -1.1012      2.00000
     33      -1.0823      2.00000
     34      -1.0823      2.00000
     35      -1.0767      2.00000
     36      -1.0767      2.00000
     37      -1.0694      2.00000
     38      -1.0694      2.00000
     39      -0.9337      2.00000
     40      -0.9337      2.00000
     41      -0.9224      2.00000
     42      -0.9224      2.00000
     43      -0.8063      2.00000
     44      -0.6839      2.00000
     45      -0.6839      2.00000
     46      -0.6644      2.00000
     47      -0.6644      2.00000
     48      -0.6553      2.00000
     49      -0.6553      2.00000
     50      -0.6351      2.00000
     51      -0.6351      2.00000
     52      -0.5752      2.00000
     53      -0.5752      2.00000
     54      -0.4931      2.00000
     55      -0.4901      2.00000
     56      -0.4901      2.00000
     57      -0.4721      2.00000
     58      -0.4721      2.00000
     59      -0.4469      2.00000
     60      -0.4224      2.00000
     61      -0.4224      2.00000
     62      -0.4163      2.00000
     63      -0.4163      2.00000
     64      -0.3631      2.00000
     65      -0.3631      2.00000
     66      -0.3353      2.00000
     67      -0.3353      2.00000
     68      -0.3280      2.00000
     69      -0.3280      2.00000
     70      -0.2800      2.00000
     71      -0.2655      2.00000
     72      -0.2655      2.00000
     73      -0.2582      2.00000
     74      -0.2302      2.00000
     75      -0.2108      2.00000
     76      -0.1994      2.00000
     77      -0.1994      2.00000
     78      -0.1884      2.00000
     79      -0.1884      2.00000
     80      -0.1825      2.00000
     81      -0.1807      2.00000
     82      -0.1802      2.00000
     83      -0.1605      2.00000
     84      -0.1605      2.00000
     85      -0.1347      2.00000
     86      -0.0869      2.00000
     87      -0.0433      2.00000
     88      -0.0433      2.00000
     89       0.1647      2.00000
     90       0.1647      2.00000
     91       0.2100      2.00000
     92       0.2100      2.00000
     93       0.2894      2.00000
     94       0.3060      2.00000
     95       0.3774      2.00000
     96       0.3774      2.00000
     97       0.3913      2.00000
     98       0.4004      2.00000
     99       0.4496      2.00000
    100       0.4496      2.00000
    101       0.4922      2.00000
    102       0.5634      2.00000
    103       0.5634      2.00000
    104       0.5732      2.00000
    105       0.5732      2.00000
    106       0.5791      2.00000
    107       0.5791      2.00000
    108       0.5986      2.00000
    109       0.6161      2.00000
    110       0.6161      2.00000
    111       0.7341      2.00000
    112       0.7341      2.00000
    113       0.7664      2.00000
    114       0.7664      2.00000
    115       0.7691      2.00000
    116       0.7691      2.00000
    117       0.8434      2.00000
    118       0.8434      2.00000
    119       0.8473      2.00000
    120       0.8565      2.00000
    121       0.8565      2.00000
    122       0.8914      2.00000
    123       0.8914      2.00000
    124       0.8977      2.00000
    125       0.9360      2.00000
    126       0.9360      2.00000
    127       0.9547      2.00000
    128       0.9938      2.00000
    129       0.9938      2.00000
    130       1.0013      2.00000
    131       1.0706      2.00000
    132       1.0706      2.00000
    133       1.0970      2.00000
    134       1.0970      2.00000
    135       1.1314      2.00000
    136       1.1397      2.00000
    137       1.1499      2.00000
    138       1.1499      2.00000
    139       1.1766      2.00000
    140       1.3028      2.00000
    141       1.3028      2.00000
    142       1.4142      2.00000
    143       1.4142      2.00000
    144       1.4338      2.00000
    145       1.4653      2.00000
    146       1.4891      2.00000
    147       1.4891      2.00000
    148       1.6294      2.00000
    149       1.6576      2.00000
    150       1.6576      2.00000
    151       1.6849      2.00000
    152       1.6895      2.00000
    153       1.7394      2.00000
    154       1.7407      2.00000
    155       1.7407      2.00000
    156       1.7589      2.00000
    157       1.7589      2.00000
    158       1.8748      2.00000
    159       1.9147      2.00000
    160       1.9147      2.00000
    161       1.9156      2.00000
    162       1.9156      2.00000
    163       1.9276      2.00000
    164       1.9792      2.00000
    165       1.9792      2.00000
    166       1.9793      2.00000
    167       1.9793      2.00000
    168       2.4946      2.00000
    169       2.4946      2.00000
    170       2.8353      2.00000
    171       2.8600      2.00000
    172       2.8600      2.00000
    173       2.9087      2.00000
    174       3.2453      2.00890
    175       3.2453      2.00890
    176       3.4887      2.03893
    177       3.4887      2.03893
    178       3.6774      1.01488
    179       3.6941      0.87417
    180       3.6941      0.87417
    181       3.8432      0.01009
    182       4.1221     -0.00753
    183       4.1221     -0.00753
    184       4.4643     -0.00000
    185       5.3722     -0.00000
    186       5.3722     -0.00000
    187       5.9659     -0.00000
    188       6.2923     -0.00000
    189       6.2923     -0.00000
    190       6.7853     -0.00000
    191       6.9555     -0.00000
    192       6.9555     -0.00000
    193       7.1266     -0.00000
    194       7.1266     -0.00000
    195       7.4273     -0.00000
    196       7.4273     -0.00000
    197       8.2621     -0.00000
    198       8.2623     -0.00000
    199       8.5522     -0.00000
    200       8.5523     -0.00000
    201       9.0711     -0.00000
    202       9.0748     -0.00000
    203       9.1143     -0.00000
    204       9.2136      0.00000
    205       9.2159      0.00000
    206       9.7735      0.00000
    207      10.0044      0.00000
    208      10.0530      0.00000
    209      10.2363      0.00000
    210      10.2506      0.00000
    211      10.2696      0.00000
    212      10.4073      0.00000

 k-point   3 :       0.3125    0.0625    0.0625
  band No.  band energies     occupation 
      1      -4.1871      2.00000
      2      -3.3114      2.00000
      3      -2.3529      2.00000
      4      -2.3529      2.00000
      5      -2.1353      2.00000
      6      -2.0723      2.00000
      7      -2.0723      2.00000
      8      -2.0326      2.00000
      9      -2.0039      2.00000
     10      -2.0039      2.00000
     11      -1.8833      2.00000
     12      -1.8101      2.00000
     13      -1.8101      2.00000
     14      -1.8079      2.00000
     15      -1.8061      2.00000
     16      -1.8061      2.00000
     17      -1.7364      2.00000
     18      -1.6538      2.00000
     19      -1.6135      2.00000
     20      -1.6135      2.00000
     21      -1.6108      2.00000
     22      -1.6108      2.00000
     23      -1.5325      2.00000
     24      -1.5106      2.00000
     25      -1.5106      2.00000
     26      -1.3714      2.00000
     27      -1.3545      2.00000
     28      -1.3545      2.00000
     29      -1.1463      2.00000
     30      -1.1463      2.00000
     31      -1.0753      2.00000
     32      -1.0752      2.00000
     33      -1.0468      2.00000
     34      -1.0468      2.00000
     35      -1.0275      2.00000
     36      -1.0275      2.00000
     37      -0.9991      2.00000
     38      -0.9991      2.00000
     39      -0.9672      2.00000
     40      -0.9672      2.00000
     41      -0.8933      2.00000
     42      -0.8933      2.00000
     43      -0.7600      2.00000
     44      -0.7600      2.00000
     45      -0.7046      2.00000
     46      -0.7046      2.00000
     47      -0.6980      2.00000
     48      -0.6980      2.00000
     49      -0.6747      2.00000
     50      -0.6747      2.00000
     51      -0.6628      2.00000
     52      -0.6397      2.00000
     53      -0.6397      2.00000
     54      -0.5436      2.00000
     55      -0.5436      2.00000
     56      -0.5100      2.00000
     57      -0.5100      2.00000
     58      -0.4869      2.00000
     59      -0.4869      2.00000
     60      -0.4614      2.00000
     61      -0.4134      2.00000
     62      -0.4134      2.00000
     63      -0.3551      2.00000
     64      -0.3551      2.00000
     65      -0.3482      2.00000
     66      -0.3482      2.00000
     67      -0.3470      2.00000
     68      -0.3231      2.00000
     69      -0.3231      2.00000
     70      -0.3225      2.00000
     71      -0.3218      2.00000
     72      -0.2929      2.00000
     73      -0.2929      2.00000
     74      -0.2419      2.00000
     75      -0.1882      2.00000
     76      -0.1882      2.00000
     77      -0.1582      2.00000
     78      -0.1251      2.00000
     79      -0.1251      2.00000
     80      -0.1213      2.00000
     81      -0.1196      2.00000
     82      -0.1093      2.00000
     83       0.0316      2.00000
     84       0.0316      2.00000
     85       0.0329      2.00000
     86       0.0329      2.00000
     87       0.1087      2.00000
     88       0.1087      2.00000
     89       0.1202      2.00000
     90       0.1630      2.00000
     91       0.2103      2.00000
     92       0.2180      2.00000
     93       0.2326      2.00000
     94       0.2501      2.00000
     95       0.2526      2.00000
     96       0.2526      2.00000
     97       0.3109      2.00000
     98       0.3109      2.00000
     99       0.4839      2.00000
    100       0.5082      2.00000
    101       0.5082      2.00000
    102       0.5648      2.00000
    103       0.5648      2.00000
    104       0.6498      2.00000
    105       0.6498      2.00000
    106       0.6841      2.00000
    107       0.6841      2.00000
    108       0.7091      2.00000
    109       0.7091      2.00000
    110       0.7382      2.00000
    111       0.7382      2.00000
    112       0.7563      2.00000
    113       0.7563      2.00000
    114       0.7806      2.00000
    115       0.8228      2.00000
    116       0.8228      2.00000
    117       0.8429      2.00000
    118       0.8429      2.00000
    119       0.8747      2.00000
    120       0.8747      2.00000
    121       0.8862      2.00000
    122       0.8862      2.00000
    123       0.9284      2.00000
    124       0.9737      2.00000
    125       1.0282      2.00000
    126       1.0282      2.00000
    127       1.0942      2.00000
    128       1.0942      2.00000
    129       1.0995      2.00000
    130       1.1274      2.00000
    131       1.1911      2.00000
    132       1.2042      2.00000
    133       1.2042      2.00000
    134       1.2105      2.00000
    135       1.2374      2.00000
    136       1.2374      2.00000
    137       1.2754      2.00000
    138       1.2754      2.00000
    139       1.2907      2.00000
    140       1.3024      2.00000
    141       1.3024      2.00000
    142       1.3128      2.00000
    143       1.4262      2.00000
    144       1.4262      2.00000
    145       1.4313      2.00000
    146       1.4313      2.00000
    147       1.4684      2.00000
    148       1.5204      2.00000
    149       1.5784      2.00000
    150       1.5784      2.00000
    151       1.5860      2.00000
    152       1.6018      2.00000
    153       1.6018      2.00000
    154       1.6417      2.00000
    155       1.6649      2.00000
    156       1.6649      2.00000
    157       1.6737      2.00000
    158       1.7489      2.00000
    159       1.7964      2.00000
    160       1.7964      2.00000
    161       1.7974      2.00000
    162       1.7974      2.00000
    163       1.8278      2.00000
    164       1.9789      2.00000
    165       1.9789      2.00000
    166       1.9791      2.00000
    167       1.9791      2.00000
    168       2.1798      2.00000
    169       2.1798      2.00000
    170       2.5106      2.00000
    171       2.5106      2.00000
    172       2.8027      2.00000
    173       2.8220      2.00000
    174       3.2644      2.01249
    175       3.2644      2.01249
    176       3.4069      2.06616
    177       3.4069      2.06616
    178       3.6032      1.59474
[...]
    111       0.6154      2.00000
    112       0.6154      2.00000
    113       0.6154      2.00000
    114       0.6281      2.00000
    115       0.6281      2.00000
    116       0.6281      2.00000
    117       0.7124      2.00000
    118       0.7124      2.00000
    119       0.7124      2.00000
    120       0.7670      2.00000
    121       0.7670      2.00000
    122       0.7670      2.00000
    123       0.7670      2.00000
    124       0.7670      2.00000
    125       0.7670      2.00000
    126       0.8684      2.00000
    127       0.8684      2.00000
    128       0.8684      2.00000
    129       0.9223      2.00000
    130       0.9223      2.00000
    131       0.9223      2.00000
    132       0.9345      2.00000
    133       0.9345      2.00000
    134       0.9704      2.00000
    135       0.9704      2.00000
    136       0.9704      2.00000
    137       1.0716      2.00000
    138       1.0716      2.00000
    139       1.0716      2.00000
    140       1.1344      2.00000
    141       1.1344      2.00000
    142       1.1629      2.00000
    143       1.1629      2.00000
    144       1.1629      2.00000
    145       1.7862      2.00000
    146       1.7862      2.00000
    147       1.7862      2.00000
    148       1.8081      2.00000
    149       1.8081      2.00000
    150       1.8081      2.00000
    151       1.8081      2.00000
    152       1.8081      2.00000
    153       1.8081      2.00000
    154       1.8087      2.00000
    155       1.8087      2.00000
    156       1.8087      2.00000
    157       1.8087      2.00000
    158       1.8087      2.00000
    159       1.8087      2.00000
    160       1.8129      2.00000
    161       1.8129      2.00000
    162       1.8129      2.00000
    163       1.8290      2.00000
    164       1.8290      2.00000
    165       1.8290      2.00000
    166       1.8408      2.00000
    167       1.8408      2.00000
    168       1.8408      2.00000
    169       3.7716      0.30285
    170       3.7716      0.30285
    171       3.7716      0.30285
    172       4.1100     -0.00942
    173       4.1100     -0.00942
    174       4.1100     -0.00942
    175       4.1100     -0.00942
    176       4.1100     -0.00942
    177       4.1100     -0.00942
    178       4.4159     -0.00000
    179       4.4159     -0.00000
    180       4.4159     -0.00000
    181       4.5517     -0.00000
    182       4.5517     -0.00000
    183       4.5517     -0.00000
    184       4.9099     -0.00000
    185       4.9099     -0.00000
    186       4.9099     -0.00000
    187       4.9099     -0.00000
    188       4.9099     -0.00000
    189       4.9099     -0.00000
    190       5.2457     -0.00000
    191       5.2457     -0.00000
    192       5.2457     -0.00000
    193       7.6558     -0.00000
    194       7.6560     -0.00000
    195       7.6573     -0.00000
    196       8.0475     -0.00000
    197       8.0493     -0.00000
    198       8.0566     -0.00000
    199       8.3823     -0.00000
    200       8.3823     -0.00000
    201       8.3842     -0.00000
    202       8.3867     -0.00000
    203       8.3912     -0.00000
    204       8.4086     -0.00000
    205       8.8160     -0.00000
    206       8.8160     -0.00000
    207       8.8306     -0.00000
    208       8.8558     -0.00000
    209       8.9627     -0.00000
    210       9.0000     -0.00000
    211       9.2756      0.00000
    212       9.4394      0.00000


--------------------------------------------------------------------------------------------------------


 soft charge-density along one line, spin component           1
         0         1         2         3         4         5         6         7         8         9
 total charge-density along one line
 
 pseudopotential strength for first ion, spin component:           1
-10.460   0.000  -0.000   0.000  -0.000  -0.009  -0.000   0.000
  0.000 -10.460   0.000   0.000  -0.000  -0.000  -0.009  -0.000
 -0.000   0.000 -10.448   0.000  -0.000   0.000  -0.000  -0.011
  0.000   0.000   0.000 -10.460   0.000  -0.000  -0.000  -0.000
 -0.000  -0.000  -0.000   0.000 -10.448   0.000   0.000   0.000
 -0.009  -0.000   0.000  -0.000   0.000   0.271   0.000  -0.000
 -0.000  -0.009  -0.000  -0.000   0.000   0.000   0.271   0.000
  0.000  -0.000  -0.011  -0.000   0.000  -0.000   0.000   0.272
 -0.000  -0.000  -0.000  -0.009  -0.000   0.000   0.000   0.000
  0.000   0.000   0.000  -0.000  -0.011  -0.000  -0.000  -0.000
 -0.000  -0.000  -0.000  -0.000  -0.000   0.000   0.000  -0.000
  0.000   0.000   0.000   0.000   0.000  -0.000  -0.000  -0.000
  0.000  -0.000  -0.000   0.000  -0.000  -0.000   0.000   0.000
  0.000   0.000  -0.000   0.000   0.000  -0.000  -0.000   0.000
  0.000   0.000  -0.000  -0.000   0.000  -0.000  -0.000   0.000
 -0.000   0.000   0.000  -0.000   0.000   0.000  -0.000  -0.000
 -0.000  -0.000   0.000  -0.000  -0.000   0.000   0.000  -0.000
 -0.000  -0.000   0.000   0.000  -0.000   0.000   0.000  -0.000
 total augmentation occupancy for first ion, spin component:           1
  1.903  -0.001  -0.003   0.001   0.001  -0.065   0.001   0.001  -0.001  -0.001   0.007   0.000   0.000   0.000   0.000  -0.000
 -0.001   1.921  -0.003  -0.002  -0.001   0.001  -0.080   0.004   0.001  -0.001   0.001  -0.002  -0.000   0.000   0.000  -0.000
 -0.003  -0.003   1.964  -0.001   0.004   0.001   0.004  -0.111   0.002  -0.002   0.020   0.004  -0.000   0.000  -0.000  -0.000
  0.001  -0.002  -0.001   1.914   0.003  -0.001   0.001   0.002  -0.070  -0.001   0.005   0.001   0.000  -0.000  -0.000  -0.000
  0.001  -0.001   0.004   0.003   1.945  -0.001  -0.001  -0.002  -0.001  -0.097  -0.007  -0.002   0.000   0.000  -0.000  -0.000
 -0.065   0.001   0.001  -0.001  -0.001   0.123  -0.001   0.002   0.000   0.000  -0.002   0.001  -0.000  -0.000  -0.000  -0.000
  0.001  -0.080   0.004   0.001  -0.001  -0.001   0.134  -0.004  -0.001   0.002   0.003   0.003   0.000  -0.000  -0.000   0.000
  0.001   0.004  -0.111   0.002  -0.002   0.002  -0.004   0.104  -0.002   0.000  -0.012  -0.001  -0.000  -0.000   0.000  -0.000
 -0.001   0.001   0.002  -0.070  -0.001   0.000  -0.001  -0.002   0.123  -0.000  -0.002   0.001   0.000  -0.000   0.000   0.000
 -0.001  -0.001  -0.002  -0.001  -0.097   0.000   0.002   0.000  -0.000   0.096   0.006   0.001   0.000  -0.000   0.000   0.000
  0.007   0.001   0.020   0.005  -0.007  -0.002   0.003  -0.012  -0.002   0.006   1.000  -0.284   0.000   0.000  -0.000  -0.000
  0.000  -0.002   0.004   0.001  -0.002   0.001   0.003  -0.001   0.001   0.001  -0.284   0.159   0.000  -0.000  -0.000  -0.000
  0.000  -0.000  -0.000   0.000   0.000  -0.000   0.000  -0.000   0.000   0.000   0.000   0.000   0.107  -0.001   0.003  -0.008
  0.000   0.000   0.000  -0.000   0.000  -0.000  -0.000  -0.000  -0.000  -0.000   0.000  -0.000  -0.001   0.110   0.001  -0.000
  0.000   0.000  -0.000  -0.000  -0.000  -0.000  -0.000   0.000   0.000   0.000  -0.000  -0.000   0.003   0.001   0.109  -0.000
 -0.000  -0.000  -0.000  -0.000  -0.000  -0.000   0.000  -0.000   0.000   0.000  -0.000  -0.000  -0.008  -0.000  -0.000   0.001
  0.000  -0.000   0.000   0.000   0.000  -0.000   0.000  -0.000  -0.000  -0.000   0.000   0.000  -0.000  -0.008  -0.000   0.000
  0.000   0.000  -0.000  -0.000  -0.000  -0.000  -0.000   0.000   0.000   0.000  -0.000   0.000  -0.000  -0.000  -0.008   0.000


------------------------ aborting loop because EDIFF is reached ----------------------------------------




--------------------------------------------------------------------------------------------------------


    CHARGE:  VPU time   77.44: CPU time   77.70
    FORLOC:  VPU time    0.52: CPU time    0.53
    FORNL :  VPU time  271.66: CPU time  272.33
    STRESS:  VPU time 2427.18: CPU time 2439.30
    FORCOR:  VPU time    3.31: CPU time    3.32
    FORHAR:  VPU time    1.24: CPU time    1.25
    MIXING:  VPU time    0.09: CPU time    0.09


--------------------------------------------------------------------------------------------------------



  FREE ENERGIE OF THE ION-ELECTRON SYSTEM (eV)
  ---------------------------------------------------
  free  energy   TOTEN  =      -101.972194 eV

  energy  without entropy=     -101.976663  energy(sigma->0) =     -101.973684
 

  FORCE on cell =-STRESS in cart. coord.  units (eV/reduce length):
  Direction    X        Y        Z        XY       YZ       ZX
  --------------------------------------------------------------------------------------
  Alpha Z   2944.73   2944.73   2944.73
  Ewald    -9830.63  -9830.63  -9830.63     -0.00     -0.00     -0.00
  Hartree   1461.51   1461.51   1461.51     -0.00     -0.00     -0.00
  E(xc)    -1576.45  -1576.45  -1576.45     -0.00     -0.00     -0.00
  Local     2368.92   2368.92   2368.92      0.00      0.00      0.00
  n-local  -1678.65  -1673.57  -1661.31      4.87      0.13      3.41
  augment   1377.02   1377.02   1377.02     -0.00     -0.00     -0.00
  Kinetic   4873.77   4879.67   4890.76      1.69     -3.44      0.22
  -------------------------------------------------------------------------------------
  Total      -44.68    -44.68    -44.68     -0.00     -0.00     -0.00
  in kB     -109.91   -109.91   -109.91     -0.00     -0.00     -0.00
  external pressure =     -109.91 kB  Pullay stress =        0.00 kB


 VOLUME and BASIS-vectors are now :
 -----------------------------------------------------------------------------
  energy-cutoff  :      600.00
  volume of cell :      651.25
      direct lattice vectors                 reciprocal lattice vectors
     8.667960810  0.000000000  0.000000000     0.115367388 -0.000000002 -0.000000002
     0.000000160  8.667960810  0.000000000     0.000000000  0.115367388 -0.000000002
     0.000000160  0.000000160  8.667960810     0.000000000  0.000000000  0.115367388

  length of vectors
     8.667960810  8.667960810  8.667960810     0.115367388  0.115367388  0.115367388


 FORCES acting on ions
    electron-ion (+dipol)            ewald-force                    non-local-force                 convergence-correction
 -----------------------------------------------------------------------------------------------
   0.457E-12 -.131E-10 0.214E-11   -.870E-13 0.107E-13 -.178E-12   -.106E-21 0.259E-22 0.146E-22   0.165E-12 -.145E-13 -.738E-12
   0.456E-12 -.745E-12 -.178E-12   -.222E-13 -.266E-13 -.214E-12   0.133E-21 -.133E-21 -.807E-23   0.310E-13 -.438E-12 0.994E-12
   0.457E-12 -.354E-13 -.552E-11   0.533E-14 -.864E-14 -.121E-12   0.961E-22 -.447E-22 -.188E-22   -.848E-13 -.400E-12 -.102E-12
   0.457E-12 0.379E-11 0.162E-11   0.311E-14 0.711E-13 -.202E-12   0.792E-22 -.114E-21 0.104E-22   0.120E-12 -.198E-13 -.283E-12
   -.316E-13 0.473E-12 0.147E-12   0.313E-13 -.742E-13 -.657E-13   -.131E-21 0.940E-22 0.132E-22   -.620E-13 -.102E-12 -.246E-12
   -.382E-13 -.315E-13 0.300E-12   0.263E-14 0.595E-13 -.544E-13   -.118E-21 0.930E-22 0.236E-22   0.107E-12 -.189E-12 -.419E-12
   0.144E-12 -.114E-11 0.125E-11   -.280E-13 -.462E-13 -.104E-12   0.363E-22 -.923E-22 -.331E-22   -.209E-12 -.146E-13 -.393E-12
   0.458E-12 0.307E-13 0.228E-11   -.751E-13 0.257E-13 -.158E-12   -.828E-22 0.473E-22 -.112E-22   0.117E-12 0.448E-13 -.247E-12
   0.457E-12 -.861E-11 -.244E-12   -.178E-13 -.400E-13 -.899E-13   -.112E-21 0.706E-22 0.744E-23   -.166E-12 0.428E-12 0.558E-12
   0.457E-12 -.136E-11 0.688E-11   0.346E-13 0.192E-13 -.639E-13   -.116E-21 0.401E-22 0.302E-22   0.330E-13 0.457E-12 -.536E-12
   -.260E-13 0.466E-12 0.437E-12   0.263E-13 -.919E-13 -.751E-13   0.102E-21 -.619E-22 0.103E-22   0.290E-12 -.192E-12 -.588E-13
   -.316E-13 -.248E-13 -.231E-13   0.727E-13 -.268E-13 0.644E-13   0.644E-22 -.818E-22 -.141E-22   0.462E-12 -.114E-12 0.677E-12
   -.379E-13 0.118E-12 0.142E-12   -.124E-13 -.431E-13 -.102E-13   0.872E-22 -.411E-22 -.149E-22   0.297E-12 0.810E-13 -.325E-12
   -.316E-13 0.302E-12 0.306E-12   -.273E-13 0.114E-12 -.115E-13   0.102E-21 -.105E-21 0.993E-23   0.117E-12 0.245E-12 -.336E-12
   0.144E-12 0.208E-11 0.883E-12   0.746E-13 -.453E-13 -.435E-13   -.119E-21 0.329E-22 0.174E-22   -.723E-13 -.707E-13 0.631E-12
   0.145E-12 -.241E-13 -.136E-11   0.537E-13 -.134E-13 0.195E-13   -.115E-21 0.116E-21 -.331E-23   0.399E-13 -.321E-13 -.440E-12
   0.145E-12 0.170E-11 0.123E-11   -.657E-13 -.355E-13 -.441E-13   -.818E-23 0.762E-22 -.165E-22   -.167E-12 -.415E-15 -.314E-12
   0.308E-12 -.334E-11 -.294E-12   -.309E-13 0.382E-13 0.104E-12   0.135E-21 -.243E-22 0.149E-22   0.141E-12 -.156E-14 -.394E-12
   0.313E-12 -.237E-13 -.266E-11   0.357E-13 -.122E-13 0.166E-12   0.107E-21 -.976E-22 0.662E-23   -.254E-13 -.133E-12 -.608E-12
   0.457E-12 -.968E-12 -.997E-11   0.391E-13 -.328E-13 -.124E-13   0.987E-22 -.541E-22 -.165E-22   0.829E-13 0.116E-13 0.193E-12
   -.321E-13 0.124E-12 0.444E-12   -.114E-12 0.244E-13 -.178E-14   -.636E-22 -.997E-23 0.331E-23   0.271E-12 0.171E-12 0.276E-13
   -.258E-13 0.296E-12 -.300E-13   -.384E-13 0.412E-15 0.126E-12   -.139E-21 0.511E-22 -.223E-22   0.936E-13 0.155E-12 0.579E-12
   0.145E-12 -.361E-13 0.213E-11   -.195E-13 -.136E-13 -.107E-13   0.107E-21 -.136E-21 0.331E-23   -.162E-12 0.331E-13 0.133E-12
   0.145E-12 -.146E-11 0.903E-12   -.622E-14 -.115E-12 0.843E-13   0.111E-21 -.986E-22 -.213E-22   0.119E-12 0.534E-13 0.578E-12
   0.145E-12 0.296E-12 0.180E-11   0.178E-13 0.275E-14 0.693E-13   0.130E-21 0.940E-23 0.165E-23   -.788E-13 0.103E-12 -.494E-12
   0.303E-12 0.275E-11 0.478E-11   0.625E-14 -.702E-13 0.142E-13   -.110E-21 0.343E-22 -.149E-22   -.211E-12 -.245E-12 0.622E-13
   0.306E-12 0.218E-13 0.211E-11   0.160E-13 -.463E-13 0.114E-12   -.123E-21 0.364E-22 0.786E-23   -.379E-12 0.103E-12 0.892E-12
   0.313E-12 -.246E-11 -.388E-12   -.678E-13 -.719E-13 0.142E-12   -.781E-22 0.105E-21 0.130E-22   -.216E-12 -.433E-13 -.633E-12
   0.307E-12 -.280E-11 -.248E-11   0.109E-13 -.418E-13 0.215E-12   -.151E-22 0.778E-22 -.190E-22   -.454E-13 0.213E-12 -.371E-12
   0.145E-12 0.308E-12 -.103E-11   -.346E-13 0.297E-14 0.782E-13   -.129E-21 0.487E-25 -.215E-22   -.128E-12 0.380E-13 0.188E-12
   0.307E-12 -.217E-11 -.152E-11   -.242E-13 -.666E-13 0.109E-12   0.106E-21 -.133E-21 -.513E-22   -.190E-12 0.200E-12 0.296E-12
   0.301E-12 -.284E-11 0.181E-11   0.413E-13 -.754E-13 0.175E-12   0.156E-21 -.775E-22 0.165E-23   -.220E-13 -.224E-13 0.642E-12
 -----------------------------------------------------------------------------------------------
   0.702E-11 -.284E-10 0.590E-11   -.199E-12 -.629E-12 0.204E-13   0.869E-22 -.395E-21 -.973E-22   0.269E-12 0.304E-12 -.485E-12
 
 
 POSITION                                       TOTAL-FORCE (eV/Angst)
 -----------------------------------------------------------------------------------
      6.50097      6.50097      4.33398        -0.000000      0.000000     -0.000000
      6.50097      6.50097      0.00000         0.000000      0.000000     -0.000000
      6.50097      0.00000      2.16699        -0.000000      0.000000      0.000000
      6.50097      2.16699      4.33398        -0.000000     -0.000000      0.000000
      0.00000      6.50097      2.16699         0.000000      0.000000      0.000000
      0.00000      0.00000      4.33398        -0.000000     -0.000000     -0.000000
      2.16699      6.50097      4.33398        -0.000000      0.000000      0.000000
      6.50097      0.00000      6.50097         0.000000     -0.000000     -0.000000
      6.50097      2.16699      0.00000         0.000000      0.000000      0.000000
      6.50097      4.33398      2.16699         0.000000     -0.000000     -0.000000
      0.00000      6.50097      6.50097         0.000000      0.000000      0.000000
      0.00000      0.00000      0.00000         0.000000      0.000000     -0.000000
      0.00000      2.16699      2.16699         0.000000      0.000000     -0.000000
      0.00000      4.33398      4.33398        -0.000000      0.000000      0.000000
      2.16699      6.50097      0.00000         0.000000      0.000000      0.000000
      2.16699      0.00000      2.16699         0.000000      0.000000      0.000000
      2.16699      2.16699      4.33398         0.000000      0.000000      0.000000
      4.33398      6.50097      2.16699         0.000000     -0.000000     -0.000000
      4.33398      0.00000      4.33398         0.000000     -0.000000      0.000000
      6.50097      4.33398      6.50097         0.000000      0.000000      0.000000
      0.00000      2.16699      6.50097        -0.000000     -0.000000      0.000000
      0.00000      4.33398      0.00000         0.000000     -0.000000     -0.000000
      2.16699      0.00000      6.50097        -0.000000      0.000000     -0.000000
      2.16699      2.16699      0.00000        -0.000000      0.000000     -0.000000
      2.16699      4.33398      2.16699         0.000000      0.000000      0.000000
      4.33398      6.50097      6.50097         0.000000     -0.000000      0.000000
      4.33398      0.00000      0.00000         0.000000     -0.000000      0.000000
      4.33398      2.16699      2.16699        -0.000000     -0.000000     -0.000000
      4.33398      4.33398      4.33398        -0.000000     -0.000000      0.000000
      2.16699      4.33398      6.50097        -0.000000      0.000000     -0.000000
      4.33398      2.16699      6.50097        -0.000000      0.000000     -0.000000
      4.33398      4.33398      0.00000         0.000000      0.000000      0.000000
 -----------------------------------------------------------------------------------
    total drift:                                0.000000     -0.000000      0.000000


--------------------------------------------------------------------------------------------------------




--------------------------------------------------------------------------------------------------------


  
 reached required accuracy - stopping structural energy minimisation
 writing wavefunctions
     LOOP+:  VPU time28102.48: CPU time28269.94

 ----------------------------------------------------------------------------- 
|                                                                             |
|           W    W    AA    RRRRR   N    N  II  N    N   GGGG   !!!           |
|           W    W   A  A   R    R  NN   N  II  NN   N  G    G  !!!           |
|           W    W  A    A  R    R  N N  N  II  N N  N  G       !!!           |
|           W WW W  AAAAAA  RRRRR   N  N N  II  N  N N  G  GGG   !            |
|           WW  WW  A    A  R   R   N   NN  II  N   NN  G    G                |
|           W    W  A    A  R    R  N    N  II  N    N   GGGG   !!!           |
|                                                                             |
|      The partial DOS and the PROCAR file are not evaluated for NPAR/=1      |
|      please rerun with NPAR=1                                               |
|                                                                             |
 ----------------------------------------------------------------------------- 

  
  
 General timing and accounting informations for this job:
 ========================================================
  
                  Total CPU time used (sec):    28172.115
                            User time (sec):    26761.266
                          System time (sec):     1410.850
                         Elapsed time (sec):    28339.769
  
                   Maximum memory used (kb):     2089824.
                   Average memory used (kb):           0.
  
                          Minor page faults:       419034
                          Major page faults:            0
                 Voluntary context switches:         3914
