    4    4    1    1
  0.1097545E+02  0.3527719E-09  0.3527719E-09  0.3527719E-09  0.5000000E-15
  1.000000000000000E-004
  CAR 
 unknown system                          
   44 1330   32
 
  0.0000000E+00  0.0000000E+00  0.0000000E+00  0.2143347E-04
   1       -5.4744
   2       -0.9021
   3       -0.9021
   4       -0.9021
   5       -0.4003
   6       -0.4003
   7       -0.4003
   8        1.1590
   9        1.1590
  10        1.1590
  11        2.0867
  12        2.0867
  13        2.7020
  14        2.7020
  15        2.7020
  16        2.8749
  17        2.8749
  18        2.8749
  19        2.8749
  20        2.8749
  21        2.8749
  22        5.9080
  23        5.9080
  24        5.9080
  25       12.0965
  26       12.0965
  27       12.0965
  28       18.2222
  29       18.2222
  30       18.2222
  31       18.2222
  32       18.2222
 
  0.2777778E-01  0.0000000E+00  0.0000000E+00  0.1286008E-03
   1       -5.4645
   2       -0.9018
   3       -0.8972
   4       -0.8972
   5       -0.3975
   6       -0.3973
   7       -0.3973
   8        1.1558
   9        1.1615
  10        1.1615
  11        2.0839
  12        2.0879
  13        2.6983
  14        2.6983
  15        2.7008
  16        2.8544
  17        2.8544
  18        2.8705
  19        2.8705
  20        2.8749
  21        2.8749
  22        5.8442
  23        5.9372
  24        5.9372
  25       12.0997
  26       12.0997
  27       12.1792
  28       18.1474
  29       18.1474
  30       18.1790
  31       18.1790
  32       18.2370
 
  0.5555556E-01  0.0000000E+00  0.0000000E+00  0.1286008E-03
   1       -5.4348
   2       -0.9011
   3       -0.8828
   4       -0.8828
   5       -0.3891
   6       -0.3885
   7       -0.3885
   8        1.1464
   9        1.1689
  10        1.1689
  11        2.0753
  12        2.0913
  13        2.6872
  14        2.6872
  15        2.6972
  16        2.7951
  17        2.7951
  18        2.8574
  19        2.8574
  20        2.8749
  21        2.8749
  22        5.6629
  23        6.0225
  24        6.0225
  25       12.1095
  26       12.1095
  27       12.4175
  28       17.9378
  29       17.9378
  30       18.0541
  31       18.0541
  32       18.2812
 
  0.8333333E-01  0.0000000E+00  0.0000000E+00  0.1286008E-03
   1       -5.3853
   2       -0.9007
   3       -0.8589
   4       -0.8589
   5       -0.3753
   6       -0.3737
   7       -0.3737
   8        1.1308
   9        1.1813
  10        1.1813
  11        2.0611
  12        2.0970
  13        2.6688
  14        2.6688
  15        2.6913
  16        2.7030
  17        2.7030
  18        2.8359
  19        2.8359
  20        2.8750
  21        2.8750
  22        5.3887
  23        6.1580
  24        6.1580
  25       12.1258
  26       12.1258
  27       12.7873
  28       17.6264
  29       17.6264
  30       17.8592
  31       17.8592
  32       18.3548
 
  0.1111111E+00  0.0000000E+00  0.0000000E+00  0.1286008E-03
   1       -5.3162
   2       -0.9016
   3       -0.8260
   4       -0.8260
   5       -0.3560
   6       -0.3530
   7       -0.3530
   8        1.1091
   9        1.1987
  10        1.1987
  11        2.0415
  12        2.1049
  13        2.5857
  14        2.5857
  15        2.6434
  16        2.6434
  17        2.6830
  18        2.8062
  19        2.8062
  20        2.8750
  21        2.8750
  22        5.0500
  23        6.3360
  24        6.3360
  25       12.1490
  26       12.1490
  27       13.2608
  28       17.2470
  29       17.2470
  30       17.6099
  31       17.6099
  32       18.4572
 
  0.1388889E+00  0.0000000E+00  0.0000000E+00  0.1286008E-03
   1       -5.2278
   2       -0.9052
   3       -0.7847
   4       -0.7847
   5       -0.3314
   6       -0.3263
   7       -0.3263
   8        1.0816
   9        1.2208
  10        1.2208
  11        2.0168
  12        2.1149
  13        2.4504
  14        2.4504
  15        2.6112
  16        2.6112
  17        2.6725
  18        2.7688
  19        2.7688
  20        2.8751
  21        2.8751
  22        4.6722
  23        6.5492
  24        6.5492
  25       12.1791
  26       12.1791
  27       13.8138
  28       16.8250
  29       16.8250
  30       17.3221
  31       17.3221
  32       18.5880
 
  0.1666667E+00  0.0000000E+00  0.0000000E+00  0.1286008E-03
   1       -5.1201
   2       -0.9137
   3       -0.7355
   4       -0.7355
   5       -0.3016
   6       -0.2936
   7       -0.2936
   8        1.0484
   9        1.2479
  10        1.2479
  11        1.9872
  12        2.1271
  13        2.3033
  14        2.3033
  15        2.5725
  16        2.5725
  17        2.6599
  18        2.7243
  19        2.7243
  20        2.8751
  21        2.8751
  22        4.2756
  23        6.7914
  24        6.7914
  25       12.2166
  26       12.2166
  27       14.4276
  28       16.3779
  29       16.3779
  30       17.0099
  31       17.0099
  32       18.7464
 
  0.1944444E+00  0.0000000E+00  0.0000000E+00  0.1286008E-03
   1       -4.9936
   2       -0.9298
   3       -0.6794
   4       -0.6794
   5       -0.2669
   6       -0.2549
   7       -0.2549
   8        1.0099
   9        1.2796
  10        1.2796
  11        1.9533
  12        2.1412
  13        2.1493
  14        2.1493
  15        2.5281
  16        2.5281
  17        2.6452
  18        2.6733
  19        2.6733
  20        2.8752
  21        2.8752
  22        3.8757
  23        7.0577
  24        7.0577
  25       12.2617
  26       12.2617
  27       15.0888
  28       15.9166
  29       15.9166
  30       16.6845
  31       16.6845
  32       18.9319
 
  0.2222222E+00  0.0000000E+00  0.0000000E+00  0.1286008E-03
   1       -4.8486
   2       -0.9573
   3       -0.6175
   4       -0.6175
   5       -0.2275
   6       -0.2099
   7       -0.2099
   8        0.9665
   9        1.3160
  10        1.3160
  11        1.9155
  12        1.9920
  13        1.9920
  14        2.1573
  15        2.4785
  16        2.4785
  17        2.6166
  18        2.6166
  19        2.6285
  20        2.8753
  21        2.8753
  22        3.4852
  23        7.3443
  24        7.3443
  25       12.3149
  26       12.3149
  27       15.4484
  28       15.4484
  29       15.7877
  30       16.3550
  31       16.3550
  32       19.1435
 
  0.2500000E+00  0.0000000E+00  0.0000000E+00  0.1286008E-03
   1       -4.6857
   2       -1.0004
   3       -0.5511
   4       -0.5511
   5       -0.1836
   6       -0.1588
   7       -0.1588
   8        0.9185
   9        1.3569
  10        1.3569
  11        1.8341
  12        1.8341
  13        1.8746
  14        2.1751
  15        2.4247
  16        2.4247
  17        2.5548
  18        2.5548
  19        2.6101
  20        2.8753
  21        2.8753
  22        3.1146
  23        7.6486
  24        7.6486
  25       12.3764
  26       12.3764
  27       14.9780
  28       14.9780
  29       16.0283
  30       16.0283
  31       16.5171
  32       19.3803
 
  0.2777778E+00  0.0000000E+00  0.0000000E+00  0.1286008E-03
   1       -4.5054
   2       -1.0643
   3       -0.4816
   4       -0.4816
   5       -0.1355
   6       -0.1015
   7       -0.1015
   8        0.8662
   9        1.4022
  10        1.4022
  11        1.6776
  12        1.6776
  13        1.8313
  14        2.1946
  15        2.3679
  16        2.3679
  17        2.4888
  18        2.4888
  19        2.5900
  20        2.7732
  21        2.8754
  22        2.8754
  23        7.9683
  24        7.9683
  25       12.4467
  26       12.4467
  27       14.5085
  28       14.5085
  29       15.7096
  30       15.7096
  31       17.2715
  32       19.6414
 
  0.3055556E+00  0.0000000E+00  0.0000000E+00  0.1286008E-03
   1       -4.3085
   2       -1.1543
   3       -0.4111
   4       -0.4111
   5       -0.0836
   6       -0.0378
   7       -0.0378
   8        0.8102
   9        1.4518
  10        1.4518
  11        1.5238
  12        1.5238
  13        1.7866
  14        2.2155
  15        2.3095
  16        2.3095
  17        2.4193
  18        2.4193
  19        2.4694
  20        2.5684
  21        2.8755
  22        2.8755
  23        8.3021
  24        8.3021
  25       12.5260
  26       12.5260
  27       14.0422
  28       14.0422
  29       15.4033
  30       15.4033
  31       18.0464
  32       19.9260
 
  0.3333333E+00  0.0000000E+00  0.0000000E+00  0.1286008E-03
   1       -4.0960
   2       -1.2749
   3       -0.3416
   4       -0.3416
   5       -0.0281
   6        0.0322
   7        0.0322
   8        0.7510
   9        1.3740
  10        1.3740
  11        1.5053
  12        1.5053
  13        1.7417
  14        2.2096
  15        2.2379
  16        2.2514
  17        2.2514
  18        2.3471
  19        2.3471
  20        2.5455
  21        2.8756
  22        2.8756
  23        8.6486
  24        8.6486
  25       12.6142
  26       12.6142
  27       13.5806
  28       13.5806
  29       15.1126
  30       15.1126
  31       18.8377
  32       20.2329
 
  0.3611111E+00  0.0000000E+00  0.0000000E+00  0.1286008E-03
   1       -3.8691
   2       -1.4286
   3       -0.2756
   4       -0.2756
   5        0.0305
   6        0.1087
   7        0.1087
   8        0.6890
   9        1.2289
  10        1.2289
  11        1.5627
  12        1.5628
  13        1.6980
  14        1.9979
  15        2.1955
  16        2.1955
  17        2.2614
  18        2.2730
  19        2.2730
  20        2.5214
  21        2.8756
  22        2.8756
  23        9.0069
  24        9.0069
  25       12.7109
  26       12.7109
  27       13.1247
  28       13.1247
  29       14.8407
  30       14.8407
  31       19.6417
  32       20.5613
 
  0.3888889E+00  0.0000000E+00  0.0000000E+00  0.1286008E-03
   1       -3.6292
   2       -1.6150
   3       -0.2158
   4       -0.2158
   5        0.0919
   6        0.1917
   7        0.1917
   8        0.6247
   9        1.0890
  10        1.0890
  11        1.6237
  12        1.6237
  13        1.6573
  14        1.8347
  15        2.1445
  16        2.1445
  17        2.1977
  18        2.1977
  19        2.2860
  20        2.4964
  21        2.8757
  22        2.8757
  23        9.3764
  24        9.3764
  25       12.6754
  26       12.6754
  27       12.8146
  28       12.8146
  29       14.5911
  30       14.5911
  31       20.4541
  32       20.9103
 
  0.4166667E+00  0.0000000E+00  0.0000000E+00  0.1286008E-03
   1       -3.3783
   2       -1.8303
   3       -0.1651
   4       -0.1651
   5        0.1555
   6        0.2812
   7        0.2812
   8        0.5587
   9        0.9548
  10        0.9548
  11        1.6217
  12        1.6880
  13        1.6880
  14        1.7170
  15        2.1009
  16        2.1009
  17        2.1218
  18        2.1218
  19        2.3114
  20        2.4706
  21        2.8757
  22        2.8757
  23        9.7564
  24        9.7564
  25       12.2332
  26       12.2332
  27       12.9218
  28       12.9218
  29       14.3690
  30       14.3690
  31       21.2706
  32       21.2788
 
  0.4444444E+00  0.0000000E+00  0.0000000E+00  0.1286008E-03
   1       -3.1186
   2       -2.0686
   3       -0.1263
   4       -0.1263
   5        0.2210
   6        0.3772
   7        0.3772
   8        0.4915
   9        0.8266
  10        0.8266
  11        1.5939
  12        1.6390
  13        1.7553
  14        1.7553
  15        2.0461
  16        2.0461
  17        2.0673
  18        2.0673
  19        2.3375
  20        2.4443
  21        2.8757
  22        2.8757
  23       10.1464
  24       10.1464
  25       11.7988
  26       11.7988
  27       13.0246
  28       13.0246
  29       14.1833
  30       14.1833
  31       21.6660
  32       21.6660
 
  0.4722222E+00  0.0000000E+00  0.0000000E+00  0.1286008E-03
   1       -2.8534
   2       -2.3230
   3       -0.1019
   4       -0.1019
   5        0.2878
   6        0.4236
   7        0.4798
   8        0.4798
   9        0.7046
  10        0.7046
  11        1.5771
  12        1.5941
  13        1.8251
  14        1.8251
  15        1.9710
  16        1.9710
  17        2.0461
  18        2.0461
  19        2.3640
  20        2.4176
  21        2.8758
  22        2.8758
  23       10.5460
  24       10.5460
  25       11.3726
  26       11.3726
  27       13.1060
  28       13.1060
  29       14.0519
  30       14.0519
  31       22.0710
  32       22.0710
 
  0.5000000E+00  0.0000000E+00  0.0000000E+00  0.6430041E-04
   1       -2.5866
   2       -2.5866
   3       -0.0936
   4       -0.0936
   5        0.3555
   6        0.3555
   7        0.5890
   8        0.5890
   9        0.5890
  10        0.5890
  11        1.5755
  12        1.5755
  13        1.8972
  14        1.8972
  15        1.8972
  16        1.8972
  17        2.0388
  18        2.0388
  19        2.3908
  20        2.3908
  21        2.8758
  22        2.8758
  23       10.9549
  24       10.9549
  25       10.9549
  26       10.9549
  27       13.1387
  28       13.1387
  29       14.0024
  30       14.0024
  31       22.4930
  32       22.4930
 
  0.2777778E-01  0.2777778E-01  0.0000000E+00  0.2572016E-03
   1       -5.4546
   2       -0.8969
   3       -0.8969
   4       -0.8924
   5       -0.3946
   6       -0.3946
   7       -0.3944
   8        1.1540
   9        1.1627
  10        1.1639
  11        2.0830
  12        2.0870
  13        2.6946
  14        2.6969
  15        2.6969
  16        2.8370
  17        2.8500
  18        2.8500
  19        2.8705
  20        2.8705
  21        2.8721
  22        5.8734
  23        5.8734
  24        5.9661
  25       12.1030
  26       12.1826
  27       12.1826
  28       17.9669
  29       18.1620
  30       18.1620
  31       18.1937
  32       18.1937
 
  0.5555556E-01  0.2777778E-01  0.0000000E+00  0.5144033E-03
   1       -5.4249
   2       -0.8963
   3       -0.8824
   4       -0.8780
   5       -0.3862
   6       -0.3857
   7       -0.3856
   8        1.1452
   9        1.1695
  10        1.1713
  11        2.0753
  12        2.0897
  13        2.6836
  14        2.6851
  15        2.6928
  16        2.7802
  17        2.7911
  18        2.8370
  19        2.8574
  20        2.8705
  21        2.8706
  22        5.6921
  23        5.9585
  24        6.0504
  25       12.1127
  26       12.1929
  27       12.4214
  28       17.6821
  29       17.9520
  30       18.0685
  31       18.2059
  32       18.2247
 
  0.8333333E-01  0.2777778E-01  0.0000000E+00  0.5144033E-03
   1       -5.3754
   2       -0.8958
   3       -0.8585
   4       -0.8542
   5       -0.3724
   6       -0.3710
   7       -0.3709
   8        1.1298
   9        1.1817
  10        1.1836
  11        2.0613
  12        2.0954
  13        2.6618
  14        2.6653
  15        2.6859
  16        2.6900
  17        2.7035
  18        2.8157
  19        2.8359
  20        2.8702
  21        2.8706
  22        5.4180
  23        6.0935
  24        6.1845
  25       12.1290
  26       12.2102
  27       12.7918
  28       17.3309
  29       17.6402
  30       17.8732
  31       18.0958
  32       18.2826
 
  0.1111111E+00  0.2777778E-01  0.0000000E+00  0.5144033E-03
   1       -5.3064
   2       -0.8965
   3       -0.8256
   4       -0.8214
   5       -0.3531
   6       -0.3503
   7       -0.3502
   8        1.1083
   9        1.1989
  10        1.2007
  11        2.0418
  12        2.1033
  13        2.5743
  14        2.5746
  15        2.6400
  16        2.6475
  17        2.6758
  18        2.7866
  19        2.8062
  20        2.8701
  21        2.8706
  22        5.0799
  23        6.2706
  24        6.3610
  25       12.1521
  26       12.2347
  27       13.2659
  28       16.9349
  29       17.2603
  30       17.6235
  31       17.8858
  32       18.3799
 
  0.1388889E+00  0.2777778E-01  0.0000000E+00  0.5144033E-03
   1       -5.2180
   2       -0.9000
   3       -0.7841
   4       -0.7801
   5       -0.3286
   6       -0.3237
   7       -0.3237
   8        1.0808
   9        1.2211
  10        1.2226
  11        2.0172
  12        2.1135
  13        2.4406
  14        2.4412
  15        2.6079
  16        2.6132
  17        2.6619
  18        2.7509
  19        2.7688
  20        2.8701
  21        2.8706
  22        4.7035
  23        6.4825
  24        6.5727
  25       12.1822
  26       12.2665
  27       13.8193
  28       16.5106
  29       16.8381
  30       17.3353
  31       17.6176
  32       18.5097
 
  0.1666667E+00  0.2777778E-01  0.0000000E+00  0.5144033E-03
   1       -5.1103
   2       -0.9084
   3       -0.7348
   4       -0.7311
   5       -0.2989
   6       -0.2911
   7       -0.2911
   8        1.0478
   9        1.2481
  10        1.2493
  11        1.9878
  12        2.1258
  13        2.2945
  14        2.2950
  15        2.5694
  16        2.5740
  17        2.6418
  18        2.7111
  19        2.7243
  20        2.8701
  21        2.8707
  22        4.3091
  23        6.7227
  24        6.8134
  25       12.2195
  26       12.3061
  27       14.4336
  28       16.0695
  29       16.3907
  30       17.0226
  31       17.3115
  32       18.6662
 
  0.1944444E+00  0.2777778E-01  0.0000000E+00  0.5144033E-03
   1       -4.9839
   2       -0.9244
   3       -0.6786
   4       -0.6751
   5       -0.2643
   6       -0.2525
   7       -0.2524
   8        1.0095
   9        1.2798
  10        1.2806
  11        1.9541
  12        2.1402
  13        2.1407
  14        2.1424
  15        2.5252
  16        2.5294
  17        2.6094
  18        2.6733
  19        2.6736
  20        2.8702
  21        2.8707
  22        3.9131
  23        6.9864
  24        7.0784
  25       12.2643
  26       12.3538
  27       15.0951
  28       15.6196
  29       15.9292
  30       16.6968
  31       16.9833
  32       18.8489
 
  0.2222222E+00  0.2777778E-01  0.0000000E+00  0.5144033E-03
   1       -4.8390
   2       -0.9517
   3       -0.6165
   4       -0.6134
   5       -0.2249
   6       -0.2078
   7       -0.2075
   8        0.9661
   9        1.3162
  10        1.3164
  11        1.9167
  12        1.9836
  13        1.9862
  14        2.1564
  15        2.4758
  16        2.4797
  17        2.5588
  18        2.6165
  19        2.6440
  20        2.8702
  21        2.8708
  22        3.5292
  23        7.2699
  24        7.3639
  25       12.3168
  26       12.4100
  27       15.1664
  28       15.4609
  29       15.7941
  30       16.3669
  31       16.6452
  32       19.0576
 
  0.2500000E+00  0.2777778E-01  0.0000000E+00  0.5144033E-03
   1       -4.6762
   2       -0.9946
   3       -0.5498
   4       -0.5470
   5       -0.1811
   6       -0.1570
   7       -0.1566
   8        0.9182
   9        1.3566
  10        1.3571
  11        1.8259
  12        1.8294
  13        1.8762
  14        2.1745
  15        2.4222
  16        2.4259
  17        2.4914
  18        2.5547
  19        2.6190
  20        2.8703
  21        2.8709
  22        3.1706
  23        7.5704
  24        7.6671
  25       12.3773
  26       12.4751
  27       14.7135
  28       14.9904
  29       16.0398
  30       16.3059
  31       16.5234
  32       19.2914
 
  0.2777778E+00  0.2777778E-01  0.0000000E+00  0.5144033E-03
   1       -4.4960
   2       -1.0583
   3       -0.4802
   4       -0.4777
   5       -0.1331
   6       -0.1000
   7       -0.0993
   8        0.8661
   9        1.4008
  10        1.4023
  11        1.6696
  12        1.6737
  13        1.8337
  14        2.1943
  15        2.3657
  16        2.3691
  17        2.4051
  18        2.4887
  19        2.5936
  20        2.8546
  21        2.8704
  22        2.8709
  23        7.8857
  24        7.9860
  25       12.4456
  26       12.5495
  27       14.2638
  28       14.5209
  29       15.7208
  30       15.9723
  31       17.2776
  32       19.5484
 
  0.3055556E+00  0.2777778E-01  0.0000000E+00  0.5144033E-03
   1       -4.2993
   2       -1.1480
   3       -0.4094
   4       -0.4073
   5       -0.0813
   6       -0.0367
   7       -0.0358
   8        0.8103
   9        1.4487
  10        1.4519
  11        1.5163
  12        1.5208
  13        1.7904
  14        2.2156
  15        2.2854
  16        2.3076
  17        2.3107
  18        2.4192
  19        2.5523
  20        2.6206
  21        2.8705
  22        2.8710
  23        8.2142
  24        8.3190
  25       12.5204
  26       12.6334
  27       13.8205
  28       14.0546
  29       15.4143
  30       15.6494
  31       18.0516
  32       19.8285
 
  0.3333333E+00  0.2777778E-01  0.0000000E+00  0.5144033E-03
   1       -4.0869
   2       -1.2684
   3       -0.3396
   4       -0.3378
   5       -0.0260
   6        0.0328
   7        0.0341
   8        0.7512
   9        1.3668
  10        1.3717
  11        1.4994
  12        1.5054
  13        1.7481
  14        2.1211
  15        2.2383
  16        2.2497
  17        2.2525
  18        2.3471
  19        2.4247
  20        2.5576
  21        2.8706
  22        2.8710
  23        8.5548
  24        8.6648
  25       12.5965
  26       12.7268
  27       13.3900
  28       13.5930
  29       15.1236
  30       15.3412
  31       18.8412
  32       20.1294
 
  0.3611111E+00  0.2777778E-01  0.0000000E+00  0.5144033E-03
   1       -3.8601
   2       -1.4218
   3       -0.2733
   4       -0.2717
   5        0.0325
   6        0.1086
   7        0.1104
   8        0.6894
   9        1.2221
  10        1.2271
  11        1.5501
  12        1.5628
  13        1.7107
  14        1.9479
  15        2.1941
  16        2.1966
  17        2.2622
  18        2.2730
  19        2.3162
  20        2.5294
  21        2.8707
  22        2.8710
  23        8.9064
  24        9.0225
  25       12.6358
  26       12.8291
  27       13.0110
  28       13.1373
  29       14.8521
  30       15.0510
  31       19.6402
  32       20.4512
 
  0.3888889E+00  0.2777778E-01  0.0000000E+00  0.5144033E-03
   1       -3.6204
   2       -1.6080
   3       -0.2132
   4       -0.2119
   5        0.0937
   6        0.1908
   7        0.1932
   8        0.6252
   9        1.0827
  10        1.0878
  11        1.5897
  12        1.6238
  13        1.6911
  14        1.8016
  15        2.1434
  16        2.1454
  17        2.1976
  18        2.2257
  19        2.2871
  20        2.5026
  21        2.8708
  22        2.8711
  23        9.2682
  24        9.3915
  25       12.4184
  26       12.6881
  27       12.9030
  28       12.9385
  29       14.6038
  30       14.7822
  31       20.4342
  32       20.7936
 
  0.4166667E+00  0.2777778E-01  0.0000000E+00  0.5144033E-03
   1       -3.3696
   2       -1.8230
   3       -0.1622
   4       -0.1611
   5        0.1572
   6        0.2795
   7        0.2824
   8        0.5594
   9        0.9490
  10        0.9540
  11        1.5923
  12        1.6880
  13        1.6925
  14        1.7167
  15        2.1000
  16        2.1017
  17        2.1218
  18        2.1422
  19        2.3130
  20        2.4757
  21        2.8709
  22        2.8711
  23        9.6395
  24        9.7710
  25       12.0259
  26       12.2461
  27       12.9823
  28       13.0506
  29       14.3847
  30       14.5391
  31       21.1145
  32       21.1514
 
  0.4444444E+00  0.2777778E-01  0.0000000E+00  0.5144033E-03
   1       -3.1102
   2       -2.0611
   3       -0.1230
   4       -0.1223
   5        0.2225
   6        0.3748
   7        0.3782
   8        0.4923
   9        0.8213
  10        0.8263
  11        1.5747
  12        1.6194
  13        1.7553
  14        1.7733
  15        2.0460
  16        2.0624
  17        2.0667
  18        2.0679
  19        2.3395
  20        2.4486
  21        2.8709
  22        2.8711
  23       10.0197
  24       10.1607
  25       11.6159
  26       11.8119
  27       13.0860
  28       13.1547
  29       14.2068
  30       14.3289
  31       21.5273
  32       21.5582
 
  0.4722222E+00  0.2777778E-01  0.0000000E+00  0.5144033E-03
   1       -2.8452
   2       -2.3152
   3       -0.0983
   4       -0.0979
   5        0.2892
   6        0.4246
   7        0.4766
   8        0.4806
   9        0.6999
  10        0.7047
  11        1.5609
  12        1.5772
  13        1.8251
  14        1.8398
  15        1.9710
  16        1.9853
  17        2.0458
  18        2.0464
  19        2.3665
  20        2.4212
  21        2.8710
  22        2.8710
  23       10.4083
  24       10.5599
  25       11.2075
  26       11.3859
  27       13.1818
  28       13.2282
  29       14.0936
  30       14.1659
  31       21.9186
  32       21.9704
 
  0.5000000E+00  0.2777778E-01  0.0000000E+00  0.2572016E-03
   1       -2.5786
   2       -2.5786
   3       -0.0898
   4       -0.0898
   5        0.3567
   6        0.3567
   7        0.5850
   8        0.5850
   9        0.5894
  10        0.5894
  11        1.5597
  12        1.5597
  13        1.8972
  14        1.8972
  15        1.9109
  16        1.9109
  17        2.0388
  18        2.0388
  19        2.3938
  20        2.3938
  21        2.8710
  22        2.8710
  23       10.8045
  24       10.8045
  25       10.9685
  26       10.9685
  27       13.2393
  28       13.2393
  29       14.0777
  30       14.0777
  31       22.3237
  32       22.3260
 
  0.5555556E-01  0.5555556E-01  0.0000000E+00  0.2572016E-03
   1       -5.3952
   2       -0.8817
   3       -0.8817
   4       -0.8637
   5       -0.3774
   6       -0.3774
   7       -0.3769
   8        1.1391
   9        1.1737
  10        1.1784
  11        2.0720
  12        2.0882
  13        2.6727
  14        2.6785
  15        2.6785
  16        2.7314
  17        2.7795
  18        2.7795
  19        2.8574
  20        2.8574
  21        2.8638
  22        5.7769
  23        5.7769
  24        6.1321
  25       12.1224
  26       12.4331
  27       12.4331
  28       17.3163
  29       17.9947
  30       17.9947
  31       18.1118
  32       18.1118
 
  0.8333333E-01  0.5555556E-01  0.0000000E+00  0.5144033E-03
   1       -5.3458
   2       -0.8810
   3       -0.8576
   4       -0.8401
   5       -0.3637
   6       -0.3628
   7       -0.3623
   8        1.1255
   9        1.1843
  10        1.1903
  11        2.0604
  12        2.0919
  13        2.6427
  14        2.6486
  15        2.6547
  16        2.6665
  17        2.7030
  18        2.7613
  19        2.8359
  20        2.8575
  21        2.8598
  22        5.5031
  23        5.9109
  24        6.2623
  25       12.1386
  26       12.4527
  27       12.8053
  28       16.9077
  29       17.6815
  30       17.9154
  31       18.0654
  32       18.1836
 
  0.1111111E+00  0.5555556E-01  0.0000000E+00  0.5144033E-03
   1       -5.2769
   2       -0.8815
   3       -0.8244
   4       -0.8075
   5       -0.3446
   6       -0.3423
   7       -0.3419
   8        1.1049
   9        1.2007
  10        1.2068
  11        2.0419
  12        2.0995
  13        2.5392
  14        2.5472
  15        2.6297
  16        2.6474
  17        2.6541
  18        2.7383
  19        2.8061
  20        2.8575
  21        2.8578
  22        5.1663
  23        6.0860
  24        6.4345
  25       12.1615
  26       12.4805
  27       13.2811
  28       16.4738
  29       17.3003
  30       17.6644
  31       18.1639
  32       18.2330
 
  0.1388889E+00  0.5555556E-01  0.0000000E+00  0.5144033E-03
   1       -5.1886
   2       -0.8847
   3       -0.7826
   4       -0.7666
   5       -0.3202
   6       -0.3158
   7       -0.3157
   8        1.0781
   9        1.2224
  10        1.2279
  11        2.0179
  12        2.1098
  13        2.4109
  14        2.4152
  15        2.5981
  16        2.6175
  17        2.6182
  18        2.7134
  19        2.7687
  20        2.8567
  21        2.8575
  22        4.7927
  23        6.2945
  24        6.6419
  25       12.1912
  26       12.5167
  27       13.8360
  28       16.0261
  29       16.8770
  30       17.3748
  31       18.0405
  32       18.2895
 
  0.1666667E+00  0.5555556E-01  0.0000000E+00  0.5144033E-03
   1       -5.0812
   2       -0.8926
   3       -0.7329
   4       -0.7179
   5       -0.2907
   6       -0.2835
   7       -0.2834
   8        1.0456
   9        1.2491
  10        1.2536
  11        1.9892
  12        2.1225
  13        2.2689
  14        2.2700
  15        2.5602
  16        2.5763
  17        2.5775
  18        2.6891
  19        2.7242
  20        2.8562
  21        2.8575
  22        4.4035
  23        6.5298
  24        6.8786
  25       12.2279
  26       12.5617
  27       14.4514
  28       15.5726
  29       16.4289
  30       17.0607
  31       17.7849
  32       18.4415
 
  0.1944444E+00  0.5555556E-01  0.0000000E+00  0.5144033E-03
   1       -4.9549
   2       -0.9081
   3       -0.6762
   4       -0.6623
   5       -0.2563
   6       -0.2454
   7       -0.2449
   8        1.0077
   9        1.2806
  10        1.2836
  11        1.9562
  12        2.1154
  13        2.1214
  14        2.1374
  15        2.5165
  16        2.5208
  17        2.5325
  18        2.6656
  19        2.6732
  20        2.8560
  21        2.8575
  22        4.0156
  23        6.7871
  24        7.1399
  25       12.2715
  26       12.6158
  27       15.1137
  28       15.1189
  29       15.9669
  30       16.7336
  31       17.4879
  32       18.6191
 
  0.2222222E+00  0.5555556E-01  0.0000000E+00  0.5144033E-03
   1       -4.8103
   2       -0.9348
   3       -0.6135
   4       -0.6010
   5       -0.2172
   6       -0.2014
   7       -0.2004
   8        0.9648
   9        1.3169
  10        1.3177
  11        1.9198
  12        1.9588
  13        1.9689
  14        2.1543
  15        2.4512
  16        2.4678
  17        2.4828
  18        2.6164
  19        2.6419
  20        2.8558
  21        2.8575
  22        3.6441
  23        7.0627
  24        7.4220
  25       12.3220
  26       12.6795
  27       14.6692
  28       15.4982
  29       15.8131
  30       16.4025
  31       17.1662
  32       18.8212
 
  0.2500000E+00  0.5555556E-01  0.0000000E+00  0.5144033E-03
   1       -4.6477
   2       -0.9772
   3       -0.5463
   4       -0.5350
   5       -0.1737
   6       -0.1514
   7       -0.1497
   8        0.9173
   9        1.3557
  10        1.3576
  11        1.8018