       N       E                     dE             d eps       ncg     rms          rms(c)
DAV:   1     0.361005878156E+03    0.36101E+03   -0.31294E+04 89280   0.341E+03
DAV:   2     0.111247144950E+02   -0.34988E+03   -0.33060E+03 85256   0.484E+02
DAV:   3    -0.178186980846E+02   -0.28943E+02   -0.28131E+02 91976   0.161E+02
DAV:   4    -0.182454003524E+02   -0.42670E+00   -0.42625E+00 96232   0.206E+01
DAV:   5    -0.182462236202E+02   -0.82327E-03   -0.82325E-03 94280   0.873E-01    0.141E+01
DAV:   6    -0.157430826101E+02    0.25031E+01   -0.21398E+01 93920   0.771E+01    0.535E+00
DAV:   7    -0.147436768559E+02    0.99941E+00   -0.36442E+00 96952   0.310E+01    0.135E+00
DAV:   8    -0.146907542855E+02    0.52923E-01   -0.26186E-02 97352   0.129E+00    0.562E-01
DAV:   9    -0.146840135982E+02    0.67407E-02   -0.60886E-03105864   0.128E+00    0.320E-02
DAV:  10    -0.146840912187E+02   -0.77620E-04   -0.61215E-04 93104   0.186E-01    0.807E-03
DAV:  11    -0.146840895387E+02    0.16799E-05   -0.51003E-05 95656   0.898E-02    0.716E-03
DAV:  12    -0.146840942495E+02   -0.47108E-05   -0.15934E-06 98664   0.222E-02    0.111E-03
DAV:  13    -0.146840947900E+02   -0.54047E-06   -0.63846E-08 96056   0.367E-03    0.307E-04
DAV:  14    -0.146840948813E+02   -0.91298E-07   -0.32780E-09 57040   0.693E-04    0.594E-05
DAV:  15    -0.146840948643E+02    0.16988E-07   -0.55573E-10 52712   0.184E-04    0.357E-05
DAV:  16    -0.146840948703E+02   -0.60445E-08   -0.62380E-11 50776   0.109E-04
   1 F= -.14684095E+02 E0= -.14684059E+02  d E =-.716310E-04
