   4   4   0   0
  0.1352717E+02  0.3782297E-09  0.3782297E-09  0.3782297E-09  0.5000000E-15
  1.000000000000000E-004
  CAR 
 unknown system                          
     24.27438996     -7.08173853  301      2.70112200      1.00000000
     -7.082  0.0000E+00  0.0000E+00
     -6.977  0.0000E+00  0.0000E+00
     -6.873  0.0000E+00  0.0000E+00
     -6.768  0.0000E+00  0.0000E+00
     -6.664  0.0000E+00  0.0000E+00
     -6.559  0.0000E+00  0.0000E+00
     -6.455  0.0000E+00  0.0000E+00
     -6.350  0.0000E+00  0.0000E+00
     -6.246  0.0000E+00  0.0000E+00
     -6.141  0.0000E+00  0.0000E+00
     -6.037  0.0000E+00  0.0000E+00
     -5.932  0.0000E+00  0.0000E+00
     -5.827  0.0000E+00  0.0000E+00
     -5.723  0.0000E+00  0.0000E+00
     -5.618  0.1767E-01  0.1847E-02
     -5.514  0.7587E-01  0.1184E-01
     -5.409  0.1335E+00  0.2741E-01
     -5.305  0.1214E+00  0.4900E-01
     -5.200  0.1499E+00  0.6847E-01
     -5.096  0.2457E+00  0.1002E+00
     -4.991  0.1955E+00  0.1273E+00
     -4.887  0.2077E+00  0.1555E+00
     -4.782  0.2253E+00  0.1956E+00
     -4.678  0.2928E+00  0.2269E+00
     -4.573  0.2787E+00  0.2674E+00
     -4.469  0.2339E+00  0.3044E+00
     -4.364  0.4021E+00  0.3576E+00
     -4.260  0.3543E+00  0.4012E+00
     -4.155  0.2873E+00  0.4422E+00
     -4.051  0.4081E+00  0.4939E+00
     -3.946  0.5054E+00  0.5492E+00
     -3.842  0.3426E+00  0.5982E+00
     -3.737  0.4753E+00  0.6598E+00
     -3.633  0.3996E+00  0.7155E+00
     -3.528  0.4522E+00  0.7835E+00
     -3.424  0.4566E+00  0.8395E+00
     -3.319  0.4998E+00  0.9109E+00
     -3.214  0.4508E+00  0.9839E+00
     -3.110  0.3608E+00  0.1040E+01
     -3.005  0.7757E+00  0.1141E+01
     -2.901  0.5062E+00  0.1210E+01
     -2.796  0.5761E+00  0.1294E+01
     -2.692  0.7659E+00  0.1396E+01
     -2.587  0.5839E+00  0.1482E+01
     -2.483  0.8449E+00  0.1582E+01
     -2.378  0.7329E+00  0.1689E+01
     -2.274  0.8890E+00  0.1800E+01
     -2.169  0.1083E+01  0.1937E+01
     -2.065  0.9284E+00  0.2060E+01
     -1.960  0.1289E+01  0.2224E+01
     -1.856  0.1318E+01  0.2394E+01
     -1.751  0.1910E+01  0.2621E+01
     -1.647  0.1922E+01  0.2874E+01
     -1.542  0.2744E+01  0.3230E+01
     -1.438  0.3083E+01  0.3638E+01
     -1.333  0.3853E+01  0.4190E+01
     -1.229  0.4098E+01  0.4790E+01
     -1.124  0.4468E+01  0.5378E+01
     -1.020  0.5669E+01  0.6107E+01
     -0.915  0.7492E+01  0.7111E+01
     -0.811  0.8832E+01  0.8265E+01
     -0.706  0.8518E+01  0.9420E+01
     -0.601  0.7855E+01  0.1045E+02
     -0.497  0.7686E+01  0.1154E+02
     -0.392  0.7501E+01  0.1259E+02
     -0.288  0.1011E+02  0.1388E+02
     -0.183  0.1175E+02  0.1542E+02
     -0.079  0.1245E+02  0.1708E+02
      0.026  0.1435E+02  0.1895E+02
      0.130  0.1548E+02  0.2104E+02
      0.235  0.1777E+02  0.2344E+02
      0.339  0.1120E+02  0.2502E+02
      0.444  0.9844E+01  0.2640E+02
      0.548  0.1135E+02  0.2785E+02
      0.653  0.1378E+02  0.2970E+02
      0.757  0.1417E+02  0.3167E+02
      0.862  0.1233E+02  0.3337E+02
      0.966  0.1224E+02  0.3502E+02
      1.071  0.1468E+02  0.3697E+02
      1.175  0.2413E+02  0.4002E+02
      1.280  0.1135E+02  0.4177E+02
      1.384  0.1032E+01  0.4198E+02
      1.489  0.1236E+01  0.4220E+02
      1.593  0.1524E+01  0.4239E+02
      1.698  0.1221E+01  0.4255E+02
      1.802  0.1119E+01  0.4273E+02
      1.907  0.1285E+01  0.4290E+02
      2.012  0.1253E+01  0.4304E+02
      2.116  0.1505E+01  0.4321E+02
      2.221  0.9505E+00  0.4333E+02
      2.325  0.1109E+01  0.4347E+02
      2.430  0.9169E+00  0.4364E+02
      2.534  0.7950E+00  0.4376E+02
      2.639  0.1340E+01  0.4392E+02
      2.743  0.1139E+01  0.4407E+02
      2.848  0.7563E+00  0.4417E+02
      2.952  0.9285E+00  0.4429E+02
      3.057  0.1055E+01  0.4446E+02
      3.161  0.1008E+01  0.4458E+02
      3.266  0.5453E+00  0.4467E+02
      3.370  0.1206E+01  0.4482E+02
      3.475  0.1051E+01  0.4497E+02
      3.579  0.6386E+00  0.4506E+02
      3.684  0.6595E+00  0.4515E+02
      3.788  0.1063E+01  0.4530E+02
      3.893  0.8909E+00  0.4542E+02
      3.997  0.7238E+00  0.4553E+02
      4.102  0.4835E+00  0.4561E+02
      4.206  0.1085E+01  0.4575E+02
      4.311  0.8680E+00  0.4587E+02
      4.416  0.7386E+00  0.4598E+02
      4.520  0.7101E+00  0.4609E+02
      4.625  0.7548E+00  0.4619E+02
      4.729  0.8389E+00  0.4631E+02
      4.834  0.6457E+00  0.4641E+02
      4.938  0.8305E+00  0.4651E+02
      5.043  0.6524E+00  0.4660E+02
      5.147  0.8352E+00  0.4670E+02
      5.252  0.7873E+00  0.4680E+02
      5.356  0.8170E+00  0.4690E+02
      5.461  0.5062E+00  0.4697E+02
      5.565  0.6977E+00  0.4705E+02
      5.670  0.7467E+00  0.4714E+02
      5.774  0.6070E+00  0.4721E+02
      5.879  0.6118E+00  0.4730E+02
      5.983  0.8730E+00  0.4741E+02
      6.088  0.7142E+00  0.4752E+02
      6.192  0.1145E+01  0.4765E+02
      6.297  0.7864E+00  0.4779E+02
      6.401  0.1204E+01  0.4793E+02
      6.506  0.8091E+00  0.4805E+02
      6.610  0.9705E+00  0.4819E+02
      6.715  0.7260E+00  0.4830E+02
      6.819  0.1080E+01  0.4844E+02
      6.924  0.1058E+01  0.4859E+02
      7.029  0.6354E+00  0.4867E+02
      7.133  0.1490E+01  0.4884E+02
      7.238  0.7797E+00  0.4894E+02
      7.342  0.8845E+00  0.4906E+02
      7.447  0.1017E+01  0.4919E+02
      7.551  0.1057E+01  0.4932E+02
      7.656  0.7884E+00  0.4943E+02
      7.760  0.7457E+00  0.4955E+02
      7.865  0.6786E+00  0.4965E+02
      7.969  0.9619E+00  0.4977E+02
      8.074  0.9733E+00  0.4989E+02
      8.178  0.9154E+00  0.5001E+02
      8.283  0.8034E+00  0.5012E+02
      8.387  0.9396E+00  0.5023E+02
      8.492  0.6190E+00  0.5031E+02
      8.596  0.7411E+00  0.5043E+02
      8.701  0.9194E+00  0.5054E+02
      8.805  0.7252E+00  0.5064E+02
      8.910  0.8151E+00  0.5075E+02
      9.014  0.7001E+00  0.5084E+02
      9.119  0.9853E+00  0.5098E+02
      9.223  0.8823E+00  0.5111E+02
      9.328  0.9471E+00  0.5124E+02
      9.432  0.1010E+01  0.5139E+02
      9.537  0.1133E+01  0.5154E+02
      9.642  0.1252E+01  0.5169E+02
      9.746  0.1108E+01  0.5184E+02
      9.851  0.1068E+01  0.5199E+02
      9.955  0.1166E+01  0.5214E+02
     10.060  0.1170E+01  0.5229E+02
     10.164  0.9246E+00  0.5244E+02
     10.269  0.9981E+00  0.5259E+02
     10.373  0.1253E+01  0.5274E+02
     10.478  0.1019E+01  0.5290E+02
     10.582  0.9801E+00  0.5304E+02
     10.687  0.1179E+01  0.5321E+02
     10.791  0.1249E+01  0.5339E+02
     10.896  0.1201E+01  0.5354E+02
     11.000  0.9570E+00  0.5369E+02
     11.105  0.1261E+01  0.5384E+02
     11.209  0.1223E+01  0.5399E+02
     11.314  0.1169E+01  0.5415E+02
     11.418  0.1356E+01  0.5434E+02
     11.523  0.1260E+01  0.5450E+02
     11.627  0.9402E+00  0.5465E+02
     11.732  0.1361E+01  0.5483E+02
     11.836  0.1001E+01  0.5496E+02
     11.941  0.1215E+01  0.5513E+02
     12.045  0.1268E+01  0.5529E+02
     12.150  0.1293E+01  0.5546E+02
     12.255  0.1221E+01  0.5562E+02
     12.359  0.1519E+01  0.5581E+02
     12.464  0.1283E+01  0.5599E+02
     12.568  0.7356E+00  0.5610E+02
     12.673  0.1297E+01  0.5628E+02
     12.777  0.1438E+01  0.5649E+02
     12.882  0.1272E+01  0.5665E+02
     12.986  0.1013E+01  0.5678E+02
     13.091  0.1049E+01  0.5693E+02
     13.195  0.1448E+01  0.5715E+02
     13.300  0.1166E+01  0.5731E+02
     13.404  0.1506E+01  0.5751E+02
     13.509  0.1051E+01  0.5765E+02
     13.613  0.1409E+01  0.5784E+02
     13.718  0.1519E+01  0.5804E+02
     13.822  0.1249E+01  0.5820E+02
     13.927  0.9420E+00  0.5835E+02
     14.031  0.1371E+01  0.5853E+02
     14.136  0.1273E+01  0.5872E+02
     14.240  0.1409E+01  0.5890E+02
     14.345  0.1570E+01  0.5909E+02
     14.449  0.1492E+01  0.5928E+02
     14.554  0.1506E+01  0.5950E+02
     14.659  0.1176E+01  0.5965E+02
     14.763  0.1613E+01  0.5986E+02
     14.868  0.1194E+01  0.6004E+02
     14.972  0.1673E+01  0.6026E+02
     15.077  0.1461E+01  0.6044E+02
     15.181  0.1123E+01  0.6059E+02
     15.286  0.1396E+01  0.6078E+02
     15.390  0.1352E+01  0.6095E+02
     15.495  0.1217E+01  0.6114E+02
     15.599  0.1206E+01  0.6129E+02
     15.704  0.1247E+01  0.6145E+02
     15.808  0.1118E+01  0.6160E+02
     15.913  0.9445E+00  0.6174E+02
     16.017  0.9036E+00  0.6187E+02
     16.122  0.7780E+00  0.6197E+02
     16.226  0.6468E+00  0.6207E+02
     16.331  0.7410E+00  0.6217E+02
     16.435  0.8952E+00  0.6230E+02
     16.540  0.6457E+00  0.6239E+02
     16.644  0.5620E+00  0.6248E+02
     16.749  0.6366E+00  0.6256E+02
     16.853  0.6288E+00  0.6266E+02
     16.958  0.5253E+00  0.6272E+02
     17.062  0.5284E+00  0.6279E+02
     17.167  0.4465E+00  0.6285E+02
     17.272  0.2985E+00  0.6290E+02
     17.376  0.6465E+00  0.6298E+02
     17.481  0.1945E+00  0.6301E+02
     17.585  0.2768E+00  0.6307E+02
     17.690  0.6204E+00  0.6316E+02
     17.794  0.3342E+00  0.6320E+02
     17.899  0.3464E+00  0.6324E+02
     18.003  0.1221E+00  0.6327E+02
     18.108  0.3927E+00  0.6333E+02
     18.212  0.3307E+00  0.6337E+02
     18.317  0.1666E+00  0.6339E+02
     18.421  0.3922E+00  0.6344E+02
     18.526  0.1878E+00  0.6346E+02
     18.630  0.3013E+00  0.6350E+02
     18.735  0.2002E+00  0.6353E+02
     18.839  0.2433E+00  0.6357E+02
     18.944  0.1661E+00  0.6359E+02
     19.048  0.1555E+00  0.6361E+02
     19.153  0.1392E+00  0.6363E+02
     19.257  0.2345E+00  0.6367E+02
     19.362  0.7704E-01  0.6368E+02
     19.466  0.2290E+00  0.6370E+02
     19.571  0.1676E+00  0.6373E+02
     19.675  0.6644E-01  0.6374E+02
     19.780  0.2284E+00  0.6377E+02
     19.885  0.5519E-01  0.6379E+02
     19.989  0.3322E-01  0.6380E+02
     20.094  0.1174E+00  0.6381E+02
     20.198  0.1991E+00  0.6384E+02
     20.303  0.8016E-01  0.6385E+02
     20.407  0.1951E-01  0.6386E+02
     20.512  0.7033E-01  0.6387E+02
     20.616  0.1653E+00  0.6389E+02
     20.721  0.1119E-11  0.6389E+02
     20.825  0.1888E+00  0.6391E+02
     20.930  0.6644E-01  0.6392E+02
     21.034  0.1035E-06  0.6392E+02
     21.139  0.1322E+00  0.6393E+02
     21.243  0.3322E-01  0.6395E+02
     21.348  0.0000E+00  0.6395E+02
     21.452  0.1434E+00  0.6396E+02
     21.557  0.3282E-01  0.6396E+02
     21.661  0.2258E-13  0.6396E+02
     21.766  0.9840E-01  0.6397E+02
     21.870  0.3319E-01  0.6398E+02
     21.975  0.0000E+00  0.6398E+02
     22.079  0.8890E-01  0.6399E+02
     22.184  0.0000E+00  0.6399E+02
     22.289  0.6604E-02  0.6399E+02
     22.393  0.4411E-01  0.6400E+02
     22.498  0.5040E-11  0.6400E+02
     22.602  0.3322E-01  0.6400E+02
     22.707  0.0000E+00  0.6400E+02
     22.811  0.2517E-09  0.6400E+02
     22.916  0.5537E-02  0.6400E+02
     23.020  0.0000E+00  0.6400E+02
     23.125  0.0000E+00  0.6400E+02
     23.229  0.0000E+00  0.6400E+02
     23.334  0.0000E+00  0.6400E+02
     23.438  0.0000E+00  0.6400E+02
     23.543  0.0000E+00  0.6400E+02
     23.647  0.0000E+00  0.6400E+02
     23.752  0.0000E+00  0.6400E+02
     23.856  0.0000E+00  0.6400E+02
     23.961  0.0000E+00  0.6400E+02
     24.065  0.0000E+00  0.6400E+02
     24.170  0.0000E+00  0.6400E+02
     24.274  0.0000E+00  0.6400E+02
