    4    4    1    1
  0.1352717E+02  0.3782297E-09  0.3782297E-09  0.3782297E-09  0.5000000E-15
  1.000000000000000E-004
  CAR 
 unknown system                          
   44  455   32
 
  0.0000000E+00  0.0000000E+00  0.0000000E+00  0.7233796E-04
   1       -5.6565
   2       -1.4538
   3       -1.4538
   4       -1.4538
   5       -1.0826
   6       -1.0826
   7       -1.0826
   8        0.0417
   9        0.0417
  10        0.0417
  11        0.7119
  12        0.7119
  13        1.1582
  14        1.1582
  15        1.1582
  16        1.2830
  17        1.2830
  18        1.2830
  19        1.2830
  20        1.2830
  21        1.2830
  22        4.3168
  23        4.3168
  24        4.3168
  25        8.9219
  26        8.9219
  27        8.9219
  28       14.8387
  29       14.8387
  30       14.8387
  31       14.8387
  32       14.8387
 
  0.4166667E-01  0.0000000E+00  0.0000000E+00  0.4340278E-03
   1       -5.6373
   2       -1.4543
   3       -1.4454
   4       -1.4454
   5       -1.0780
   6       -1.0777
   7       -1.0777
   8        0.0367
   9        0.0458
  10        0.0458
  11        0.7073
  12        0.7138
  13        1.1524
  14        1.1524
  15        1.1563
  16        1.2541
  17        1.2541
  18        1.2761
  19        1.2761
  20        1.2831
  21        1.2831
  22        4.1704
  23        4.3634
  24        4.3634
  25        8.9300
  26        8.9300
  27        9.1078
  28       14.6912
  29       14.6912
  30       14.7399
  31       14.7399
  32       14.8660
 
  0.8333333E-01  0.0000000E+00  0.0000000E+00  0.4340278E-03
   1       -5.5798
   2       -1.4566
   3       -1.4204
   4       -1.4204
   5       -1.0642
   6       -1.0631
   7       -1.0631
   8        0.0218
   9        0.0581
  10        0.0581
  11        0.6939
  12        0.7194
  13        1.1349
  14        1.1349
  15        1.1505
  16        1.1722
  17        1.1722
  18        1.2554
  19        1.2554
  20        1.2831
  21        1.2831
  22        3.7897
  23        4.4981
  24        4.4981
  25        8.9546
  26        8.9546
  27        9.6081
  28       14.3056
  29       14.3056
  30       14.4689
  31       14.4689
  32       14.9479
 
  0.1250000E+00  0.0000000E+00  0.0000000E+00  0.4340278E-03
   1       -5.4843
   2       -1.4636
   3       -1.3797
   4       -1.3797
   5       -1.0414
   6       -1.0386
   7       -1.0386
   8       -0.0028
   9        0.0785
  10        0.0785
  11        0.6718
  12        0.7286
  13        1.0497
  14        1.0497
  15        1.1063
  16        1.1063
  17        1.1409
  18        1.2217
  19        1.2217
  20        1.2831
  21        1.2831
  22        3.2815
  23        4.7085
  24        4.7085
  25        8.9962
  26        8.9962
  27       10.3180
  28       13.7824
  29       13.7824
  30       14.0810
  31       14.0810
  32       15.0834
 
  0.1666667E+00  0.0000000E+00  0.0000000E+00  0.4340278E-03
   1       -5.3512
   2       -1.4803
   3       -1.3249
   4       -1.3249
   5       -1.0101
   6       -1.0042
   7       -1.0042
   8       -0.0365
   9        0.1068
  10        0.1068
  11        0.6418
  12        0.7413
  13        0.9005
  14        0.9005
  15        1.0671
  16        1.0671
  17        1.1278
  18        1.1760
  19        1.1760
  20        1.2832
  21        1.2832
  22        2.7273
  23        4.9806
  24        4.9806
  25        9.0557
  26        9.0557
  27       11.1606
  28       13.1931
  29       13.1931
  30       13.6297
  31       13.6297
  32       15.2714
 
  0.2083333E+00  0.0000000E+00  0.0000000E+00  0.4340278E-03
   1       -5.1811
   2       -1.5151
   3       -1.2581
   4       -1.2581
   5       -0.9706
   6       -0.9597
   7       -0.9597
   8       -0.0787
   9        0.1430
  10        0.1430
  11        0.6049
  12        0.7365
  13        0.7365
  14        0.7573
  15        1.0186
  16        1.0186
  17        1.1113
  18        1.1199
  19        1.1199
  20        1.2833
  21        1.2833
  22        2.1780
  23        5.3024
  24        5.3024
  25        9.1343
  26        9.1343
  27       12.0925
  28       12.5765
  29       12.5765
  30       13.1537
  31       13.1537
  32       15.5101
 
  0.2500000E+00  0.0000000E+00  0.0000000E+00  0.4340278E-03
   1       -4.9752
   2       -1.5804
   3       -1.1824
   4       -1.1824
   5       -0.9236
   6       -0.9050
   7       -0.9050
   8       -0.1287
   9        0.1867
  10        0.1867
  11        0.5624
  12        0.5664
  13        0.5664
  14        0.7763
  15        0.9625
  16        0.9625
  17        1.0550
  18        1.0550
  19        1.0918
  20        1.2833
  21        1.2833
  22        1.6682
  23        5.6648
  24        5.6648
  25        9.2334
  26        9.2334
  27       11.9528
  28       11.9528
  29       12.6779
  30       12.6779
  31       13.0897
  32       15.7975
 
  0.2916667E+00  0.0000000E+00  0.0000000E+00  0.4340278E-03
   1       -4.7347
   2       -1.6920
   3       -1.1016
   4       -1.1016
   5       -0.8698
   6       -0.8397
   7       -0.8397
   8       -0.1854
   9        0.2376
  10        0.2376
  11        0.3962
  12        0.3962
  13        0.5161
  14        0.7979
  15        0.9013
  16        0.9013
  17        0.9831
  18        0.9831
  19        1.0696
  20        1.2261
  21        1.2834
  22        1.2834
  23        6.0616
  24        6.0616
  25        9.3550
  26        9.3550
  27       11.3330
  28       11.3330
  29       12.2177
  30       12.2177
  31       14.1384
  32       16.1315
 
  0.3333333E+00  0.0000000E+00  0.0000000E+00  0.4340278E-03
   1       -4.4616
   2       -1.8658
   3       -1.0207
   4       -1.0207
   5       -0.8100
   6       -0.7639
   7       -0.7639
   8       -0.2479
   9        0.2302
  10        0.2302
  11        0.2952
  12        0.2952
  13        0.4686
  14        0.8220
  15        0.8387
  16        0.8387
  17        0.8741
  18        0.9060
  19        0.9060
  20        1.0451
  21        1.2835
  22        1.2835
  23        6.4882
  24        6.4882
  25        9.5010
  26        9.5010
  27       10.7232
  28       10.7232
  29       11.7827
  30       11.7827
  31       15.2295
  32       16.5098
 
  0.3750000E+00  0.0000000E+00  0.0000000E+00  0.4340278E-03
   1       -4.1584
   2       -2.1087
   3       -0.9459
   4       -0.9459
   5       -0.7453
   6       -0.6772
   7       -0.6772
   8       -0.3151
   9        0.0710
  10        0.0710
  11        0.3591
  12        0.3591
  13        0.4230
  14        0.6228
  15        0.7797
  16        0.7797
  17        0.8255
  18        0.8255
  19        0.8479
  20        1.0187
  21        1.2835
  22        1.2835
  23        6.9417
  24        6.9417
  25        9.6735
  26        9.6735
  27       10.1272
  28       10.1272
  29       11.3787
  30       11.3787
  31       16.3562
  32       16.9302
 
  0.4166667E+00  0.0000000E+00  0.0000000E+00  0.4340278E-03
   1       -3.8291
   2       -2.4120
   3       -0.8844
   4       -0.8844
   5       -0.6765
   6       -0.5795
   7       -0.5795
   8       -0.3856
   9       -0.0797
  10       -0.0797
  11        0.3839
  12        0.4285
  13        0.4285
  14        0.4656
  15        0.7302
  16        0.7302
  17        0.7435
  18        0.7435
  19        0.8754
  20        0.9909
  21        1.2836
  22        1.2836
  23        7.4196
  24        7.4196
  25        9.5474
  26        9.5474
  27        9.8747
  28        9.8747
  29       11.0086
  30       11.0086
  31       17.3902
  32       17.3908
 
  0.4583333E+00  0.0000000E+00  0.0000000E+00  0.4340278E-03
   1       -3.4793
   2       -2.7556
   3       -0.8435
   4       -0.8435
   5       -0.6050
   6       -0.4708
   7       -0.4708
   8       -0.4583
   9       -0.2206
  10       -0.2206
  11        0.3575
  12        0.3829
  13        0.5027
  14        0.5027
  15        0.6614
  16        0.6614
  17        0.6969
  18        0.6969
  19        0.9039
  20        0.9622
  21        1.2836
  22        1.2836
  23        7.9204
  24        7.9204
  25        8.9855
  26        8.9855
  27       10.1064
  28       10.1064
  29       10.6744
  30       10.6744
  31       17.8878
  32       17.8878
 
  0.5000000E+00  0.0000000E+00  0.0000000E+00  0.2170139E-03
   1       -3.1172
   2       -3.1172
   3       -0.8291
   4       -0.8291
   5       -0.5318
   6       -0.5318
   7       -0.3511
   8       -0.3511
   9       -0.3511
  10       -0.3511
  11        0.3529
  12        0.3529
  13        0.5807
  14        0.5807
  15        0.5807
  16        0.5807
  17        0.6851
  18        0.6851
  19        0.9330
  20        0.9330
  21        1.2836
  22        1.2836
  23        8.4428
  24        8.4428
  25        8.4428
  26        8.4428
  27       10.3443
  28       10.3443
  29       10.4020
  30       10.4020
  31       18.4206
  32       18.4206
 
  0.4166667E-01  0.4166667E-01  0.0000000E+00  0.8680556E-03
   1       -5.6181
   2       -1.4458
   3       -1.4458
   4       -1.4370
   5       -1.0731
   6       -1.0731
   7       -1.0729
   8        0.0338
   9        0.0477
  10        0.0498
  11        0.7060
  12        0.7125
  13        1.1466
  14        1.1498
  15        1.1498
  16        1.2304
  17        1.2473
  18        1.2473
  19        1.2761
  20        1.2761
  21        1.2786
  22        4.2165
  23        4.2165
  24        4.4092
  25        8.9382
  26        9.1169
  27        9.1169
  28       14.3349
  29       14.7180
  30       14.7180
  31       14.7668
  32       14.7668
 
  0.8333333E-01  0.4166667E-01  0.0000000E+00  0.1736111E-02
   1       -5.5607
   2       -1.4480
   3       -1.4206
   4       -1.4122
   5       -1.0594
   6       -1.0586
   7       -1.0584
   8        0.0201
   9        0.0589
  10        0.0618
  11        0.6939
  12        0.7170
  13        1.1265
  14        1.1293
  15        1.1417
  16        1.1530
  17        1.1704
  18        1.2277
  19        1.2554
  20        1.2761
  21        1.2761
  22        3.8352
  23        4.3494
  24        4.5418
  25        8.9629
  26        9.1441
  27        9.6189
  28       13.8274
  29       14.3313
  30       14.4947
  31       14.7982
  32       14.8256
 
  0.1250000E+00  0.4166667E-01  0.0000000E+00  0.1736111E-02
   1       -5.4652
   2       -1.4546
   3       -1.3797
   4       -1.3718
   5       -1.0368
   6       -1.0342
   7       -1.0341
   8       -0.0040
   9        0.0790
  10        0.0816
  11        0.6723
  12        0.7264
  13        1.0332
  14        1.0340
  15        1.1010
  16        1.1116
  17        1.1265
  18        1.1971
  19        1.2216
  20        1.2755
  21        1.2761
  22        3.3279
  23        4.5562
  24        4.7495
  25        9.0047
  26        9.1902
  27       10.3304
  28       13.2536
  29       13.8071
  30       14.1056
  31       14.5542
  32       14.9309
 
  0.1666667E+00  0.4166667E-01  0.0000000E+00  0.1736111E-02
   1       -5.3322
   2       -1.4710
   3       -1.3245
   4       -1.3174
   5       -1.0056
   6       -1.0000
   7       -1.0000
   8       -0.0374
   9        0.1072
  10        0.1092
  11        0.6427
  12        0.7394
  13        0.8858
  14        0.8879
  15        1.0622
  16        1.0701
  17        1.0993
  18        1.1613
  19        1.1760
  20        1.2754
  21        1.2761
  22        2.7768
  23        4.8224
  24        5.0188
  25        9.0645
  26        9.2562
  27       11.1742
  28       12.6520
  29       13.2171
  30       13.6530
  31       14.1554
  32       15.1148
 
  0.2083333E+00  0.4166667E-01  0.0000000E+00  0.1736111E-02
   1       -5.1624
   2       -1.5052
   3       -1.2572
   4       -1.2510
   5       -0.9663
   6       -0.9559
   7       -0.9557
   8       -0.0793
   9        0.1433
  10        0.1443
  11        0.6064
  12        0.7222
  13        0.7266
  14        0.7559
  15        1.0142
  16        1.0210
  17        1.0509
  18        1.1198
  19        1.1292
  20        1.2753
  21        1.2762
  22        2.2344
  23        5.1357
  24        5.3379
  25        9.1434
  26        9.3433
  27       12.0442
  28       12.1068
  29       12.6001
  30       13.1758
  31       13.6930
  32       15.3479
 
  0.2500000E+00  0.4166667E-01  0.0000000E+00  0.1736111E-02
   1       -4.9567
   2       -1.5698
   3       -1.1809
   4       -1.1757
   5       -0.9195
   6       -0.9017
   7       -0.9012
   8       -0.1289
   9        0.1863
  10        0.1869
  11        0.5525
  12        0.5588
  13        0.5650
  14        0.7755
  15        0.9586
  16        0.9647
  17        0.9786
  18        1.0549
  19        1.1013
  20        1.2754
  21        1.2762
  22        1.7398
  23        5.4869
  24        5.6981
  25        9.2430
  26        9.4534
  27       11.4417
  28       11.9763
  29       12.6988
  30       13.1045
  31       13.2084
  32       15.6282
 
  0.2916667E+00  0.4166667E-01  0.0000000E+00  0.1736111E-02
   1       -4.7165
   2       -1.6806
   3       -1.0994
   4       -1.0953
   5       -0.8660
   6       -0.8374
   7       -0.8363
   8       -0.1853
   9        0.2344
  10        0.2378
  11        0.3830
  12        0.3907
  13        0.5209
  14        0.7979
  15        0.8771
  16        0.8980
  17        0.9035
  18        0.9830
  19        1.0715
  20        1.2755
  21        1.2762
  22        1.3342
  23        5.8696
  24        6.0929
  25        9.3650
  26        9.5884
  27       10.8509
  28       11.3564
  29       12.2376
  30       12.7263
  31       14.1535
  32       15.9533
 
  0.3333333E+00  0.4166667E-01  0.0000000E+00  0.1736111E-02
   1       -4.4437
   2       -1.8534
   3       -1.0178
   4       -1.0145
   5       -0.8065
   6       -0.7628
   7       -0.7608
   8       -0.2475
   9        0.2178
  10        0.2264
  11        0.2862
  12        0.2954
  13        0.4783
  14        0.7274
  15        0.8227
  16        0.8360
  17        0.8408
  18        0.9059
  19        1.0119
  20        1.0894
  21        1.2756
  22        1.2762
  23        6.2791
  24        6.5179
  25        9.5112
  26        9.7505
  27       10.2749
  28       10.7468
  29       11.8017
  30       12.2620
  31       15.2447
  32       16.3213
 
  0.3750000E+00  0.4166667E-01  0.0000000E+00  0.1736111E-02
   1       -4.1409
   2       -2.0954
   3       -0.9421
   4       -0.9396
   5       -0.7421
   6       -0.6779
   7       -0.6746
   8       -0.3142
   9        0.0596
  10        0.0686
  11        0.3326
  12        0.3592
  13        0.4494
  14        0.5546
  15        0.7776
  16        0.7816
  17        0.8254
  18        0.8496
  19        0.8826
  20        1.0327
  21        1.2758
  22        1.2762
  23        6.7123
  24        6.9700
  25        9.6717
  26        9.7273
  27        9.9421
  28       10.1510
  29       11.3969
  30       11.8248
  31       16.3698
  32       16.7276
 
  0.4166667E+00  0.4166667E-01  0.0000000E+00  0.1736111E-02
   1       -3.8121
   2       -2.3978
   3       -0.8797
   4       -0.8778
   5       -0.6737
   6       -0.5824
   7       -0.5774
   8       -0.3844
   9       -0.0899
  10       -0.0809
  11        0.3448
  12        0.4251
  13        0.4285
  14        0.4666
  15        0.7289
  16        0.7317
  17        0.7434
  18        0.7773
  19        0.8781
  20        1.0001
  21        1.2759
  22        1.2762
  23        7.1667
  24        7.4468
  25        9.1693
  26        9.5716
  27        9.8879
  28       10.1652
  29       11.0264
  30       11.4206
  31       17.1709
  32       17.2383
 
  0.4583333E+00  0.4166667E-01  0.0000000E+00  0.1736111E-02
   1       -3.4628
   2       -2.7405
   3       -0.8378
   4       -0.8368
   5       -0.6026
   6       -0.4759
   7       -0.4694
   8       -0.4566
   9       -0.2294
  10       -0.2208
  11        0.3312
  12        0.3537
  13        0.5027
  14        0.5269
  15        0.6613
  16        0.6859
  17        0.6963
  18        0.6978
  19        0.9078
  20        0.9690
  21        1.2760
  22        1.2761
  23        7.6407
  24        7.9466
  25        8.6428
  26        9.0102
  27       10.1201
  28       10.4191
  29       10.6947
  30       11.0527
  31       17.6481
  32       17.7291
 
  0.5000000E+00  0.4166667E-01  0.0000000E+00  0.8680556E-03
   1       -3.1014
   2       -3.1014
   3       -0.8227
   4       -0.8227
   5       -0.5298
   6       -0.5298
   7       -0.3582
   8       -0.3582
   9       -0.3504
  10       -0.3504
  11        0.3279
  12        0.3279
  13        0.5806
  14        0.5806
  15        0.6024
  16        0.6024
  17        0.6853
  18        0.6853
  19        0.9382
  20        0.9382
  21        1.2761
  22        1.2761
  23        8.1330
  24        8.1330
  25        8.4682
  26        8.4682
  27       10.3830
  28       10.3830
  29       10.7245
  30       10.7245
  31       18.1562
  32       18.1576
 
  0.8333333E-01  0.8333333E-01  0.0000000E+00  0.8680556E-03
   1       -5.5034
   2       -1.4223
   3       -1.4223
   4       -1.3879
   5       -1.0450
   6       -1.0450
   7       -1.0442
   8        0.0109
   9        0.0658
  10        0.0728
  11        0.6890
  12        0.7153
  13        1.0898
  14        1.1019
  15        1.1019
  16        1.1126
  17        1.1644
  18        1.1644
  19        1.2553
  20        1.2553
  21        1.2652
  22        3.9657
  23        3.9657
  24        4.6689
  25        8.9880
  26        9.6515
  27        9.6515
  28       13.2172
  29       14.4081
  30       14.4081
  31       14.5721
  32       14.5721
 
  0.1250000E+00  0.8333333E-01  0.0000000E+00  0.1736111E-02
   1       -5.4082
   2       -1.4281
   3       -1.3805
   4       -1.3483
   5       -1.0228
   6       -1.0210
   7       -1.0205
   8       -0.0100
   9        0.0830
  10        0.0911
  11        0.6714
  12        0.7221
  13        0.9840
  14        0.9935
  15        1.0614
  16        1.0851
  17        1.1178
  18        1.1537
  19        1.2215
  20        1.2553
  21        1.2587
  22        3.4589
  23        4.1664
  24        4.8693
  25        9.0305
  26        9.7065
  27       10.3677
  28       12.5821
  29       13.8809
  30       14.1791
  31       14.5351
  32       14.7002
 
  0.1666667E+00  0.8333333E-01  0.0000000E+00  0.1736111E-02
   1       -5.2756
   2       -1.4432
   3       -1.3242
   4       -1.2950
   5       -0.9920
   6       -0.9873
   7       -0.9872
   8       -0.0414
   9        0.1098
  10        0.1164
  11        0.6440
  12        0.7354
  13        0.8454
  14        0.8487
  15        1.0047
  16        1.0476
  17        1.0752
  18        1.1383
  19        1.1758
  20        1.2552
  21        1.2556
  22        2.9132
  23        4.4217
  24        5.1309
  25        9.0911
  26        9.7849
  27       11.2149
  28       11.9451
  29       13.2889
  30       13.7226
  31       14.7109
  32       14.8001
 
  0.2083333E+00  0.8333333E-01  0.0000000E+00  0.1736111E-02
   1       -5.1063
   2       -1.4758
   3       -1.2555
   4       -1.2300
   5       -0.9533
   6       -0.9443
   7       -0.9436
   8       -0.0819
   9        0.1451
  10        0.1481
  11        0.6098
  12        0.6816
  13        0.6963
  14        0.7531
  15        0.9302
  16        1.0009
  17        1.0259
  18        1.1179
  19        1.1196
  20        1.2541
  21        1.2551
  22        2.3826
  23        4.7191
  24        5.4428
  25        9.1710
  26        9.8882
  27       11.3184
  28       12.1497
  29       12.6707
  30       13.2418
  31       14.4318
  32       14.9335
 
  0.2500000E+00  0.8333333E-01  0.0000000E+00  0.1736111E-02
   1       -4.9013
   2       -1.5383
   3       -1.1773
   4       -1.1561
   5       -0.9073
   6       -0.8919
   7       -0.8899
   8       -0.1303
   9        0.1853
  10        0.1883
  11        0.5127
  12        0.5359
  13        0.5714
  14        0.7745
  15        0.8344
  16        0.9469
  17        0.9697
  18        1.0546
  19        1.0921
  20        1.2534
  21        1.2550
  22        1.9072
  23        5.0495
  24        5.7966
  25        9.2717
  26       10.0178
  27       10.7090
  28       12.0463
  29       12.7616
  30       13.1489
  31       13.9958
  32       15.2006
 
  0.2916667E+00  0.8333333E-01  0.0000000E+00  0.1736111E-02
   1       -4.6619
   2       -1.6466
   3       -1.0938
   4       -1.0767
   5       -0.8545
   6       -0.8301
   7       -0.8260
   8       -0.1855
   9        0.2259
  10        0.2387
  11        0.3449
  12        0.3739
  13        0.5326
  14        0.7130
  15        0.7991
  16        0.8880
  17        0.9085
  18        0.9826
  19        1.0586
  20        1.2531
  21        1.2549
  22        1.5234
  23        5.4071
  24        6.1859
  25        9.3941
  26       10.1214
  27       10.1755
  28       11.4264
  29       12.2974
  30       13.5347
  31       14.1988
  32       15.5098
 
  0.3333333E+00  0.8333333E-01  0.0000000E+00  0.1736111E-02
   1       -4.3901
   2       -1.8168
   3       -1.0097
   4       -0.9964
   5       -0.7960
   6       -0.7594
   7       -0.7517
   8       -0.2464
   9        0.1820
  10        0.2147
  11        0.2648
  12        0.2960
  13        0.5004
  14        0.5716
  15        0.8265
  16        0.8279
  17        0.8458
  18        0.9055
  19        1.0097
  20        1.2531
  21        1.2547
  22        1.2578
  23        5.7879
  24        6.6062
  25        9.5034
  26        9.5940
  27       10.3632
  28       10.8171
  29       11.8589
  30       13.0739
  31       15.2902
  32       15.8584
 
  0.3750000E+00  0.8333333E-01  0.0000000E+00  0.1736111E-02
   1       -4.0885
   2       -2.0559
   3       -0.9313
   4       -0.9210
   5       -0.7326
   6       -0.6799
   7       -0.6668
   8       -0.3119
   9        0.0266
  10        0.0612
  11        0.2905
  12        0.3596
  13        0.4377
  14        0.4894
  15        0.7713
  16        0.7861
  17        0.8251
  18        0.8563
  19        0.9294
  20        1.1121
  21        1.2532
  22        1.2545
  23        6.1895
  24        7.0543
  25        9.0057
  26        9.7236
  27       10.2222
  28       10.5820
  29       11.4524
  30       12.6281
  31       16.2434
  32       16.3770
 
  0.4166667E+00  0.8333333E-01  0.0000000E+00  0.1736111E-02
   1       -3.7611
   2       -2.3556
   3       -0.8659
   4       -0.8583
   5       -0.6653
   6       -0.5909
   7       -0.5713
   8       -0.3808
   9       -0.1195
  10       -0.0846
  11        0.2918
  12        0.3410
  13        0.4287
  14        0.5142
  15        0.7246
  16        0.7353
  17        0.7430
  18        0.8273
  19        0.8882
  20        1.0420
  21        1.2534
  22        1.2543
  23        6.6104
  24        7.5277
  25        8.4861
  26        9.6440
  27        9.9265
  28       10.8259
  29       11.0886
  30       12.2066
  31       16.6620
  32       16.8625
 
  0.4583333E+00  0.8333333E-01  0.0000000E+00  0.1736111E-02
   1       -3.4135
   2       -2.6957
   3       -0.8213
   4       -0.8170
   5       -0.5953
   6       -0.4910
   7       -0.4652
   8       -0.4518
   9       -0.2550
  10       -0.2214
  11        0.2795
  12        0.2891
  13        0.5027
  14        0.5697
  15        0.6610
  16        0.6942
  17        0.6998
  18        0.7299
  19        0.9220
  20        0.9963
  21        1.2536
  22        1.2541
  23        7.0502
  24        7.9874
  25        8.0247
  26        9.0841
  27       10.1612
  28       10.7264
  29       11.1384
  30       11.8150
  31       17.1114
  32       17.3290
 
  0.5000000E+00  0.8333333E-01  0.0000000E+00  0.8680556E-03
   1       -3.0542
   2       -3.0542
   3       -0.8039
   4       -0.8039
   5       -0.5237
   6       -0.5237
   7       -0.3791
   8       -0.3791
   9       -0.3485
  10       -0.3485
  11        0.2732
  12        0.2732
  13        0.5805
  14        0.5805
  15        0.6434
  16        0.6434
  17        0.6853
  18        0.6853
  19        0.9577
  20        0.9577
  21        1.2538
  22        1.2538
  23        7.5090
  24        7.5090
  25        8.5440
  26        8.5440
  27       10.4285
  28       10.4285
  29       11.4573
  30       11.4573
  31       17.5888
  32       17.5888
 
  0.1250000E+00  0.1250000E+00  0.0000000E+00  0.8680556E-03
   1       -5.3135
   2       -1.3849
   3       -1.3849
   4       -1.3102
   5       -0.9993
   6       -0.9993
   7       -0.9977
   8       -0.0254
   9        0.0954
  10        0.1067
  11        0.6622
  12        0.7233
  13        0.8976
  14        0.9376
  15        0.9376
  16        1.0591
  17        1.1174
  18        1.1174
  19        1.2214
  20        1.2214
  21        1.2430
  22        3.6567
  23        3.6567
  24        5.0597
  25        9.0739
  26       10.4306
  27       10.4306
  28       11.9068
  29       14.0030
  30       14.0030
  31       14.3007
  32       14.3007
 
  0.1666667E+00  0.1250000E+00  0.0000000E+00  0.1736111E-02
   1       -5.1816
   2       -1.3980
   3       -1.3266
   4       -1.2587
   5       -0.9694
   6       -0.9664
   7       -0.9658
   8       -0.0521
   9        0.1183
  10        0.1281
  11        0.6409
  12        0.7343
  13        0.7809
  14        0.7846
  15        0.8659
  16        1.0234
  17        1.0769
  18        1.1094
  19        1.1755
  20        1.2212
  21        1.2323
  22        3.1127
  23        3.9038
  24        5.3104
  25        9.1358
  26       10.5197
  27       11.2436
  28       11.2832
  29       13.4075
  30       13.8379
  31       14.1718
  32       14.4692
 
  0.2083333E+00  0.1250000E+00  0.0000000E+00  0.1736111E-02
   1       -5.0132
   2       -1.4278
   3       -1.2554
   4       -1.1960
   5       -0.9317
   6       -0.9249
   7       -0.9238
   8       -0.0889
   9        0.1510
  10        0.1545
  11        0.6111
  12        0.6195
  13        0.6442
  14        0.7529
  15        0.7773
  16        0.9790
  17        1.0286
  18        1.0933
  19        1.1192
  20        1.2209
  21        1.2258
  22        2.5875
  23        4.1878
  24        5.6120
  25        9.2171
  26       10.6007
  27       10.6362
  28       12.2216
  29       12.7873
  30       13.3512
  31       14.3855
  32       14.6832
 
  0.2500000E+00  0.1250000E+00  0.0000000E+00  0.1736111E-02
   1       -4.8092
   2       -1.4868
   3       -1.1742
   4       -1.1244
   5       -0.8868
   6       -0.8752
   7       -0.8714
   8       -0.1344
   9        0.1845
  10        0.1924
  11        0.4514
  12        0.4967
  13        0.5773
  14        0.6706
  15        0.7770
  16        0.9275
  17        0.9733
  18        1.0541
  19        1.0690
  20        1.2206
  21        1.2220
  22        2.1182
  23        4.5003
  24        5.9563
  25        9.3178
  26        9.9839
  27       10.7812
  28       12.1620
  29       12.8657
  30       13.2231
  31       14.6419
  32       14.7994
 
  0.2916667E+00  0.1250000E+00  0.0000000E+00  0.1736111E-02
   1       -4.5712
   2       -1.5911
   3       -1.0870
   4       -1.0470
   5       -0.8355
   6       -0.8175
   7       -0.8091
   8       -0.1870
   9        0.2150
  10        0.2417
  11        0.2860
  12        0.3453
  13        0.5449
  14        0.5486
  15        0.8053
  16        0.8713
  17        0.9128
  18        0.9821
  19        1.0348
  20        1.2198
  21        1.2203
  22        1.7327
  23        4.8366
  24        6.3373
  25        9.3481
  26        9.4870
  27       10.9558
  28       11.5420
  29       12.3969
  30       14.2746
  31       14.3889
  32       14.9385
 
  0.3333333E+00  0.1250000E+00  0.0000000E+00  0.1736111E-02
   1       -4.3011
   2       -1.7568
   3       -0.9988
   4       -0.9675
   5       -0.7785
   6       -0.7529
   7       -0.7367
   8       -0.2455
   9        0.1267
  10        0.1948
  11        0.2398
  12        0.2981
  13        0.4239
  14        0.5223
  15        0.8140
  16        0.8374
  17        0.8504
  18        0.9049
  19        0.9878
  20        1.2187
  21        1.2199
  22        1.4461
  23        5.1939
  24        6.7504
  25        8.8144
  26        9.6067
  27       10.9334
  28       11.1600
  29       11.9556
  30       13.9531
  31       15.2729
  32       15.3642
 
  0.3750000E+00  0.1250000E+00  0.0000000E+00  0.1736111E-02
   1       -4.0016
   2       -1.9912
   3       -0.9157
   4       -0.8913
   5       -0.7168
   6       -0.6823
   7       -0.6541
   8       -0.3087
   9       -0.0243
  10        0.0486
  11        0.2500
  12        0.3180
  13        0.3610
  14        0.5214
  15        0.7604
  16        0.7904
  17        0.8246
  18        0.8728
  19        0.9233
  20        1.2181
  21        1.2195
  22        1.2540
  23        5.5710
  24        7.1924
  25        8.2786
  26        9.7834
  27       10.3398
  28       11.3737
  29       11.5684
  30       13.5172
  31       15.6423
  32       15.9489
 
  0.4166667E+00  0.1250000E+00  0.0000000E+00  0.1736111E-02
   1       -3.6767
   2       -2.2862
   3       -0.8452
   4       -0.8266
   5       -0.6514
   6       -0.6044
   7       -0.5613
   8       -0.3753
   9       -0.1654
  10       -0.0911
  11        0.2419
  12        0.2477
  13        0.4296
  14        0.5494
  15        0.7168
  16        0.7385
  17        0.7427
  18        0.8419
  19        0.9114
  20        1.1345
  21        1.2179
  22        1.2190
  23        5.9677
  24        7.6606
  25        7.7682
  26        9.7634
  27        9.9909
  28       11.1467
  29       11.6893
  30       13.0959
  31       16.0444
  32       16.3603
 
  0.4583333E+00  0.1250000E+00  0.0000000E+00  0.1736111E-02
   1       -3.3321
   2       -2.6218
   3       -0.7953
   4       -0.7846
   5       -0.5834
   6       -0.5155
   7       -0.4584
   8       -0.4441
   9       -0.2953
  10       -0.2227
  11        0.2150