<?xml version="1.0" encoding="ISO-8859-1"?>
<modeling>
 <generator>
  <i name="program" type="string">vasp</i>
  <i name="version" type="string">4.6.28 </i>
  <i name="subversion" type="string">25Jul05 complex  parallel</i>
  <i name="platform" type="string">LinuxIFC</i>
  <i name="date" type="string">2017 01 11</i>
  <i name="time" type="string">18:48:13</i>
 </generator>
 <incar>
  <i type="string" name="PREC">accurate</i>
  <i type="int" name="IALGO">    38</i>
  <i type="logical" name="ADDGRID"> T  </i>
  <i name="EDIFF">      0.00000001</i>
  <i type="int" name="IBRION">    -1</i>
  <i name="ENCUT">    800.00000000</i>
  <i type="logical" name="LREAL"> F  </i>
  <i type="int" name="ISMEAR">     0</i>
  <i name="SIGMA">      0.01000000</i>
  <i type="logical" name="LWAVE"> F  </i>
  <i type="logical" name="LCHARG"> F  </i>
 </incar>
 <kpoints>
  <generation param="Gamma">
   <v type="int" name="divisions">      24      24      24</v>
   <v name="usershift">      0.00000000      0.00000000      0.00000000</v>
   <v name="genvec1">      0.04166667      0.00000000      0.00000000</v>
   <v name="genvec2">      0.00000000      0.04166667      0.00000000</v>
   <v name="genvec3">      0.00000000      0.00000000      0.04166667</v>
   <v name="shift">      0.00000000      0.00000000      0.00000000</v>
  </generation>
  <varray name="kpointlist" >
   <v>       0.00000000      0.00000000      0.00000000</v>
   <v>       0.04166667      0.00000000      0.00000000</v>
   <v>       0.08333333      0.00000000      0.00000000</v>
   <v>       0.12500000      0.00000000      0.00000000</v>
   <v>       0.16666667      0.00000000      0.00000000</v>
   <v>       0.20833333      0.00000000      0.00000000</v>
   <v>       0.25000000      0.00000000      0.00000000</v>
   <v>       0.29166667      0.00000000      0.00000000</v>
   <v>       0.33333333      0.00000000      0.00000000</v>
   <v>       0.37500000      0.00000000      0.00000000</v>
   <v>       0.41666667      0.00000000      0.00000000</v>
   <v>       0.45833333      0.00000000      0.00000000</v>
   <v>       0.50000000      0.00000000      0.00000000</v>
   <v>       0.04166667      0.04166667      0.00000000</v>
   <v>       0.08333333      0.04166667      0.00000000</v>
   <v>       0.12500000      0.04166667      0.00000000</v>
   <v>       0.16666667      0.04166667      0.00000000</v>
   <v>       0.20833333      0.04166667      0.00000000</v>
   <v>       0.25000000      0.04166667      0.00000000</v>
   <v>       0.29166667      0.04166667      0.00000000</v>
   <v>       0.33333333      0.04166667      0.00000000</v>
   <v>       0.37500000      0.04166667      0.00000000</v>
   <v>       0.41666667      0.04166667      0.00000000</v>
   <v>       0.45833333      0.04166667      0.00000000</v>
   <v>       0.50000000      0.04166667      0.00000000</v>
   <v>       0.08333333      0.08333333      0.00000000</v>
   <v>       0.12500000      0.08333333      0.00000000</v>
   <v>       0.16666667      0.08333333      0.00000000</v>
   <v>       0.20833333      0.08333333      0.00000000</v>
   <v>       0.25000000      0.08333333      0.00000000</v>
   <v>       0.29166667      0.08333333      0.00000000</v>
   <v>       0.33333333      0.08333333      0.00000000</v>
   <v>       0.37500000      0.08333333      0.00000000</v>
   <v>       0.41666667      0.08333333      0.00000000</v>
   <v>       0.45833333      0.08333333      0.00000000</v>
   <v>       0.50000000      0.08333333      0.00000000</v>
   <v>       0.12500000      0.12500000      0.00000000</v>
   <v>       0.16666667      0.12500000      0.00000000</v>
   <v>       0.20833333      0.12500000      0.00000000</v>
   <v>       0.25000000      0.12500000      0.00000000</v>
   <v>       0.29166667      0.12500000      0.00000000</v>
   <v>       0.33333333      0.12500000      0.00000000</v>
   <v>       0.37500000      0.12500000      0.00000000</v>
   <v>       0.41666667      0.12500000      0.00000000</v>
   <v>       0.45833333      0.12500000      0.00000000</v>
   <v>       0.50000000      0.12500000      0.00000000</v>
   <v>       0.16666667      0.16666667      0.00000000</v>
   <v>       0.20833333      0.16666667      0.00000000</v>
   <v>       0.25000000      0.16666667      0.00000000</v>
   <v>       0.29166667      0.16666667      0.00000000</v>
   <v>       0.33333333      0.16666667      0.00000000</v>
   <v>       0.37500000      0.16666667      0.00000000</v>
   <v>       0.41666667      0.16666667      0.00000000</v>
   <v>       0.45833333      0.16666667      0.00000000</v>
   <v>       0.50000000      0.16666667      0.00000000</v>
   <v>       0.20833333      0.20833333      0.00000000</v>
   <v>       0.25000000      0.20833333      0.00000000</v>
   <v>       0.29166667      0.20833333      0.00000000</v>
   <v>       0.33333333      0.20833333      0.00000000</v>
   <v>       0.37500000      0.20833333      0.00000000</v>
   <v>       0.41666667      0.20833333      0.00000000</v>
   <v>       0.45833333      0.20833333      0.00000000</v>
   <v>       0.50000000      0.20833333      0.00000000</v>
   <v>       0.25000000      0.25000000      0.00000000</v>
   <v>       0.29166667      0.25000000      0.00000000</v>
   <v>       0.33333333      0.25000000      0.00000000</v>
   <v>       0.37500000      0.25000000      0.00000000</v>
   <v>       0.41666667      0.25000000      0.00000000</v>
   <v>       0.45833333      0.25000000      0.00000000</v>
   <v>       0.50000000      0.25000000      0.00000000</v>
   <v>       0.29166667      0.29166667      0.00000000</v>
   <v>       0.33333333      0.29166667      0.00000000</v>
   <v>       0.37500000      0.29166667      0.00000000</v>
   <v>       0.41666667      0.29166667      0.00000000</v>
   <v>       0.45833333      0.29166667      0.00000000</v>
   <v>       0.50000000      0.29166667      0.00000000</v>
   <v>       0.33333333      0.33333333      0.00000000</v>
   <v>       0.37500000      0.33333333      0.00000000</v>
   <v>       0.41666667      0.33333333      0.00000000</v>
   <v>       0.45833333      0.33333333      0.00000000</v>
   <v>       0.50000000      0.33333333      0.00000000</v>
   <v>       0.37500000      0.37500000      0.00000000</v>
   <v>       0.41666667      0.37500000      0.00000000</v>
   <v>       0.45833333      0.37500000      0.00000000</v>
   <v>       0.50000000      0.37500000      0.00000000</v>
   <v>       0.41666667      0.41666667      0.00000000</v>
   <v>       0.45833333      0.41666667      0.00000000</v>
   <v>       0.50000000      0.41666667      0.00000000</v>
   <v>       0.45833333      0.45833333      0.00000000</v>
   <v>       0.50000000      0.45833333      0.00000000</v>
   <v>       0.50000000      0.50000000      0.00000000</v>
   <v>       0.04166667      0.04166667      0.04166667</v>
   <v>       0.08333333      0.04166667      0.04166667</v>
   <v>       0.12500000      0.04166667      0.04166667</v>
   <v>       0.16666667      0.04166667      0.04166667</v>
   <v>       0.20833333      0.04166667      0.04166667</v>
   <v>       0.25000000      0.04166667      0.04166667</v>
   <v>       0.29166667      0.04166667      0.04166667</v>
   <v>       0.33333333      0.04166667      0.04166667</v>
   <v>       0.37500000      0.04166667      0.04166667</v>
   <v>       0.41666667      0.04166667      0.04166667</v>
   <v>       0.45833333      0.04166667      0.04166667</v>
   <v>       0.50000000      0.04166667      0.04166667</v>
   <v>       0.08333333      0.08333333      0.04166667</v>
   <v>       0.12500000      0.08333333      0.04166667</v>
   <v>       0.16666667      0.08333333      0.04166667</v>
   <v>       0.20833333      0.08333333      0.04166667</v>
   <v>       0.25000000      0.08333333      0.04166667</v>
   <v>       0.29166667      0.08333333      0.04166667</v>
   <v>       0.33333333      0.08333333      0.04166667</v>
   <v>       0.37500000      0.08333333      0.04166667</v>
   <v>       0.41666667      0.08333333      0.04166667</v>
   <v>       0.45833333      0.08333333      0.04166667</v>
   <v>       0.50000000      0.08333333      0.04166667</v>
   <v>       0.12500000      0.12500000      0.04166667</v>
   <v>       0.16666667      0.12500000      0.04166667</v>
   <v>       0.20833333      0.12500000      0.04166667</v>
   <v>       0.25000000      0.12500000      0.04166667</v>
   <v>       0.29166667      0.12500000      0.04166667</v>
   <v>       0.33333333      0.12500000      0.04166667</v>
   <v>       0.37500000      0.12500000      0.04166667</v>
   <v>       0.41666667      0.12500000      0.04166667</v>
   <v>       0.45833333      0.12500000      0.04166667</v>
   <v>       0.50000000      0.12500000      0.04166667</v>
   <v>       0.16666667      0.16666667      0.04166667</v>
   <v>       0.20833333      0.16666667      0.04166667</v>
   <v>       0.25000000      0.16666667      0.04166667</v>
   <v>       0.29166667      0.16666667      0.04166667</v>
   <v>       0.33333333      0.16666667      0.04166667</v>
   <v>       0.37500000      0.16666667      0.04166667</v>
   <v>       0.41666667      0.16666667      0.04166667</v>
   <v>       0.45833333      0.16666667      0.04166667</v>
   <v>       0.50000000      0.16666667      0.04166667</v>
   <v>       0.20833333      0.20833333      0.04166667</v>
   <v>       0.25000000      0.20833333      0.04166667</v>
   <v>       0.29166667      0.20833333      0.04166667</v>
   <v>       0.33333333      0.20833333      0.04166667</v>
   <v>       0.37500000      0.20833333      0.04166667</v>
   <v>       0.41666667      0.20833333      0.04166667</v>
   <v>       0.45833333      0.20833333      0.04166667</v>
   <v>       0.50000000      0.20833333      0.04166667</v>
   <v>       0.25000000      0.25000000      0.04166667</v>
   <v>       0.29166667      0.25000000      0.04166667</v>
   <v>       0.33333333      0.25000000      0.04166667</v>
   <v>       0.37500000      0.25000000      0.04166667</v>
   <v>       0.41666667      0.25000000      0.04166667</v>
   <v>       0.45833333      0.25000000      0.04166667</v>
   <v>       0.50000000      0.25000000      0.04166667</v>
   <v>       0.29166667      0.29166667      0.04166667</v>
   <v>       0.33333333      0.29166667      0.04166667</v>
   <v>       0.37500000      0.29166667      0.04166667</v>
   <v>       0.41666667      0.29166667      0.04166667</v>
   <v>       0.45833333      0.29166667      0.04166667</v>
   <v>       0.50000000      0.29166667      0.04166667</v>
   <v>       0.33333333      0.33333333      0.04166667</v>
   <v>       0.37500000      0.33333333      0.04166667</v>
   <v>       0.41666667      0.33333333      0.04166667</v>
   <v>       0.45833333      0.33333333      0.04166667</v>
   <v>       0.50000000      0.33333333      0.04166667</v>
   <v>       0.37500000      0.37500000      0.04166667</v>
   <v>       0.41666667      0.37500000      0.04166667</v>
   <v>       0.45833333      0.37500000      0.04166667</v>
   <v>       0.50000000      0.37500000      0.04166667</v>
   <v>       0.41666667      0.41666667      0.04166667</v>
   <v>       0.45833333      0.41666667      0.04166667</v>
   <v>       0.50000000      0.41666667      0.04166667</v>
   <v>       0.45833333      0.45833333      0.04166667</v>
   <v>       0.50000000      0.45833333      0.04166667</v>
   <v>       0.50000000      0.50000000      0.04166667</v>
   <v>       0.08333333      0.08333333      0.08333333</v>
   <v>       0.12500000      0.08333333      0.08333333</v>
   <v>       0.16666667      0.08333333      0.08333333</v>
   <v>       0.20833333      0.08333333      0.08333333</v>
   <v>       0.25000000      0.08333333      0.08333333</v>
   <v>       0.29166667      0.08333333      0.08333333</v>
   <v>       0.33333333      0.08333333      0.08333333</v>
   <v>       0.37500000      0.08333333      0.08333333</v>
   <v>       0.41666667      0.08333333      0.08333333</v>
   <v>       0.45833333      0.08333333      0.08333333</v>
   <v>       0.50000000      0.08333333      0.08333333</v>
   <v>       0.12500000      0.12500000      0.08333333</v>
   <v>       0.16666667      0.12500000      0.08333333</v>
   <v>       0.20833333      0.12500000      0.08333333</v>
   <v>       0.25000000      0.12500000      0.08333333</v>
   <v>       0.29166667      0.12500000      0.08333333</v>
   <v>       0.33333333      0.12500000      0.08333333</v>
   <v>       0.37500000      0.12500000      0.08333333</v>
   <v>       0.41666667      0.12500000      0.08333333</v>
   <v>       0.45833333      0.12500000      0.08333333</v>
   <v>       0.50000000      0.12500000      0.08333333</v>
   <v>       0.16666667      0.16666667      0.08333333</v>
   <v>       0.20833333      0.16666667      0.08333333</v>
   <v>       0.25000000      0.16666667      0.08333333</v>
   <v>       0.29166667      0.16666667      0.08333333</v>
   <v>       0.33333333      0.16666667      0.08333333</v>
   <v>       0.37500000      0.16666667      0.08333333</v>
   <v>       0.41666667      0.16666667      0.08333333</v>
   <v>       0.45833333      0.16666667      0.08333333</v>
   <v>       0.50000000      0.16666667      0.08333333</v>
   <v>       0.20833333      0.20833333      0.08333333</v>
   <v>       0.25000000      0.20833333      0.08333333</v>
   <v>       0.29166667      0.20833333      0.08333333</v>
   <v>       0.33333333      0.20833333      0.08333333</v>
   <v>       0.37500000      0.20833333      0.08333333</v>
   <v>       0.41666667      0.20833333      0.08333333</v>
   <v>       0.45833333      0.20833333      0.08333333</v>
   <v>       0.50000000      0.20833333      0.08333333</v>
   <v>       0.25000000      0.25000000      0.08333333</v>
   <v>       0.29166667      0.25000000      0.08333333</v>
   <v>       0.33333333      0.25000000      0.08333333</v>
   <v>       0.37500000      0.25000000      0.08333333</v>
   <v>       0.41666667      0.25000000      0.08333333</v>
   <v>       0.45833333      0.25000000      0.08333333</v>
   <v>       0.50000000      0.25000000      0.08333333</v>
   <v>       0.29166667      0.29166667      0.08333333</v>
   <v>       0.33333333      0.29166667      0.08333333</v>
   <v>       0.37500000      0.29166667      0.08333333</v>
   <v>       0.41666667      0.29166667      0.08333333</v>
   <v>       0.45833333      0.29166667      0.08333333</v>
   <v>       0.50000000      0.29166667      0.08333333</v>
   <v>       0.33333333      0.33333333      0.08333333</v>
   <v>       0.37500000      0.33333333      0.08333333</v>
   <v>       0.41666667      0.33333333      0.08333333</v>
   <v>       0.45833333      0.33333333      0.08333333</v>
   <v>       0.50000000      0.33333333      0.08333333</v>
   <v>       0.37500000      0.37500000      0.08333333</v>
   <v>       0.41666667      0.37500000      0.08333333</v>
   <v>       0.45833333      0.37500000      0.08333333</v>
   <v>       0.50000000      0.37500000      0.08333333</v>
   <v>       0.41666667      0.41666667      0.08333333</v>
   <v>       0.45833333      0.41666667      0.08333333</v>
   <v>       0.50000000      0.41666667      0.08333333</v>
   <v>       0.45833333      0.45833333      0.08333333</v>
   <v>       0.50000000      0.45833333      0.08333333</v>
   <v>       0.50000000      0.50000000      0.08333333</v>
   <v>       0.12500000      0.12500000      0.12500000</v>
   <v>       0.16666667      0.12500000      0.12500000</v>
   <v>       0.20833333      0.12500000      0.12500000</v>
   <v>       0.25000000      0.12500000      0.12500000</v>
   <v>       0.29166667      0.12500000      0.12500000</v>
   <v>       0.33333333      0.12500000      0.12500000</v>
   <v>       0.37500000      0.12500000      0.12500000</v>
   <v>       0.41666667      0.12500000      0.12500000</v>
   <v>       0.45833333      0.12500000      0.12500000</v>
   <v>       0.50000000      0.12500000      0.12500000</v>
   <v>       0.16666667      0.16666667      0.12500000</v>
   <v>       0.20833333      0.16666667      0.12500000</v>
   <v>       0.25000000      0.16666667      0.12500000</v>
   <v>       0.29166667      0.16666667      0.12500000</v>
   <v>       0.33333333      0.16666667      0.12500000</v>
   <v>       0.37500000      0.16666667      0.12500000</v>
   <v>       0.41666667      0.16666667      0.12500000</v>
   <v>       0.45833333      0.16666667      0.12500000</v>
   <v>       0.50000000      0.16666667      0.12500000</v>
   <v>       0.20833333      0.20833333      0.12500000</v>
   <v>       0.25000000      0.20833333      0.12500000</v>
   <v>       0.29166667      0.20833333      0.12500000</v>
   <v>       0.33333333      0.20833333      0.12500000</v>
   <v>       0.37500000      0.20833333      0.12500000</v>
   <v>       0.41666667      0.20833333      0.12500000</v>
   <v>       0.45833333      0.20833333      0.12500000</v>
   <v>       0.50000000      0.20833333      0.12500000</v>
   <v>       0.25000000      0.25000000      0.12500000</v>
   <v>       0.29166667      0.25000000      0.12500000</v>
   <v>       0.33333333      0.25000000      0.12500000</v>
   <v>       0.37500000      0.25000000      0.12500000</v>
   <v>       0.41666667      0.25000000      0.12500000</v>
   <v>       0.45833333      0.25000000      0.12500000</v>
   <v>       0.50000000      0.25000000      0.12500000</v>
   <v>       0.29166667      0.29166667      0.12500000</v>
   <v>       0.33333333      0.29166667      0.12500000</v>
   <v>       0.37500000      0.29166667      0.12500000</v>
   <v>       0.41666667      0.29166667      0.12500000</v>
   <v>       0.45833333      0.29166667      0.12500000</v>
   <v>       0.50000000      0.29166667      0.12500000</v>
   <v>       0.33333333      0.33333333      0.12500000</v>
   <v>       0.37500000      0.33333333      0.12500000</v>
   <v>       0.41666667      0.33333333      0.12500000</v>
   <v>       0.45833333      0.33333333      0.12500000</v>
   <v>       0.50000000      0.33333333      0.12500000</v>
   <v>       0.37500000      0.37500000      0.12500000</v>
   <v>       0.41666667      0.37500000      0.12500000</v>
   <v>       0.45833333      0.37500000      0.12500000</v>
   <v>       0.50000000      0.37500000      0.12500000</v>
   <v>       0.41666667      0.41666667      0.12500000</v>
   <v>       0.45833333      0.41666667      0.12500000</v>
   <v>       0.50000000      0.41666667      0.12500000</v>
   <v>       0.45833333      0.45833333      0.12500000</v>
   <v>       0.50000000      0.45833333      0.12500000</v>
   <v>       0.50000000      0.50000000      0.12500000</v>
   <v>       0.16666667      0.16666667      0.16666667</v>
   <v>       0.20833333      0.16666667      0.16666667</v>
   <v>       0.25000000      0.16666667      0.16666667</v>
   <v>       0.29166667      0.16666667      0.16666667</v>
   <v>       0.33333333      0.16666667      0.16666667</v>
   <v>       0.37500000      0.16666667      0.16666667</v>
   <v>       0.41666667      0.16666667      0.16666667</v>
   <v>       0.45833333      0.16666667      0.16666667</v>
   <v>       0.50000000      0.16666667      0.16666667</v>
   <v>       0.20833333      0.20833333      0.16666667</v>
   <v>       0.25000000      0.20833333      0.16666667</v>
   <v>       0.29166667      0.20833333      0.16666667</v>
   <v>       0.33333333      0.20833333      0.16666667</v>
   <v>       0.37500000      0.20833333      0.16666667</v>
   <v>       0.41666667      0.20833333      0.16666667</v>
   <v>       0.45833333      0.20833333      0.16666667</v>
   <v>       0.50000000      0.20833333      0.16666667</v>
   <v>       0.25000000      0.25000000      0.16666667</v>
   <v>       0.29166667      0.25000000      0.16666667</v>
   <v>       0.33333333      0.25000000      0.16666667</v>
   <v>       0.37500000      0.25000000      0.16666667</v>
   <v>       0.41666667      0.25000000      0.16666667</v>
   <v>       0.45833333      0.25000000      0.16666667</v>
   <v>       0.50000000      0.25000000      0.16666667</v>
   <v>       0.29166667      0.29166667      0.16666667</v>
   <v>       0.33333333      0.29166667      0.16666667</v>
   <v>       0.37500000      0.29166667      0.16666667</v>
   <v>       0.41666667      0.29166667      0.16666667</v>
   <v>       0.45833333      0.29166667      0.16666667</v>
   <v>       0.50000000      0.29166667      0.16666667</v>
   <v>       0.33333333      0.33333333      0.16666667</v>
   <v>       0.37500000      0.33333333      0.16666667</v>
   <v>       0.41666667      0.33333333      0.16666667</v>
   <v>       0.45833333      0.33333333      0.16666667</v>
   <v>       0.50000000      0.33333333      0.16666667</v>
   <v>       0.37500000      0.37500000      0.16666667</v>
   <v>       0.41666667      0.37500000      0.16666667</v>
   <v>       0.45833333      0.37500000      0.16666667</v>
   <v>       0.50000000      0.37500000      0.16666667</v>
   <v>       0.41666667      0.41666667      0.16666667</v>
   <v>       0.45833333      0.41666667      0.16666667</v>
   <v>       0.50000000      0.41666667      0.16666667</v>
   <v>       0.45833333      0.45833333      0.16666667</v>
   <v>       0.50000000      0.45833333      0.16666667</v>
   <v>       0.50000000      0.50000000      0.16666667</v>
   <v>       0.20833333      0.20833333      0.20833333</v>
   <v>       0.25000000      0.20833333      0.20833333</v>
   <v>       0.29166667      0.20833333      0.20833333</v>
   <v>       0.33333333      0.20833333      0.20833333</v>
   <v>       0.37500000      0.20833333      0.20833333</v>
   <v>       0.41666667      0.20833333      0.20833333</v>
   <v>       0.45833333      0.20833333      0.20833333</v>
   <v>       0.50000000      0.20833333      0.20833333</v>
   <v>       0.25000000      0.25000000      0.20833333</v>
   <v>       0.29166667      0.25000000      0.20833333</v>
   <v>       0.33333333      0.25000000      0.20833333</v>
   <v>       0.37500000      0.25000000      0.20833333</v>
   <v>       0.41666667      0.25000000      0.20833333</v>
   <v>       0.45833333      0.25000000      0.20833333</v>
   <v>       0.50000000      0.25000000      0.20833333</v>
   <v>       0.29166667      0.29166667      0.20833333</v>
   <v>       0.33333333      0.29166667      0.20833333</v>
   <v>       0.37500000      0.29166667      0.20833333</v>
   <v>       0.41666667      0.29166667      0.20833333</v>
   <v>       0.45833333      0.29166667      0.20833333</v>
   <v>       0.50000000      0.29166667      0.20833333</v>
   <v>       0.33333333      0.33333333      0.20833333</v>
   <v>       0.37500000      0.33333333      0.20833333</v>
   <v>       0.41666667      0.33333333      0.20833333</v>
   <v>       0.45833333      0.33333333      0.20833333</v>
   <v>       0.50000000      0.33333333      0.20833333</v>
   <v>       0.37500000      0.37500000      0.20833333</v>
   <v>       0.41666667      0.37500000      0.20833333</v>
   <v>       0.45833333      0.37500000      0.20833333</v>
   <v>       0.50000000      0.37500000      0.20833333</v>
   <v>       0.41666667      0.41666667      0.20833333</v>
   <v>       0.45833333      0.41666667      0.20833333</v>
   <v>       0.50000000      0.41666667      0.20833333</v>
   <v>       0.45833333      0.45833333      0.20833333</v>
   <v>       0.50000000      0.45833333      0.20833333</v>
   <v>       0.50000000      0.50000000      0.20833333</v>
   <v>       0.25000000      0.25000000      0.25000000</v>
   <v>       0.29166667      0.25000000      0.25000000</v>
   <v>       0.33333333      0.25000000      0.25000000</v>
   <v>       0.37500000      0.25000000      0.25000000</v>
   <v>       0.41666667      0.25000000      0.25000000</v>
   <v>       0.45833333      0.25000000      0.25000000</v>
   <v>       0.50000000      0.25000000      0.25000000</v>
   <v>       0.29166667      0.29166667      0.25000000</v>
   <v>       0.33333333      0.29166667      0.25000000</v>
   <v>       0.37500000      0.29166667      0.25000000</v>
   <v>       0.41666667      0.29166667      0.25000000</v>
   <v>       0.45833333      0.29166667      0.25000000</v>
   <v>       0.50000000      0.29166667      0.25000000</v>
   <v>       0.33333333      0.33333333      0.25000000</v>
   <v>       0.37500000      0.33333333      0.25000000</v>
   <v>       0.41666667      0.33333333      0.25000000</v>
   <v>       0.45833333      0.33333333      0.25000000</v>
   <v>       0.50000000      0.33333333      0.25000000</v>
   <v>       0.37500000      0.37500000      0.25000000</v>
   <v>       0.41666667      0.37500000      0.25000000</v>
   <v>       0.45833333      0.37500000      0.25000000</v>
   <v>       0.50000000      0.37500000      0.25000000</v>
   <v>       0.41666667      0.41666667      0.25000000</v>
   <v>       0.45833333      0.41666667      0.25000000</v>
   <v>       0.50000000      0.41666667      0.25000000</v>
   <v>       0.45833333      0.45833333      0.25000000</v>
   <v>       0.50000000      0.45833333      0.25000000</v>
   <v>       0.50000000      0.50000000      0.25000000</v>
   <v>       0.29166667      0.29166667      0.29166667</v>
   <v>       0.33333333      0.29166667      0.29166667</v>
   <v>       0.37500000      0.29166667      0.29166667</v>
   <v>       0.41666667      0.29166667      0.29166667</v>
   <v>       0.45833333      0.29166667      0.29166667</v>
   <v>       0.50000000      0.29166667      0.29166667</v>
   <v>       0.33333333      0.33333333      0.29166667</v>
   <v>       0.37500000      0.33333333      0.29166667</v>
   <v>       0.41666667      0.33333333      0.29166667</v>
   <v>       0.45833333      0.33333333      0.29166667</v>
   <v>       0.50000000      0.33333333      0.29166667</v>
   <v>       0.37500000      0.37500000      0.29166667</v>
   <v>       0.41666667      0.37500000      0.29166667</v>
   <v>       0.45833333      0.37500000      0.29166667</v>
   <v>       0.50000000      0.37500000      0.29166667</v>
   <v>       0.41666667      0.41666667      0.29166667</v>
   <v>       0.45833333      0.41666667      0.29166667</v>
   <v>       0.50000000      0.41666667      0.29166667</v>
   <v>       0.45833333      0.45833333      0.29166667</v>
   <v>       0.50000000      0.45833333      0.29166667</v>
   <v>       0.50000000      0.50000000      0.29166667</v>
   <v>       0.33333333      0.33333333      0.33333333</v>
   <v>       0.37500000      0.33333333      0.33333333</v>
   <v>       0.41666667      0.33333333      0.33333333</v>
   <v>       0.45833333      0.33333333      0.33333333</v>
   <v>       0.50000000      0.33333333      0.33333333</v>
   <v>       0.37500000      0.37500000      0.33333333</v>
   <v>       0.41666667      0.37500000      0.33333333</v>
   <v>       0.45833333      0.37500000      0.33333333</v>
   <v>       0.50000000      0.37500000      0.33333333</v>
   <v>       0.41666667      0.41666667      0.33333333</v>
   <v>       0.45833333      0.41666667      0.33333333</v>
   <v>       0.50000000      0.41666667      0.33333333</v>
   <v>       0.45833333      0.45833333      0.33333333</v>
   <v>       0.50000000      0.45833333      0.33333333</v>
   <v>       0.50000000      0.50000000      0.33333333</v>
   <v>       0.37500000      0.37500000      0.37500000</v>
   <v>       0.41666667      0.37500000      0.37500000</v>
   <v>       0.45833333      0.37500000      0.37500000</v>
   <v>       0.50000000      0.37500000      0.37500000</v>
   <v>       0.41666667      0.41666667      0.37500000</v>
   <v>       0.45833333      0.41666667      0.37500000</v>
   <v>       0.50000000      0.41666667      0.37500000</v>
   <v>       0.45833333      0.45833333      0.37500000</v>
   <v>       0.50000000      0.45833333      0.37500000</v>
   <v>       0.50000000      0.50000000      0.37500000</v>
   <v>       0.41666667      0.41666667      0.41666667</v>
   <v>       0.45833333      0.41666667      0.41666667</v>
   <v>       0.50000000      0.41666667      0.41666667</v>
   <v>       0.45833333      0.45833333      0.41666667</v>
   <v>       0.50000000      0.45833333      0.41666667</v>
   <v>       0.50000000      0.50000000      0.41666667</v>
   <v>       0.45833333      0.45833333      0.45833333</v>
   <v>       0.50000000      0.45833333      0.45833333</v>
   <v>       0.50000000      0.50000000      0.45833333</v>
   <v>       0.50000000      0.50000000      0.50000000</v>
  </varray>
  <varray name="weights" >
   <v>       0.00007234</v>
   <v>       0.00043403</v>
   <v>       0.00043403</v>
   <v>       0.00043403</v>
   <v>       0.00043403</v>
   <v>       0.00043403</v>
   <v>       0.00043403</v>
   <v>       0.00043403</v>
   <v>       0.00043403</v>
   <v>       0.00043403</v>
   <v>       0.00043403</v>
   <v>       0.00043403</v>
   <v>       0.00021701</v>
   <v>       0.00086806</v>
   <v>       0.00173611</v>
   <v>       0.00173611</v>
   <v>       0.00173611</v>
   <v>       0.00173611</v>
   <v>       0.00173611</v>
   <v>       0.00173611</v>
   <v>       0.00173611</v>
   <v>       0.00173611</v>
   <v>       0.00173611</v>
   <v>       0.00173611</v>
   <v>       0.00086806</v>
   <v>       0.00086806</v>
   <v>       0.00173611</v>
   <v>       0.00173611</v>
   <v>       0.00173611</v>
   <v>       0.00173611</v>
   <v>       0.00173611</v>
   <v>       0.00173611</v>
   <v>       0.00173611</v>
   <v>       0.00173611</v>
   <v>       0.00173611</v>
   <v>       0.00086806</v>
   <v>       0.00086806</v>
   <v>       0.00173611</v>
   <v>       0.00173611</v>
   <v>       0.00173611</v>
   <v>       0.00173611</v>
   <v>       0.00173611</v>
   <v>       0.00173611</v>
   <v>       0.00173611</v>
   <v>       0.00173611</v>
   <v>       0.00086806</v>
   <v>       0.00086806</v>
   <v>       0.00173611</v>
   <v>       0.00173611</v>
   <v>       0.00173611</v>
   <v>       0.00173611</v>
   <v>       0.00173611</v>
   <v>       0.00173611</v>
   <v>       0.00173611</v>
   <v>       0.00086806</v>
   <v>       0.00086806</v>
   <v>       0.00173611</v>
   <v>       0.00173611</v>
   <v>       0.00173611</v>
   <v>       0.00173611</v>
   <v>       0.00173611</v>
   <v>       0.00173611</v>
   <v>       0.00086806</v>
   <v>       0.00086806</v>
   <v>       0.00173611</v>
   <v>       0.00173611</v>
   <v>       0.00173611</v>
   <v>       0.00173611</v>
   <v>       0.00173611</v>
   <v>       0.00086806</v>
   <v>       0.00086806</v>
   <v>       0.00173611</v>
   <v>       0.00173611</v>
   <v>       0.00173611</v>
   <v>       0.00173611</v>
   <v>       0.00086806</v>
   <v>       0.00086806</v>
   <v>       0.00173611</v>
   <v>       0.00173611</v>
   <v>       0.00173611</v>
   <v>       0.00086806</v>
   <v>       0.00086806</v>
   <v>       0.00173611</v>
   <v>       0.00173611</v>
   <v>       0.00086806</v>
   <v>       0.00086806</v>
   <v>       0.00173611</v>
   <v>       0.00086806</v>
   <v>       0.00086806</v>
   <v>       0.00086806</v>
   <v>       0.00021701</v>
   <v>       0.00057870</v>
   <v>       0.00173611</v>
   <v>       0.00173611</v>
   <v>       0.00173611</v>
   <v>       0.00173611</v>
   <v>       0.00173611</v>
   <v>       0.00173611</v>
   <v>       0.00173611</v>
   <v>       0.00173611</v>
   <v>       0.00173611</v>
   <v>       0.00173611</v>
   <v>       0.00086806</v>
   <v>       0.00173611</v>
   <v>       0.00347222</v>
   <v>       0.00347222</v>
   <v>       0.00347222</v>
   <v>       0.00347222</v>
   <v>       0.00347222</v>
   <v>       0.00347222</v>
   <v>       0.00347222</v>
   <v>       0.00347222</v>
   <v>       0.00347222</v>
   <v>       0.00173611</v>
   <v>       0.00173611</v>
   <v>       0.00347222</v>
   <v>       0.00347222</v>
   <v>       0.00347222</v>
   <v>       0.00347222</v>
   <v>       0.00347222</v>
   <v>       0.00347222</v>
   <v>       0.00347222</v>
   <v>       0.00347222</v>
   <v>       0.00173611</v>
   <v>       0.00173611</v>
   <v>       0.00347222</v>
   <v>       0.00347222</v>
   <v>       0.00347222</v>
   <v>       0.00347222</v>
   <v>       0.00347222</v>
   <v>       0.00347222</v>
   <v>       0.00347222</v>
   <v>       0.00173611</v>
   <v>       0.00173611</v>
   <v>       0.00347222</v>
   <v>       0.00347222</v>
   <v>       0.00347222</v>
   <v>       0.00347222</v>
   <v>       0.00347222</v>
   <v>       0.00347222</v>
   <v>       0.00173611</v>
   <v>       0.00173611</v>
   <v>       0.00347222</v>
   <v>       0.00347222</v>
   <v>       0.00347222</v>
   <v>       0.00347222</v>
   <v>       0.00347222</v>
   <v>       0.00173611</v>
   <v>       0.00173611</v>
   <v>       0.00347222</v>
   <v>       0.00347222</v>
   <v>       0.00347222</v>
   <v>       0.00347222</v>
   <v>       0.00173611</v>
   <v>       0.00173611</v>
   <v>       0.00347222</v>
   <v>       0.00347222</v>
   <v>       0.00347222</v>
   <v>       0.00173611</v>
   <v>       0.00173611</v>
   <v>       0.00347222</v>
   <v>       0.00347222</v>
   <v>       0.00173611</v>
   <v>       0.00173611</v>
   <v>       0.00347222</v>
   <v>       0.00173611</v>
   <v>       0.00173611</v>
   <v>       0.00173611</v>
   <v>       0.00043403</v>
   <v>       0.00057870</v>
   <v>       0.00173611</v>
   <v>       0.00173611</v>
   <v>       0.00173611</v>
   <v>       0.00173611</v>
   <v>       0.00173611</v>
   <v>       0.00173611</v>
   <v>       0.00173611</v>
   <v>       0.00173611</v>
   <v>       0.00173611</v>
   <v>       0.00086806</v>
   <v>       0.00173611</v>
   <v>       0.00347222</v>
   <v>       0.00347222</v>
   <v>       0.00347222</v>
   <v>       0.00347222</v>
   <v>       0.00347222</v>
   <v>       0.00347222</v>
   <v>       0.00347222</v>
   <v>       0.00347222</v>
   <v>       0.00173611</v>
   <v>       0.00173611</v>
   <v>       0.00347222</v>
   <v>       0.00347222</v>
   <v>       0.00347222</v>
   <v>       0.00347222</v>
   <v>       0.00347222</v>
   <v>       0.00347222</v>
   <v>       0.00347222</v>
   <v>       0.00173611</v>
   <v>       0.00173611</v>
   <v>       0.00347222</v>
   <v>       0.00347222</v>
   <v>       0.00347222</v>
   <v>       0.00347222</v>
   <v>       0.00347222</v>
   <v>       0.00347222</v>
   <v>       0.00173611</v>
   <v>       0.00173611</v>
   <v>       0.00347222</v>
   <v>       0.00347222</v>
   <v>       0.00347222</v>
   <v>       0.00347222</v>
   <v>       0.00347222</v>
   <v>       0.00173611</v>
   <v>       0.00173611</v>
   <v>       0.00347222</v>
   <v>       0.00347222</v>
   <v>       0.00347222</v>
   <v>       0.00347222</v>
   <v>       0.00173611</v>
   <v>       0.00173611</v>
   <v>       0.00347222</v>
   <v>       0.00347222</v>
   <v>       0.00347222</v>
   <v>       0.00173611</v>
   <v>       0.00173611</v>
   <v>       0.00347222</v>
   <v>       0.00347222</v>
   <v>       0.00173611</v>
   <v>       0.00173611</v>
   <v>       0.00347222</v>
   <v>       0.00173611</v>
   <v>       0.00173611</v>
   <v>       0.00173611</v>
   <v>       0.00043403</v>
   <v>       0.00057870</v>
   <v>       0.00173611</v>
   <v>       0.00173611</v>
   <v>       0.00173611</v>
   <v>       0.00173611</v>
   <v>       0.00173611</v>
   <v>       0.00173611</v>
   <v>       0.00173611</v>
   <v>       0.00173611</v>
   <v>       0.00086806</v>
   <v>       0.00173611</v>
   <v>       0.00347222</v>
   <v>       0.00347222</v>
   <v>       0.00347222</v>
   <v>       0.00347222</v>
   <v>       0.00347222</v>
   <v>       0.00347222</v>
   <v>       0.00347222</v>
   <v>       0.00173611</v>
   <v>       0.00173611</v>
   <v>       0.00347222</v>
   <v>       0.00347222</v>
   <v>       0.00347222</v>
   <v>       0.00347222</v>
   <v>       0.00347222</v>
   <v>       0.00347222</v>
   <v>       0.00173611</v>
   <v>       0.00173611</v>
   <v>       0.00347222</v>
   <v>       0.00347222</v>
   <v>       0.00347222</v>
   <v>       0.00347222</v>
   <v>       0.00347222</v>
   <v>       0.00173611</v>
   <v>       0.00173611</v>
   <v>       0.00347222</v>
   <v>       0.00347222</v>
   <v>       0.00347222</v>
   <v>       0.00347222</v>
   <v>       0.00173611</v>
   <v>       0.00173611</v>
   <v>       0.00347222</v>
   <v>       0.00347222</v>
   <v>       0.00347222</v>
   <v>       0.00173611</v>
   <v>       0.00173611</v>
   <v>       0.00347222</v>
   <v>       0.00347222</v>
   <v>       0.00173611</v>
   <v>       0.00173611</v>
   <v>       0.00347222</v>
   <v>       0.00173611</v>
   <v>       0.00173611</v>
   <v>       0.00173611</v>
   <v>       0.00043403</v>
   <v>       0.00057870</v>
   <v>       0.00173611</v>
   <v>       0.00173611</v>
   <v>       0.00173611</v>
   <v>       0.00173611</v>
   <v>       0.00173611</v>
   <v>       0.00173611</v>
   <v>       0.00173611</v>
   <v>       0.00086806</v>
   <v>       0.00173611</v>
   <v>       0.00347222</v>
   <v>       0.00347222</v>
   <v>       0.00347222</v>
   <v>       0.00347222</v>
   <v>       0.00347222</v>
   <v>       0.00347222</v>
   <v>       0.00173611</v>
   <v>       0.00173611</v>
   <v>       0.00347222</v>
   <v>       0.00347222</v>
   <v>       0.00347222</v>
   <v>       0.00347222</v>
   <v>       0.00347222</v>
   <v>       0.00173611</v>
   <v>       0.00173611</v>
   <v>       0.00347222</v>
   <v>       0.00347222</v>
   <v>       0.00347222</v>
   <v>       0.00347222</v>
   <v>       0.00173611</v>
   <v>       0.00173611</v>
   <v>       0.00347222</v>
   <v>       0.00347222</v>
   <v>       0.00347222</v>
   <v>       0.00173611</v>
   <v>       0.00173611</v>
   <v>       0.00347222</v>
   <v>       0.00347222</v>
   <v>       0.00173611</v>
   <v>       0.00173611</v>
   <v>       0.00347222</v>
   <v>       0.00173611</v>
   <v>       0.00173611</v>
   <v>       0.00173611</v>
   <v>       0.00043403</v>
   <v>       0.00057870</v>
   <v>       0.00173611</v>
   <v>       0.00173611</v>
   <v>       0.00173611</v>
   <v>       0.00173611</v>
   <v>       0.00173611</v>
   <v>       0.00173611</v>
   <v>       0.00086806</v>
   <v>       0.00173611</v>
   <v>       0.00347222</v>
   <v>       0.00347222</v>
   <v>       0.00347222</v>
   <v>       0.00347222</v>
   <v>       0.00347222</v>
   <v>       0.00173611</v>
   <v>       0.00173611</v>
   <v>       0.00347222</v>
   <v>       0.00347222</v>
   <v>       0.00347222</v>
   <v>       0.00347222</v>
   <v>       0.00173611</v>
   <v>       0.00173611</v>
   <v>       0.00347222</v>
   <v>       0.00347222</v>
   <v>       0.00347222</v>
   <v>       0.00173611</v>
   <v>       0.00173611</v>
   <v>       0.00347222</v>
   <v>       0.00347222</v>
   <v>       0.00173611</v>
   <v>       0.00173611</v>
   <v>       0.00347222</v>
   <v>       0.00173611</v>
   <v>       0.00173611</v>
   <v>       0.00173611</v>
   <v>       0.00043403</v>
   <v>       0.00057870</v>
   <v>       0.00173611</v>
   <v>       0.00173611</v>
   <v>       0.00173611</v>
   <v>       0.00173611</v>
   <v>       0.00173611</v>
   <v>       0.00086806</v>
   <v>       0.00173611</v>
   <v>       0.00347222</v>
   <v>       0.00347222</v>
   <v>       0.00347222</v>
   <v>       0.00347222</v>
   <v>       0.00173611</v>
   <v>       0.00173611</v>
   <v>       0.00347222</v>
   <v>       0.00347222</v>
   <v>       0.00347222</v>
   <v>       0.00173611</v>
   <v>       0.00173611</v>
   <v>       0.00347222</v>
   <v>       0.00347222</v>
   <v>       0.00173611</v>
   <v>       0.00173611</v>
   <v>       0.00347222</v>
   <v>       0.00173611</v>
   <v>       0.00173611</v>
   <v>       0.00173611</v>
   <v>       0.00043403</v>
   <v>       0.00057870</v>
   <v>       0.00173611</v>
   <v>       0.00173611</v>
   <v>       0.00173611</v>
   <v>       0.00173611</v>
   <v>       0.00086806</v>
   <v>       0.00173611</v>
   <v>       0.00347222</v>
   <v>       0.00347222</v>
   <v>       0.00347222</v>
   <v>       0.00173611</v>
   <v>       0.00173611</v>
   <v>       0.00347222</v>
   <v>       0.00347222</v>
   <v>       0.00173611</v>
   <v>       0.00173611</v>
   <v>       0.00347222</v>
   <v>       0.00173611</v>
   <v>       0.00173611</v>
   <v>       0.00173611</v>
   <v>       0.00043403</v>
   <v>       0.00057870</v>
   <v>       0.00173611</v>
   <v>       0.00173611</v>
   <v>       0.00173611</v>
   <v>       0.00086806</v>
   <v>       0.00173611</v>
   <v>       0.00347222</v>
   <v>       0.00347222</v>
   <v>       0.00173611</v>
   <v>       0.00173611</v>
   <v>       0.00347222</v>
   <v>       0.00173611</v>
   <v>       0.00173611</v>
   <v>       0.00173611</v>
   <v>       0.00043403</v>
   <v>       0.00057870</v>
   <v>       0.00173611</v>
   <v>       0.00173611</v>
   <v>       0.00086806</v>
   <v>       0.00173611</v>
   <v>       0.00347222</v>
   <v>       0.00173611</v>
   <v>       0.00173611</v>
   <v>       0.00173611</v>
   <v>       0.00043403</v>
   <v>       0.00057870</v>
   <v>       0.00173611</v>
   <v>       0.00086806</v>
   <v>       0.00173611</v>
   <v>       0.00173611</v>
   <v>       0.00043403</v>
   <v>       0.00057870</v>
   <v>       0.00086806</v>
   <v>       0.00043403</v>
   <v>       0.00007234</v>
  </varray>
 </kpoints>
 <parameters>
  <separator name="general" >
   <i type="string" name="SYSTEM">unknown system</i>
   <i type="logical" name="LCOMPAT"> F  </i>
  </separator>
  <separator name="electronic" >
   <i type="string" name="PREC">accura</i>
   <i name="ENMAX">    800.00000000</i>
   <i name="ENAUG">    516.45600000</i>
   <i name="EDIFF">      0.00000001</i>
   <i type="int" name="IALGO">    38</i>
   <i type="int" name="IWAVPR">    10</i>
   <i type="int" name="NBANDS">    26</i>
   <i name="NELECT">     44.00000000</i>
   <separator name="electronic smearing" >
    <i type="int" name="ISMEAR">     0</i>
    <i name="SIGMA">      0.01000000</i>
   </separator>
   <separator name="electronic projectors" >
    <i type="logical" name="LREAL"> F  </i>
    <v name="ROPT">      0.00000000</v>
    <i type="int" name="LMAXPAW">  -100</i>
    <i type="int" name="LMAXMIX">     2</i>
   </separator>
   <separator name="electronic startup" >
    <i type="int" name="ISTART">     0</i>
    <i type="int" name="ICHARG">     2</i>
    <i type="int" name="INIWAV">     1</i>
   </separator>
   <separator name="electronic spin" >
    <i type="int" name="ISPIN">     1</i>
    <i type="logical" name="LNONCOLLINEAR"> F  </i>
    <v name="MAGMOM">      1.00000000      1.00000000      1.00000000      1.00000000</v>
    <i name="NUPDOWN">     -1.00000000</i>
    <i type="logical" name="LSORBIT"> F  </i>
    <v name="SAXIS">      0.00000000      0.00000000      1.00000000</v>
    <i type="logical" name="LSPIRAL"> F  </i>
    <v name="QSPIRAL">      0.00000000      0.00000000      0.00000000</v>
    <i type="logical" name="LZEROZ"> F  </i>
   </separator>
   <separator name="electronic exchange-correlation" >
    <i type="string" name="GGA">--</i>
    <i type="int" name="VOSKOWN">     0</i>
    <i type="logical" name="LASPH"> F  </i>
    <i type="logical" name="LMETAGGA"> F  </i>
    <i type="string" name="GGA2">--</i>
   </separator>
   <separator name="electronic convergence" >
    <i type="int" name="NELM">    60</i>
    <i type="int" name="NELMDL">     0</i>
    <i type="int" name="NELMIN">     2</i>
    <i name="ENINI">    800.00000000</i>
    <separator name="electronic convergence detail" >
     <i type="logical" name="LDIAG"> T  </i>
     <i name="WEIMIN">      0.00000000</i>
     <i name="EBREAK">      0.00000000</i>
     <i name="DEPER">      0.30000000</i>
     <i type="int" name="NRMM">     4</i>
     <i name="TIME">      0.10000000</i>
    </separator>
   </separator>
   <separator name="electronic mixer" >
    <i name="AMIX">      0.40000000</i>
    <i name="BMIX">      1.00000000</i>
    <i name="AMIN">      0.10000000</i>
    <i name="AMIX_MAG">      1.60000000</i>
    <i name="BMIX_MAG">      1.00000000</i>
    <separator name="electronic mixer details" >
     <i type="int" name="IMIX">     4</i>
     <i type="int" name="MAXMIX">   -45</i>
     <i name="WC">    100.00000000</i>
     <i type="int" name="INIMIX">     1</i>
     <i type="int" name="MIXPRE">     1</i>
     <i type="int" name="MREMOVE">     5</i>
    </separator>
   </separator>
   <separator name="electronic dipolcorrection" >
    <i type="int" name="IDIPOL">     0</i>
    <i type="logical" name="LDIPOL"> F  </i>
    <v name="DIPOL">   -100.00000000</v>
    <i name="EFIELD">      0.00000000</i>
   </separator>
  </separator>
  <separator name="grids" >
   <i type="int" name="NGX">    36</i>
   <i type="int" name="NGY">    36</i>
   <i type="int" name="NGZ">    36</i>
   <i type="int" name="NGXF">    72</i>
   <i type="int" name="NGYF">    72</i>
   <i type="int" name="NGZF">    72</i>
   <i type="logical" name="ADDGRID"> T  </i>
  </separator>
  <separator name="ionic" >
   <i type="int" name="NSW">     0</i>
   <i type="int" name="IBRION">    -1</i>
   <i type="int" name="ISIF">     2</i>
   <i name="PSTRESS">      0.00000000</i>
   <i name="EDIFFG">      0.00000010</i>
   <i type="int" name="NFREE">     0</i>
   <i name="POTIM">      0.50000000</i>
   <i name="SMASS">     -3.00000000</i>
  </separator>
  <separator name="ionic md" >
   <i name="TEBEG">      0.00010000</i>
   <i name="TEEND">      0.00010000</i>
   <i type="int" name="NBLOCK">     1</i>
   <i type="int" name="KBLOCK">     1</i>
   <i type="int" name="NPACO">   256</i>
   <i name="APACO">     16.00000000</i>
  </separator>
  <separator name="symmetry" >
   <i type="int" name="ISYM">     2</i>
   <i name="SYMPREC">      0.00001000</i>
  </separator>
  <separator name="dos" >
   <i type="logical" name="LORBIT"> F  </i>
   <v name="RWIGS">     -1.00000000</v>
   <i type="int" name="NEDOS">   301</i>
   <i name="EMIN">     10.00000000</i>
   <i name="EMAX">    -10.00000000</i>
  </separator>
  <separator name="writing" >
   <i type="int" name="NWRITE">     2</i>
   <i type="logical" name="LWAVE"> F  </i>
   <i type="logical" name="LCHARG"> F  </i>
   <i type="logical" name="LPARD"> F  </i>
   <i type="logical" name="LVTOT"> F  </i>
   <i type="logical" name="LELF"> F  </i>
   <i type="logical" name="LOPTICS"> F  </i>
   <i name="STM">      0.00000000</i>
  </separator>
  <separator name="performance" >
   <i type="int" name="NPAR">     8</i>
   <i type="int" name="NSIM">     4</i>
   <i type="int" name="NBLK">   256</i>
   <i type="logical" name="LPLANE"> T  </i>
   <i type="logical" name="LCRITICAL_MEM"> F  </i>
   <i type="logical" name="LSCALAPACK"> F  </i>
   <i type="logical" name="LSCALU"> F  </i>
   <i type="logical" name="LASYNC"> F  </i>
  </separator>
  <separator name="miscellaneous" >
   <i type="int" name="IDIOT">     3</i>
   <i type="logical" name="LMUSIC"> F  </i>
   <v name="POMASS">     63.54600000</v>
   <i type="logical" name="LCORR"> T  </i>
  </separator>
  <i type="logical" name="LREAL_COMPAT"> F  </i>
  <i type="logical" name="GGA_COMPAT"> T  </i>
  <i type="logical" name="LBERRY"> F  </i>
  <i type="int" name="ICORELEVEL">     0</i>
  <i type="logical" name="LDAU"> F  </i>
  <i type="int" name="I_CONSTRAINED_M">     0</i>
 </parameters>
 <atominfo>
  <atoms>       4</atoms>
  <types>       1</types>
  <array name="atoms" >
   <dimension dim="1">ion</dimension>
   <field type="string">element</field>
   <field type="int">atomtype</field>
   <set>
    <rc><c>Cu</c><c>   1</c></rc>
    <rc><c>Cu</c><c>   1</c></rc>
    <rc><c>Cu</c><c>   1</c></rc>
    <rc><c>Cu</c><c>   1</c></rc>
   </set>
  </array>
  <array name="atomtypes" >
   <dimension dim="1">type</dimension>
   <field type="int">atomspertype</field>
   <field type="string">element</field>
   <field>mass</field>
   <field>valence</field>
   <field type="string">pseudopotential</field>
   <set>
    <rc><c>   4</c><c>Cu</c><c>     63.54600000</c><c>     11.00000000</c><c> PAW_PBE Cu 05Jan2001                   </c></rc>
   </set>
  </array>
 </atominfo>
 <structure name="initialpos" >
  <crystal>
   <varray name="basis" >
    <v>       3.78229719      0.00000000      0.00000000</v>
    <v>       0.00000000      3.78229719      0.00000000</v>
    <v>       0.00000000      0.00000000      3.78229719</v>
   </varray>
   <i name="volume">     54.10868154</i>
   <varray name="rec_basis" >
    <v>       0.26438959      0.00000000      0.00000000</v>
    <v>       0.00000000      0.26438959      0.00000000</v>
    <v>       0.00000000      0.00000000      0.26438959</v>
   </varray>
  </crystal>
  <varray name="positions" >
   <v>       0.00000000      0.00000000      0.00000000</v>
   <v>       0.50000000      0.50000000      0.00000000</v>
   <v>       0.50000000      0.00000000      0.50000000</v>
   <v>       0.00000000      0.50000000      0.50000000</v>
  </varray>
 </structure>
 <calculation>
  <scstep>
   <time name="dav">   62.68   62.97</time>
   <time name="total">   63.27   63.56</time>
   <energy>
    <i name="alphaZ">    377.79520582</i>
    <i name="ewald">  -4224.17662044</i>
    <i name="hartreedc">  -1410.16378917</i>
    <i name="XCdc">    174.18913708</i>
    <i name="pawpsdc">   4328.20916945</i>
    <i name="pawaedc">  -4904.30802700</i>
    <i name="eentropy">     -0.00011579</i>
    <i name="bandstr">    425.07550060</i>
    <i name="atom">   5563.91759264</i>
    <i name="e_fr_energy">    330.53805318</i>
    <i name="e_wo_entrp">    330.53816897</i>
    <i name="e_0_energy">    330.53811108</i>
   </energy>
  </scstep>
  <scstep>
   <time name="dav">   62.10   62.17</time>
   <time name="total">   62.12   62.21</time>
   <energy>
    <i name="e_fr_energy">      6.20343628</i>
    <i name="e_wo_entrp">      6.20358192</i>
    <i name="e_0_energy">      6.20350910</i>
   </energy>
  </scstep>
  <scstep>
   <time name="dav">   66.61   66.64</time>
   <time name="total">   66.64   66.68</time>
   <energy>
    <i name="e_fr_energy">    -17.54509914</i>
    <i name="e_wo_entrp">    -17.54499607</i>
    <i name="e_0_energy">    -17.54504760</i>
   </energy>
  </scstep>
  <scstep>
   <time name="dav">   68.05   68.07</time>
   <time name="total">   68.08   68.10</time>
   <energy>
    <i name="e_fr_energy">    -17.85898927</i>
    <i name="e_wo_entrp">    -17.85887510</i>
    <i name="e_0_energy">    -17.85893218</i>
   </energy>
  </scstep>
  <scstep>
   <time name="dav">   67.24   67.26</time>
   <time name="total">   69.12   69.14</time>
   <energy>
    <i name="e_fr_energy">    -17.85958828</i>
    <i name="e_wo_entrp">    -17.85947408</i>
    <i name="e_0_energy">    -17.85953118</i>
   </energy>
  </scstep>
  <scstep>
   <time name="dav">   66.41   66.44</time>
   <time name="total">   68.85   68.89</time>
   <energy>
    <i name="e_fr_energy">    -16.24874281</i>
    <i name="e_wo_entrp">    -16.24869778</i>
    <i name="e_0_energy">    -16.24872029</i>
   </energy>
  </scstep>
  <scstep>
   <time name="dav">   68.39   68.41</time>
   <time name="total">   70.91   71.11</time>
   <energy>
    <i name="e_fr_energy">    -14.65154932</i>
    <i name="e_wo_entrp">    -14.65142013</i>
    <i name="e_0_energy">    -14.65148472</i>
   </energy>
  </scstep>
  <scstep>
   <time name="dav">   68.00   68.02</time>
   <time name="total">   70.45   70.47</time>
   <energy>
    <i name="e_fr_energy">    -14.63068881</i>
    <i name="e_wo_entrp">    -14.63056347</i>
    <i name="e_0_energy">    -14.63062614</i>
   </energy>
  </scstep>
  <scstep>
   <time name="dav">   69.04   69.06</time>
   <time name="total">   71.44   71.47</time>
   <energy>
    <i name="e_fr_energy">    -14.61933350</i>
    <i name="e_wo_entrp">    -14.61920689</i>
    <i name="e_0_energy">    -14.61927020</i>
   </energy>
  </scstep>
  <scstep>
   <time name="dav">   67.12   67.14</time>
   <time name="total">   69.94   69.96</time>
   <energy>
    <i name="e_fr_energy">    -14.61937570</i>
    <i name="e_wo_entrp">    -14.61924562</i>
    <i name="e_0_energy">    -14.61931066</i>
   </energy>
  </scstep>
  <scstep>
   <time name="dav">   69.33   69.36</time>
   <time name="total">   71.78   71.83</time>
   <energy>
    <i name="e_fr_energy">    -14.61937634</i>
    <i name="e_wo_entrp">    -14.61924630</i>
    <i name="e_0_energy">    -14.61931132</i>
   </energy>
  </scstep>
  <scstep>
   <time name="dav">   68.06   68.10</time>
   <time name="total">   70.47   70.52</time>
   <energy>
    <i name="e_fr_energy">    -14.61937985</i>
    <i name="e_wo_entrp">    -14.61924989</i>
    <i name="e_0_energy">    -14.61931487</i>
   </energy>
  </scstep>
  <scstep>
   <time name="dav">   65.88   65.96</time>
   <time name="total">   68.40   68.68</time>
   <energy>
    <i name="e_fr_energy">    -14.61938059</i>
    <i name="e_wo_entrp">    -14.61925066</i>
    <i name="e_0_energy">    -14.61931563</i>
   </energy>
  </scstep>
  <scstep>
   <time name="dav">   47.10   47.12</time>
   <time name="total">   49.51   49.55</time>
   <energy>
    <i name="e_fr_energy">    -14.61938060</i>
    <i name="e_wo_entrp">    -14.61925067</i>
    <i name="e_0_energy">    -14.61931563</i>
   </energy>
  </scstep>
  <scstep>
   <time name="dav">   46.00   46.02</time>
   <time name="total">   48.44   48.47</time>
   <energy>
    <i name="e_fr_energy">    -14.61938059</i>
    <i name="e_wo_entrp">    -14.61925066</i>
    <i name="e_0_energy">    -14.61931562</i>
   </energy>
  </scstep>
  <scstep>
   <time name="dav">   44.61   44.71</time>
   <time name="total">   45.20   45.33</time>
   <energy>
    <i name="alphaZ">    377.79520582</i>
    <i name="ewald">  -4224.17662044</i>
    <i name="hartreedc">  -1326.76336249</i>
    <i name="XCdc">    170.18125684</i>
    <i name="pawpsdc">   4324.99670649</i>
    <i name="pawaedc">  -4901.98901438</i>
    <i name="eentropy">     -0.00012993</i>
    <i name="bandstr">      1.41898488</i>
    <i name="atom">   5563.91759264</i>
    <i name="e_fr_energy">    -14.61938058</i>
    <i name="e_wo_entrp">    -14.61925065</i>
    <i name="e_0_energy">    -14.61931562</i>
   </energy>
  </scstep>
  <structure>
   <crystal>
    <varray name="basis" >
     <v>       3.78229719      0.00000000      0.00000000</v>
     <v>       0.00000000      3.78229719      0.00000000</v>
     <v>       0.00000000      0.00000000      3.78229719</v>
    </varray>
    <i name="volume">     54.10868154</i>
    <varray name="rec_basis" >
     <v>       0.26438959      0.00000000      0.00000000</v>
     <v>       0.00000000      0.26438959      0.00000000</v>
     <v>       0.00000000      0.00000000      0.26438959</v>
    </varray>
   </crystal>
   <varray name="positions" >
    <v>       0.00000000      0.00000000      0.00000000</v>
    <v>       0.50000000      0.50000000      0.00000000</v>
    <v>       0.50000000      0.00000000      0.50000000</v>
    <v>       0.00000000      0.50000000      0.50000000</v>
   </varray>
  </structure>
  <varray name="forces" >
   <v>      -0.00000000      0.00000000      0.00000000</v>
   <v>       0.00000000     -0.00000000      0.00000000</v>
   <v>      -0.00000000     -0.00000000      0.00000000</v>
   <v>      -0.00000000     -0.00000000     -0.00000000</v>
  </varray>
  <varray name="stress" >
   <v>    -119.60350324     -0.00000000      0.00000000</v>
   <v>       0.00000000   -119.60350324      0.00000000</v>
   <v>      -0.00000000     -0.00000000   -119.60350324</v>
  </varray>
  <energy>
   <i name="e_fr_energy">    -14.61938058</i>
   <i name="e_wo_entrp">    -14.61931562</i>
   <i name="e_0_energy">     -0.00012993</i>
  </energy>
  <eigenvalues>
   <array>
    <dimension dim="1">band</dimension>
    <dimension dim="2">kpoint</dimension>
    <dimension dim="3">spin</dimension>
    <field>eigene</field>
    <field>occ</field>
    <set>
     <set comment="spin 1">
      <set comment="kpoint 1">
       <r>  -5.6565  1.0000</r>
       <r>  -1.4538  1.0000</r>
       <r>  -1.4538  1.0000</r>
       <r>  -1.4538  1.0000</r>
       <r>  -1.0826  1.0000</r>
       <r>  -1.0826  1.0000</r>
       <r>  -1.0826  1.0000</r>
       <r>   0.0417  1.0000</r>
       <r>   0.0417  1.0000</r>
       <r>   0.0417  1.0000</r>
       <r>   0.7119  1.0000</r>
       <r>   0.7119  1.0000</r>
       <r>   1.1582  1.0000</r>
       <r>   1.1582  1.0000</r>
       <r>   1.1582  1.0000</r>
       <r>   1.2830  1.0000</r>
       <r>   1.2830  1.0000</r>
       <r>   1.2830  1.0000</r>
       <r>   1.2830  1.0000</r>
       <r>   1.2830  1.0000</r>
       <r>   1.2830  1.0000</r>
       <r>   4.3168  0.0000</r>
       <r>   4.3168  0.0000</r>
       <r>   4.3168  0.0000</r>
       <r>   8.9219  0.0000</r>
       <r>   8.9219  0.0000</r>
       <r>   8.9219  0.0000</r>
       <r>  14.8387  0.0000</r>
       <r>  14.8387  0.0000</r>
       <r>  14.8387  0.0000</r>
       <r>  14.8387  0.0000</r>
       <r>  14.8387  0.0000</r>
      </set>
      <set comment="kpoint 2">
       <r>  -5.6373  1.0000</r>
       <r>  -1.4543  1.0000</r>
       <r>  -1.4454  1.0000</r>
       <r>  -1.4454  1.0000</r>
       <r>  -1.0780  1.0000</r>
       <r>  -1.0777  1.0000</r>
       <r>  -1.0777  1.0000</r>
       <r>   0.0367  1.0000</r>
       <r>   0.0458  1.0000</r>
       <r>   0.0458  1.0000</r>
       <r>   0.7073  1.0000</r>
       <r>   0.7138  1.0000</r>
       <r>   1.1524  1.0000</r>
       <r>   1.1524  1.0000</r>
       <r>   1.1563  1.0000</r>
       <r>   1.2541  1.0000</r>
       <r>   1.2541  1.0000</r>
       <r>   1.2761  1.0000</r>
       <r>   1.2761  1.0000</r>
       <r>   1.2831  1.0000</r>
       <r>   1.2831  1.0000</r>
       <r>   4.1704  0.0000</r>
       <r>   4.3634  0.0000</r>
       <r>   4.3634  0.0000</r>
       <r>   8.9300  0.0000</r>
       <r>   8.9300  0.0000</r>
       <r>   9.1078  0.0000</r>
       <r>  14.6912  0.0000</r>
       <r>  14.6912  0.0000</r>
       <r>  14.7399  0.0000</r>
       <r>  14.7399  0.0000</r>
       <r>  14.8660  0.0000</r>
      </set>
      <set comment="kpoint 3">
       <r>  -5.5798  1.0000</r>
       <r>  -1.4566  1.0000</r>
       <r>  -1.4204  1.0000</r>
       <r>  -1.4204  1.0000</r>
       <r>  -1.0642  1.0000</r>
       <r>  -1.0631  1.0000</r>
       <r>  -1.0631  1.0000</r>
       <r>   0.0218  1.0000</r>
       <r>   0.0581  1.0000</r>
       <r>   0.0581  1.0000</r>
       <r>   0.6939  1.0000</r>
       <r>   0.7194  1.0000</r>
       <r>   1.1349  1.0000</r>
       <r>   1.1349  1.0000</r>
       <r>   1.1505  1.0000</r>
       <r>   1.1722  1.0000</r>
       <r>   1.1722  1.0000</r>
       <r>   1.2554  1.0000</r>
       <r>   1.2554  1.0000</r>
       <r>   1.2831  1.0000</r>
       <r>   1.2831  1.0000</r>
       <r>   3.7897  0.0000</r>
       <r>   4.4981  0.0000</r>
       <r>   4.4981  0.0000</r>
       <r>   8.9546  0.0000</r>
       <r>   8.9546  0.0000</r>
       <r>   9.6081  0.0000</r>
       <r>  14.3056  0.0000</r>
       <r>  14.3056  0.0000</r>
       <r>  14.4689  0.0000</r>
       <r>  14.4689  0.0000</r>
       <r>  14.9479  0.0000</r>
      </set>
      <set comment="kpoint 4">
       <r>  -5.4843  1.0000</r>
       <r>  -1.4636  1.0000</r>
       <r>  -1.3797  1.0000</r>
       <r>  -1.3797  1.0000</r>
       <r>  -1.0414  1.0000</r>
       <r>  -1.0386  1.0000</r>
       <r>  -1.0386  1.0000</r>
       <r>  -0.0028  1.0000</r>
       <r>   0.0785  1.0000</r>
       <r>   0.0785  1.0000</r>
       <r>   0.6718  1.0000</r>
       <r>   0.7286  1.0000</r>
       <r>   1.0497  1.0000</r>
       <r>   1.0497  1.0000</r>
       <r>   1.1063  1.0000</r>
       <r>   1.1063  1.0000</r>
       <r>   1.1409  1.0000</r>
       <r>   1.2217  1.0000</r>
       <r>   1.2217  1.0000</r>
       <r>   1.2831  1.0000</r>
       <r>   1.2831  1.0000</r>
       <r>   3.2815  0.0000</r>
       <r>   4.7085  0.0000</r>
       <r>   4.7085  0.0000</r>
       <r>   8.9962  0.0000</r>
       <r>   8.9962  0.0000</r>
       <r>  10.3180  0.0000</r>
       <r>  13.7824  0.0000</r>
       <r>  13.7824  0.0000</r>
       <r>  14.0810  0.0000</r>
       <r>  14.0810  0.0000</r>
       <r>  15.0834  0.0000</r>
      </set>
      <set comment="kpoint 5">
       <r>  -5.3512  1.0000</r>
       <r>  -1.4803  1.0000</r>
       <r>  -1.3249  1.0000</r>
       <r>  -1.3249  1.0000</r>
       <r>  -1.0101  1.0000</r>
       <r>  -1.0042  1.0000</r>
       <r>  -1.0042  1.0000</r>
       <r>  -0.0365  1.0000</r>
       <r>   0.1068  1.0000</r>
       <r>   0.1068  1.0000</r>
       <r>   0.6418  1.0000</r>
       <r>   0.7413  1.0000</r>
       <r>   0.9005  1.0000</r>
       <r>   0.9005  1.0000</r>
       <r>   1.0671  1.0000</r>
       <r>   1.0671  1.0000</r>
       <r>   1.1278  1.0000</r>
       <r>   1.1760  1.0000</r>
       <r>   1.1760  1.0000</r>
       <r>   1.2832  1.0000</r>
       <r>   1.2832  1.0000</r>
       <r>   2.7273  0.0001</r>
       <r>   4.9806  0.0000</r>
       <r>   4.9806  0.0000</r>
       <r>   9.0557  0.0000</r>
       <r>   9.0557  0.0000</r>
       <r>  11.1606  0.0000</r>
       <r>  13.1931  0.0000</r>
       <r>  13.1931  0.0000</r>
       <r>  13.6297  0.0000</r>
       <r>  13.6297  0.0000</r>
       <r>  15.2714  0.0000</r>
      </set>
      <set comment="kpoint 6">
       <r>  -5.1811  1.0000</r>
       <r>  -1.5151  1.0000</r>
       <r>  -1.2581  1.0000</r>
       <r>  -1.2581  1.0000</r>
       <r>  -0.9706  1.0000</r>
       <r>  -0.9597  1.0000</r>
       <r>  -0.9597  1.0000</r>
       <r>  -0.0787  1.0000</r>
       <r>   0.1430  1.0000</r>
       <r>   0.1430  1.0000</r>
       <r>   0.6049  1.0000</r>
       <r>   0.7365  1.0000</r>
       <r>   0.7365  1.0000</r>
       <r>   0.7573  1.0000</r>
       <r>   1.0186  1.0000</r>
       <r>   1.0186  1.0000</r>
       <r>   1.1113  1.0000</r>
       <r>   1.1199  1.0000</r>
       <r>   1.1199  1.0000</r>
       <r>   1.2833  1.0000</r>
       <r>   1.2833  1.0000</r>
       <r>   2.1780  1.0000</r>
       <r>   5.3024  0.0000</r>
       <r>   5.3024  0.0000</r>
       <r>   9.1343  0.0000</r>
       <r>   9.1343  0.0000</r>
       <r>  12.0925  0.0000</r>
       <r>  12.5765  0.0000</r>
       <r>  12.5765  0.0000</r>
       <r>  13.1537  0.0000</r>
       <r>  13.1537  0.0000</r>
       <r>  15.5101  0.0000</r>
      </set>
      <set comment="kpoint 7">
       <r>  -4.9752  1.0000</r>
       <r>  -1.5804  1.0000</r>
       <r>  -1.1824  1.0000</r>
       <r>  -1.1824  1.0000</r>
       <r>  -0.9236  1.0000</r>
       <r>  -0.9050  1.0000</r>
       <r>  -0.9050  1.0000</r>
       <r>  -0.1287  1.0000</r>
       <r>   0.1867  1.0000</r>
       <r>   0.1867  1.0000</r>
       <r>   0.5624  1.0000</r>
       <r>   0.5664  1.0000</r>
       <r>   0.5664  1.0000</r>
       <r>   0.7763  1.0000</r>
       <r>   0.9625  1.0000</r>
       <r>   0.9625  1.0000</r>
       <r>   1.0550  1.0000</r>
       <r>   1.0550  1.0000</r>
       <r>   1.0918  1.0000</r>
       <r>   1.2833  1.0000</r>
       <r>   1.2833  1.0000</r>
       <r>   1.6682  1.0000</r>
       <r>   5.6648  0.0000</r>
       <r>   5.6648  0.0000</r>
       <r>   9.2334  0.0000</r>
       <r>   9.2334  0.0000</r>
       <r>  11.9528  0.0000</r>
       <r>  11.9528  0.0000</r>
       <r>  12.6779  0.0000</r>
       <r>  12.6779  0.0000</r>
       <r>  13.0897  0.0000</r>
       <r>  15.7975  0.0000</r>
      </set>
      <set comment="kpoint 8">
       <r>  -4.7347  1.0000</r>
       <r>  -1.6920  1.0000</r>
       <r>  -1.1016  1.0000</r>
       <r>  -1.1016  1.0000</r>
       <r>  -0.8698  1.0000</r>
       <r>  -0.8397  1.0000</r>
       <r>  -0.8397  1.0000</r>
       <r>  -0.1854  1.0000</r>
       <r>   0.2376  1.0000</r>
       <r>   0.2376  1.0000</r>
       <r>   0.3962  1.0000</r>
       <r>   0.3962  1.0000</r>
       <r>   0.5161  1.0000</r>
       <r>   0.7979  1.0000</r>
       <r>   0.9013  1.0000</r>
       <r>   0.9013  1.0000</r>
       <r>   0.9831  1.0000</r>
       <r>   0.9831  1.0000</r>
       <r>   1.0696  1.0000</r>
       <r>   1.2261  1.0000</r>
       <r>   1.2834  1.0000</r>
       <r>   1.2834  1.0000</r>
       <r>   6.0616  0.0000</r>
       <r>   6.0616  0.0000</r>
       <r>   9.3550  0.0000</r>
       <r>   9.3550  0.0000</r>
       <r>  11.3330  0.0000</r>
       <r>  11.3330  0.0000</r>
       <r>  12.2177  0.0000</r>
       <r>  12.2177  0.0000</r>
       <r>  14.1384  0.0000</r>
       <r>  16.1315  0.0000</r>
      </set>
      <set comment="kpoint 9">
       <r>  -4.4616  1.0000</r>
       <r>  -1.8658  1.0000</r>
       <r>  -1.0207  1.0000</r>
       <r>  -1.0207  1.0000</r>
       <r>  -0.8100  1.0000</r>
       <r>  -0.7639  1.0000</r>
       <r>  -0.7639  1.0000</r>
       <r>  -0.2479  1.0000</r>
       <r>   0.2302  1.0000</r>
       <r>   0.2302  1.0000</r>
       <r>   0.2952  1.0000</r>
       <r>   0.2952  1.0000</r>
       <r>   0.4686  1.0000</r>
       <r>   0.8220  1.0000</r>
       <r>   0.8387  1.0000</r>
       <r>   0.8387  1.0000</r>
       <r>   0.8741  1.0000</r>
       <r>   0.9060  1.0000</r>
       <r>   0.9060  1.0000</r>
       <r>   1.0451  1.0000</r>
       <r>   1.2835  1.0000</r>
       <r>   1.2835  1.0000</r>
       <r>   6.4882  0.0000</r>
       <r>   6.4882  0.0000</r>
       <r>   9.5010  0.0000</r>
       <r>   9.5010  0.0000</r>
       <r>  10.7232  0.0000</r>
       <r>  10.7232  0.0000</r>
       <r>  11.7827  0.0000</r>
       <r>  11.7827  0.0000</r>
       <r>  15.2295  0.0000</r>
       <r>  16.5098  0.0000</r>
      </set>
      <set comment="kpoint 10">
       <r>  -4.1584  1.0000</r>
       <r>  -2.1087  1.0000</r>
       <r>  -0.9459  1.0000</r>
       <r>  -0.9459  1.0000</r>
       <r>  -0.7453  1.0000</r>
       <r>  -0.6772  1.0000</r>
       <r>  -0.6772  1.0000</r>
       <r>  -0.3151  1.0000</r>
       <r>   0.0710  1.0000</r>
       <r>   0.0710  1.0000</r>
       <r>   0.3591  1.0000</r>
       <r>   0.3591  1.0000</r>
       <r>   0.4230  1.0000</r>
       <r>   0.6228  1.0000</r>
       <r>   0.7797  1.0000</r>
       <r>   0.7797  1.0000</r>
       <r>   0.8255  1.0000</r>
       <r>   0.8255  1.0000</r>
       <r>   0.8479  1.0000</r>
       <r>   1.0187  1.0000</r>
       <r>   1.2835  1.0000</r>
       <r>   1.2835  1.0000</r>
       <r>   6.9417  0.0000</r>
       <r>   6.9417  0.0000</r>
       <r>   9.6735  0.0000</r>
       <r>   9.6735  0.0000</r>
       <r>  10.1272  0.0000</r>
       <r>  10.1272  0.0000</r>
       <r>  11.3787  0.0000</r>
       <r>  11.3787  0.0000</r>
       <r>  16.3562  0.0000</r>
       <r>  16.9302  0.0000</r>
      </set>
      <set comment="kpoint 11">
       <r>  -3.8291  1.0000</r>
       <r>  -2.4120  1.0000</r>
       <r>  -0.8844  1.0000</r>
       <r>  -0.8844  1.0000</r>
       <r>  -0.6765  1.0000</r>
       <r>  -0.5795  1.0000</r>
       <r>  -0.5795  1.0000</r>
       <r>  -0.3856  1.0000</r>
       <r>  -0.0797  1.0000</r>
       <r>  -0.0797  1.0000</r>
       <r>   0.3839  1.0000</r>
       <r>   0.4285  1.0000</r>
       <r>   0.4285  1.0000</r>
       <r>   0.4656  1.0000</r>
       <r>   0.7302  1.0000</r>
       <r>   0.7302  1.0000</r>
       <r>   0.7435  1.0000</r>
       <r>   0.7435  1.0000</r>
       <r>   0.8754  1.0000</r>
       <r>   0.9909  1.0000</r>
       <r>   1.2836  1.0000</r>
       <r>   1.2836  1.0000</r>
       <r>   7.4196  0.0000</r>
       <r>   7.4196  0.0000</r>
       <r>   9.5474  0.0000</r>
       <r>   9.5474  0.0000</r>
       <r>   9.8747  0.0000</r>
       <r>   9.8747  0.0000</r>
       <r>  11.0086  0.0000</r>
       <r>  11.0086  0.0000</r>
       <r>  17.3902  0.0000</r>
       <r>  17.3908  0.0000</r>
      </set>
      <set comment="kpoint 12">
       <r>  -3.4793  1.0000</r>
       <r>  -2.7556  1.0000</r>
       <r>  -0.8435  1.0000</r>
       <r>  -0.8435  1.0000</r>
       <r>  -0.6050  1.0000</r>
       <r>  -0.4708  1.0000</r>
       <r>  -0.4708  1.0000</r>
       <r>  -0.4583  1.0000</r>
       <r>  -0.2206  1.0000</r>
       <r>  -0.2206  1.0000</r>
       <r>   0.3575  1.0000</r>
       <r>   0.3829  1.0000</r>
       <r>   0.5027  1.0000</r>
       <r>   0.5027  1.0000</r>
       <r>   0.6614  1.0000</r>
       <r>   0.6614  1.0000</r>
       <r>   0.6969  1.0000</r>
       <r>   0.6969  1.0000</r>
       <r>   0.9039  1.0000</r>
       <r>   0.9622  1.0000</r>
       <r>   1.2836  1.0000</r>
       <r>   1.2836  1.0000</r>
       <r>   7.9204  0.0000</r>
       <r>   7.9204  0.0000</r>
       <r>   8.9855  0.0000</r>
       <r>   8.9855  0.0000</r>
       <r>  10.1064  0.0000</r>
       <r>  10.1064  0.0000</r>
       <r>  10.6744  0.0000</r>
       <r>  10.6744  0.0000</r>
       <r>  17.8878  0.0000</r>
       <r>  17.8878  0.0000</r>
      </set>
      <set comment="kpoint 13">
       <r>  -3.1172  1.0000</r>
       <r>  -3.1172  1.0000</r>
       <r>  -0.8291  1.0000</r>
       <r>  -0.8291  1.0000</r>
       <r>  -0.5318  1.0000</r>
       <r>  -0.5318  1.0000</r>
       <r>  -0.3511  1.0000</r>
       <r>  -0.3511  1.0000</r>
       <r>  -0.3511  1.0000</r>
       <r>  -0.3511  1.0000</r>
       <r>   0.3529  1.0000</r>
       <r>   0.3529  1.0000</r>
       <r>   0.5807  1.0000</r>
       <r>   0.5807  1.0000</r>
       <r>   0.5807  1.0000</r>
       <r>   0.5807  1.0000</r>
       <r>   0.6851  1.0000</r>
       <r>   0.6851  1.0000</r>
       <r>   0.9330  1.0000</r>
       <r>   0.9330  1.0000</r>
       <r>   1.2836  1.0000</r>
       <r>   1.2836  1.0000</r>
       <r>   8.4428  0.0000</r>
       <r>   8.4428  0.0000</r>
       <r>   8.4428  0.0000</r>
       <r>   8.4428  0.0000</r>
       <r>  10.3443  0.0000</r>
       <r>  10.3443  0.0000</r>
       <r>  10.4020  0.0000</r>
       <r>  10.4020  0.0000</r>
       <r>  18.4206  0.0000</r>
       <r>  18.4206  0.0000</r>
      </set>
      <set comment="kpoint 14">
       <r>  -5.6181  1.0000</r>
       <r>  -1.4458  1.0000</r>
       <r>  -1.4458  1.0000</r>
       <r>  -1.4370  1.0000</r>
       <r>  -1.0731  1.0000</r>
       <r>  -1.0731  1.0000</r>
       <r>  -1.0729  1.0000</r>
       <r>   0.0338  1.0000</r>
       <r>   0.0477  1.0000</r>
       <r>   0.0498  1.0000</r>
       <r>   0.7060  1.0000</r>
       <r>   0.7125  1.0000</r>
       <r>   1.1466  1.0000</r>
       <r>   1.1498  1.0000</r>
       <r>   1.1498  1.0000</r>
       <r>   1.2304  1.0000</r>
       <r>   1.2473  1.0000</r>
       <r>   1.2473  1.0000</r>
       <r>   1.2761  1.0000</r>
       <r>   1.2761  1.0000</r>
       <r>   1.2786  1.0000</r>
       <r>   4.2165  0.0000</r>
       <r>   4.2165  0.0000</r>
       <r>   4.4092  0.0000</r>
       <r>   8.9382  0.0000</r>
       <r>   9.1169  0.0000</r>
       <r>   9.1169  0.0000</r>
       <r>  14.3349  0.0000</r>
       <r>  14.7180  0.0000</r>
       <r>  14.7180  0.0000</r>
       <r>  14.7668  0.0000</r>
       <r>  14.7668  0.0000</r>
      </set>
      <set comment="kpoint 15">
       <r>  -5.5607  1.0000</r>
       <r>  -1.4480  1.0000</r>
       <r>  -1.4206  1.0000</r>
       <r>  -1.4122  1.0000</r>
       <r>  -1.0594  1.0000</r>
       <r>  -1.0586  1.0000</r>
       <r>  -1.0584  1.0000</r>
       <r>   0.0201  1.0000</r>
       <r>   0.0589  1.0000</r>
       <r>   0.0618  1.0000</r>
       <r>   0.6939  1.0000</r>
       <r>   0.7170  1.0000</r>
       <r>   1.1265  1.0000</r>
       <r>   1.1293  1.0000</r>
       <r>   1.1417  1.0000</r>
       <r>   1.1530  1.0000</r>
       <r>   1.1704  1.0000</r>
       <r>   1.2277  1.0000</r>
       <r>   1.2554  1.0000</r>
       <r>   1.2761  1.0000</r>
       <r>   1.2761  1.0000</r>
       <r>   3.8352  0.0000</r>
       <r>   4.3494  0.0000</r>
       <r>   4.5418  0.0000</r>
       <r>   8.9629  0.0000</r>
       <r>   9.1441  0.0000</r>
       <r>   9.6189  0.0000</r>
       <r>  13.8274  0.0000</r>
       <r>  14.3313  0.0000</r>
       <r>  14.4947  0.0000</r>
       <r>  14.7982  0.0000</r>
       <r>  14.8256  0.0000</r>
      </set>
      <set comment="kpoint 16">
       <r>  -5.4652  1.0000</r>
       <r>  -1.4546  1.0000</r>
       <r>  -1.3797  1.0000</r>
       <r>  -1.3718  1.0000</r>
       <r>  -1.0368  1.0000</r>
       <r>  -1.0342  1.0000</r>
       <r>  -1.0341  1.0000</r>
       <r>  -0.0040  1.0000</r>
       <r>   0.0790  1.0000</r>
       <r>   0.0816  1.0000</r>
       <r>   0.6723  1.0000</r>
       <r>   0.7264  1.0000</r>
       <r>   1.0332  1.0000</r>
       <r>   1.0340  1.0000</r>
       <r>   1.1010  1.0000</r>
       <r>   1.1116  1.0000</r>
       <r>   1.1265  1.0000</r>
       <r>   1.1971  1.0000</r>
       <r>   1.2216  1.0000</r>
       <r>   1.2755  1.0000</r>
       <r>   1.2761  1.0000</r>
       <r>   3.3279  0.0000</r>
       <r>   4.5562  0.0000</r>
       <r>   4.7495  0.0000</r>
       <r>   9.0047  0.0000</r>
       <r>   9.1902  0.0000</r>
       <r>  10.3304  0.0000</r>
       <r>  13.2536  0.0000</r>
       <r>  13.8071  0.0000</r>
       <r>  14.1056  0.0000</r>
       <r>  14.5542  0.0000</r>
       <r>  14.9309  0.0000</r>
      </set>
      <set comment="kpoint 17">
       <r>  -5.3322  1.0000</r>
       <r>  -1.4710  1.0000</r>
       <r>  -1.3245  1.0000</r>
       <r>  -1.3174  1.0000</r>
       <r>  -1.0056  1.0000</r>
       <r>  -1.0000  1.0000</r>
       <r>  -1.0000  1.0000</r>
       <r>  -0.0374  1.0000</r>
       <r>   0.1072  1.0000</r>
       <r>   0.1092  1.0000</r>
       <r>   0.6427  1.0000</r>
       <r>   0.7394  1.0000</r>
       <r>   0.8858  1.0000</r>
       <r>   0.8879  1.0000</r>
       <r>   1.0622  1.0000</r>
       <r>   1.0701  1.0000</r>
       <r>   1.0993  1.0000</r>
       <r>   1.1613  1.0000</r>
       <r>   1.1760  1.0000</r>
       <r>   1.2754  1.0000</r>
       <r>   1.2761  1.0000</r>
       <r>   2.7768  0.0000</r>
       <r>   4.8224  0.0000</r>
       <r>   5.0188  0.0000</r>
       <r>   9.0645  0.0000</r>
       <r>   9.2562  0.0000</r>
       <r>  11.1742  0.0000</r>
       <r>  12.6520  0.0000</r>
       <r>  13.2171  0.0000</r>
       <r>  13.6530  0.0000</r>
       <r>  14.1554  0.0000</r>
       <r>  15.1148  0.0000</r>
      </set>
      <set comment="kpoint 18">
       <r>  -5.1624  1.0000</r>
       <r>  -1.5052  1.0000</r>
       <r>  -1.2572  1.0000</r>
       <r>  -1.2510  1.0000</r>
       <r>  -0.9663  1.0000</r>
       <r>  -0.9559  1.0000</r>
       <r>  -0.9557  1.0000</r>
       <r>  -0.0793  1.0000</r>
       <r>   0.1433  1.0000</r>
       <r>   0.1443  1.0000</r>
       <r>   0.6064  1.0000</r>
       <r>   0.7222  1.0000</r>
       <r>   0.7266  1.0000</r>
       <r>   0.7559  1.0000</r>
       <r>   1.0142  1.0000</r>
       <r>   1.0210  1.0000</r>
       <r>   1.0509  1.0000</r>
       <r>   1.1198  1.0000</r>
       <r>   1.1292  1.0000</r>
       <r>   1.2753  1.0000</r>
       <r>   1.2762  1.0000</r>
       <r>   2.2344  1.0000</r>
       <r>   5.1357  0.0000</r>
       <r>   5.3379  0.0000</r>
       <r>   9.1434  0.0000</r>
       <r>   9.3433  0.0000</r>
       <r>  12.0442  0.0000</r>
       <r>  12.1068  0.0000</r>
       <r>  12.6001  0.0000</r>
       <r>  13.1758  0.0000</r>
       <r>  13.6930  0.0000</r>
       <r>  15.3479  0.0000</r>
      </set>
      <set comment="kpoint 19">
       <r>  -4.9567  1.0000</r>
       <r>  -1.5698  1.0000</r>
       <r>  -1.1809  1.0000</r>
       <r>  -1.1757  1.0000</r>
       <r>  -0.9195  1.0000</r>
       <r>  -0.9017  1.0000</r>
       <r>  -0.9012  1.0000</r>
       <r>  -0.1289  1.0000</r>
       <r>   0.1863  1.0000</r>
       <r>   0.1869  1.0000</r>
       <r>   0.5525  1.0000</r>
       <r>   0.5588  1.0000</r>
       <r>   0.5650  1.0000</r>
       <r>   0.7755  1.0000</r>
       <r>   0.9586  1.0000</r>
       <r>   0.9647  1.0000</r>
       <r>   0.9786  1.0000</r>
       <r>   1.0549  1.0000</r>
       <r>   1.1013  1.0000</r>
       <r>   1.2754  1.0000</r>
       <r>   1.2762  1.0000</r>
       <r>   1.7398  1.0000</r>
       <r>   5.4869  0.0000</r>
       <r>   5.6981  0.0000</r>
       <r>   9.2430  0.0000</r>
       <r>   9.4534  0.0000</r>
       <r>  11.4417  0.0000</r>
       <r>  11.9763  0.0000</r>
       <r>  12.6988  0.0000</r>
       <r>  13.1045  0.0000</r>
       <r>  13.2084  0.0000</r>
       <r>  15.6282  0.0000</r>
      </set>
      <set comment="kpoint 20">
       <r>  -4.7165  1.0000</r>
       <r>  -1.6806  1.0000</r>
       <r>  -1.0994  1.0000</r>
       <r>  -1.0953  1.0000</r>
       <r>  -0.8660  1.0000</r>
       <r>  -0.8374  1.0000</r>
       <r>  -0.8363  1.0000</r>
       <r>  -0.1853  1.0000</r>
       <r>   0.2344  1.0000</r>
       <r>   0.2378  1.0000</r>
       <r>   0.3830  1.0000</r>
       <r>   0.3907  1.0000</r>
       <r>   0.5209  1.0000</r>
       <r>   0.7979  1.0000</r>
       <r>   0.8771  1.0000</r>
       <r>   0.8980  1.0000</r>
       <r>   0.9035  1.0000</r>
       <r>   0.9830  1.0000</r>
       <r>   1.0715  1.0000</r>
       <r>   1.2755  1.0000</r>
       <r>   1.2762  1.0000</r>
       <r>   1.3342  1.0000</r>
       <r>   5.8696  0.0000</r>
       <r>   6.0929  0.0000</r>
       <r>   9.3650  0.0000</r>
       <r>   9.5884  0.0000</r>
       <r>  10.8509  0.0000</r>
       <r>  11.3564  0.0000</r>
       <r>  12.2376  0.0000</r>
       <r>  12.7263  0.0000</r>
       <r>  14.1535  0.0000</r>
       <r>  15.9533  0.0000</r>
      </set>
      <set comment="kpoint 21">
       <r>  -4.4437  1.0000</r>
       <r>  -1.8534  1.0000</r>
       <r>  -1.0178  1.0000</r>
       <r>  -1.0145  1.0000</r>
       <r>  -0.8065  1.0000</r>
       <r>  -0.7628  1.0000</r>
       <r>  -0.7608  1.0000</r>
       <r>  -0.2475  1.0000</r>
       <r>   0.2178  1.0000</r>
       <r>   0.2264  1.0000</r>
       <r>   0.2862  1.0000</r>
       <r>   0.2954  1.0000</r>
       <r>   0.4783  1.0000</r>
       <r>   0.7274  1.0000</r>
       <r>   0.8227  1.0000</r>
       <r>   0.8360  1.0000</r>
       <r>   0.8408  1.0000</r>
       <r>   0.9059  1.0000</r>
       <r>   1.0119  1.0000</r>
       <r>   1.0894  1.0000</r>
       <r>   1.2756  1.0000</r>
       <r>   1.2762  1.0000</r>
       <r>   6.2791  0.0000</r>
       <r>   6.5179  0.0000</r>
       <r>   9.5112  0.0000</r>
       <r>   9.7505  0.0000</r>
       <r>  10.2749  0.0000</r>
       <r>  10.7468  0.0000</r>
       <r>  11.8017  0.0000</r>
       <r>  12.2620  0.0000</r>
       <r>  15.2447  0.0000</r>
       <r>  16.3213  0.0000</r>
      </set>
      <set comment="kpoint 22">
       <r>  -4.1409  1.0000</r>
       <r>  -2.0954  1.0000</r>
       <r>  -0.9421  1.0000</r>
       <r>  -0.9396  1.0000</r>
       <r>  -0.7421  1.0000</r>
       <r>  -0.6779  1.0000</r>
       <r>  -0.6746  1.0000</r>
       <r>  -0.3142  1.0000</r>
       <r>   0.0596  1.0000</r>
       <r>   0.0686  1.0000</r>
       <r>   0.3326  1.0000</r>
       <r>   0.3592  1.0000</r>
       <r>   0.4494  1.0000</r>
       <r>   0.5546  1.0000</r>
       <r>   0.7776  1.0000</r>
       <r>   0.7816  1.0000</r>
       <r>   0.8254  1.0000</r>
       <r>   0.8496  1.0000</r>
       <r>   0.8826  1.0000</r>
       <r>   1.0327  1.0000</r>
       <r>   1.2758  1.0000</r>
       <r>   1.2762  1.0000</r>
       <r>   6.7123  0.0000</r>
       <r>   6.9700  0.0000</r>
       <r>   9.6717  0.0000</r>
       <r>   9.7273  0.0000</r>
       <r>   9.9421  0.0000</r>
       <r>  10.1510  0.0000</r>
       <r>  11.3969  0.0000</r>
       <r>  11.8248  0.0000</r>
       <r>  16.3698  0.0000</r>
       <r>  16.7276  0.0000</r>
      </set>
      <set comment="kpoint 23">
       <r>  -3.8121  1.0000</r>
       <r>  -2.3978  1.0000</r>
       <r>  -0.8797  1.0000</r>
       <r>  -0.8778  1.0000</r>
       <r>  -0.6737  1.0000</r>
       <r>  -0.5824  1.0000</r>
       <r>  -0.5774  1.0000</r>
       <r>  -0.3844  1.0000</r>
       <r>  -0.0899  1.0000</r>
       <r>  -0.0809  1.0000</r>
       <r>   0.3448  1.0000</r>
       <r>   0.4251  1.0000</r>
       <r>   0.4285  1.0000</r>
[...]
       <r>  -0.0944  1.0000</r>
       <r>  -0.0291  1.0000</r>
       <r>   0.0380  1.0000</r>
       <r>   0.0755  1.0000</r>
       <r>   0.1086  1.0000</r>
       <r>   0.1334  1.0000</r>
       <r>   0.1334  1.0000</r>
       <r>   0.5308  1.0000</r>
       <r>   0.5364  1.0000</r>
       <r>   0.5364  1.0000</r>
       <r>   0.6404  1.0000</r>
       <r>   1.1202  1.0000</r>
       <r>   1.1598  1.0000</r>
       <r>   1.1598  1.0000</r>
       <r>   1.1677  1.0000</r>
       <r>   1.3096  1.0000</r>
       <r>   2.0093  1.0000</r>
       <r>   3.0409  0.0000</r>
       <r>   3.0409  0.0000</r>
       <r>   6.0086  0.0000</r>
       <r>   6.0086  0.0000</r>
       <r>   7.1421  0.0000</r>
       <r>   7.9290  0.0000</r>
       <r>  19.4674  0.0000</r>
       <r>  19.4674  0.0000</r>
       <r>  20.1647  0.0000</r>
       <r>  20.1647  0.0000</r>
      </set>
      <set comment="kpoint 439">
       <r>  -1.7636  1.0000</r>
       <r>  -1.7636  1.0000</r>
       <r>  -1.4827  1.0000</r>
       <r>  -1.4827  1.0000</r>
       <r>  -0.0904  1.0000</r>
       <r>  -0.0904  1.0000</r>
       <r>   0.0082  1.0000</r>
       <r>   0.0082  1.0000</r>
       <r>   0.0878  1.0000</r>
       <r>   0.0878  1.0000</r>
       <r>   0.1282  1.0000</r>
       <r>   0.1282  1.0000</r>
       <r>   0.5600  1.0000</r>
       <r>   0.5600  1.0000</r>
       <r>   0.5978  1.0000</r>
       <r>   0.5978  1.0000</r>
       <r>   1.1483  1.0000</r>
       <r>   1.1483  1.0000</r>
       <r>   1.1548  1.0000</r>
       <r>   1.1548  1.0000</r>
       <r>   1.6275  1.0000</r>
       <r>   1.6275  1.0000</r>
       <r>   3.0639  0.0000</r>
       <r>   3.0639  0.0000</r>
       <r>   5.9369  0.0000</r>
       <r>   5.9369  0.0000</r>
       <r>   7.5147  0.0000</r>
       <r>   7.5147  0.0000</r>
       <r>  19.7341  0.0000</r>
       <r>  19.7341  0.0000</r>
       <r>  19.8989  0.0000</r>
       <r>  19.8989  0.0000</r>
      </set>
      <set comment="kpoint 440">
       <r>  -1.8992  1.0000</r>
       <r>  -1.5562  1.0000</r>
       <r>  -1.5562  1.0000</r>
       <r>  -1.5004  1.0000</r>
       <r>  -0.0821  1.0000</r>
       <r>  -0.0611  1.0000</r>
       <r>  -0.0611  1.0000</r>
       <r>   0.0541  1.0000</r>
       <r>   0.0582  1.0000</r>
       <r>   0.1145  1.0000</r>
       <r>   0.1145  1.0000</r>
       <r>   0.1218  1.0000</r>
       <r>   0.5679  1.0000</r>
       <r>   0.5679  1.0000</r>
       <r>   0.5729  1.0000</r>
       <r>   0.7905  1.0000</r>
       <r>   1.0710  1.0000</r>
       <r>   1.1667  1.0000</r>
       <r>   1.1717  1.0000</r>
       <r>   1.1717  1.0000</r>
       <r>   1.1898  1.0000</r>
       <r>   2.5468  1.0000</r>
       <r>   2.5468  1.0000</r>
       <r>   2.9600  0.0000</r>
       <r>   5.9940  0.0000</r>
       <r>   6.4380  0.0000</r>
       <r>   6.4380  0.0000</r>
       <r>   7.9023  0.0000</r>
       <r>  19.4472  0.0000</r>
       <r>  20.2369  0.0000</r>
       <r>  20.2369  0.0000</r>
       <r>  20.7668  0.0000</r>
      </set>
      <set comment="kpoint 441">
       <r>  -1.8125  1.0000</r>
       <r>  -1.6417  1.0000</r>
       <r>  -1.5521  1.0000</r>
       <r>  -1.5244  1.0000</r>
       <r>  -0.0650  1.0000</r>
       <r>  -0.0547  1.0000</r>
       <r>  -0.0222  1.0000</r>
       <r>   0.0355  1.0000</r>
       <r>   0.0594  1.0000</r>
       <r>   0.0880  1.0000</r>
       <r>   0.1007  1.0000</r>
       <r>   0.1042  1.0000</r>
       <r>   0.6453  1.0000</r>
       <r>   0.6455  1.0000</r>
       <r>   0.6616  1.0000</r>
       <r>   0.8118  1.0000</r>
       <r>   1.1077  1.0000</r>
       <r>   1.1580  1.0000</r>
       <r>   1.1601  1.0000</r>
       <r>   1.1625  1.0000</r>
       <r>   1.4099  1.0000</r>
       <r>   2.1281  1.0000</r>
       <r>   2.6714  1.0000</r>
       <r>   2.8971  0.0000</r>
       <r>   5.9109  0.0000</r>
       <r>   6.1496  0.0000</r>
       <r>   6.7273  0.0000</r>
       <r>   7.4642  0.0000</r>
       <r>  19.7684  0.0000</r>
       <r>  20.4152  0.0000</r>
       <r>  20.5999  0.0000</r>
       <r>  21.1214  0.0000</r>
      </set>
      <set comment="kpoint 442">
       <r>  -1.7269  1.0000</r>
       <r>  -1.7269  1.0000</r>
       <r>  -1.5416  1.0000</r>
       <r>  -1.5416  1.0000</r>
       <r>  -0.0558  1.0000</r>
       <r>  -0.0558  1.0000</r>
       <r>   0.0100  1.0000</r>
       <r>   0.0100  1.0000</r>
       <r>   0.0696  1.0000</r>
       <r>   0.0696  1.0000</r>
       <r>   0.0970  1.0000</r>
       <r>   0.0970  1.0000</r>
       <r>   0.6729  1.0000</r>
       <r>   0.6729  1.0000</r>
       <r>   0.7476  1.0000</r>
       <r>   0.7476  1.0000</r>
       <r>   1.1419  1.0000</r>
       <r>   1.1419  1.0000</r>
       <r>   1.1538  1.0000</r>
       <r>   1.1538  1.0000</r>
       <r>   1.7414  1.0000</r>
       <r>   1.7414  1.0000</r>
       <r>   2.7951  0.0000</r>
       <r>   2.7951  0.0000</r>
       <r>   5.9673  0.0000</r>
       <r>   5.9673  0.0000</r>
       <r>   7.0714  0.0000</r>
       <r>   7.0714  0.0000</r>
       <r>  20.1078  0.0000</r>
       <r>  20.1078  0.0000</r>
       <r>  20.8690  0.0000</r>
       <r>  20.8690  0.0000</r>
      </set>
      <set comment="kpoint 443">
       <r>  -1.7506  1.0000</r>
       <r>  -1.6211  1.0000</r>
       <r>  -1.6211  1.0000</r>
       <r>  -1.5629  1.0000</r>
       <r>  -0.0421  1.0000</r>
       <r>  -0.0208  1.0000</r>
       <r>  -0.0208  1.0000</r>
       <r>   0.0269  1.0000</r>
       <r>   0.0525  1.0000</r>
       <r>   0.0759  1.0000</r>
       <r>   0.0759  1.0000</r>
       <r>   0.0839  1.0000</r>
       <r>   0.7294  1.0000</r>
       <r>   0.7474  1.0000</r>
       <r>   0.7474  1.0000</r>
       <r>   0.8770  1.0000</r>
       <r>   1.1002  1.0000</r>
       <r>   1.1485  1.0000</r>
       <r>   1.1485  1.0000</r>
       <r>   1.1489  1.0000</r>
       <r>   1.6286  1.0000</r>
       <r>   2.2935  1.0000</r>
       <r>   2.2935  1.0000</r>
       <r>   2.7053  0.2784</r>
       <r>   5.9539  0.0000</r>
       <r>   6.3818  0.0000</r>
       <r>   6.3818  0.0000</r>
       <r>   7.0482  0.0000</r>
       <r>  20.0938  0.0000</r>
       <r>  20.7947  0.0000</r>
       <r>  20.7947  0.0000</r>
       <r>  21.5409  0.0000</r>
      </set>
      <set comment="kpoint 444">
       <r>  -1.6871  1.0000</r>
       <r>  -1.6871  1.0000</r>
       <r>  -1.5950  1.0000</r>
       <r>  -1.5950  1.0000</r>
       <r>  -0.0270  1.0000</r>
       <r>  -0.0270  1.0000</r>
       <r>   0.0069  1.0000</r>
       <r>   0.0069  1.0000</r>
       <r>   0.0593  1.0000</r>
       <r>   0.0593  1.0000</r>
       <r>   0.0742  1.0000</r>
       <r>   0.0742  1.0000</r>
       <r>   0.7700  1.0000</r>
       <r>   0.7700  1.0000</r>
       <r>   0.8338  1.0000</r>
       <r>   0.8338  1.0000</r>
       <r>   1.1251  1.0000</r>
       <r>   1.1251  1.0000</r>
       <r>   1.1422  1.0000</r>
       <r>   1.1422  1.0000</r>
       <r>   1.9361  1.0000</r>
       <r>   1.9361  1.0000</r>
       <r>   2.4937  1.0000</r>
       <r>   2.4937  1.0000</r>
       <r>   6.1181  0.0000</r>
       <r>   6.1181  0.0000</r>
       <r>   6.6852  0.0000</r>
       <r>   6.6852  0.0000</r>
       <r>  20.4405  0.0000</r>
       <r>  20.4405  0.0000</r>
       <r>  21.1595  0.0000</r>
       <r>  21.1595  0.0000</r>
      </set>
      <set comment="kpoint 445">
       <r>  -1.6434  1.0000</r>
       <r>  -1.6434  1.0000</r>
       <r>  -1.6434  1.0000</r>
       <r>  -1.6434  1.0000</r>
       <r>  -0.0054  1.0000</r>
       <r>  -0.0054  1.0000</r>
       <r>  -0.0054  1.0000</r>
       <r>  -0.0054  1.0000</r>
       <r>   0.0608  1.0000</r>
       <r>   0.0608  1.0000</r>
       <r>   0.0608  1.0000</r>
       <r>   0.0608  1.0000</r>
       <r>   0.8346  1.0000</r>
       <r>   0.8346  1.0000</r>
       <r>   0.8346  1.0000</r>
       <r>   0.8346  1.0000</r>
       <r>   1.1265  1.0000</r>
       <r>   1.1265  1.0000</r>
       <r>   1.1265  1.0000</r>
       <r>   1.1265  1.0000</r>
       <r>   2.1963  1.0000</r>
       <r>   2.1963  1.0000</r>
       <r>   2.1963  1.0000</r>
       <r>   2.1963  1.0000</r>
       <r>   6.3635  0.0000</r>
       <r>   6.3635  0.0000</r>
       <r>   6.3635  0.0000</r>
       <r>   6.3635  0.0000</r>
       <r>  20.7939  0.0000</r>
       <r>  20.7939  0.0000</r>
       <r>  20.7939  0.0000</r>
       <r>  20.7939  0.0000</r>
      </set>
      <set comment="kpoint 446">
       <r>  -1.8375  1.0000</r>
       <r>  -1.5739  1.0000</r>
       <r>  -1.5739  1.0000</r>
       <r>  -1.5739  1.0000</r>
       <r>  -0.0438  1.0000</r>
       <r>  -0.0438  1.0000</r>
       <r>  -0.0438  1.0000</r>
       <r>   0.0471  1.0000</r>
       <r>   0.0471  1.0000</r>
       <r>   0.0902  1.0000</r>
       <r>   0.0902  1.0000</r>
       <r>   0.0902  1.0000</r>
       <r>   0.6889  1.0000</r>
       <r>   0.6889  1.0000</r>
       <r>   0.6889  1.0000</r>
       <r>   1.0894  1.0000</r>
       <r>   1.1094  1.0000</r>
       <r>   1.1094  1.0000</r>
       <r>   1.1740  1.0000</r>
       <r>   1.1740  1.0000</r>
       <r>   1.1740  1.0000</r>
       <r>   2.5799  1.0000</r>
       <r>   2.5799  1.0000</r>
       <r>   2.5799  1.0000</r>
       <r>   6.1328  0.0000</r>
       <r>   6.1328  0.0000</r>
       <r>   6.1328  0.0000</r>
       <r>   7.4388  0.0000</r>
       <r>  20.5201  0.0000</r>
       <r>  20.5201  0.0000</r>
       <r>  20.5201  0.0000</r>
       <r>  21.4214  0.0000</r>
      </set>
      <set comment="kpoint 447">
       <r>  -1.7749  1.0000</r>
       <r>  -1.6438  1.0000</r>
       <r>  -1.5847  1.0000</r>
       <r>  -1.5847  1.0000</r>
       <r>  -0.0325  1.0000</r>
       <r>  -0.0325  1.0000</r>
       <r>  -0.0113  1.0000</r>
       <r>   0.0341  1.0000</r>
       <r>   0.0448  1.0000</r>
       <r>   0.0666  1.0000</r>
       <r>   0.0746  1.0000</r>
       <r>   0.0746  1.0000</r>
       <r>   0.7746  1.0000</r>
       <r>   0.7746  1.0000</r>
       <r>   0.8017  1.0000</r>
       <r>   1.0110  1.0000</r>
       <r>   1.1393  1.0000</r>
       <r>   1.1676  1.0000</r>
       <r>   1.1676  1.0000</r>
       <r>   1.1719  1.0000</r>
       <r>   1.4316  1.0000</r>
       <r>   2.1852  1.0000</r>
       <r>   2.6048  1.0000</r>
       <r>   2.6048  1.0000</r>
       <r>   5.9397  0.0000</r>
       <r>   5.9397  0.0000</r>
       <r>   6.3625  0.0000</r>
       <r>   7.0244  0.0000</r>
       <r>  20.8181  0.0000</r>
       <r>  20.8181  0.0000</r>
       <r>  21.4271  0.0000</r>
       <r>  21.4316  0.0000</r>
      </set>
      <set comment="kpoint 448">
       <r>  -1.7106  1.0000</r>
       <r>  -1.7106  1.0000</r>
       <r>  -1.5883  1.0000</r>
       <r>  -1.5883  1.0000</r>
       <r>  -0.0284  1.0000</r>
       <r>  -0.0284  1.0000</r>
       <r>   0.0147  1.0000</r>
       <r>   0.0147  1.0000</r>
       <r>   0.0514  1.0000</r>
       <r>   0.0514  1.0000</r>
       <r>   0.0692  1.0000</r>
       <r>   0.0692  1.0000</r>
       <r>   0.8066  1.0000</r>
       <r>   0.8066  1.0000</r>
       <r>   0.9096  1.0000</r>
       <r>   0.9096  1.0000</r>
       <r>   1.1603  1.0000</r>
       <r>   1.1603  1.0000</r>
       <r>   1.1630  1.0000</r>
       <r>   1.1630  1.0000</r>
       <r>   1.7980  1.0000</r>
       <r>   1.7980  1.0000</r>
       <r>   2.6141  1.0000</r>
       <r>   2.6141  1.0000</r>
       <r>   5.8734  0.0000</r>
       <r>   5.8734  0.0000</r>
       <r>   6.6635  0.0000</r>
       <r>   6.6635  0.0000</r>
       <r>  21.0662  0.0000</r>
       <r>  21.0662  0.0000</r>
       <r>  21.2120  0.0000</r>
       <r>  21.2120  0.0000</r>
      </set>
      <set comment="kpoint 449">
       <r>  -1.7341  1.0000</r>
       <r>  -1.6396  1.0000</r>
       <r>  -1.6396  1.0000</r>
       <r>  -1.6102  1.0000</r>
       <r>  -0.0159  1.0000</r>
       <r>  -0.0054  1.0000</r>
       <r>  -0.0054  1.0000</r>
       <r>   0.0302  1.0000</r>
       <r>   0.0358  1.0000</r>
       <r>   0.0531  1.0000</r>
       <r>   0.0531  1.0000</r>
       <r>   0.0571  1.0000</r>
       <r>   0.8742  1.0000</r>
       <r>   0.8960  1.0000</r>
       <r>   0.8960  1.0000</r>
       <r>   1.0770  1.0000</r>
       <r>   1.1318  1.0000</r>
       <r>   1.1647  1.0000</r>
       <r>   1.1665  1.0000</r>
       <r>   1.1665  1.0000</r>
       <r>   1.6313  1.0000</r>
       <r>   2.2748  1.0000</r>
       <r>   2.2748  1.0000</r>
       <r>   2.5062  1.0000</r>
       <r>   5.8612  0.0000</r>
       <r>   6.0861  0.0000</r>
       <r>   6.0861  0.0000</r>
       <r>   6.6426  0.0000</r>
       <r>  21.1223  0.0000</r>
       <r>  21.7118  0.0000</r>
       <r>  21.7127  0.0000</r>
       <r>  21.8484  0.0000</r>
      </set>
      <set comment="kpoint 450">
       <r>  -1.6892  1.0000</r>
       <r>  -1.6892  1.0000</r>
       <r>  -1.6285  1.0000</r>
       <r>  -1.6285  1.0000</r>
       <r>  -0.0065  1.0000</r>
       <r>  -0.0065  1.0000</r>
       <r>   0.0156  1.0000</r>
       <r>   0.0156  1.0000</r>
       <r>   0.0400  1.0000</r>
       <r>   0.0400  1.0000</r>
       <r>   0.0495  1.0000</r>
       <r>   0.0495  1.0000</r>
       <r>   0.9222  1.0000</r>
       <r>   0.9222  1.0000</r>
       <r>   1.0038  1.0000</r>
       <r>   1.0038  1.0000</r>
       <r>   1.1536  1.0000</r>
       <r>   1.1536  1.0000</r>
       <r>   1.1606  1.0000</r>
       <r>   1.1606  1.0000</r>
       <r>   1.9385  1.0000</r>
       <r>   1.9385  1.0000</r>
       <r>   2.3887  1.0000</r>
       <r>   2.3887  1.0000</r>
       <r>   5.9136  0.0000</r>
       <r>   5.9136  0.0000</r>
       <r>   6.3261  0.0000</r>
       <r>   6.3261  0.0000</r>
       <r>  21.4350  0.0000</r>
       <r>  21.4350  0.0000</r>
       <r>  22.0591  0.0000</r>
       <r>  22.0702  0.0000</r>
      </set>
      <set comment="kpoint 451">
       <r>  -1.6620  1.0000</r>
       <r>  -1.6620  1.0000</r>
       <r>  -1.6620  1.0000</r>
       <r>  -1.6620  1.0000</r>
       <r>   0.0091  1.0000</r>
       <r>   0.0091  1.0000</r>
       <r>   0.0091  1.0000</r>
       <r>   0.0091  1.0000</r>
       <r>   0.0389  1.0000</r>
       <r>   0.0389  1.0000</r>
       <r>   0.0389  1.0000</r>
       <r>   0.0389  1.0000</r>
       <r>   1.0023  1.0000</r>
       <r>   1.0023  1.0000</r>
       <r>   1.0023  1.0000</r>
       <r>   1.0023  1.0000</r>
       <r>   1.1505  1.0000</r>
       <r>   1.1505  1.0000</r>
       <r>   1.1505  1.0000</r>
       <r>   1.1505  1.0000</r>
       <r>   2.1496  1.0000</r>
       <r>   2.1496  1.0000</r>
       <r>   2.1496  1.0000</r>
       <r>   2.1496  1.0000</r>
       <r>   6.0709  0.0000</r>
       <r>   6.0709  0.0000</r>
       <r>   6.0709  0.0000</r>
       <r>   6.0709  0.0000</r>
       <r>  21.7534  0.0000</r>
       <r>  21.7534  0.0000</r>
       <r>  21.7534  0.0000</r>
       <r>  21.7534  0.0000</r>
      </set>
      <set comment="kpoint 452">
       <r>  -1.7124  1.0000</r>
       <r>  -1.6509  1.0000</r>
       <r>  -1.6509  1.0000</r>
       <r>  -1.6509  1.0000</r>
       <r>   0.0048  1.0000</r>
       <r>   0.0048  1.0000</r>
       <r>   0.0048  1.0000</r>
       <r>   0.0278  1.0000</r>
       <r>   0.0278  1.0000</r>
       <r>   0.0386  1.0000</r>
       <r>   0.0386  1.0000</r>
       <r>   0.0386  1.0000</r>
       <r>   1.0042  1.0000</r>
       <r>   1.0042  1.0000</r>
       <r>   1.0042  1.0000</r>
       <r>   1.1544  1.0000</r>
       <r>   1.1544  1.0000</r>
       <r>   1.1710  1.0000</r>
       <r>   1.1710  1.0000</r>
       <r>   1.1710  1.0000</r>
       <r>   1.7560  1.0000</r>
       <r>   2.2591  1.0000</r>
       <r>   2.2591  1.0000</r>
       <r>   2.2591  1.0000</r>
       <r>   5.9006  0.0000</r>
       <r>   5.9006  0.0000</r>
       <r>   5.9006  0.0000</r>
       <r>   6.3080  0.0000</r>
       <r>  22.0738  0.0000</r>
       <r>  22.0738  0.0000</r>
       <r>  22.0748  0.0000</r>
       <r>  22.3780  0.0000</r>
      </set>
      <set comment="kpoint 453">
       <r>  -1.6848  1.0000</r>
       <r>  -1.6848  1.0000</r>
       <r>  -1.6546  1.0000</r>
       <r>  -1.6546  1.0000</r>
       <r>   0.0087  1.0000</r>
       <r>   0.0087  1.0000</r>
       <r>   0.0194  1.0000</r>
       <r>   0.0194  1.0000</r>
       <r>   0.0288  1.0000</r>
       <r>   0.0288  1.0000</r>
       <r>   0.0332  1.0000</r>
       <r>   0.0332  1.0000</r>
       <r>   1.0473  1.0000</r>
       <r>   1.0473  1.0000</r>
       <r>   1.1077  1.0000</r>
       <r>   1.1077  1.0000</r>
       <r>   1.1675  1.0000</r>
       <r>   1.1675  1.0000</r>
       <r>   1.1682  1.0000</r>
       <r>   1.1682  1.0000</r>
       <r>   1.9928  1.0000</r>
       <r>   1.9928  1.0000</r>
       <r>   2.2527  1.0000</r>
       <r>   2.2527  1.0000</r>
       <r>   5.8373  0.0000</r>
       <r>   5.8373  0.0000</r>
       <r>   6.0556  0.0000</r>
       <r>   6.0556  0.0000</r>
       <r>  22.2945  0.0000</r>
       <r>  22.2945  0.0000</r>
       <r>  22.3338  0.0000</r>
       <r>  22.3338  0.0000</r>
      </set>
      <set comment="kpoint 454">
       <r>  -1.6734  1.0000</r>
       <r>  -1.6734  1.0000</r>
       <r>  -1.6734  1.0000</r>
       <r>  -1.6734  1.0000</r>
       <r>   0.0181  1.0000</r>
       <r>   0.0181  1.0000</r>
       <r>   0.0181  1.0000</r>
       <r>   0.0181  1.0000</r>
       <r>   0.0256  1.0000</r>
       <r>   0.0256  1.0000</r>
       <r>   0.0256  1.0000</r>
       <r>   0.0256  1.0000</r>
       <r>   1.1241  1.0000</r>
       <r>   1.1241  1.0000</r>
       <r>   1.1241  1.0000</r>
       <r>   1.1241  1.0000</r>
       <r>   1.1650  1.0000</r>
       <r>   1.1650  1.0000</r>
       <r>   1.1650  1.0000</r>
       <r>   1.1650  1.0000</r>
       <r>   2.1078  1.0000</r>
       <r>   2.1078  1.0000</r>
       <r>   2.1078  1.0000</r>
       <r>   2.1078  1.0000</r>
       <r>   5.8879  0.0000</r>
       <r>   5.8879  0.0000</r>
       <r>   5.8879  0.0000</r>
       <r>   5.8879  0.0000</r>
       <r>  22.5420  0.0000</r>
       <r>  22.5420  0.0000</r>
       <r>  22.5421  0.0000</r>
       <r>  22.5421  0.0000</r>
      </set>
      <set comment="kpoint 455">
       <r>  -1.6772  1.0000</r>
       <r>  -1.6772  1.0000</r>
       <r>  -1.6772  1.0000</r>
       <r>  -1.6772  1.0000</r>
       <r>   0.0211  1.0000</r>
       <r>   0.0211  1.0000</r>
       <r>   0.0211  1.0000</r>
       <r>   0.0211  1.0000</r>
       <r>   0.0211  1.0000</r>
       <r>   0.0211  1.0000</r>
       <r>   0.0211  1.0000</r>
       <r>   0.0211  1.0000</r>
       <r>   1.1699  1.0000</r>
       <r>   1.1699  1.0000</r>
       <r>   1.1699  1.0000</r>
       <r>   1.1699  1.0000</r>
       <r>   1.1699  1.0000</r>
       <r>   1.1699  1.0000</r>
       <r>   1.1699  1.0000</r>
       <r>   1.1699  1.0000</r>
       <r>   2.0900  1.0000</r>
       <r>   2.0900  1.0000</r>
       <r>   2.0900  1.0000</r>
       <r>   2.0900  1.0000</r>
       <r>   5.8256  0.0000</r>
       <r>   5.8256  0.0000</r>
       <r>   5.8256  0.0000</r>
       <r>   5.8256  0.0000</r>
       <r>  22.8488  0.0000</r>
       <r>  22.8488  0.0000</r>
       <r>  22.8488  0.0000</r>
       <r>  22.8491  0.0000</r>
      </set>
     </set>
    </set>
   </array>
  </eigenvalues>
 </calculation>
 <structure name="finalpos" >
  <crystal>
   <varray name="basis" >
    <v>       3.78229719      0.00000000      0.00000000</v>
    <v>       0.00000000      3.78229719      0.00000000</v>
    <v>       0.00000000      0.00000000      3.78229719</v>
   </varray>
   <i name="volume">     54.10868154</i>
   <varray name="rec_basis" >
    <v>       0.26438959      0.00000000      0.00000000</v>
    <v>       0.00000000      0.26438959      0.00000000</v>
    <v>       0.00000000      0.00000000      0.26438959</v>
   </varray>
  </crystal>
  <varray name="positions" >
   <v>       0.00000000      0.00000000      0.00000000</v>
   <v>       0.50000000      0.50000000      0.00000000</v>
   <v>       0.50000000      0.00000000      0.50000000</v>
   <v>       0.00000000      0.50000000      0.50000000</v>
  </varray>
 </structure>
</modeling>
