   4   4   0   0
  0.2163498E+02  0.4423223E-09  0.4423223E-09  0.4423223E-09  0.5000000E-15
  1.000000000000000E-004
  CAR 
 unknown system                          
     13.59822236     -5.40325369  301      3.07259028      1.00000000
     -5.403  0.0000E+00  0.0000E+00
     -5.340  0.0000E+00  0.0000E+00
     -5.277  0.0000E+00  0.0000E+00
     -5.213  0.0000E+00  0.0000E+00
     -5.150  0.0000E+00  0.0000E+00
     -5.087  0.0000E+00  0.0000E+00
     -5.023  0.0000E+00  0.0000E+00
     -4.960  0.0000E+00  0.0000E+00
     -4.897  0.0000E+00  0.0000E+00
     -4.833  0.0000E+00  0.0000E+00
     -4.770  0.0000E+00  0.0000E+00
     -4.707  0.0000E+00  0.0000E+00
     -4.643  0.0000E+00  0.0000E+00
     -4.580  0.1094E-09  0.6927E-11
     -4.517  0.1826E-01  0.1157E-02
     -4.453  0.1094E+00  0.8090E-02
     -4.390  0.2184E+00  0.2194E-01
     -4.327  0.1453E+00  0.3119E-01
     -4.263  0.1080E+00  0.3809E-01
     -4.200  0.4337E+00  0.6556E-01
     -4.136  0.4407E+00  0.9347E-01
     -4.073  0.4376E-02  0.9375E-01
     -4.010  0.2179E+00  0.1076E+00
     -3.946  0.5450E+00  0.1422E+00
     -3.883  0.4379E+00  0.1699E+00
     -3.820  0.4382E+00  0.1979E+00
     -3.756  0.1462E+00  0.2072E+00
     -3.693  0.4388E+00  0.2350E+00
     -3.630  0.8769E+00  0.2905E+00
     -3.566  0.3051E-06  0.2905E+00
     -3.503  0.4938E+00  0.3218E+00
     -3.440  0.5530E+00  0.3568E+00
     -3.376  0.1024E+01  0.4216E+00
     -3.313  0.2756E+00  0.4391E+00
     -3.250  0.1454E+01  0.5312E+00
     -3.186  0.3552E-01  0.5336E+00
     -3.123  0.4321E+00  0.5609E+00
     -3.060  0.1041E+00  0.5675E+00
     -2.996  0.1488E+01  0.6618E+00
     -2.933  0.1179E+01  0.7365E+00
     -2.870  0.5609E+00  0.7720E+00
     -2.806  0.7399E+00  0.8189E+00
     -2.743  0.1014E+01  0.8831E+00
     -2.680  0.1191E+01  0.9585E+00
     -2.616  0.7510E+00  0.1006E+01
     -2.553  0.2203E+01  0.1146E+01
     -2.490  0.8713E+00  0.1201E+01
     -2.426  0.1802E+01  0.1315E+01
     -2.363  0.2613E+01  0.1481E+01
     -2.300  0.4431E+01  0.1761E+01
     -2.236  0.1938E+01  0.1884E+01
     -2.173  0.4900E+01  0.2194E+01
     -2.110  0.4055E+01  0.2451E+01
     -2.046  0.2937E+01  0.2637E+01
     -1.983  0.8560E+01  0.3179E+01
     -1.920  0.7211E+01  0.3636E+01
     -1.856  0.6334E+01  0.4037E+01
     -1.793  0.1315E+02  0.4870E+01
     -1.730  0.9547E+01  0.5475E+01
     -1.666  0.8294E+01  0.6001E+01
     -1.603  0.1496E+02  0.6948E+01
     -1.540  0.6563E+01  0.7364E+01
     -1.476  0.7621E+01  0.7847E+01
     -1.413  0.1157E+02  0.8580E+01
     -1.350  0.8019E+01  0.9088E+01
     -1.286  0.6275E+01  0.9485E+01
     -1.223  0.7840E+01  0.9982E+01
     -1.160  0.6923E+01  0.1042E+02
     -1.096  0.6981E+01  0.1086E+02
     -1.033  0.1238E+02  0.1165E+02
     -0.970  0.8419E+01  0.1218E+02
     -0.906  0.1358E+02  0.1304E+02
     -0.843  0.1318E+02  0.1388E+02
     -0.780  0.1311E+02  0.1471E+02
     -0.716  0.1241E+02  0.1549E+02
     -0.653  0.8724E+01  0.1605E+02
     -0.590  0.1192E+02  0.1680E+02
     -0.526  0.1577E+02  0.1780E+02
     -0.463  0.1549E+02  0.1878E+02
     -0.400  0.1925E+02  0.2000E+02
     -0.336  0.1955E+02  0.2124E+02
     -0.273  0.1573E+02  0.2224E+02
     -0.210  0.1273E+02  0.2304E+02
     -0.146  0.1262E+02  0.2384E+02
     -0.083  0.1109E+02  0.2455E+02
     -0.020  0.8115E+01  0.2506E+02
      0.044  0.1149E+02  0.2579E+02
      0.107  0.9070E+01  0.2636E+02
      0.171  0.9224E+01  0.2695E+02
      0.234  0.1632E+02  0.2798E+02
      0.297  0.1161E+02  0.2872E+02
      0.361  0.1440E+02  0.2963E+02
      0.424  0.1260E+02  0.3043E+02
      0.487  0.1031E+02  0.3108E+02
      0.551  0.1328E+02  0.3192E+02
      0.614  0.1075E+02  0.3260E+02
      0.677  0.9690E+01  0.3322E+02
      0.741  0.1023E+02  0.3387E+02
      0.804  0.1153E+02  0.3460E+02
      0.867  0.9986E+01  0.3523E+02
      0.931  0.9475E+01  0.3583E+02
      0.994  0.1287E+02  0.3664E+02
      1.057  0.1562E+02  0.3763E+02
      1.121  0.1445E+02  0.3855E+02
      1.184  0.1865E+02  0.3973E+02
      1.247  0.1568E+02  0.4072E+02
      1.311  0.1073E+02  0.4140E+02
      1.374  0.6981E+01  0.4185E+02
      1.437  0.1690E+01  0.4195E+02
      1.501  0.8838E+00  0.4201E+02
      1.564  0.4385E+00  0.4204E+02
      1.627  0.5606E+00  0.4207E+02
      1.691  0.3647E+01  0.4230E+02
      1.754  0.1443E+01  0.4240E+02
      1.817  0.1839E+01  0.4251E+02
      1.881  0.8717E+00  0.4257E+02
      1.944  0.1145E-12  0.4257E+02
      2.007  0.4205E+00  0.4259E+02
      2.071  0.4614E+00  0.4262E+02
      2.134  0.3469E+01  0.4284E+02
      2.197  0.2228E+01  0.4298E+02
      2.261  0.1309E+01  0.4307E+02
      2.324  0.4498E+00  0.4310E+02
      2.387  0.1749E+01  0.4321E+02
      2.451  0.2548E+00  0.4322E+02
      2.514  0.2505E+00  0.4324E+02
      2.577  0.1453E+01  0.4333E+02
      2.641  0.1801E+01  0.4345E+02
      2.704  0.2193E+01  0.4358E+02
      2.767  0.8456E+00  0.4364E+02
      2.831  0.1040E+01  0.4370E+02
      2.894  0.2130E+01  0.4384E+02
      2.957  0.7705E-02  0.4384E+02
      3.021  0.1754E+01  0.4395E+02
      3.084  0.1256E+01  0.4403E+02
      3.147  0.9003E+00  0.4409E+02
      3.211  0.1860E+01  0.4420E+02
      3.274  0.1378E+01  0.4429E+02
      3.337  0.1265E+01  0.4437E+02
      3.401  0.1305E+01  0.4445E+02
      3.464  0.1682E+01  0.4456E+02
      3.527  0.9569E+00  0.4462E+02
      3.591  0.8637E+00  0.4468E+02
      3.654  0.1746E+01  0.4479E+02
      3.717  0.1784E+01  0.4490E+02
      3.781  0.1209E+01  0.4498E+02
      3.844  0.1168E+01  0.4505E+02
      3.907  0.9499E+00  0.4511E+02
      3.971  0.1255E+01  0.4519E+02
      4.034  0.5307E+00  0.4522E+02
      4.097  0.1819E+01  0.4534E+02
      4.161  0.8278E+00  0.4539E+02
      4.224  0.3045E+01  0.4559E+02
      4.287  0.8888E+00  0.4564E+02
      4.351  0.1418E-02  0.4564E+02
      4.414  0.1759E+01  0.4575E+02
      4.478  0.2555E+01  0.4592E+02
      4.541  0.5055E+00  0.4595E+02
      4.604  0.3481E+00  0.4597E+02
      4.668  0.9378E+00  0.4603E+02
      4.731  0.3124E+01  0.4623E+02
      4.794  0.1412E+01  0.4632E+02
      4.858  0.7983E+00  0.4637E+02
      4.921  0.4537E+00  0.4640E+02
      4.984  0.1531E+01  0.4649E+02
      5.048  0.3420E+00  0.4651E+02
      5.111  0.3221E+01  0.4672E+02
      5.174  0.1769E+01  0.4683E+02
      5.238  0.2207E+01  0.4697E+02
      5.301  0.2141E+01  0.4711E+02
      5.364  0.2080E+01  0.4724E+02
      5.428  0.1221E+01  0.4732E+02
      5.491  0.4434E+00  0.4734E+02
      5.554  0.2252E+01  0.4749E+02
      5.618  0.2581E+01  0.4765E+02
      5.681  0.1317E+01  0.4773E+02
      5.744  0.4475E+00  0.4776E+02
      5.808  0.1669E+01  0.4787E+02
      5.871  0.2463E+01  0.4802E+02
      5.934  0.1067E+01  0.4809E+02
      5.998  0.5041E-01  0.4809E+02
      6.061  0.1353E+01  0.4818E+02
      6.124  0.1639E+01  0.4828E+02
      6.188  0.1613E+01  0.4839E+02
      6.251  0.1302E+01  0.4847E+02
      6.314  0.1134E+01  0.4854E+02
      6.378  0.6324E+00  0.4858E+02
      6.441  0.2651E+00  0.4860E+02
      6.504  0.2337E+01  0.4875E+02
      6.568  0.3183E+00  0.4877E+02
      6.631  0.1880E+01  0.4889E+02
      6.694  0.2039E+01  0.4901E+02
      6.758  0.6710E-01  0.4902E+02
      6.821  0.7838E+00  0.4907E+02
      6.884  0.1039E+01  0.4913E+02
      6.948  0.1277E+01  0.4922E+02
      7.011  0.1423E+01  0.4931E+02
      7.074  0.2385E+01  0.4946E+02
      7.138  0.1170E+01  0.4953E+02
      7.201  0.1545E+01  0.4963E+02
      7.264  0.1951E+01  0.4975E+02
      7.328  0.7837E+00  0.4980E+02
      7.391  0.6102E+00  0.4984E+02
      7.454  0.2237E+01  0.4998E+02
      7.518  0.2634E+01  0.5015E+02
      7.581  0.3358E+00  0.5017E+02
      7.644  0.8217E+00  0.5022E+02
      7.708  0.4939E+00  0.5025E+02
      7.771  0.3397E+01  0.5047E+02
      7.834  0.1830E+01  0.5058E+02
      7.898  0.2829E+01  0.5076E+02
      7.961  0.3955E+01  0.5101E+02
      8.024  0.1912E+01  0.5114E+02
      8.088  0.7683E+00  0.5118E+02
      8.151  0.1863E+01  0.5130E+02
      8.214  0.4436E-04  0.5130E+02
      8.278  0.8764E+00  0.5136E+02
      8.341  0.9118E+00  0.5142E+02
      8.404  0.2157E+01  0.5155E+02
      8.468  0.1738E+01  0.5166E+02
      8.531  0.5911E+00  0.5170E+02
      8.595  0.3024E+00  0.5172E+02
      8.658  0.2193E+00  0.5173E+02
      8.721  0.8575E+00  0.5179E+02
      8.785  0.2090E+01  0.5192E+02
      8.848  0.2075E+01  0.5205E+02
      8.911  0.2228E+01  0.5219E+02
      8.975  0.1273E+01  0.5227E+02
      9.038  0.1531E+01  0.5237E+02
      9.101  0.2031E+01  0.5250E+02
      9.165  0.2821E+01  0.5268E+02
      9.228  0.6410E+00  0.5272E+02
      9.291  0.5744E+00  0.5275E+02
      9.355  0.1905E+01  0.5287E+02
      9.418  0.1660E+01  0.5298E+02
      9.481  0.9930E+00  0.5304E+02
      9.545  0.3840E+00  0.5307E+02
      9.608  0.1905E+01  0.5319E+02
      9.671  0.1406E+01  0.5328E+02
      9.735  0.1971E+01  0.5340E+02
      9.798  0.1325E+01  0.5349E+02
      9.861  0.1744E+01  0.5360E+02
      9.925  0.8767E+00  0.5365E+02
      9.988  0.6587E+00  0.5369E+02
     10.051  0.3128E+01  0.5389E+02
     10.115  0.1037E+01  0.5396E+02
     10.178  0.7042E+00  0.5400E+02
     10.241  0.2891E+01  0.5418E+02
     10.305  0.1829E+01  0.5430E+02
     10.368  0.2513E+01  0.5446E+02
     10.431  0.2490E+01  0.5462E+02
     10.495  0.1800E+01  0.5473E+02
     10.558  0.4796E+00  0.5476E+02
     10.621  0.3315E+00  0.5478E+02
     10.685  0.1045E+01  0.5485E+02
     10.748  0.1693E+01  0.5496E+02
     10.811  0.1795E+01  0.5507E+02
     10.875  0.1474E+01  0.5516E+02
     10.938  0.2393E+00  0.5518E+02
     11.001  0.9342E+00  0.5524E+02
     11.065  0.1452E+01  0.5533E+02
     11.128  0.1211E+01  0.5541E+02
     11.191  0.1674E+01  0.5551E+02
     11.255  0.8856E+00  0.5557E+02
     11.318  0.1931E+01  0.5569E+02
     11.381  0.4851E+00  0.5572E+02
     11.445  0.8485E+00  0.5578E+02
     11.508  0.1533E+00  0.5579E+02
     11.571  0.6225E+00  0.5583E+02
     11.635  0.2547E+00  0.5584E+02
     11.698  0.1870E-03  0.5584E+02
     11.761  0.6577E+00  0.5588E+02
     11.825  0.4357E+00  0.5591E+02
     11.888  0.1083E+01  0.5598E+02
     11.951  0.5033E-01  0.5598E+02
     12.015  0.0000E+00  0.5598E+02
     12.078  0.0000E+00  0.5598E+02
     12.141  0.0000E+00  0.5598E+02
     12.205  0.0000E+00  0.5598E+02
     12.268  0.4502E-05  0.5598E+02
     12.331  0.1096E+00  0.5599E+02
     12.395  0.2029E-17  0.5599E+02
     12.458  0.1420E-01  0.5599E+02
     12.521  0.4075E-02  0.5599E+02
     12.585  0.0000E+00  0.5599E+02
     12.648  0.0000E+00  0.5599E+02
     12.711  0.8223E-04  0.5599E+02
     12.775  0.1461E+00  0.5600E+02
     12.838  0.0000E+00  0.5600E+02
     12.902  0.0000E+00  0.5600E+02
     12.965  0.0000E+00  0.5600E+02
     13.028  0.0000E+00  0.5600E+02
     13.092  0.0000E+00  0.5600E+02
     13.155  0.0000E+00  0.5600E+02
     13.218  0.0000E+00  0.5600E+02
     13.282  0.0000E+00  0.5600E+02
     13.345  0.0000E+00  0.5600E+02
     13.408  0.0000E+00  0.5600E+02
     13.472  0.0000E+00  0.5600E+02
     13.535  0.0000E+00  0.5600E+02
     13.598  0.0000E+00  0.5600E+02
