    4    4    1    1
  0.2163498E+02  0.4423223E-09  0.4423223E-09  0.4423223E-09  0.5000000E-15
  1.000000000000000E-004
  CAR 
 unknown system                          
   44   84   28
 
  0.0000000E+00  0.0000000E+00  0.0000000E+00  0.5787037E-03
   1       -4.5396
   2       -2.1589
   3       -2.1589
   4       -2.1589
   5       -1.9637
   6       -1.9637
   7       -1.9637
   8       -0.5967
   9       -0.5967
  10       -0.5967
  11        0.3925
  12        0.3925
  13        1.1448
  14        1.1448
  15        1.1448
  16        1.3855
  17        1.3855
  18        1.3855
  19        1.3855
  20        1.3855
  21        1.3855
  22        4.6983
  23        4.6983
  24        4.6983
  25        7.1860
  26        7.1860
  27        7.1860
  28       12.4527
 
  0.8333333E-01  0.0000000E+00  0.0000000E+00  0.3472222E-02
   1       -4.4738
   2       -2.1400
   3       -2.1195
   4       -2.1195
   5       -1.9431
   6       -1.9322
   7       -1.9322
   8       -0.6232
   9       -0.5716
  10       -0.5716
  11        0.3648
  12        0.4045
  13        1.1064
  14        1.1064
  15        1.1312
  16        1.2387
  17        1.2387
  18        1.3379
  19        1.3379
  20        1.3856
  21        1.3856
  22        4.0268
  23        4.8976
  24        4.8976
  25        7.1498
  26        7.1498
  27        7.9759
  28       12.2960
 
  0.1666667E+00  0.0000000E+00  0.0000000E+00  0.3472222E-02
   1       -4.2785
   2       -2.0903
   3       -2.0057
   4       -2.0057
   5       -1.8822
   6       -1.8377
   7       -1.8377
   8       -0.7003
   9       -0.4969
  10       -0.4969
  11        0.2856
  12        0.4400
  13        0.8790
  14        0.8790
  15        0.9941
  16        0.9941
  17        1.0914
  18        1.2026
  19        1.2026
  20        1.3858
  21        1.3858
  22        2.8836
  23        5.4135
  24        5.4135
  25        7.0510
  26        7.0510
  27        9.4784
  28       11.8527
 
  0.2500000E+00  0.0000000E+00  0.0000000E+00  0.3472222E-02
   1       -3.9603
   2       -2.0340
   3       -1.8317
   4       -1.8317
   5       -1.7840
   6       -1.6808
   7       -1.6808
   8       -0.8206
   9       -0.3743
  10       -0.3743
  11        0.1671
  12        0.4324
  13        0.4324
  14        0.4970
  15        0.8199
  16        0.8199
  17        0.9999
  18        0.9999
  19        1.0286
  20        1.3860
  21        1.3860
  22        1.7799
  23        6.1161
  24        6.1161
  25        6.9171
  26        6.9171
  27       11.2029
  28       11.2047
 
  0.3333333E+00  0.0000000E+00  0.0000000E+00  0.3472222E-02
   1       -3.5343
   2       -2.0265
   3       -1.6532
   4       -1.6268
   5       -1.6268
   6       -1.4620
   7       -1.4620
   8       -0.9732
   9       -0.2072
  10       -0.2072
  11       -0.0253
  12       -0.0253
  13        0.0329
  14        0.5720
  15        0.6117
  16        0.6117
  17        0.7555
  18        0.7555
  19        0.8520
  20        0.9477
  21        1.3863
  22        1.3863
  23        6.7854
  24        6.7854
  25        6.9231
  26        6.9231
  27       10.4245
  28       10.4245
 
  0.4166667E+00  0.0000000E+00  0.0000000E+00  0.3472222E-02
   1       -3.0339
   2       -2.1690
   3       -1.4970
   4       -1.4451
   5       -1.4451
   6       -1.1830
   7       -1.1830
   8       -1.1454
   9       -0.4575
  10       -0.4575
  11       -0.0722
  12       -0.0009
  13       -0.0009
  14        0.2153
  15        0.4257
  16        0.4257
  17        0.4942
  18        0.4942
  19        0.6605
  20        0.8549
  21        1.3865
  22        1.3865
  23        6.6908
  24        6.6908
  25        7.7881
  26        7.7881
  27        9.5691
  28        9.5691
 
  0.5000000E+00  0.0000000E+00  0.0000000E+00  0.1736111E-02
   1       -2.5339
   2       -2.5339
   3       -1.3680
   4       -1.3680
   5       -1.3241
   6       -1.3241
   7       -0.8465
   8       -0.8465
   9       -0.8465
  10       -0.8465
  11       -0.0604
  12       -0.0604
  13        0.2367
  14        0.2367
  15        0.2367
  16        0.2367
  17        0.3466
  18        0.3466
  19        0.7569
  20        0.7569
  21        1.3866
  22        1.3866
  23        6.6566
  24        6.6566
  25        8.6796
  26        8.6796
  27        8.6796
  28        8.6796
 
  0.8333333E-01  0.8333333E-01  0.0000000E+00  0.6944444E-02
   1       -4.4086
   2       -2.1002
   3       -2.1002
   4       -2.0862
   5       -1.9120
   6       -1.9120
   7       -1.8962
   8       -0.6332
   9       -0.5624
  10       -0.5486
  11        0.3577
  12        0.3986
  13        1.0692
  14        1.0692
  15        1.0700
  16        1.1372
  17        1.2080
  18        1.2080
  19        1.3378
  20        1.3378
  21        1.3533
  22        4.2106
  23        4.2106
  24        5.0842
  25        7.1084
  26        7.9529
  27        7.9529
  28       11.7207
 
  0.1666667E+00  0.8333333E-01  0.0000000E+00  0.1388889E-01
   1       -4.2152
   2       -2.0492
   3       -1.9897
   4       -1.9852
   5       -1.8523
   6       -1.8188
   7       -1.7896
   8       -0.7004
   9       -0.4955
  10       -0.4808
  11        0.2895
  12        0.4314
  13        0.7714
  14        0.8188
  15        0.9398
  16        0.9633
  17        1.0287
  18        1.1377
  19        1.2022
  20        1.3367
  21        1.3375
  22        3.0882
  23        4.6574
  24        5.5762
  25        6.9931
  26        7.9012
  27        9.4279
  28       11.0872
 
  0.2500000E+00  0.8333333E-01  0.0000000E+00  0.1388889E-01
   1       -3.9002
   2       -1.9908
   3       -1.8377
   4       -1.8089
   5       -1.7561
   6       -1.6639
   7       -1.6192
   8       -0.8158
   9       -0.3749
  10       -0.3735
  11        0.1816
  12        0.3353
  13        0.3978
  14        0.4951
  15        0.7019
  16        0.7969
  17        0.8495
  18        0.9991
  19        1.0461
  20        1.3334
  21        1.3371
  22        2.0542
  23        5.1986
  24        6.2581
  25        6.8286
  26        7.8751
  27       10.4741
  28       11.0653
 
  0.3333333E+00  0.8333333E-01  0.0000000E+00  0.1388889E-01
   1       -3.4788
   2       -1.9809
   3       -1.6437
   4       -1.6281
   5       -1.6005
   6       -1.4484
   7       -1.4026
   8       -0.9639
   9       -0.2514
  10       -0.2085
  11       -0.1096
  12       -0.0426
  13        0.0841
  14        0.3542
  15        0.5808
  16        0.5978
  17        0.6410
  18        0.7542
  19        0.9101
  20        1.2918
  21        1.3330
  22        1.3365
  23        5.6994
  24        6.6472
  25        7.0502
  26        7.9653
  27        9.8859
  28       10.5321
 
  0.4166667E+00  0.8333333E-01  0.0000000E+00  0.1388889E-01
   1       -2.9834
   2       -2.1226
   3       -1.4752
   4       -1.4445
   5       -1.4152
   6       -1.1738
   7       -1.1602
   8       -1.1317
   9       -0.5216
  10       -0.4630
  11       -0.2085
  12       -0.0135
  13       -0.0024
  14        0.1294
  15        0.4225
  16        0.4495
  17        0.4927
  18        0.6381
  19        0.6838
  20        0.9488
  21        1.3337
  22        1.3356
  23        6.0640
  24        6.4719
  25        7.9053
  26        8.2570
  27        9.3027
  28        9.6769
 
  0.5000000E+00  0.8333333E-01  0.0000000E+00  0.6944444E-02
   1       -2.4871
   2       -2.4871
   3       -1.3424
   4       -1.3424
   5       -1.3062
   6       -1.3062
   7       -0.8761
   8       -0.8761
   9       -0.8435
  10       -0.8435
  11       -0.1961
  12       -0.1961
  13        0.2351
  14        0.2351
  15        0.3434
  16        0.3434
  17        0.3575
  18        0.3575
  19        0.8016
  20        0.8016
  21        1.3347
  22        1.3347
  23        6.2956
  24        6.2956
  25        8.7356
  26        8.7356
  27        8.7905
  28        8.7905
 
  0.1666667E+00  0.1666667E+00  0.0000000E+00  0.6944444E-02
   1       -4.0275
   2       -1.9308
   3       -1.9302
   4       -1.9302
   5       -1.7628
   6       -1.7628
   7       -1.6604
   8       -0.7289
   9       -0.4617
  10       -0.4342
  11        0.2661
  12        0.4447
  13        0.5539
  14        0.5539
  15        0.6141
  16        0.8720
  17        1.0299
  18        1.0299
  19        1.2009
  20        1.2009
  21        1.2582
  22        3.5437
  23        3.5437
  24        6.0188
  25        6.8247
  26        9.2872
  27        9.2872
  28       10.3569
 
  0.2500000E+00  0.1666667E+00  0.0000000E+00  0.1388889E-01
   1       -3.7224
   2       -1.8651
   3       -1.8185
   4       -1.7468
   5       -1.6727
   6       -1.6144
   7       -1.4761
   8       -0.8146
   9       -0.3666
  10       -0.3620
  11        0.1132
  12        0.1913
  13        0.2656
  14        0.2831
  15        0.5209
  16        0.7273
  17        0.8723
  18        0.9671
  19        0.9965
  20        1.1988
  21        1.2152
  22        2.5500
  23        4.0737
  24        6.5648
  25        6.6540
  26        9.0961
  27        9.7725
  28       10.6928
 
  0.3333333E+00  0.1666667E+00  0.0000000E+00  0.1388889E-01
   1       -3.3149
   2       -1.8480
   3       -1.6525
   4       -1.5531
   5       -1.5271
   6       -1.4084
   7       -1.2690
   8       -0.9427
   9       -0.3155
  10       -0.3103
  11       -0.2048
  12       -0.0998
  13       -0.0596
  14        0.1371
  15        0.5528
  16        0.6411
  17        0.6774
  18        0.7509
  19        0.8350
  20        1.1963
  21        1.1981
  22        1.7839
  23        4.5984
  24        6.2448
  25        7.4106
  26        8.9232
  27        9.3388
  28       10.8438
 
  0.4166667E+00  0.1666667E+00  0.0000000E+00  0.1388889E-01
   1       -2.8359
   2       -1.9886
   3       -1.4457
   4       -1.4107
   5       -1.3283
   6       -1.1475
   7       -1.0941
   8       -1.0879
   9       -0.6815
  10       -0.4819
  11       -0.3420
  12       -0.3144
  13       -0.0031
  14        0.2055
  15        0.4050
  16        0.4856
  17        0.4891
  18        0.6299
  19        0.7956
  20        1.1925
  21        1.1938
  22        1.2870
  23        5.0803
  24        5.8912
  25        8.2407
  26        8.8360
  27        9.0414
  28        9.9886
 
  0.5000000E+00  0.1666667E+00  0.0000000E+00  0.6944444E-02
   1       -2.3520
   2       -2.3520
   3       -1.2756
   4       -1.2756
   5       -1.2542
   6       -1.2542
   7       -0.9436
   8       -0.9436
   9       -0.8360
  10       -0.8360
  11       -0.3882
  12       -0.3882
  13        0.2323
  14        0.2323
  15        0.3718
  16        0.3718
  17        0.3935
  18        0.3935
  19        0.9939
  20        0.9939
  21        1.1920
  22        1.1920
  23        5.5079
  24        5.5079
  25        8.8729
  26        8.8729
  27        9.1101
  28        9.1101
 
  0.2500000E+00  0.2500000E+00  0.0000000E+00  0.6944444E-02
   1       -3.4345
   2       -1.7492
   3       -1.6694
   4       -1.6694
   5       -1.5349
   6       -1.5349
   7       -1.2910
   8       -0.8474
   9       -0.3514
  10       -0.3015
  11       -0.1634
  12       -0.1634
  13        0.0741
  14        0.1503
  15        0.6129
  16        0.6250
  17        0.8319
  18        0.8319
  19        0.9930
  20        0.9930
  21        1.1054
  22        3.0825
  23        3.0825
  24        6.1527
  25        7.2402
  26        9.3096
  27       10.1960
  28       10.1960
 
  0.3333333E+00  0.2500000E+00  0.0000000E+00  0.1388889E-01
   1       -3.0518
   2       -1.6404
   3       -1.6253
   4       -1.4302
   5       -1.4288
   6       -1.3451
   7       -1.1008
   8       -0.9280
   9       -0.5536
  10       -0.4310
  11       -0.3554
  12       -0.2089
  13       -0.1750
  14        0.1099
  15        0.4707
  16        0.6578
  17        0.7134
  18        0.7469
  19        0.7981
  20        0.9894
  21        1.0378
  22        2.2855
  23        3.6129
  24        5.6585
  25        7.9560
  26        9.0650
  27        9.7125
  28       11.1471
 
  0.4166667E+00  0.2500000E+00  0.0000000E+00  0.1388889E-01
   1       -2.6038
   2       -1.7849
   3       -1.4470
   4       -1.3070
   5       -1.1958
   6       -1.1073
   7       -1.0430
   8       -0.9694
   9       -0.8850
  10       -0.5721
  11       -0.5219
  12       -0.4279
  13        0.0090
  14        0.1643
  15        0.3549
  16        0.4769
  17        0.4868
  18        0.5279
  19        0.9877
  20        1.0045
  21        1.0226
  22        1.7068
  23        4.1300
  24        5.1449
  25        8.7559
  26        8.9983
  27        9.3306
  28       10.4746
 
  0.5000000E+00  0.2500000E+00  0.0000000E+00  0.6944444E-02
   1       -2.1463
   2       -2.1463
   3       -1.2244
   4       -1.2244
   5       -1.1742
   6       -1.1742
   7       -0.9737
   8       -0.9737
   9       -0.8287
  10       -0.8287
  11       -0.5361
  12       -0.5361
  13        0.2348
  14        0.2348
  15        0.3224
  16        0.3224
  17        0.3516
  18        0.3516
  19        0.9910
  20        0.9910
  21        1.3096
  22        1.3096
  23        4.6369
  24        4.6369
  25        9.0888
  26        9.0888
  27        9.6055
  28        9.6055
 
  0.3333333E+00  0.3333333E+00  0.0000000E+00  0.6944444E-02
   1       -2.7073
   2       -1.5548
   3       -1.3842
   4       -1.3842
   5       -1.2634
   6       -1.2634
   7       -0.9429
   8       -0.9325
   9       -0.7511
  10       -0.7511
  11       -0.3855
  12       -0.3774
  13       -0.0928
  14        0.0508
  15        0.3580
  16        0.5571
  17        0.5571
  18        0.7452
  19        0.7452
  20        0.9039
  21        1.0321
  22        2.7905
  23        2.7905
  24        5.0152
  25        8.6355
  26        9.0108
  27       10.4229
  28       10.4229
 
  0.4166667E+00  0.3333333E+00  0.0000000E+00  0.1388889E-01
   1       -2.3101
   2       -1.5551
   3       -1.4380
   4       -1.1707
   5       -1.1589
   6       -1.0594
   7       -0.9959
   8       -0.9789
   9       -0.8286
  10       -0.7532
  11       -0.5935
  12       -0.4670
  13        0.0532
  14        0.0666
  15        0.2617
  16        0.3862
  17        0.3911
  18        0.4920
  19        0.7506
  20        0.8170
  21        1.3225
  22        2.1539
  23        3.3013
  24        4.3983
  25        9.1280
  26        9.4072
  27        9.8350
  28       11.1340
 
  0.5000000E+00  0.3333333E+00  0.0000000E+00  0.6944444E-02
   1       -1.9041
   2       -1.9041
   3       -1.2762
   4       -1.2762
   5       -1.0770
   6       -1.0770
   7       -0.8747
   8       -0.8747
   9       -0.8298
  10       -0.8298
  11       -0.6140
  12       -0.6140
  13        0.1975
  14        0.1975
  15        0.2542
  16        0.2542
  17        0.2688
  18        0.2688
  19        0.7706
  20        0.7706
  21        1.6821
  22        1.6821
  23        3.8307
  24        3.8307
  25        9.4024
  26        9.4024
  27       10.2376
  28       10.2376
 
  0.4166667E+00  0.4166667E+00  0.0000000E+00  0.6944444E-02
   1       -1.9888
   2       -1.4112
   3       -1.3956
   4       -1.3956
   5       -1.0127
   6       -1.0127
   7       -0.9717
   8       -0.8011
   9       -0.8011
  10       -0.7204
  11       -0.7046
  12       -0.5043
  13        0.0042
  14        0.1498
  15        0.1565
  16        0.2361
  17        0.2361
  18        0.5143
  19        0.5143
  20        0.6664
  21        1.6761
  22        2.6270
  23        2.6270
  24        3.7265
  25        9.4058
  26       10.1557
  27       10.4091
  28       10.4091
 
  0.5000000E+00  0.4166667E+00  0.0000000E+00  0.6944444E-02
   1       -1.6765
   2       -1.6765
   3       -1.3766
   4       -1.3766
   5       -0.9793
   6       -0.9793
   7       -0.8502
   8       -0.8502
   9       -0.7268
  10       -0.7268
  11       -0.6204
  12       -0.6204
  13        0.0731
  14        0.0731
  15        0.1352
  16        0.1352
  17        0.3067
  18        0.3067
  19        0.5675
  20        0.5675
  21        2.0982
  22        2.0982
  23        3.1425
  24        3.1425
  25        9.8311
  26        9.8311
  27       10.9697
  28       10.9700
 
  0.5000000E+00  0.5000000E+00  0.0000000E+00  0.1736111E-02
   1       -1.5028
   2       -1.5028
   3       -1.5028
   4       -1.5028
   5       -0.8997
   6       -0.8997
   7       -0.8997
   8       -0.8997
   9       -0.6268
  10       -0.6268
  11       -0.6268
  12       -0.6268
  13        0.0360
  14        0.0360
  15        0.0360
  16        0.0360
  17        0.4090
  18        0.4090
  19        0.4090
  20        0.4090
  21        2.5743
  22        2.5743
  23        2.5743
  24        2.5743
  25       10.3874
  26       10.3874
  27       10.3874
  28       10.3874
 
  0.8333333E-01  0.8333333E-01  0.8333333E-01  0.4629630E-02
   1       -4.3442
   2       -2.0670
   3       -2.0670
   4       -2.0670
   5       -1.8760
   6       -1.8760
   7       -1.8760
   8       -0.6410
   9       -0.5411
  10       -0.5411
  11        0.3730
  12        0.3730
  13        1.0371
  14        1.0371
  15        1.0371
  16        1.0752
  17        1.0752
  18        1.0752
  19        1.3290
  20        1.3290
  21        1.3290
  22        4.3776
  23        4.3776
  24        4.3776
  25        7.9219
  26        7.9219
  27        7.9219
  28       11.8549
 
  0.1666667E+00  0.8333333E-01  0.8333333E-01  0.1388889E-01
   1       -4.1529
   2       -2.0161
   3       -1.9707
   4       -1.9707
   5       -1.8164
   6       -1.7694
   7       -1.7694
   8       -0.6990
   9       -0.4837
  10       -0.4779
  11        0.3011
  12        0.4179
  13        0.7297
  14        0.7297
  15        0.8932
  16        0.9389
  17        0.9546
  18        0.9546
  19        1.2634
  20        1.3139
  21        1.3139
  22        3.2625
  23        4.7925
  24        4.7925
  25        7.8433
  26        7.8433
  27        9.3523
  28       11.2540
 
  0.2500000E+00  0.8333333E-01  0.8333333E-01  0.1388889E-01
   1       -3.8418
   2       -1.9574
   3       -1.8191
   4       -1.8191
   5       -1.7207
   6       -1.5992
   7       -1.5992
   8       -0.8081
   9       -0.3779
  10       -0.3739
  11        0.2025
  12        0.3089
  13        0.3089
  14        0.4896
  15        0.5996
  16        0.7816
  17        0.8038
  18        0.8038
  19        1.1706
  20        1.3022
  21        1.3022
  22        2.2453
  23        5.3012
  24        5.3012
  25        7.7650
  26        7.7650
  27       10.7033
  28       10.7033
 
  0.3333333E+00  0.8333333E-01  0.8333333E-01  0.1388889E-01
   1       -3.4257
   2       -1.9461
   3       -1.6244
   4       -1.6244
   5       -1.5946
   6       -1.3848
   7       -1.3848
   8       -0.9507
   9       -0.2718
  10       -0.2317
  11       -0.1196
  12       -0.1196
  13        0.1380
  14        0.2214
  15        0.5828
  16        0.5839
  17        0.6133
  18        0.6133
  19        1.0608
  20        1.2955
  21        1.2955
  22        1.4482
  23        5.7601
  24        5.7601
  25        7.7663
  26        7.7663
  27       10.2173
  28       10.2173
 
  0.4166667E+00  0.8333333E-01  0.8333333E-01  0.1388889E-01
   1       -2.9371
   2       -2.0859
   3       -1.4457
   4       -1.4199
   5       -1.4199
   6       -1.1555
   7       -1.1555
   8       -1.1129
   9       -0.5130
  10       -0.5130
  11       -0.2598
  12       -0.1201
  13       -0.0559
  14        0.2381
  15        0.3644
  16        0.4360
  17        0.4360
  18        0.6950
  19        0.8910
  20        0.9405
  21        1.2922
  22        1.2922
  23        6.0480
  24        6.0480
  25        7.8939
  26        7.8939
  27        9.8139
  28        9.8139
 
  0.5000000E+00  0.8333333E-01  0.8333333E-01  0.6944444E-02
   1       -2.4471
   2       -2.4471
   3       -1.3168
   4       -1.3168
   5       -1.2819
   6       -1.2819
   7       -0.9677
   8       -0.9677
   9       -0.7738
  10       -0.7738
  11       -0.2672
  12       -0.2672
  13        0.1464
  14        0.1464
  15        0.3586
  16        0.3586
  17        0.5033
  18        0.5033
  19        0.8163
  20        0.8163
  21        1.2912
  22        1.2912
  23        6.1363
  24        6.1363
  25        7.9979
  26        7.9979
  27        9.6300
  28        9.6300
 
  0.1666667E+00  0.1666667E+00  0.8333333E-01  0.1388889E-01
   1       -3.9684
   2       -1.9205
   3       -1.9205
   4       -1.9150
   5       -1.7098
   6       -1.7098
   7       -1.6384
   8       -0.7209
   9       -0.4543
  10       -0.4373
  11        0.2932
  12        0.4240
  13        0.5191
  14        0.5191
  15        0.5453
  16        0.8158
  17        0.8740
  18        0.8740
  19        1.2569
  20        1.2569
  21        1.2680
  22        3.6757
  23        3.6757
  24        5.1374
  25        7.6786
  26        9.1308
  27        9.1308
  28       10.6164
 
  0.2500000E+00  0.1666667E+00  0.8333333E-01  0.2777778E-01
   1       -3.6688
   2       -1.8621
   3       -1.8062
   4       -1.7707
   5       -1.6144
   6       -1.5392
   7       -1.4535
   8       -0.7976
   9       -0.3740
  10       -0.3689
  11        0.0970
  12        0.2142
  13        0.2271
  14        0.2294
  15        0.5062
  16        0.6847
  17        0.7121
  18        0.7678
  19        1.1737
  20        1.2246
  21        1.2247
  22        2.6717
  23        4.1780
  24        5.5553
  25        7.4585
  26        8.8005
  27       10.1955
  28       10.3370
 
  0.3333333E+00  0.1666667E+00  0.8333333E-01  0.2777778E-01
   1       -3.2698
   2       -1.8485
   3       -1.6437
   4       -1.5762
   5       -1.4926
   6       -1.3287
   7       -1.2502
   8       -0.9169
   9       -0.3255
  10       -0.3046
  11       -0.2450
  12       -0.1554
  13       -0.1009
  14        0.2083
  15        0.5065
  16        0.5316
  17        0.6118
  18        0.6303
  19        1.0542
  20        1.1944
  21        1.1972
  22        1.8630
  23        4.6863
  24        5.8513
  25        7.3294
  26        8.4323
  27       10.0073
  28       11.0488
 
  0.4166667E+00  0.1666667E+00  0.8333333E-01  0.2777778E-01
   1       -2.8027
   2       -1.9834
   3       -1.4373
   4       -1.3576
   5       -1.3556
   6       -1.1404
   7       -1.0949
   8       -1.0591
   9       -0.6295
  10       -0.4933
  11       -0.3593
  12       -0.3488
  13       -0.0921
  14        0.2916
  15        0.3377
  16        0.3900
  17        0.4447
  18        0.7827
  19        0.8719
  20        1.1789
  21        1.1811
  22        1.2939
  23        5.1547
  24        5.8291
  25        7.4575
  26        8.0797
  27       10.0450
  28       10.6624
 
  0.5000000E+00  0.1666667E+00  0.8333333E-01  0.1388889E-01
   1       -2.3334
   2       -2.3334
   3       -1.2511
   4       -1.2511
   5       -1.2090
   6       -1.2090
   7       -1.0826
   8       -1.0826
   9       -0.7078
  10       -0.7078
  11       -0.4126
  12       -0.4126
  13        0.0882
  14        0.0882
  15        0.3472
  16        0.3472
  17        0.5976
  18        0.5976
  19        0.9746
  20        0.9746
  21        1.1751
  22        1.1751
  23        5.5523
  24        5.5523
  25        7.7505
  26        7.7505
  27       10.2880
  28       10.2880
 
  0.2500000E+00  0.2500000E+00  0.8333333E-01  0.1388889E-01
   1       -3.3898
   2       -1.7439
   3       -1.7161
   4       -1.7161
   5       -1.4418
   6       -1.4418
   7       -1.2694
   8       -0.8163
   9       -0.3590
  10       -0.3282
  11       -0.1720
  12       -0.1720
  13        0.0254
  14        0.2078
  15        0.5440
  16        0.6072
  17        0.6423
  18        0.6423
  19        1.1229
  20        1.1229
  21        1.1421
  22        3.1734
  23        3.1734
  24        5.7804
  25        7.1291
  26        9.6783
  27        9.6783
  28       10.0014
 
  0.3333333E+00  0.2500000E+00  0.8333333E-01  0.2777778E-01
   1       -3.0213
   2       -1.7059
   3       -1.6288
   4       -1.5302
   5       -1.3210
   6       -1.2287
   7       -1.0891
   8       -0.8814
   9       -0.5277
  10       -0.4336
  11       -0.3622
  12       -0.2394
  13       -0.2304
  14        0.2046
  15        0.4104
  16        0.4514
  17        0.5330
  18        0.7798
  19        0.9863
  20        1.0667
  21        1.0742
  22        2.3420
  23        3.6914
  24        5.6531
  25        7.1470
  26        9.0315
  27       10.0693
  28       10.4828
 
  0.4166667E+00  0.2500000E+00  0.8333333E-01  0.2777778E-01
   1       -2.5942
   2       -1.8386
   3       -1.4632
   4       -1.3198
   5       -1.2017
   6       -1.0887
   7       -0.9978
   8       -0.9793
   9       -0.7436
  10       -0.5753
  11       -0.4739
  12       -0.4343
  13       -0.1147
  14        0.2415
  15        0.3036
  16        0.3236
  17        0.3959
  18        0.7922
  19        1.0026
  20        1.0296
  21        1.0318
  22        1.7182
  23        4.2070
  24        5.2202
  25        7.4946
  26        8.4531
  27       10.3522
  28       11.2909
 
  0.5000000E+00  0.2500000E+00  0.8333333E-01  0.1388889E-01
   1       -2.1662
   2       -2.1662
   3       -1.2655
   4       -1.2655
   5       -1.0897
   6       -1.0897
   7       -1.0874
   8       -1.0874
   9       -0.6503
  10       -0.6503
  11       -0.5420
  12       -0.5420
  13        0.0469
  14        0.0469
  15        0.2931
  16        0.2931
  17        0.5486
  18        0.5486
  19        1.0175
  20        1.0175
  21        1.2942
  22        1.2942
  23        4.7178
  24        4.7178
  25        7.9452
  26        7.9452
  27       10.8105
  28       10.8105
 
  0.3333333E+00  0.3333333E+00  0.8333333E-01  0.1388889E-01
   1       -2.6997
   2       -1.5747
   3       -1.5419
   4       -1.5419
   5       -1.0952
   6       -1.0952
   7       -0.9453
   8       -0.8707
   9       -0.7154
  10       -0.7154
  11       -0.3871
  12       -0.3447
  13       -0.2075
  14        0.1907
  15        0.2816
  16        0.3748
  17        0.3748
  18        0.9092
  19        0.9092
  20        0.9629
  21        1.0118
  22        2.8400
  23        2.8400
  24        5.0985
  25        7.3993
  26        9.6700
  27        9.6700
  28       10.3357
 
  0.4166667E+00  0.3333333E+00  0.8333333E-01  0.2777778E-01
   1       -2.3362
   2       -1.6882
   3       -1.4848
   4       -1.3989
   5       -0.9905
   6       -0.9648
   7       -0.8999
   8       -0.8956
   9       -0.7912
  10       -0.7453
  11       -0.4640
  12       -0.4594
  13       -0.1343
  14        0.1815
  15        0.1850
  16        0.2721
  17        0.2800
  18        0.7083
  19        0.8547
  20        0.8803
  21        1.3029
  22        2.1678
  23        3.3535
  24        4.4774
  25        7.8325
  26        8.9609
  27       10.3777
  28       10.7735
 
  0.5000000E+00  0.3333333E+00  0.8333333E-01  0.1388889E-01
   1       -1.9773
   2       -1.9773
   3       -1.3874
   4       -1.3874
   5       -0.9684
   6       -0.9684
   7       -0.9405
   8       -0.9405
   9       -0.6103
  10       -0.6103
  11       -0.5923
  12       -0.5923
  13        0.0003
  14        0.0003
  15        0.1827
  16        0.1827
  17        0.4776
  18        0.4776
  19        0.8428
  20        0.8428
  21        1.6713
  22        1.6713
  23        3.8939
  24        3.8939
  25        8.3534
  26        8.3534
  27       11.1578
  28       11.1578
 
  0.4166667E+00  0.4166667E+00  0.8333333E-01  0.1388889E-01
   1       -2.0611
   2       -1.5726
   3       -1.5726
   4       -1.4975
   5       -0.8595
   6       -0.8595
   7       -0.8543
   8       -0.8413
   9       -0.7245
  10       -0.7245
  11       -0.4809
  12       -0.4532
  13       -0.1388
  14        0.0717
  15        0.1036
  16        0.1036
  17        0.3105
  18        0.6551
  19        0.6551
  20        0.7476
  21        1.6604
  22        2.6477
  23        2.6477
  24        3.7831
  25        8.3106
  26        9.5780
  27        9.5780
  28       11.1039
 
  0.5000000E+00  0.4166667E+00  0.8333333E-01  0.1388889E-01
   1       -1.7997
   2       -1.7997
   3       -1.5154
   4       -1.5154
   5       -0.8641
   6       -0.8641
   7       -0.8316
   8       -0.8316
   9       -0.5756
  10       -0.5756
  11       -0.5286
  12       -0.5286
  13       -0.0555
  14       -0.0555
  15        0.0402
  16        0.0402
  17        0.4526
  18        0.4526
  19        0.6652
  20        0.6652
  21        2.0947
  22        2.0947
  23        3.1774
  24        3.1774
  25        8.8917
  26        8.8917
  27       10.2934
  28       10.2934
 
  0.5000000E+00  0.5000000E+00  0.8333333E-01  0.3472222E-02
   1       -1.6483
   2       -1.6483
   3       -1.6483
   4       -1.6483
   5       -0.8160
   6       -0.8160
   7       -0.8160
   8       -0.8160
   9       -0.5010
  10       -0.5010
  11       -0.5010
  12       -0.5010
  13       -0.0654
  14       -0.0654
  15       -0.0654
  16       -0.0654
  17        0.5185
  18        0.5185
  19        0.5185
  20        0.5185
  21        2.5853
  22        2.5853
  23        2.5853
  24        2.5853
  25        9.5389
  26        9.5389
  27        9.5389
  28        9.5389
 
  0.1666667E+00  0.1666667E+00  0.1666667E+00  0.4629630E-02
   1       -3.7936
   2       -1.8744
   3       -1.8744
   4       -1.8744
   5       -1.5729
   6       -1.5729
   7       -1.5729
   8       -0.7168
   9       -0.4292
  10       -0.4292
  11        0.3510
  12        0.3510
  13        0.3510
  14        0.3698
  15        0.3698
  16        0.6777
  17        0.6777
  18        0.6777
  19        1.2720
  20        1.2720
  21        1.2720
  22        4.0146
  23        4.0146
  24        4.0146
  25        8.6952
  26        8.6952
  27        8.6952
  28       11.4082
 
  0.2500000E+00  0.1666667E+00  0.1666667E+00  0.1388889E-01