 vasp.4.6.28 25Jul05 complex 
 executed on             LinuxIFC date 2017.01.06  05:32:24
 running on    4 nodes
 distr:  one band on    1 nodes,    4 groups


--------------------------------------------------------------------------------------------------------


 INCAR:
 POTCAR:   PAW_PBE Au 06Sep2000                   
 POTCAR:   PAW_PBE Au 06Sep2000                   
   VRHFIN =Au: s1d10                                                            
   LEXCH  = PE                                                                  
   EATOM  =   926.0567 eV,   68.0632 Ry                                         
                                                                                
   TITEL  = PAW_PBE Au 06Sep2000                                                
   LULTRA =        F    use ultrasoft PP ?                                      
   IUNSCR =        1    unscreen: 0-lin 1-nonlin 2-no                           
   RPACOR =    2.330    partial core radius                                     
   POMASS =  196.966; ZVAL   =   11.000    mass and valenz                      
   RCORE  =    2.500    outmost cutoff radius                                   
   RWIGS  =    2.840; RWIGS  =    1.503    wigner-seitz radius (au A)           
   ENMAX  =  229.948; ENMIN  =  172.461 eV                                      
   RCLOC  =    1.964    cutoff for local pot                                    
   LCOR   =        T    correct aug charges                                     
   LPAW   =        T    paw PP                                                  
   EAUG   =  356.670                                                            
   DEXC   =    -.025                                                            
   RMAX   =    3.041    core radius for proj-oper                               
   RAUG   =    1.300    factor for augmentation sphere                          
   RDEP   =    2.598    radius for radial grids                                 
   QCUT   =   -4.111; QGAM   =    8.222    optimization parameters              
                                                                                
   Description                                                                  
     l     E      TYP  RCUT    TYP  RCUT                                        
     2   .000     23  2.500                                                     
     2   .000     23  2.500                                                     
     0   .000     23  2.500                                                     
     0   .000     23  2.500                                                     
     1  -.200     23  2.500                                                     
     1   .000     23  2.500                                                     
     3   .000      7   .000                                                     
  local pseudopotential read in
  partial core-charges read in
  atomic valenz-charges read in
  non local Contribution for L=           2  read in
    real space projection operators read in
  non local Contribution for L=           2  read in
    real space projection operators read in
  non local Contribution for L=           0  read in
    real space projection operators read in
  non local Contribution for L=           0  read in
    real space projection operators read in
  non local Contribution for L=           1  read in
    real space projection operators read in
  non local Contribution for L=           1  read in
    real space projection operators read in
    PAW grid and wavefunctions read in
 
   number of l-projection  operators is LMAX  =           6
   number of lm-projection operators is LMMAX =          18
 
 PAW_PBE Au 06Sep2000                   :
 energy of atom  1       EATOM= -926.0567
 kinetic energy error for atom=    0.0008 (will be added to EATOM!!)
 
 EXHCAR: internal setup
 exchange correlation table for  LEXCH =        8
   RHO(1)=    0.500       N(1)  =     2000
   RHO(2)=  100.500       N(2)  =     4000
 
 POSCAR: Au                                      
  positions in direct lattice
  velocities in cartesian coordinates
 


--------------------------------------------------------------------------------------------------------


 ion  position               nearest neighbor table
   1  0.000  0.000  0.000-   2 3.13   3 3.13   4 3.13   3 3.13   4 3.13   2 3.13   4 3.13   4 3.13
                             2 3.13   3 3.13   3 3.13   2 3.13
   2  0.500  0.500  0.000-   1 3.13   3 3.13   4 3.13   3 3.13   4 3.13   1 3.13   3 3.13   3 3.13
                             1 3.13   4 3.13   4 3.13   1 3.13
   3  0.500  0.000  0.500-   1 3.13   2 3.13   4 3.13   1 3.13   2 3.13   2 3.13   4 3.13   2 3.13
                             1 3.13   4 3.13   1 3.13   4 3.13
   4  0.000  0.500  0.500-   1 3.13   2 3.13   3 3.13   1 3.13   2 3.13   1 3.13   3 3.13   1 3.13
                             2 3.13   3 3.13   2 3.13   3 3.13
 
  LATTYP: Found a simple cubic cell.
 ALAT       =     4.4232230165
  
  Lattice vectors:
  
 A1 = (   4.4232230165,   0.0000000000,   0.0000000000)
 A2 = (   0.0000000000,   4.4232230165,   0.0000000000)
 A3 = (   0.0000000000,   0.0000000000,   4.4232230165)
 Subroutine PRICEL returns following result:
 
  LATTYP: Found a face centered cubic cell.
 ALAT       =     4.4232230165
  
  Lattice vectors:
  
 A1 = (   2.2116115082,   2.2116115082,   0.0000000000)
 A2 = (   2.2116115082,   0.0000000000,  -2.2116115082)
 A3 = (   0.0000000000,   2.2116115082,  -2.2116115082)
 
   4 primitive cells build up your supercell.
 

Analysis of symmetry for initial positions (statically):

 Routine SETGRP: Setting up the symmetry group for a 
 simple cubic supercell.


 Subroutine GETGRP returns: Found 48 space group operations
 (whereof 48 operations were pure point group operations)
 out of a pool of 48 trial point group operations.


The static configuration has the point symmetry O_h .

Analysis of symmetry for dynamics (positions and initial velocities):

 Subroutine DYNSYM returns: Found 48 space group operations
 (whereof 48 operations were pure point group operations)
 out of a pool of 48 trial space group operations
 (whereof 48 operations were pure point group operations)
 and found also     4 'primitive' translations


The dynamic configuration has the point symmetry O_h .
 
 
 KPOINTS: Automatic mesh                          

Automatic generation of k-mesh.
 
 Subroutine IBZKPT returns following result:
 ===========================================
 
 Found     84 irreducible k-points:
 
 Following reciprocal coordinates:
            Coordinates               Weight
  0.000000  0.000000  0.000000      1.000000
  0.083333  0.000000  0.000000      6.000000
  0.166667  0.000000  0.000000      6.000000
  0.250000  0.000000  0.000000      6.000000
  0.333333  0.000000  0.000000      6.000000
  0.416667  0.000000  0.000000      6.000000
  0.500000  0.000000  0.000000      3.000000
  0.083333  0.083333  0.000000     12.000000
  0.166667  0.083333  0.000000     24.000000
  0.250000  0.083333  0.000000     24.000000
  0.333333  0.083333  0.000000     24.000000
  0.416667  0.083333  0.000000     24.000000
  0.500000  0.083333  0.000000     12.000000
  0.166667  0.166667  0.000000     12.000000
  0.250000  0.166667  0.000000     24.000000
  0.333333  0.166667  0.000000     24.000000
  0.416667  0.166667  0.000000     24.000000
  0.500000  0.166667  0.000000     12.000000
  0.250000  0.250000  0.000000     12.000000
  0.333333  0.250000  0.000000     24.000000
  0.416667  0.250000  0.000000     24.000000
  0.500000  0.250000  0.000000     12.000000
  0.333333  0.333333  0.000000     12.000000
  0.416667  0.333333  0.000000     24.000000
  0.500000  0.333333  0.000000     12.000000
  0.416667  0.416667  0.000000     12.000000
  0.500000  0.416667  0.000000     12.000000
  0.500000  0.500000  0.000000      3.000000
  0.083333  0.083333  0.083333      8.000000
  0.166667  0.083333  0.083333     24.000000
  0.250000  0.083333  0.083333     24.000000
  0.333333  0.083333  0.083333     24.000000
  0.416667  0.083333  0.083333     24.000000
  0.500000  0.083333  0.083333     12.000000
  0.166667  0.166667  0.083333     24.000000
  0.250000  0.166667  0.083333     48.000000
  0.333333  0.166667  0.083333     48.000000
  0.416667  0.166667  0.083333     48.000000
  0.500000  0.166667  0.083333     24.000000
  0.250000  0.250000  0.083333     24.000000
  0.333333  0.250000  0.083333     48.000000
  0.416667  0.250000  0.083333     48.000000
  0.500000  0.250000  0.083333     24.000000
  0.333333  0.333333  0.083333     24.000000
  0.416667  0.333333  0.083333     48.000000
  0.500000  0.333333  0.083333     24.000000
  0.416667  0.416667  0.083333     24.000000
  0.500000  0.416667  0.083333     24.000000
  0.500000  0.500000  0.083333      6.000000
  0.166667  0.166667  0.166667      8.000000
  0.250000  0.166667  0.166667     24.000000
  0.333333  0.166667  0.166667     24.000000
  0.416667  0.166667  0.166667     24.000000
  0.500000  0.166667  0.166667     12.000000
  0.250000  0.250000  0.166667     24.000000
  0.333333  0.250000  0.166667     48.000000
  0.416667  0.250000  0.166667     48.000000
  0.500000  0.250000  0.166667     24.000000
  0.333333  0.333333  0.166667     24.000000
  0.416667  0.333333  0.166667     48.000000
  0.500000  0.333333  0.166667     24.000000
  0.416667  0.416667  0.166667     24.000000
  0.500000  0.416667  0.166667     24.000000
  0.500000  0.500000  0.166667      6.000000
  0.250000  0.250000  0.250000      8.000000
  0.333333  0.250000  0.250000     24.000000
  0.416667  0.250000  0.250000     24.000000
  0.500000  0.250000  0.250000     12.000000
  0.333333  0.333333  0.250000     24.000000
  0.416667  0.333333  0.250000     48.000000
  0.500000  0.333333  0.250000     24.000000
  0.416667  0.416667  0.250000     24.000000
  0.500000  0.416667  0.250000     24.000000
  0.500000  0.500000  0.250000      6.000000
  0.333333  0.333333  0.333333      8.000000
  0.416667  0.333333  0.333333     24.000000
  0.500000  0.333333  0.333333     12.000000
  0.416667  0.416667  0.333333     24.000000
  0.500000  0.416667  0.333333     24.000000
  0.500000  0.500000  0.333333      6.000000
  0.416667  0.416667  0.416667      8.000000
  0.500000  0.416667  0.416667     12.000000
  0.500000  0.500000  0.416667      6.000000
  0.500000  0.500000  0.500000      1.000000
 
 Following cartesian coordinates:
            Coordinates               Weight
  0.000000  0.000000  0.000000      1.000000
  0.019970  0.000000  0.000000      6.000000
  0.039941  0.000000  0.000000      6.000000
  0.059911  0.000000  0.000000      6.000000
  0.079881  0.000000  0.000000      6.000000
  0.099852  0.000000  0.000000      6.000000
  0.119822  0.000000  0.000000      3.000000
  0.019970  0.019970  0.000000     12.000000
  0.039941  0.019970  0.000000     24.000000
  0.059911  0.019970  0.000000     24.000000
  0.079881  0.019970  0.000000     24.000000
  0.099852  0.019970  0.000000     24.000000
  0.119822  0.019970  0.000000     12.000000
  0.039941  0.039941  0.000000     12.000000
  0.059911  0.039941  0.000000     24.000000
  0.079881  0.039941  0.000000     24.000000
  0.099852  0.039941  0.000000     24.000000
  0.119822  0.039941  0.000000     12.000000
  0.059911  0.059911  0.000000     12.000000
  0.079881  0.059911  0.000000     24.000000
  0.099852  0.059911  0.000000     24.000000
  0.119822  0.059911  0.000000     12.000000
  0.079881  0.079881  0.000000     12.000000
  0.099852  0.079881  0.000000     24.000000
  0.119822  0.079881  0.000000     12.000000
  0.099852  0.099852  0.000000     12.000000
  0.119822  0.099852  0.000000     12.000000
  0.119822  0.119822  0.000000      3.000000
  0.019970  0.019970  0.019970      8.000000
  0.039941  0.019970  0.019970     24.000000
  0.059911  0.019970  0.019970     24.000000
  0.079881  0.019970  0.019970     24.000000
  0.099852  0.019970  0.019970     24.000000
  0.119822  0.019970  0.019970     12.000000
  0.039941  0.039941  0.019970     24.000000
  0.059911  0.039941  0.019970     48.000000
  0.079881  0.039941  0.019970     48.000000
  0.099852  0.039941  0.019970     48.000000
  0.119822  0.039941  0.019970     24.000000
  0.059911  0.059911  0.019970     24.000000
  0.079881  0.059911  0.019970     48.000000
  0.099852  0.059911  0.019970     48.000000
  0.119822  0.059911  0.019970     24.000000
  0.079881  0.079881  0.019970     24.000000
  0.099852  0.079881  0.019970     48.000000
  0.119822  0.079881  0.019970     24.000000
  0.099852  0.099852  0.019970     24.000000
  0.119822  0.099852  0.019970     24.000000
  0.119822  0.119822  0.019970      6.000000
  0.039941  0.039941  0.039941      8.000000
  0.059911  0.039941  0.039941     24.000000
  0.079881  0.039941  0.039941     24.000000
  0.099852  0.039941  0.039941     24.000000
  0.119822  0.039941  0.039941     12.000000
  0.059911  0.059911  0.039941     24.000000
  0.079881  0.059911  0.039941     48.000000
  0.099852  0.059911  0.039941     48.000000
  0.119822  0.059911  0.039941     24.000000
  0.079881  0.079881  0.039941     24.000000
  0.099852  0.079881  0.039941     48.000000
  0.119822  0.079881  0.039941     24.000000
  0.099852  0.099852  0.039941     24.000000
  0.119822  0.099852  0.039941     24.000000
  0.119822  0.119822  0.039941      6.000000
  0.059911  0.059911  0.059911      8.000000
  0.079881  0.059911  0.059911     24.000000
  0.099852  0.059911  0.059911     24.000000
  0.119822  0.059911  0.059911     12.000000
  0.079881  0.079881  0.059911     24.000000
  0.099852  0.079881  0.059911     48.000000
  0.119822  0.079881  0.059911     24.000000
  0.099852  0.099852  0.059911     24.000000
  0.119822  0.099852  0.059911     24.000000
  0.119822  0.119822  0.059911      6.000000
  0.079881  0.079881  0.079881      8.000000
  0.099852  0.079881  0.079881     24.000000
  0.119822  0.079881  0.079881     12.000000
  0.099852  0.099852  0.079881     24.000000
  0.119822  0.099852  0.079881     24.000000
  0.119822  0.119822  0.079881      6.000000
  0.099852  0.099852  0.099852      8.000000
  0.119822  0.099852  0.099852     12.000000
  0.119822  0.119822  0.099852      6.000000
  0.119822  0.119822  0.119822      1.000000
 


--------------------------------------------------------------------------------------------------------




 Dimension of arrays:
   k-Points           NKPTS =     84   number of bands    NBANDS=     28
   number of dos      NEDOS =    301   number of ions     NIONS =      4
   non local maximal  LDIM  =      6   non local SUM 2l+1 LMDIM =     18
   total plane-waves  NPLWV =  64000
   max r-space proj   IRMAX =      1   max aug-charges    IRDMAX= 361960
   dimension x,y,z NGX =    40 NGY =   40 NGZ =   40
   dimension x,y,z NGXF=    80 NGYF=   80 NGZF=   80
   support grid    NGXF=   160 NGYF=  160 NGZF=  160
   ions per type =               4
 NGX,Y,Z   is equivalent  to a cutoff of  15.03, 15.03, 15.03 a.u.
 NGXF,Y,Z  is equivalent  to a cutoff of  30.07, 30.07, 30.07 a.u.


 I would recommend the setting:
   dimension x,y,z NGX =    40 NGY =   40 NGZ =   40
 SYSTEM =  unknown system                          
 POSCAR =  Au                                      

 Startparameter for this run:
   NWRITE =      2    write-flag & timer
   PREC   = accura    medium, high low
   ISTART =      0    job   : 0-new  1-cont  2-samecut
   ICHARG =      2    charge: 1-file 2-atom 10-const
   ISPIN  =      1    spin polarized calculation?
   LNONCOLLINEAR =      F non collinear calculations
   LSORBIT =      F    spin-orbit coupling
   INIWAV =      1    electr: 0-lowe 1-rand  2-diag
   LASPH  =      F    aspherical Exc in radial PAW
   METAGGA=      F    non-selfconsistent MetaGGA calc.

 Electronic Relaxation 1
   ENCUT  =  750.0 eV  55.12 Ry    7.42 a.u.   9.88  9.88  9.88*2*pi/ulx,y,z
   ENINI  =  750.0     initial cutoff
   ENAUG  =  356.7 eV  augmentation charge cutoff
   NELM   =     60;   NELMIN=  2; NELMDL=  0     # of ELM steps 
   EDIFF  = 0.1E-07   stopping-criterion for ELM
   LREAL  =      F    real-space projection
   LCOMPAT=      F    compatible to vasp.4.4
   LREAL_COMPAT= F    compatible to vasp.4.5.1-3
   GGA_COMPAT  = T    GGA compatible to vasp.4.4-vasp.4.6
   LMAXPAW     = -100 max onsite density
   LMAXMIX     =    2 max onsite mixed and CHGCAR
   VOSKOWN=      0    Vosko Wilk Nusair interpolation
   ROPT   =    0.00000
 Ionic relaxation
   EDIFFG = 0.1E-06   stopping-criterion for IOM
   NSW    =      0    number of steps for IOM
   NBLOCK =      1;   KBLOCK =      1    inner block; outer block 
   IBRION =     -1    ionic relax: 0-MD 1-quasi-New 2-CG
   NFREE  =      0    steps in history (QN), initial steepest desc. (CG)
   ISIF   =      2    stress and relaxation
   IWAVPR =     10    prediction:  0-non 1-charg 2-wave 3-comb
   ISYM   =      2    0-nonsym 1-usesym 2-fastsym
   LCORR  =      T    Harris-Foulkes like correction to forces

   POTIM  =   0.50    time-step for ionic-motion
   TEIN   =    0.0    initial temperature
   TEBEG  =    0.0;   TEEND  =   0.0 temperature during run
   SMASS  =  -3.00    Nose mass-parameter (am)
   estimated Nose-frequenzy (Omega)   =  0.10E-29 period in steps =****** mass=  -0.447E-27a.u.
   NPACO  =    256;   APACO  = 16.0  distance and # of slots for P.C.
   PSTRESS=    0.0 pullay stress

  Mass of Ions in am
   POMASS = 196.97
  Ionic Valenz
   ZVAL   =  11.00
  Atomic Wigner-Seitz radii
   RWIGS  =  -1.00
   NELECT =      44.0000    total number of electrons
   NUPDOWN=      -1.0000    fix difference up-down

 DOS related values:
   EMIN   =  10.00;   EMAX   =-10.00  energy-range for DOS
   ISMEAR =     0;   SIGMA  =   0.01  broadening in eV -4-tet -1-fermi 0-gaus

 Electronic relaxation 2 (details)
   IALGO  =     38    algorithm
   LDIAG  =      T    sub-space diagonalisation
   IMIX   =      4    mixing-type and parameters
     AMIX     =   0.40;   BMIX     =  1.00
     AMIX_MAG =   1.60;   BMIX_MAG =  1.00
     AMIN     =   0.10
     WC   =   100.;   INIMIX=   1;  MIXPRE=   1

 Intra band minimization:
   WEIMIN = 0.0000     energy-eigenvalue tresh-hold
   EBREAK =  0.96E-10  absolut break condition
   DEPER  =   0.30     relativ break condition  

   TIME   =   0.10     timestep for ELM

  volume/ion in A,a.u.               =      21.63       146.00
  Fermi-wavevector in a.u.,eV,Ry     =   1.306633 23.229080  1.707289

 Second variation
   LSECVAR=     F    do a second variation
 
 Write flags
   LWAVE  =      F    write WAVECAR
   LCHARG =      F    write CHGCAR
   LVTOT  =      F    write LOCPOT, local potential
   LELF   =      F    write electronic localiz. function (ELF)
   LORBIT =      0    0 simple, 1 ext, 2 COOP (PROOUT)


 Dipole corrections
   IDIPOL =      0    1-x, 2-y, 3-z
   LDIPOL =      F    correct potential



--------------------------------------------------------------------------------------------------------


 Static calculation
 charge density will be updated during run
 non-spin polarized calculation
 Variant of blocked Davidson
 Davidson routine will perform the subspace rotation
 performe sub-space diagonalisation
    after iterative eigenvector-optimisation
 modified Broyden-mixing scheme, WC =      100.0
 initial mixing is a Kerker type mixing with AMIX =  0.4000 and BMIX =      1.0000
 Hartree-type preconditioning will be used
 using additional bands            6
 reciprocal scheme for non local part
 use partial core corrections
 calculate Harris-corrections to forces 
   (improved forces if not selfconsistent)
 use gradient corrections 
 use of overlap-Matrix (Vanderbilt PP)
 Gauss-broadening in eV      SIGMA  =   0.01


--------------------------------------------------------------------------------------------------------


  energy-cutoff  :      750.00
  volume of cell :       86.54
      direct lattice vectors                 reciprocal lattice vectors
     4.423223016  0.000000000  0.000000000     0.226079489  0.000000000  0.000000000
     0.000000000  4.423223016  0.000000000     0.000000000  0.226079489  0.000000000
     0.000000000  0.000000000  4.423223016     0.000000000  0.000000000  0.226079489

  length of vectors
     4.423223016  4.423223016  4.423223016     0.226079489  0.226079489  0.226079489


 
 k-points in units of 2pi/SCALE and weight: Automatic mesh                          
   0.00000000  0.00000000  0.00000000       0.001
   0.01997035  0.00000000  0.00000000       0.003
   0.03994071  0.00000000  0.00000000       0.003
   0.05991106  0.00000000  0.00000000       0.003
   0.07988142  0.00000000  0.00000000       0.003
   0.09985177  0.00000000  0.00000000       0.003
   0.11982213  0.00000000  0.00000000       0.002
   0.01997035  0.01997035  0.00000000       0.007
   0.03994071  0.01997035  0.00000000       0.014
   0.05991106  0.01997035  0.00000000       0.014
   0.07988142  0.01997035  0.00000000       0.014
   0.09985177  0.01997035  0.00000000       0.014
   0.11982213  0.01997035  0.00000000       0.007
   0.03994071  0.03994071  0.00000000       0.007
   0.05991106  0.03994071  0.00000000       0.014
   0.07988142  0.03994071  0.00000000       0.014
   0.09985177  0.03994071  0.00000000       0.014
   0.11982213  0.03994071  0.00000000       0.007
   0.05991106  0.05991106  0.00000000       0.007
   0.07988142  0.05991106  0.00000000       0.014
   0.09985177  0.05991106  0.00000000       0.014
   0.11982213  0.05991106  0.00000000       0.007
   0.07988142  0.07988142  0.00000000       0.007
   0.09985177  0.07988142  0.00000000       0.014
   0.11982213  0.07988142  0.00000000       0.007
   0.09985177  0.09985177  0.00000000       0.007
   0.11982213  0.09985177  0.00000000       0.007
   0.11982213  0.11982213  0.00000000       0.002
   0.01997035  0.01997035  0.01997035       0.005
   0.03994071  0.01997035  0.01997035       0.014
   0.05991106  0.01997035  0.01997035       0.014
   0.07988142  0.01997035  0.01997035       0.014
   0.09985177  0.01997035  0.01997035       0.014
   0.11982213  0.01997035  0.01997035       0.007
   0.03994071  0.03994071  0.01997035       0.014
   0.05991106  0.03994071  0.01997035       0.028
   0.07988142  0.03994071  0.01997035       0.028
   0.09985177  0.03994071  0.01997035       0.028
   0.11982213  0.03994071  0.01997035       0.014
   0.05991106  0.05991106  0.01997035       0.014
   0.07988142  0.05991106  0.01997035       0.028
   0.09985177  0.05991106  0.01997035       0.028
   0.11982213  0.05991106  0.01997035       0.014
   0.07988142  0.07988142  0.01997035       0.014
   0.09985177  0.07988142  0.01997035       0.028
   0.11982213  0.07988142  0.01997035       0.014
   0.09985177  0.09985177  0.01997035       0.014
   0.11982213  0.09985177  0.01997035       0.014
   0.11982213  0.11982213  0.01997035       0.003
   0.03994071  0.03994071  0.03994071       0.005
   0.05991106  0.03994071  0.03994071       0.014
   0.07988142  0.03994071  0.03994071       0.014
   0.09985177  0.03994071  0.03994071       0.014
   0.11982213  0.03994071  0.03994071       0.007
   0.05991106  0.05991106  0.03994071       0.014
   0.07988142  0.05991106  0.03994071       0.028
   0.09985177  0.05991106  0.03994071       0.028
   0.11982213  0.05991106  0.03994071       0.014
   0.07988142  0.07988142  0.03994071       0.014
   0.09985177  0.07988142  0.03994071       0.028
   0.11982213  0.07988142  0.03994071       0.014
   0.09985177  0.09985177  0.03994071       0.014
   0.11982213  0.09985177  0.03994071       0.014
   0.11982213  0.11982213  0.03994071       0.003
   0.05991106  0.05991106  0.05991106       0.005
   0.07988142  0.05991106  0.05991106       0.014
   0.09985177  0.05991106  0.05991106       0.014
   0.11982213  0.05991106  0.05991106       0.007
   0.07988142  0.07988142  0.05991106       0.014
   0.09985177  0.07988142  0.05991106       0.028
   0.11982213  0.07988142  0.05991106       0.014
   0.09985177  0.09985177  0.05991106       0.014
   0.11982213  0.09985177  0.05991106       0.014
   0.11982213  0.11982213  0.05991106       0.003
   0.07988142  0.07988142  0.07988142       0.005
   0.09985177  0.07988142  0.07988142       0.014
   0.11982213  0.07988142  0.07988142       0.007
   0.09985177  0.09985177  0.07988142       0.014
   0.11982213  0.09985177  0.07988142       0.014
   0.11982213  0.11982213  0.07988142       0.003
   0.09985177  0.09985177  0.09985177       0.005
   0.11982213  0.09985177  0.09985177       0.007
   0.11982213  0.11982213  0.09985177       0.003
   0.11982213  0.11982213  0.11982213       0.001
 
 k-points in reciprocal lattice and weights: Automatic mesh                          
   0.00000000  0.00000000  0.00000000       0.001
   0.08333333  0.00000000  0.00000000       0.003
   0.16666667  0.00000000  0.00000000       0.003
   0.25000000  0.00000000  0.00000000       0.003
   0.33333333  0.00000000  0.00000000       0.003
   0.41666667  0.00000000  0.00000000       0.003
   0.50000000  0.00000000  0.00000000       0.002
   0.08333333  0.08333333  0.00000000       0.007
   0.16666667  0.08333333  0.00000000       0.014
   0.25000000  0.08333333  0.00000000       0.014
   0.33333333  0.08333333  0.00000000       0.014
   0.41666667  0.08333333  0.00000000       0.014
   0.50000000  0.08333333  0.00000000       0.007
   0.16666667  0.16666667  0.00000000       0.007
   0.25000000  0.16666667  0.00000000       0.014
   0.33333333  0.16666667  0.00000000       0.014
   0.41666667  0.16666667  0.00000000       0.014
   0.50000000  0.16666667  0.00000000       0.007
   0.25000000  0.25000000  0.00000000       0.007
   0.33333333  0.25000000  0.00000000       0.014
   0.41666667  0.25000000  0.00000000       0.014
   0.50000000  0.25000000  0.00000000       0.007
   0.33333333  0.33333333  0.00000000       0.007
   0.41666667  0.33333333  0.00000000       0.014
   0.50000000  0.33333333  0.00000000       0.007
   0.41666667  0.41666667  0.00000000       0.007
   0.50000000  0.41666667  0.00000000       0.007
   0.50000000  0.50000000  0.00000000       0.002
   0.08333333  0.08333333  0.08333333       0.005
   0.16666667  0.08333333  0.08333333       0.014
   0.25000000  0.08333333  0.08333333       0.014
   0.33333333  0.08333333  0.08333333       0.014
   0.41666667  0.08333333  0.08333333       0.014
   0.50000000  0.08333333  0.08333333       0.007
   0.16666667  0.16666667  0.08333333       0.014
   0.25000000  0.16666667  0.08333333       0.028
   0.33333333  0.16666667  0.08333333       0.028
   0.41666667  0.16666667  0.08333333       0.028
   0.50000000  0.16666667  0.08333333       0.014
   0.25000000  0.25000000  0.08333333       0.014
   0.33333333  0.25000000  0.08333333       0.028
   0.41666667  0.25000000  0.08333333       0.028
   0.50000000  0.25000000  0.08333333       0.014
   0.33333333  0.33333333  0.08333333       0.014
   0.41666667  0.33333333  0.08333333       0.028
   0.50000000  0.33333333  0.08333333       0.014
   0.41666667  0.41666667  0.08333333       0.014
   0.50000000  0.41666667  0.08333333       0.014
   0.50000000  0.50000000  0.08333333       0.003
   0.16666667  0.16666667  0.16666667       0.005
   0.25000000  0.16666667  0.16666667       0.014
   0.33333333  0.16666667  0.16666667       0.014
   0.41666667  0.16666667  0.16666667       0.014
   0.50000000  0.16666667  0.16666667       0.007
   0.25000000  0.25000000  0.16666667       0.014
   0.33333333  0.25000000  0.16666667       0.028
   0.41666667  0.25000000  0.16666667       0.028
   0.50000000  0.25000000  0.16666667       0.014
   0.33333333  0.33333333  0.16666667       0.014
   0.41666667  0.33333333  0.16666667       0.028
   0.50000000  0.33333333  0.16666667       0.014
   0.41666667  0.41666667  0.16666667       0.014
   0.50000000  0.41666667  0.16666667       0.014
   0.50000000  0.50000000  0.16666667       0.003
   0.25000000  0.25000000  0.25000000       0.005
   0.33333333  0.25000000  0.25000000       0.014
   0.41666667  0.25000000  0.25000000       0.014
   0.50000000  0.25000000  0.25000000       0.007
   0.33333333  0.33333333  0.25000000       0.014
   0.41666667  0.33333333  0.25000000       0.028
   0.50000000  0.33333333  0.25000000       0.014
   0.41666667  0.41666667  0.25000000       0.014
   0.50000000  0.41666667  0.25000000       0.014
   0.50000000  0.50000000  0.25000000       0.003
   0.33333333  0.33333333  0.33333333       0.005
   0.41666667  0.33333333  0.33333333       0.014
   0.50000000  0.33333333  0.33333333       0.007
   0.41666667  0.41666667  0.33333333       0.014
   0.50000000  0.41666667  0.33333333       0.014
   0.50000000  0.50000000  0.33333333       0.003
   0.41666667  0.41666667  0.41666667       0.005
   0.50000000  0.41666667  0.41666667       0.007
   0.50000000  0.50000000  0.41666667       0.003
   0.50000000  0.50000000  0.50000000       0.001
 
 position of ions in fractional coordinates (direct lattice) 
   0.00000000  0.00000000  0.00000000
   0.50000000  0.50000000  0.00000000
   0.50000000  0.00000000  0.50000000
   0.00000000  0.50000000  0.50000000
 
 position of ions in cartesian coordinates  (Angst):
   0.00000000  0.00000000  0.00000000
   2.21161151  2.21161151  0.00000000
   2.21161151  0.00000000  2.21161151
   0.00000000  2.21161151  2.21161151
 


--------------------------------------------------------------------------------------------------------


 k-point  1 :  0.00000.00000.0000  plane waves:   3959
 k-point  2 :  0.08330.00000.0000  plane waves:   3987
 k-point  3 :  0.16670.00000.0000  plane waves:   4008
 k-point  4 :  0.25000.00000.0000  plane waves:   4012
 k-point  5 :  0.33330.00000.0000  plane waves:   4048
 k-point  6 :  0.41670.00000.0000  plane waves:   4052
 k-point  7 :  0.50000.00000.0000  plane waves:   4068
 k-point  8 :  0.08330.08330.0000  plane waves:   3998
 k-point  9 :  0.16670.08330.0000  plane waves:   4006
 k-point 10 :  0.25000.08330.0000  plane waves:   4027
 k-point 11 :  0.33330.08330.0000  plane waves:   4035
 k-point 12 :  0.41670.08330.0000  plane waves:   4041
 k-point 13 :  0.50000.08330.0000  plane waves:   4034
 k-point 14 :  0.16670.16670.0000  plane waves:   4034
 k-point 15 :  0.25000.16670.0000  plane waves:   4024
 k-point 16 :  0.33330.16670.0000  plane waves:   4039
 k-point 17 :  0.41670.16670.0000  plane waves:   4044
 k-point 18 :  0.50000.16670.0000  plane waves:   4020
 k-point 19 :  0.25000.25000.0000  plane waves:   4032
 k-point 20 :  0.33330.25000.0000  plane waves:   4051
 k-point 21 :  0.41670.25000.0000  plane waves:   4041
 k-point 22 :  0.50000.25000.0000  plane waves:   4044
 k-point 23 :  0.33330.33330.0000  plane waves:   4032
 k-point 24 :  0.41670.33330.0000  plane waves:   4042
 k-point 25 :  0.50000.33330.0000  plane waves:   4042
 k-point 26 :  0.41670.41670.0000  plane waves:   4028
 k-point 27 :  0.50000.41670.0000  plane waves:   4046
 k-point 28 :  0.50000.50000.0000  plane waves:   4076
 k-point 29 :  0.08330.08330.0833  plane waves:   3995
 k-point 30 :  0.16670.08330.0833  plane waves:   4016
 k-point 31 :  0.25000.08330.0833  plane waves:   4023
 k-point 32 :  0.33330.08330.0833  plane waves:   4031
 k-point 33 :  0.41670.08330.0833  plane waves:   4038
 k-point 34 :  0.50000.08330.0833  plane waves:   4046
 k-point 35 :  0.16670.16670.0833  plane waves:   4013
 k-point 36 :  0.25000.16670.0833  plane waves:   4024
 k-point 37 :  0.33330.16670.0833  plane waves:   4040
 k-point 38 :  0.41670.16670.0833  plane waves:   4045
 k-point 39 :  0.50000.16670.0833  plane waves:   4036
 k-point 40 :  0.25000.25000.0833  plane waves:   4041
 k-point 41 :  0.33330.25000.0833  plane waves:   4039
 k-point 42 :  0.41670.25000.0833  plane waves:   4038
 k-point 43 :  0.50000.25000.0833  plane waves:   4036
 k-point 44 :  0.33330.33330.0833  plane waves:   4027
 k-point 45 :  0.41670.33330.0833  plane waves:   4046
 k-point 46 :  0.50000.33330.0833  plane waves:   4052
 k-point 47 :  0.41670.41670.0833  plane waves:   4041
 k-point 48 :  0.50000.41670.0833  plane waves:   4038
 k-point 49 :  0.50000.50000.0833  plane waves:   4044
 k-point 50 :  0.16670.16670.1667  plane waves:   4025
 k-point 51 :  0.25000.16670.1667  plane waves:   4031
 k-point 52 :  0.33330.16670.1667  plane waves:   4047
 k-point 53 :  0.41670.16670.1667  plane waves:   4028
 k-point 54 :  0.50000.16670.1667  plane waves:   4022
 k-point 55 :  0.25000.25000.1667  plane waves:   4041
 k-point 56 :  0.33330.25000.1667  plane waves:   4041
 k-point 57 :  0.41670.25000.1667  plane waves:   4037
 k-point 58 :  0.50000.25000.1667  plane waves:   4040
 k-point 59 :  0.33330.33330.1667  plane waves:   4030
 k-point 60 :  0.41670.33330.1667  plane waves:   4037
 k-point 61 :  0.50000.33330.1667  plane waves:   4048
 k-point 62 :  0.41670.41670.1667  plane waves:   4042
 k-point 63 :  0.50000.41670.1667  plane waves:   4042
 k-point 64 :  0.50000.50000.1667  plane waves:   4052
 k-point 65 :  0.25000.25000.2500  plane waves:   4025
 k-point 66 :  0.33330.25000.2500  plane waves:   4030
 k-point 67 :  0.41670.25000.2500  plane waves:   4035
 k-point 68 :  0.50000.25000.2500  plane waves:   4028
 k-point 69 :  0.33330.33330.2500  plane waves:   4032
 k-point 70 :  0.41670.33330.2500  plane waves:   4036
 k-point 71 :  0.50000.33330.2500  plane waves:   4038
 k-point 72 :  0.41670.41670.2500  plane waves:   4034
 k-point 73 :  0.50000.41670.2500  plane waves:   4046
 k-point 74 :  0.50000.50000.2500  plane waves:   4032
 k-point 75 :  0.33330.33330.3333  plane waves:   4032
 k-point 76 :  0.41670.33330.3333  plane waves:   4034
 k-point 77 :  0.50000.33330.3333  plane waves:   4050
 k-point 78 :  0.41670.41670.3333  plane waves:   4043
 k-point 79 :  0.50000.41670.3333  plane waves:   4048
 k-point 80 :  0.50000.50000.3333  plane waves:   4024
 k-point 81 :  0.41670.41670.4167  plane waves:   4038
 k-point 82 :  0.50000.41670.4167  plane waves:   4034
 k-point 83 :  0.50000.50000.4167  plane waves:   4040
 k-point 84 :  0.50000.50000.5000  plane waves:   4032

 maximum and minimum number of plane-waves per node :   4076  3959

 maximum number of plane-waves:   4076
 maximal index in each direction: 
   IXMAX=  9   IYMAX=  9   IZMAX=  9
   IXMIN=-10   IYMIN=-10   IZMIN=-10

 NGX is ok and might be reduce to  40
 NGY is ok and might be reduce to  40
 NGZ is ok and might be reduce to  40

 parallel 3dFFT wavefunction:
    minimum data exchange during FFTs selected (reduces bandwidth)
 parallel 3dFFT charge:
    minimum data exchange during FFTs selected (reduces bandwidth)

 For storing wavefunctions  151.81 MBYTES are necessary
 For predicting wavefunctions    5.03 MBYTES are necessary
Broyden mixing: mesh for mixing (old mesh)
   NGX = 19   NGY = 19   NGZ = 19
  (NGX  = 80   NGY  = 80   NGZ  = 80)
 gives a total of   6859 points
 initial charge density was supplied:
 charge density of overlapping atoms calculated
 number of electron   44.0000000 magnetization 
 keeping initial charge density in first step


--------------------------------------------------------------------------------------------------------


 Maximum index for augmentation-charges        87633 (set IRDMAX)


--------------------------------------------------------------------------------------------------------


 First call to EWALD:  gamma=   0.401
 Maximum number of real-space cells 3x 3x 3
 Maximum number of reciprocal cells 3x 3x 3

    FEWALD:  VPU time    0.00: CPU time    0.00


----------------------------------------- Iteration    1(   1)  ---------------------------------------


    POTLOK:  VPU time    0.23: CPU time    0.23
    SETDIJ:  VPU time    0.83: CPU time    0.83
    EDDAV :  VPU time   20.69: CPU time   20.72
    DOS   :  VPU time    0.00: CPU time   -0.00
    ------------------------------------------
      LOOP:  VPU time   21.76: CPU time   21.79

 eigenvalue-minimisations  :  4704
 total energy-change (2. order) : 0.5103528E+03  (-0.2617762E+04)
 number of electron   44.0000000 magnetization 
 augmentation part    44.0000000 magnetization 

 Free energy of the ion-electron system (eV)
  ---------------------------------------------------
  alpha Z        PSCENC =       346.25783047
  Ewald energy   TEWEN  =     -3612.09265728
  -1/2 Hartree   DENC   =      -623.66231755
  -V(xc)+E(xc)   XCENC  =        58.52611149
  PAW double counting   =      2990.04966927    -2896.51663641
  entropy T*S    EENTRO =        -0.00009776
  eigenvalues    EBANDS =       543.56712720
  atomic energy  EATOM  =      3704.22372399
  ---------------------------------------------------
  free energy    TOTEN  =       510.35275342 eV

  energy without entropy =      510.35285119  energy(sigma->0) =      510.35280230


--------------------------------------------------------------------------------------------------------




----------------------------------------- Iteration    1(   2)  ---------------------------------------


    EDDAV :  VPU time   20.72: CPU time   20.74
    DOS   :  VPU time    0.00: CPU time   -0.00
    ------------------------------------------
      LOOP:  VPU time   20.73: CPU time   20.75

 eigenvalue-minimisations  :  4736
 total energy-change (2. order) :-0.4986791E+03  (-0.4730281E+03)
 number of electron   44.0000000 magnetization 
 augmentation part    44.0000000 magnetization 

 Free energy of the ion-electron system (eV)
  ---------------------------------------------------
  alpha Z        PSCENC =       346.25783047
  Ewald energy   TEWEN  =     -3612.09265728
  -1/2 Hartree   DENC   =      -623.66231755
  -V(xc)+E(xc)   XCENC  =        58.52611149
  PAW double counting   =      2990.04966927    -2896.51663641
  entropy T*S    EENTRO =        -0.00009710
  eigenvalues    EBANDS =        44.88802811
  atomic energy  EATOM  =      3704.22372399
  ---------------------------------------------------
  free energy    TOTEN  =        11.67365499 eV

  energy without entropy =       11.67375210  energy(sigma->0) =       11.67370354


--------------------------------------------------------------------------------------------------------




----------------------------------------- Iteration    1(   3)  ---------------------------------------


    EDDAV :  VPU time   22.38: CPU time   22.40
    DOS   :  VPU time    0.00: CPU time   -0.00
    ------------------------------------------
      LOOP:  VPU time   22.39: CPU time   22.42

 eigenvalue-minimisations  :  5312
 total energy-change (2. order) :-0.2432606E+02  (-0.2313158E+02)
 number of electron   44.0000000 magnetization 
 augmentation part    44.0000000 magnetization 

 Free energy of the ion-electron system (eV)
  ---------------------------------------------------
  alpha Z        PSCENC =       346.25783047
  Ewald energy   TEWEN  =     -3612.09265728
  -1/2 Hartree   DENC   =      -623.66231755
  -V(xc)+E(xc)   XCENC  =        58.52611149
  PAW double counting   =      2990.04966927    -2896.51663641
  entropy T*S    EENTRO =        -0.00009349
  eigenvalues    EBANDS =        20.56196228
  atomic energy  EATOM  =      3704.22372399
  ---------------------------------------------------
  free energy    TOTEN  =       -12.65240722 eV

  energy without entropy =      -12.65231374  energy(sigma->0) =      -12.65236048


--------------------------------------------------------------------------------------------------------




----------------------------------------- Iteration    1(   4)  ---------------------------------------


    EDDAV :  VPU time   21.51: CPU time   21.53
    DOS   :  VPU time    0.00: CPU time   -0.00
    ------------------------------------------
      LOOP:  VPU time   21.52: CPU time   21.54

 eigenvalue-minimisations  :  4940
 total energy-change (2. order) :-0.5354391E+00  (-0.5331802E+00)
 number of electron   44.0000000 magnetization 
 augmentation part    44.0000000 magnetization 

 Free energy of the ion-electron system (eV)
  ---------------------------------------------------
  alpha Z        PSCENC =       346.25783047
  Ewald energy   TEWEN  =     -3612.09265728
  -1/2 Hartree   DENC   =      -623.66231755
  -V(xc)+E(xc)   XCENC  =        58.52611149
  PAW double counting   =      2990.04966927    -2896.51663641
  entropy T*S    EENTRO =        -0.00013906
  eigenvalues    EBANDS =        20.02656875
  atomic energy  EATOM  =      3704.22372399
  ---------------------------------------------------
  free energy    TOTEN  =       -13.18784632 eV

  energy without entropy =      -13.18770727  energy(sigma->0) =      -13.18777679


--------------------------------------------------------------------------------------------------------




----------------------------------------- Iteration    1(   5)  ---------------------------------------


    EDDAV :  VPU time   21.86: CPU time   21.88
    DOS   :  VPU time   -0.00: CPU time   -0.00
    CHARGE:  VPU time    1.57: CPU time    1.57
    MIXING:  VPU time    0.01: CPU time    0.01
    ------------------------------------------
      LOOP:  VPU time   23.44: CPU time   23.46

 eigenvalue-minimisations  :  5056
 total energy-change (2. order) :-0.5540664E-02  (-0.5539221E-02)
 number of electron   44.0000000 magnetization 
 augmentation part    15.6571878 magnetization 

 Broyden mixing:
  rms(total) = 0.51335E+00    rms(broyden)= 0.51335E+00
  rms(prec ) = 0.12896E+01
  weight for this iteration     100.00

 Free energy of the ion-electron system (eV)
  ---------------------------------------------------
  alpha Z        PSCENC =       346.25783047
  Ewald energy   TEWEN  =     -3612.09265728
  -1/2 Hartree   DENC   =      -623.66231755
  -V(xc)+E(xc)   XCENC  =        58.52611149
  PAW double counting   =      2990.04966927    -2896.51663641
  entropy T*S    EENTRO =        -0.00013907
  eigenvalues    EBANDS =        20.02102810
  atomic energy  EATOM  =      3704.22372399
  ---------------------------------------------------
  free energy    TOTEN  =       -13.19338699 eV

  energy without entropy =      -13.19324791  energy(sigma->0) =      -13.19331745


--------------------------------------------------------------------------------------------------------




----------------------------------------- Iteration    1(   6)  ---------------------------------------


    POTLOK:  VPU time    0.23: CPU time    0.23
    SETDIJ:  VPU time    0.82: CPU time    0.83
    EDDAV :  VPU time   21.43: CPU time   21.44
    DOS   :  VPU time    0.00: CPU time   -0.00
    CHARGE:  VPU time    1.55: CPU time    1.55
    MIXING:  VPU time    0.01: CPU time    0.01
    ------------------------------------------
      LOOP:  VPU time   24.05: CPU time   24.07

 eigenvalue-minimisations  :  4904
 total energy-change (2. order) : 0.8226792E+00  (-0.2521784E+00)
 number of electron   44.0000001 magnetization 
 augmentation part    16.2208342 magnetization 

 Broyden mixing:
  rms(total) = 0.12249E+00    rms(broyden)= 0.12249E+00
  rms(prec ) = 0.26734E+00
  weight for this iteration     100.00

 eigenvalues of (default mixing * dielectric matrix)
  average eigenvalue GAMMA=   1.1146
  1.1146

 Free energy of the ion-electron system (eV)
  ---------------------------------------------------
  alpha Z        PSCENC =       346.25783047
  Ewald energy   TEWEN  =     -3612.09265728
  -1/2 Hartree   DENC   =      -592.55389738
  -V(xc)+E(xc)   XCENC  =        57.14003213
  PAW double counting   =      2932.18758942    -2841.90794500
  entropy T*S    EENTRO =        -0.00021332
  eigenvalues    EBANDS =        -5.62517077
  atomic energy  EATOM  =      3704.22372399
  ---------------------------------------------------
  free energy    TOTEN  =       -12.37070774 eV

  energy without entropy =      -12.37049442  energy(sigma->0) =      -12.37060108


--------------------------------------------------------------------------------------------------------




----------------------------------------- Iteration    1(   7)  ---------------------------------------


    POTLOK:  VPU time    0.23: CPU time    0.23
    SETDIJ:  VPU time    0.83: CPU time    0.83
    EDDAV :  VPU time   21.41: CPU time   21.43
    DOS   :  VPU time    0.00: CPU time   -0.00
    CHARGE:  VPU time    1.53: CPU time    1.53
    MIXING:  VPU time    0.01: CPU time    0.01
    ------------------------------------------
      LOOP:  VPU time   24.01: CPU time   24.04

 eigenvalue-minimisations  :  4912
 total energy-change (2. order) : 0.2409903E-01  (-0.9435548E-02)
 number of electron   44.0000001 magnetization 
 augmentation part    16.3132167 magnetization 

 Broyden mixing:
  rms(total) = 0.63486E-01    rms(broyden)= 0.63486E-01
  rms(prec ) = 0.10039E+00
  weight for this iteration     100.00

 eigenvalues of (default mixing * dielectric matrix)
  average eigenvalue GAMMA=   1.8024
  1.1397  2.4651

 Free energy of the ion-electron system (eV)
  ---------------------------------------------------
  alpha Z        PSCENC =       346.25783047
  Ewald energy   TEWEN  =     -3612.09265728
  -1/2 Hartree   DENC   =      -585.85828307
  -V(xc)+E(xc)   XCENC  =        56.81860203
  PAW double counting   =      2925.18911700    -2836.62314627
  entropy T*S    EENTRO =        -0.00013520
  eigenvalues    EBANDS =       -10.26166039
  atomic energy  EATOM  =      3704.22372399
  ---------------------------------------------------
  free energy    TOTEN  =       -12.34660872 eV

  energy without entropy =      -12.34647352  energy(sigma->0) =      -12.34654112


--------------------------------------------------------------------------------------------------------




----------------------------------------- Iteration    1(   8)  ---------------------------------------


    POTLOK:  VPU time    0.23: CPU time    0.23
    SETDIJ:  VPU time    0.83: CPU time    0.84
    EDDAV :  VPU time   21.17: CPU time   21.19
    DOS   :  VPU time    0.00: CPU time   -0.00
    CHARGE:  VPU time    1.57: CPU time    1.58
    MIXING:  VPU time    0.01: CPU time    0.01
    ------------------------------------------
      LOOP:  VPU time   23.83: CPU time   23.85

 eigenvalue-minimisations  :  4828
 total energy-change (2. order) : 0.4495771E-02  (-0.6673069E-03)
 number of electron   44.0000001 magnetization 
 augmentation part    16.3118382 magnetization 

 Broyden mixing:
  rms(total) = 0.50211E-02    rms(broyden)= 0.50209E-02
  rms(prec ) = 0.85846E-02
  weight for this iteration     100.00

 eigenvalues of (default mixing * dielectric matrix)
  average eigenvalue GAMMA=   1.7607
  2.6209  1.1627  1.4985

 Free energy of the ion-electron system (eV)
  ---------------------------------------------------
  alpha Z        PSCENC =       346.25783047
  Ewald energy   TEWEN  =     -3612.09265728
  -1/2 Hartree   DENC   =      -582.95655590
  -V(xc)+E(xc)   XCENC  =        56.65413297
  PAW double counting   =      2930.79700869    -2843.88317184
  entropy T*S    EENTRO =        -0.00013012
  eigenvalues    EBANDS =       -11.34229394
  atomic energy  EATOM  =      3704.22372399
  ---------------------------------------------------
  free energy    TOTEN  =       -12.34211295 eV

  energy without entropy =      -12.34198283  energy(sigma->0) =      -12.34204789


--------------------------------------------------------------------------------------------------------




----------------------------------------- Iteration    1(   9)  ---------------------------------------


    POTLOK:  VPU time    0.22: CPU time    0.23
    SETDIJ:  VPU time    0.83: CPU time    0.83
    EDDAV :  VPU time   22.17: CPU time   22.19
    DOS   :  VPU time    0.00: CPU time   -0.00
    CHARGE:  VPU time    1.53: CPU time    1.53
    MIXING:  VPU time    0.01: CPU time    0.01
    ------------------------------------------
      LOOP:  VPU time   24.77: CPU time   24.80

 eigenvalue-minimisations  :  5144
 total energy-change (2. order) :-0.5547121E-04  (-0.4491226E-04)
 number of electron   44.0000001 magnetization 
 augmentation part    16.3190344 magnetization 

 Broyden mixing:
  rms(total) = 0.27842E-02    rms(broyden)= 0.27842E-02
  rms(prec ) = 0.57533E-02
  weight for this iteration     100.00

 eigenvalues of (default mixing * dielectric matrix)
  average eigenvalue GAMMA=   1.7938
  2.6307  2.4555  1.0888  1.0003

 Free energy of the ion-electron system (eV)
  ---------------------------------------------------
  alpha Z        PSCENC =       346.25783047
  Ewald energy   TEWEN  =     -3612.09265728
  -1/2 Hartree   DENC   =      -582.65621011
  -V(xc)+E(xc)   XCENC  =        56.63935386
  PAW double counting   =      2931.63573942    -2844.66481493
  entropy T*S    EENTRO =        -0.00013189
  eigenvalues    EBANDS =       -11.68500195
  atomic energy  EATOM  =      3704.22372399
  ---------------------------------------------------
  free energy    TOTEN  =       -12.34216842 eV

  energy without entropy =      -12.34203653  energy(sigma->0) =      -12.34210247


--------------------------------------------------------------------------------------------------------




----------------------------------------- Iteration    1(  10)  ---------------------------------------


    POTLOK:  VPU time    0.23: CPU time    0.23
    SETDIJ:  VPU time    0.84: CPU time    0.84
    EDDAV :  VPU time   21.00: CPU time   21.02
    DOS   :  VPU time    0.00: CPU time   -0.00
    CHARGE:  VPU time    1.56: CPU time    1.56
    MIXING:  VPU time    0.01: CPU time    0.01
    ------------------------------------------
      LOOP:  VPU time   23.64: CPU time   23.66

 eigenvalue-minimisations  :  4808
 total energy-change (2. order) :-0.5492987E-05  (-0.4917059E-05)
 number of electron   44.0000001 magnetization 
 augmentation part    16.3175301 magnetization 

 Broyden mixing:
  rms(total) = 0.33552E-03    rms(broyden)= 0.33551E-03
  rms(prec ) = 0.64662E-03
  weight for this iteration     100.00

 eigenvalues of (default mixing * dielectric matrix)
  average eigenvalue GAMMA=   1.8180
  2.9802  2.4084  1.0603  1.0603  1.5807

 Free energy of the ion-electron system (eV)
  ---------------------------------------------------
  alpha Z        PSCENC =       346.25783047
  Ewald energy   TEWEN  =     -3612.09265728
  -1/2 Hartree   DENC   =      -582.83211857
  -V(xc)+E(xc)   XCENC  =        56.64618943
  PAW double counting   =      2932.92138233    -2845.86182884
  entropy T*S    EENTRO =        -0.00012917
  eigenvalues    EBANDS =       -11.60456627
  atomic energy  EATOM  =      3704.22372399
  ---------------------------------------------------
  free energy    TOTEN  =       -12.34217391 eV

  energy without entropy =      -12.34204474  energy(sigma->0) =      -12.34210932


--------------------------------------------------------------------------------------------------------




----------------------------------------- Iteration    1(  11)  ---------------------------------------


    POTLOK:  VPU time    0.22: CPU time    0.23
    SETDIJ:  VPU time    0.83: CPU time    0.83
    EDDAV :  VPU time   21.79: CPU time   21.81
    DOS   :  VPU time    0.00: CPU time   -0.00
    CHARGE:  VPU time    1.54: CPU time    1.55
    MIXING:  VPU time    0.01: CPU time    0.01
    ------------------------------------------
      LOOP:  VPU time   24.41: CPU time   24.43

 eigenvalue-minimisations  :  4972
 total energy-change (2. order) :-0.1144627E-05  (-0.1754158E-06)
 number of electron   44.0000001 magnetization 
 augmentation part    16.3172242 magnetization 

 Broyden mixing:
  rms(total) = 0.11790E-03    rms(broyden)= 0.11790E-03
  rms(prec ) = 0.19959E-03
  weight for this iteration     100.00

 eigenvalues of (default mixing * dielectric matrix)
  average eigenvalue GAMMA=   1.8775
  3.0696  2.6468  2.4590  1.0453  1.0222  1.0222

 Free energy of the ion-electron system (eV)
  ---------------------------------------------------
  alpha Z        PSCENC =       346.25783047
  Ewald energy   TEWEN  =     -3612.09265728
  -1/2 Hartree   DENC   =      -582.84283541
  -V(xc)+E(xc)   XCENC  =        56.64637673
  PAW double counting   =      2933.02241370    -2845.95962633
  entropy T*S    EENTRO =        -0.00012877
  eigenvalues    EBANDS =       -11.59727215
  atomic energy  EATOM  =      3704.22372399
  ---------------------------------------------------
  free energy    TOTEN  =       -12.34217506 eV

  energy without entropy =      -12.34204629  energy(sigma->0) =      -12.34211067


--------------------------------------------------------------------------------------------------------




----------------------------------------- Iteration    1(  12)  ---------------------------------------


    POTLOK:  VPU time    0.22: CPU time    0.22
    SETDIJ:  VPU time    0.83: CPU time    0.83
    EDDAV :  VPU time   21.54: CPU time   21.56
    DOS   :  VPU time    0.00: CPU time   -0.00
    CHARGE:  VPU time    1.56: CPU time    1.56
    MIXING:  VPU time    0.01: CPU time    0.01
    ------------------------------------------
      LOOP:  VPU time   24.18: CPU time   24.20

 eigenvalue-minimisations  :  4892
 total energy-change (2. order) : 0.4770372E-06  (-0.1294251E-07)
 number of electron   44.0000001 magnetization 
 augmentation part    16.3172778 magnetization 

 Broyden mixing:
  rms(total) = 0.74688E-05    rms(broyden)= 0.74687E-05
  rms(prec ) = 0.13865E-04
  weight for this iteration     100.00

 eigenvalues of (default mixing * dielectric matrix)
  average eigenvalue GAMMA=   1.7693
  3.0026  2.6311  2.4896  0.9960  1.1147  1.0755  1.0755

 Free energy of the ion-electron system (eV)
  ---------------------------------------------------
  alpha Z        PSCENC =       346.25783047
  Ewald energy   TEWEN  =     -3612.09265728
  -1/2 Hartree   DENC   =      -582.84112685
  -V(xc)+E(xc)   XCENC  =        56.64636656
  PAW double counting   =      2932.90045868    -2845.83831530
  entropy T*S    EENTRO =        -0.00012882
  eigenvalues    EBANDS =       -11.59832604
  atomic energy  EATOM  =      3704.22372399
  ---------------------------------------------------
  free energy    TOTEN  =       -12.34217458 eV

  energy without entropy =      -12.34204576  energy(sigma->0) =      -12.34211017


--------------------------------------------------------------------------------------------------------




----------------------------------------- Iteration    1(  13)  ---------------------------------------


    POTLOK:  VPU time    0.22: CPU time    0.22
    SETDIJ:  VPU time    0.84: CPU time    0.84
    EDDAV :  VPU time   14.77: CPU time   14.79
    DOS   :  VPU time    0.00: CPU time   -0.00
    ------------------------------------------
      LOOP:  VPU time   15.85: CPU time   15.88

 eigenvalue-minimisations  :  2636
 total energy-change (2. order) :-0.9808446E-08  (-0.1078964E-09)
 number of electron   44.0000001 magnetization 
 augmentation part    16.3172778 magnetization 

 Free energy of the ion-electron system (eV)
  ---------------------------------------------------
  alpha Z        PSCENC =       346.25783047
  Ewald energy   TEWEN  =     -3612.09265728
  -1/2 Hartree   DENC   =      -582.84153497
  -V(xc)+E(xc)   XCENC  =        56.64638591
  PAW double counting   =      2932.90469104    -2845.84260370
  entropy T*S    EENTRO =        -0.00012881
  eigenvalues    EBANDS =       -11.59788123
  atomic energy  EATOM  =      3704.22372399
  ---------------------------------------------------
  free energy    TOTEN  =       -12.34217459 eV

  energy without entropy =      -12.34204578  energy(sigma->0) =      -12.34211018


--------------------------------------------------------------------------------------------------------




 average (electrostatic) potential at core
  the test charge radii are     1.2098
  (the norm of the test charge is              1.0000)
       1 -47.5068       2 -47.5068       3 -47.5068       4 -47.5068
 
 
 
 E-fermi :   3.0726     XC(G=0): -11.3317     alpha+bet : -8.0214
   add alpha+bet to get absolut eigen values

 k-point   1 :       0.0000    0.0000    0.0000
  band No.  band energies     occupation 
      1      -4.5396      2.00000
      2      -2.1589      2.00000
      3      -2.1589      2.00000
      4      -2.1589      2.00000
      5      -1.9637      2.00000
      6      -1.9637      2.00000
      7      -1.9637      2.00000
      8      -0.5967      2.00000
      9      -0.5967      2.00000
     10      -0.5967      2.00000
     11       0.3925      2.00000
     12       0.3925      2.00000
     13       1.1448      2.00000
     14       1.1448      2.00000
     15       1.1448      2.00000
     16       1.3855      2.00000
     17       1.3855      2.00000
     18       1.3855      2.00000
     19       1.3855      2.00000
     20       1.3855      2.00000
     21       1.3855      2.00000
     22       4.6983      0.00000
     23       4.6983      0.00000
     24       4.6983      0.00000
     25       7.1860      0.00000
     26       7.1860      0.00000
     27       7.1860      0.00000
     28      12.4527      0.00000

 k-point   2 :       0.0833    0.0000    0.0000
  band No.  band energies     occupation 
      1      -4.4738      2.00000
      2      -2.1400      2.00000
      3      -2.1195      2.00000
      4      -2.1195      2.00000
      5      -1.9431      2.00000
      6      -1.9322      2.00000
      7      -1.9322      2.00000
      8      -0.6232      2.00000
      9      -0.5716      2.00000
     10      -0.5716      2.00000
     11       0.3648      2.00000
     12       0.4045      2.00000
     13       1.1064      2.00000
     14       1.1064      2.00000
     15       1.1312      2.00000
     16       1.2387      2.00000
     17       1.2387      2.00000
     18       1.3379      2.00000
     19       1.3379      2.00000
     20       1.3856      2.00000
     21       1.3856      2.00000
     22       4.0268      0.00000
     23       4.8976      0.00000
     24       4.8976      0.00000
     25       7.1498      0.00000
     26       7.1498      0.00000
     27       7.9759      0.00000
     28      12.2960      0.00000

 k-point   3 :       0.1667    0.0000    0.0000
  band No.  band energies     occupation 
      1      -4.2785      2.00000
      2      -2.0903      2.00000
      3      -2.0057      2.00000
      4      -2.0057      2.00000
      5      -1.8822      2.00000
      6      -1.8377      2.00000
      7      -1.8377      2.00000
      8      -0.7003      2.00000
      9      -0.4969      2.00000
     10      -0.4969      2.00000
     11       0.2856      2.00000
     12       0.4400      2.00000
     13       0.8790      2.00000
     14       0.8790      2.00000
     15       0.9941      2.00000
     16       0.9941      2.00000
     17       1.0914      2.00000
     18       1.2026      2.00000
     19       1.2026      2.00000
     20       1.3858      2.00000
     21       1.3858      2.00000
     22       2.8836      2.00000
     23       5.4135      0.00000
     24       5.4135      0.00000
     25       7.0510      0.00000
     26       7.0510      0.00000
     27       9.4784      0.00000
     28      11.8527      0.00000

 k-point   4 :       0.2500    0.0000    0.0000
  band No.  band energies     occupation 
      1      -3.9603      2.00000
      2      -2.0340      2.00000
      3      -1.8317      2.00000
      4      -1.8317      2.00000
      5      -1.7840      2.00000
      6      -1.6808      2.00000
      7      -1.6808      2.00000
      8      -0.8206      2.00000
      9      -0.3743      2.00000
     10      -0.3743      2.00000
     11       0.1671      2.00000
     12       0.4324      2.00000
     13       0.4324      2.00000
     14       0.4970      2.00000
     15       0.8199      2.00000
     16       0.8199      2.00000
     17       0.9999      2.00000
     18       0.9999      2.00000
     19       1.0286      2.00000
     20       1.3860      2.00000
     21       1.3860      2.00000
     22       1.7799      2.00000
     23       6.1161      0.00000
     24       6.1161      0.00000
     25       6.9171      0.00000
     26       6.9171      0.00000
     27      11.2029      0.00000
     28      11.2047      0.00000

 k-point   5 :       0.3333    0.0000    0.0000
  band No.  band energies     occupation 
      1      -3.5343      2.00000
      2      -2.0265      2.00000
      3      -1.6532      2.00000
      4      -1.6268      2.00000
      5      -1.6268      2.00000
      6      -1.4620      2.00000
      7      -1.4620      2.00000
      8      -0.9732      2.00000
      9      -0.2072      2.00000
     10      -0.2072      2.00000
     11      -0.0253      2.00000
     12      -0.0253      2.00000
     13       0.0329      2.00000
     14       0.5720      2.00000
     15       0.6117      2.00000
     16       0.6117      2.00000
     17       0.7555      2.00000
     18       0.7555      2.00000
     19       0.8520      2.00000
     20       0.9477      2.00000
     21       1.3863      2.00000
     22       1.3863      2.00000
     23       6.7854      0.00000
     24       6.7854      0.00000
     25       6.9231      0.00000
     26       6.9231      0.00000
     27      10.4245      0.00000
     28      10.4245      0.00000

 k-point   6 :       0.4167    0.0000    0.0000
  band No.  band energies     occupation 
      1      -3.0339      2.00000
      2      -2.1690      2.00000
      3      -1.4970      2.00000
      4      -1.4451      2.00000
      5      -1.4451      2.00000
      6      -1.1830      2.00000
      7      -1.1830      2.00000
      8      -1.1454      2.00000
      9      -0.4575      2.00000
     10      -0.4575      2.00000
     11      -0.0722      2.00000
     12      -0.0009      2.00000
     13      -0.0009      2.00000
     14       0.2153      2.00000
     15       0.4257      2.00000
     16       0.4257      2.00000
     17       0.4942      2.00000
     18       0.4942      2.00000
     19       0.6605      2.00000
     20       0.8549      2.00000
     21       1.3865      2.00000
     22       1.3865      2.00000
     23       6.6908      0.00000
     24       6.6908      0.00000
     25       7.7881      0.00000
     26       7.7881      0.00000
     27       9.5691      0.00000
     28       9.5691      0.00000

 k-point   7 :       0.5000    0.0000    0.0000
  band No.  band energies     occupation 
      1      -2.5339      2.00000
      2      -2.5339      2.00000
      3      -1.3680      2.00000
      4      -1.3680      2.00000
      5      -1.3241      2.00000
      6      -1.3241      2.00000
      7      -0.8465      2.00000
      8      -0.8465      2.00000
      9      -0.8465      2.00000
     10      -0.8465      2.00000
     11      -0.0604      2.00000
     12      -0.0604      2.00000
     13       0.2367      2.00000
     14       0.2367      2.00000
     15       0.2367      2.00000
     16       0.2367      2.00000
     17       0.3466      2.00000
     18       0.3466      2.00000
     19       0.7569      2.00000
     20       0.7569      2.00000
     21       1.3866      2.00000
     22       1.3866      2.00000
     23       6.6566      0.00000
     24       6.6566      0.00000
     25       8.6796      0.00000
     26       8.6796      0.00000
     27       8.6796      0.00000
     28       8.6796      0.00000

 k-point   8 :       0.0833    0.0833    0.0000
  band No.  band energies     occupation 
      1      -4.4086      2.00000
      2      -2.1002      2.00000
      3      -2.1002      2.00000
      4      -2.0862      2.00000
      5      -1.9120      2.00000
      6      -1.9120      2.00000
      7      -1.8962      2.00000
      8      -0.6332      2.00000
      9      -0.5624      2.00000
     10      -0.5486      2.00000
     11       0.3577      2.00000
     12       0.3986      2.00000
     13       1.0692      2.00000
     14       1.0692      2.00000
     15       1.0700      2.00000
     16       1.1372      2.00000
     17       1.2080      2.00000
     18       1.2080      2.00000
     19       1.3378      2.00000
     20       1.3378      2.00000
     21       1.3533      2.00000
     22       4.2106      0.00000
     23       4.2106      0.00000
     24       5.0842      0.00000
     25       7.1084      0.00000
     26       7.9529      0.00000
     27       7.9529      0.00000
     28      11.7207      0.00000

 k-point   9 :       0.1667    0.0833    0.0000
  band No.  band energies     occupation 
      1      -4.2152      2.00000
      2      -2.0492      2.00000
      3      -1.9897      2.00000
      4      -1.9852      2.00000
      5      -1.8523      2.00000
      6      -1.8188      2.00000
      7      -1.7896      2.00000
      8      -0.7004      2.00000
      9      -0.4955      2.00000
     10      -0.4808      2.00000
     11       0.2895      2.00000
     12       0.4314      2.00000
     13       0.7714      2.00000
     14       0.8188      2.00000
     15       0.9398      2.00000
     16       0.9633      2.00000
     17       1.0287      2.00000
     18       1.1377      2.00000
     19       1.2022      2.00000
     20       1.3367      2.00000
     21       1.3375      2.00000
     22       3.0882      0.02775
     23       4.6574      0.00000
     24       5.5762      0.00000
     25       6.9931      0.00000
     26       7.9012      0.00000
     27       9.4279      0.00000
     28      11.0872      0.00000

 k-point  10 :       0.2500    0.0833    0.0000
  band No.  band energies     occupation 
      1      -3.9002      2.00000
      2      -1.9908      2.00000
      3      -1.8377      2.00000
      4      -1.8089      2.00000
      5      -1.7561      2.00000
      6      -1.6639      2.00000
      7      -1.6192      2.00000
      8      -0.8158      2.00000
      9      -0.3749      2.00000
     10      -0.3735      2.00000
     11       0.1816      2.00000
     12       0.3353      2.00000
     13       0.3978      2.00000
     14       0.4951      2.00000
     15       0.7019      2.00000
     16       0.7969      2.00000
     17       0.8495      2.00000
     18       0.9991      2.00000
     19       1.0461      2.00000
     20       1.3334      2.00000
     21       1.3371      2.00000
     22       2.0542      2.00000
     23       5.1986      0.00000
     24       6.2581      0.00000
     25       6.8286      0.00000
     26       7.8751      0.00000
     27      10.4741      0.00000
     28      11.0653      0.00000

 k-point  11 :       0.3333    0.0833    0.0000
  band No.  band energies     occupation 
      1      -3.4788      2.00000
      2      -1.9809      2.00000
      3      -1.6437      2.00000
      4      -1.6281      2.00000
      5      -1.6005      2.00000
      6      -1.4484      2.00000
      7      -1.4026      2.00000
      8      -0.9639      2.00000
      9      -0.2514      2.00000
     10      -0.2085      2.00000
     11      -0.1096      2.00000
     12      -0.0426      2.00000
     13       0.0841      2.00000
     14       0.3542      2.00000
     15       0.5808      2.00000
     16       0.5978      2.00000
     17       0.6410      2.00000
     18       0.7542      2.00000
     19       0.9101      2.00000
     20       1.2918      2.00000
     21       1.3330      2.00000
     22       1.3365      2.00000
     23       5.6994      0.00000
     24       6.6472      0.00000
     25       7.0502      0.00000
     26       7.9653      0.00000
     27       9.8859      0.00000
     28      10.5321      0.00000

 k-point  12 :       0.4167    0.0833    0.0000
  band No.  band energies     occupation 
      1      -2.9834      2.00000
      2      -2.1226      2.00000
      3      -1.4752      2.00000
      4      -1.4445      2.00000
      5      -1.4152      2.00000
      6      -1.1738      2.00000
      7      -1.1602      2.00000
      8      -1.1317      2.00000
      9      -0.5216      2.00000
     10      -0.4630      2.00000
     11      -0.2085      2.00000
     12      -0.0135      2.00000
     13      -0.0024      2.00000
     14       0.1294      2.00000
     15       0.4225      2.00000
     16       0.4495      2.00000
     17       0.4927      2.00000
     18       0.6381      2.00000
     19       0.6838      2.00000
     20       0.9488      2.00000
     21       1.3337      2.00000
     22       1.3356      2.00000
     23       6.0640      0.00000
     24       6.4719      0.00000
     25       7.9053      0.00000
     26       8.2570      0.00000
     27       9.3027      0.00000
     28       9.6769      0.00000

 k-point  13 :       0.5000    0.0833    0.0000
  band No.  band energies     occupation 
      1      -2.4871      2.00000
      2      -2.4871      2.00000
      3      -1.3424      2.00000
      4      -1.3424      2.00000
      5      -1.3062      2.00000
      6      -1.3062      2.00000
      7      -0.8761      2.00000
      8      -0.8761      2.00000
      9      -0.8435      2.00000
     10      -0.8435      2.00000
     11      -0.1961      2.00000
     12      -0.1961      2.00000
     13       0.2351      2.00000
     14       0.2351      2.00000
     15       0.3434      2.00000
     16       0.3434      2.00000
     17       0.3575      2.00000
     18       0.3575      2.00000
     19       0.8016      2.00000
     20       0.8016      2.00000
     21       1.3347      2.00000
     22       1.3347      2.00000
     23       6.2956      0.00000
     24       6.2956      0.00000
     25       8.7356      0.00000
     26       8.7356      0.00000
     27       8.7905      0.00000
     28       8.7905      0.00000

 k-point  14 :       0.1667    0.1667    0.0000
  band No.  band energies     occupation 
      1      -4.0275      2.00000
      2      -1.9308      2.00000
      3      -1.9302      2.00000
      4      -1.9302      2.00000
      5      -1.7628      2.00000
      6      -1.7628      2.00000
      7      -1.6604      2.00000
      8      -0.7289      2.00000
      9      -0.4617      2.00000
     10      -0.4342      2.00000
     11       0.2661      2.00000
     12       0.4447      2.00000
     13       0.5539      2.00000
     14       0.5539      2.00000
     15       0.6141      2.00000
     16       0.8720      2.00000
     17       1.0299      2.00000
     18       1.0299      2.00000
     19       1.2009      2.00000
     20       1.2009      2.00000
     21       1.2582      2.00000
     22       3.5437      0.00000
     23       3.5437      0.00000
     24       6.0188      0.00000
     25       6.8247      0.00000
     26       9.2872      0.00000
     27       9.2872      0.00000
     28      10.3569      0.00000

 k-point  15 :       0.2500    0.1667    0.0000
  band No.  band energies     occupation 
      1      -3.7224      2.00000
      2      -1.8651      2.00000
      3      -1.8185      2.00000
      4      -1.7468      2.00000
      5      -1.6727      2.00000
      6      -1.6144      2.00000
      7      -1.4761      2.00000
      8      -0.8146      2.00000
      9      -0.3666      2.00000
     10      -0.3620      2.00000
     11       0.1132      2.00000
     12       0.1913      2.00000
     13       0.2656      2.00000
     14       0.2831      2.00000
     15       0.5209      2.00000
     16       0.7273      2.00000
     17       0.8723      2.00000
     18       0.9671      2.00000
     19       0.9965      2.00000
     20       1.1988      2.00000
     21       1.2152      2.00000
     22       2.5500      2.00000
     23       4.0737      0.00000
     24       6.5648      0.00000
     25       6.6540      0.00000
     26       9.0961      0.00000
     27       9.7725      0.00000
     28      10.6928      0.00000

 k-point  16 :       0.3333    0.1667    0.0000
  band No.  band energies     occupation 
      1      -3.3149      2.00000
      2      -1.8480      2.00000
      3      -1.6525      2.00000
      4      -1.5531      2.00000
      5      -1.5271      2.00000
      6      -1.4084      2.00000
      7      -1.2690      2.00000
      8      -0.9427      2.00000
      9      -0.3155      2.00000
     10      -0.3103      2.00000
     11      -0.2048      2.00000
     12      -0.0998      2.00000
     13      -0.0596      2.00000
     14       0.1371      2.00000
     15       0.5528      2.00000
     16       0.6411      2.00000
     17       0.6774      2.00000
     18       0.7509      2.00000
     19       0.8350      2.00000
     20       1.1963      2.00000
     21       1.1981      2.00000
     22       1.7839      2.00000
     23       4.5984      0.00000
     24       6.2448      0.00000
     25       7.4106      0.00000
     26       8.9232      0.00000
     27       9.3388      0.00000
     28      10.8438      0.00000

 k-point  17 :       0.4167    0.1667    0.0000
  band No.  band energies     occupation 
      1      -2.8359      2.00000
      2      -1.9886      2.00000
      3      -1.4457      2.00000
      4      -1.4107      2.00000
      5      -1.3283      2.00000
      6      -1.1475      2.00000
      7      -1.0941      2.00000
      8      -1.0879      2.00000
      9      -0.6815      2.00000
     10      -0.4819      2.00000
     11      -0.3420      2.00000
     12      -0.3144      2.00000
     13      -0.0031      2.00000
     14       0.2055      2.00000
     15       0.4050      2.00000
     16       0.4856      2.00000
     17       0.4891      2.00000
     18       0.6299      2.00000
     19       0.7956      2.00000
     20       1.1925      2.00000
     21       1.1938      2.00000
     22       1.2870      2.00000
     23       5.0803      0.00000
     24       5.8912      0.00000
     25       8.2407      0.00000
     26       8.8360      0.00000
     27       9.0414      0.00000
     28       9.9886      0.00000

 k-point  18 :       0.5000    0.1667    0.0000
  band No.  band energies     occupation 
      1      -2.3520      2.00000
      2      -2.3520      2.00000
      3      -1.2756      2.00000
      4      -1.2756      2.00000
      5      -1.2542      2.00000
      6      -1.2542      2.00000
      7      -0.9436      2.00000
      8      -0.9436      2.00000
      9      -0.8360      2.00000
     10      -0.8360      2.00000
     11      -0.3882      2.00000
     12      -0.3882      2.00000
     13       0.2323      2.00000
     14       0.2323      2.00000
     15       0.3718      2.00000
     16       0.3718      2.00000
     17       0.3935      2.00000
     18       0.3935      2.00000
     19       0.9939      2.00000
     20       0.9939      2.00000
     21       1.1920      2.00000
     22       1.1920      2.00000
     23       5.5079      0.00000
     24       5.5079      0.00000
     25       8.8729      0.00000
     26       8.8729      0.00000
     27       9.1101      0.00000
     28       9.1101      0.00000

 k-point  19 :       0.2500    0.2500    0.0000
  band No.  band energies     occupation 
      1      -3.4345      2.00000
      2      -1.7492      2.00000
      3      -1.6694      2.00000
      4      -1.6694      2.00000
      5      -1.5349      2.00000
      6      -1.5349      2.00000
      7      -1.2910      2.00000
      8      -0.8474      2.00000
      9      -0.3514      2.00000
     10      -0.3015      2.00000
     11      -0.1634      2.00000
     12      -0.1634      2.00000
     13       0.0741      2.00000
     14       0.1503      2.00000
     15       0.6129      2.00000
     16       0.6250      2.00000
     17       0.8319      2.00000
     18       0.8319      2.00000
     19       0.9930      2.00000
     20       0.9930      2.00000
     21       1.1054      2.00000
     22       3.0825      0.16257
     23       3.0825      0.16257
     24       6.1527      0.00000
     25       7.2402      0.00000
     26       9.3096      0.00000
     27      10.1960      0.00000
     28      10.1960      0.00000

 k-point  20 :       0.3333    0.2500    0.0000
  band No.  band energies     occupation 
      1      -3.0518      2.00000
      2      -1.6404      2.00000
      3      -1.6253      2.00000
      4      -1.4302      2.00000
      5      -1.4288      2.00000
      6      -1.3451      2.00000
      7      -1.1008      2.00000
      8      -0.9280      2.00000
      9      -0.5536      2.00000
     10      -0.4310      2.00000
     11      -0.3554      2.00000
     12      -0.2089      2.00000
     13      -0.1750      2.00000
     14       0.1099      2.00000
     15       0.4707      2.00000
     16       0.6578      2.00000
     17       0.7134      2.00000
     18       0.7469      2.00000
     19       0.7981      2.00000
     20       0.9894      2.00000
     21       1.0378      2.00000
     22       2.2855      2.00000
     23       3.6129      0.00000
     24       5.6585      0.00000
     25       7.9560      0.00000
     26       9.0650      0.00000
     27       9.7125      0.00000
     28      11.1471      0.00000

 k-point  21 :       0.4167    0.2500    0.0000
  band No.  band energies     occupation 
      1      -2.6038      2.00000
      2      -1.7849      2.00000
      3      -1.4470      2.00000
      4      -1.3070      2.00000
      5      -1.1958      2.00000
      6      -1.1073      2.00000
      7      -1.0430      2.00000
      8      -0.9694      2.00000
      9      -0.8850      2.00000
     10      -0.5721      2.00000
     11      -0.5219      2.00000
     12      -0.4279      2.00000
     13       0.0090      2.00000
     14       0.1643      2.00000
     15       0.3549      2.00000
     16       0.4769      2.00000
     17       0.4868      2.00000
     18       0.5279      2.00000
     19       0.9877      2.00000
     20       1.0045      2.00000
     21       1.0226      2.00000
     22       1.7068      2.00000
     23       4.1300      0.00000
     24       5.1449      0.00000
     25       8.7559      0.00000
     26       8.9983      0.00000
     27       9.3306      0.00000
     28      10.4746      0.00000

 k-point  22 :       0.5000    0.2500    0.0000
  band No.  band energies     occupation 
      1      -2.1463      2.00000
      2      -2.1463      2.00000
      3      -1.2244      2.00000
      4      -1.2244      2.00000
      5      -1.1742      2.00000
      6      -1.1742      2.00000
      7      -0.9737      2.00000
      8      -0.9737      2.00000
      9      -0.8287      2.00000
     10      -0.8287      2.00000
     11      -0.5361      2.00000
     12      -0.5361      2.00000
     13       0.2348      2.00000
     14       0.2348      2.00000
     15       0.3224      2.00000
     16       0.3224      2.00000
     17       0.3516      2.00000
     18       0.3516      2.00000
     19       0.9910      2.00000
     20       0.9910      2.00000
     21       1.3096      2.00000
     22       1.3096      2.00000
     23       4.6369      0.00000
     24       4.6369      0.00000
     25       9.0888      0.00000
     26       9.0888      0.00000
     27       9.6055      0.00000
     28       9.6055      0.00000

 k-point  23 :       0.3333    0.3333    0.0000
  band No.  band energies     occupation 
      1      -2.7073      2.00000
      2      -1.5548      2.00000
      3      -1.3842      2.00000
      4      -1.3842      2.00000
      5      -1.2634      2.00000
      6      -1.2634      2.00000
      7      -0.9429      2.00000
      8      -0.9325      2.00000
      9      -0.7511      2.00000
     10      -0.7511      2.00000
     11      -0.3855      2.00000
     12      -0.3774      2.00000
     13      -0.0928      2.00000
     14       0.0508      2.00000
     15       0.3580      2.00000
     16       0.5571      2.00000
     17       0.5571      2.00000
     18       0.7452      2.00000
     19       0.7452      2.00000
     20       0.9039      2.00000
     21       1.0321      2.00000
     22       2.7905      2.00000
     23       2.7905      2.00000
     24       5.0152      0.00000
     25       8.6355      0.00000
     26       9.0108      0.00000
     27      10.4229      0.00000
     28      10.4229      0.00000

 k-point  24 :       0.4167    0.3333    0.0000
[...]
     14       0.3010      2.00000
     15       0.3010      2.00000
     16       0.3010      2.00000
     17       0.8965      2.00000
     18       0.8965      2.00000
     19       0.8965      2.00000
     20       0.8965      2.00000
     21       2.6908      2.00000
     22       2.6908      2.00000
     23       2.6908      2.00000
     24       2.6908      2.00000
     25       7.1687      0.00000
     26       7.1687      0.00000
     27       7.1687      0.00000
     28       7.1687      0.00000

 k-point  75 :       0.3333    0.3333    0.3333
  band No.  band energies     occupation 
      1      -2.5470      2.00000
      2      -1.9526      2.00000
      3      -1.9526      2.00000
      4      -1.9526      2.00000
      5      -0.8170      2.00000
      6      -0.8170      2.00000
      7      -0.8170      2.00000
      8      -0.4860      2.00000
      9      -0.4860      2.00000
     10      -0.2209      2.00000
     11      -0.2209      2.00000
     12      -0.2209      2.00000
     13      -0.0266      2.00000
     14      -0.0266      2.00000
     15      -0.0266      2.00000
     16       0.1510      2.00000
     17       0.8083      2.00000
     18       0.8083      2.00000
     19       1.2054      2.00000
     20       1.2054      2.00000
     21       1.2054      2.00000
     22       3.6311      0.00000
     23       3.6311      0.00000
     24       3.6311      0.00000
     25       6.4392      0.00000
     26       6.4392      0.00000
     27       6.4392      0.00000
     28       9.6714      0.00000

 k-point  76 :       0.4167    0.3333    0.3333
  band No.  band energies     occupation 
      1      -2.4373      2.00000
      2      -2.1314      2.00000
      3      -2.0116      2.00000
      4      -2.0116      2.00000
      5      -0.8031      2.00000
      6      -0.8031      2.00000
      7      -0.7142      2.00000
      8      -0.5398      2.00000
      9      -0.4888      2.00000
     10      -0.3524      2.00000
     11      -0.3049      2.00000
     12      -0.3049      2.00000
     13       0.1169      2.00000
     14       0.2116      2.00000
     15       0.2116      2.00000
     16       0.3581      2.00000
     17       0.9806      2.00000
     18       1.0750      2.00000
     19       1.1648      2.00000
     20       1.1648      2.00000
     21       1.1882      2.00000
     22       2.6353      2.00000
     23       4.0964      0.00000
     24       4.0964      0.00000
     25       5.5939      0.00000
     26       5.5939      0.00000
     27       7.1000      0.00000
     28       8.7243      0.00000

 k-point  77 :       0.5000    0.3333    0.3333
  band No.  band energies     occupation 
      1      -2.2969      2.00000
      2      -2.2969      2.00000
      3      -2.0313      2.00000
      4      -2.0313      2.00000
      5      -0.8005      2.00000
      6      -0.8005      2.00000
      7      -0.6177      2.00000
      8      -0.6177      2.00000
      9      -0.4435      2.00000
     10      -0.4435      2.00000
     11      -0.3320      2.00000
     12      -0.3320      2.00000
     13       0.2634      2.00000
     14       0.2634      2.00000
     15       0.3129      2.00000
     16       0.3129      2.00000
     17       1.1110      2.00000
     18       1.1110      2.00000
     19       1.1331      2.00000
     20       1.1331      2.00000
     21       1.7651      2.00000
     22       1.7651      2.00000
     23       4.4706      0.00000
     24       4.4706      0.00000
     25       5.0910      0.00000
     26       5.0910      0.00000
     27       7.8657      0.00000
     28       7.8657      0.00000

 k-point  78 :       0.4167    0.4167    0.3333
  band No.  band energies     occupation 
      1      -2.3985      2.00000
      2      -2.1813      2.00000
      3      -2.1813      2.00000
      4      -2.1208      2.00000
      5      -0.7496      2.00000
      6      -0.7092      2.00000
      7      -0.7092      2.00000
      8      -0.5588      2.00000
      9      -0.5327      2.00000
     10      -0.4259      2.00000
     11      -0.4259      2.00000
     12      -0.4055      2.00000
     13       0.4243      2.00000
     14       0.4243      2.00000
     15       0.4622      2.00000
     16       0.7221      2.00000
     17       0.9292      2.00000
     18       1.1443      2.00000
     19       1.1579      2.00000
     20       1.1579      2.00000
     21       1.4624      2.00000
     22       3.0653      1.69651
     23       3.0653      1.69651
     24       4.1947      0.00000
     25       5.0763      0.00000
     26       6.2175      0.00000
     27       6.2175      0.00000
     28       7.7868      0.00000

 k-point  79 :       0.5000    0.4167    0.3333
  band No.  band energies     occupation 
      1      -2.3125      2.00000
      2      -2.3125      2.00000
      3      -2.1777      2.00000
      4      -2.1777      2.00000
      5      -0.7178      2.00000
      6      -0.7178      2.00000
      7      -0.6235      2.00000
      8      -0.6235      2.00000
      9      -0.5043      2.00000
     10      -0.5043      2.00000
     11      -0.4468      2.00000
     12      -0.4468      2.00000
     13       0.5662      2.00000
     14       0.5662      2.00000
     15       0.6202      2.00000
     16       0.6202      2.00000
     17       1.0729      2.00000
     18       1.0729      2.00000
     19       1.1167      2.00000
     20       1.1167      2.00000
     21       2.1675      2.00000
     22       2.1675      2.00000
     23       3.6377      0.00000
     24       3.6377      0.00000
     25       5.4913      0.00000
     26       5.4913      0.00000
     27       6.9500      0.00000
     28       6.9500      0.00000

 k-point  80 :       0.5000    0.5000    0.3333
  band No.  band energies     occupation 
      1      -2.2725      2.00000
      2      -2.2725      2.00000
      3      -2.2725      2.00000
      4      -2.2725      2.00000
      5      -0.6523      2.00000
      6      -0.6523      2.00000
      7      -0.6523      2.00000
      8      -0.6523      2.00000
      9      -0.5101      2.00000
     10      -0.5101      2.00000
     11      -0.5101      2.00000
     12      -0.5101      2.00000
     13       0.7333      2.00000
     14       0.7333      2.00000
     15       0.7333      2.00000
     16       0.7333      2.00000
     17       1.0470      2.00000
     18       1.0470      2.00000
     19       1.0470      2.00000
     20       1.0470      2.00000
     21       2.8125      2.00000
     22       2.8125      2.00000
     23       2.8125      2.00000
     24       2.8125      2.00000
     25       6.1543      0.00000
     26       6.1543      0.00000
     27       6.1543      0.00000
     28       6.1543      0.00000

 k-point  81 :       0.4167    0.4167    0.4167
  band No.  band energies     occupation 
      1      -2.4165      2.00000
      2      -2.2747      2.00000
      3      -2.2747      2.00000
      4      -2.2747      2.00000
      5      -0.6757      2.00000
      6      -0.6757      2.00000
      7      -0.6757      2.00000
      8      -0.5750      2.00000
      9      -0.5750      2.00000
     10      -0.5092      2.00000
     11      -0.5092      2.00000
     12      -0.5092      2.00000
     13       0.7288      2.00000
     14       0.7288      2.00000
     15       0.7288      2.00000
     16       1.0731      2.00000
     17       1.0731      2.00000
     18       1.1855      2.00000
     19       1.1855      2.00000
     20       1.1855      2.00000
     21       1.6881      2.00000
     22       3.3576      0.00000
     23       3.3576      0.00000
     24       3.3576      0.00000
     25       5.4142      0.00000
     26       5.4142      0.00000
     27       5.4142      0.00000
     28       6.8629      0.00000

 k-point  82 :       0.5000    0.4167    0.4167
  band No.  band energies     occupation 
      1      -2.3748      2.00000
      2      -2.3748      2.00000
      3      -2.3061      2.00000
      4      -2.3061      2.00000
      5      -0.6616      2.00000
      6      -0.6616      2.00000
      7      -0.6148      2.00000
      8      -0.6148      2.00000
      9      -0.5669      2.00000
     10      -0.5669      2.00000
     11      -0.5399      2.00000
     12      -0.5399      2.00000
     13       0.8657      2.00000
     14       0.8657      2.00000
     15       0.9520      2.00000
     16       0.9520      2.00000
     17       1.1612      2.00000
     18       1.1612      2.00000
     19       1.1663      2.00000
     20       1.1663      2.00000
     21       2.4492      2.00000
     22       2.4492      2.00000
     23       3.5418      0.00000
     24       3.5418      0.00000
     25       5.0537      0.00000
     26       5.0537      0.00000
     27       6.0643      0.00000
     28       6.0643      0.00000

 k-point  83 :       0.5000    0.5000    0.4167
  band No.  band energies     occupation 
      1      -2.3726      2.00000
      2      -2.3726      2.00000
      3      -2.3726      2.00000
      4      -2.3726      2.00000
      5      -0.6215      2.00000
      6      -0.6215      2.00000
      7      -0.6215      2.00000
      8      -0.6215      2.00000
      9      -0.5849      2.00000
     10      -0.5849      2.00000
     11      -0.5849      2.00000
     12      -0.5849      2.00000
     13       1.0576      2.00000
     14       1.0576      2.00000
     15       1.0576      2.00000
     16       1.0576      2.00000
     17       1.1446      2.00000
     18       1.1446      2.00000
     19       1.1446      2.00000
     20       1.1446      2.00000
     21       2.9903      2.00000
     22       2.9903      2.00000
     23       2.9903      2.00000
     24       2.9903      2.00000
     25       5.3743      0.00000
     26       5.3743      0.00000
     27       5.3743      0.00000
     28       5.3743      0.00000

 k-point  84 :       0.5000    0.5000    0.5000
  band No.  band energies     occupation 
      1      -2.4063      2.00000
      2      -2.4063      2.00000
      3      -2.4063      2.00000
      4      -2.4063      2.00000
      5      -0.6103      2.00000
      6      -0.6103      2.00000
      7      -0.6103      2.00000
      8      -0.6103      2.00000
      9      -0.6103      2.00000
     10      -0.6103      2.00000
     11      -0.6103      2.00000
     12      -0.6103      2.00000
     13       1.1784      2.00000
     14       1.1784      2.00000
     15       1.1784      2.00000
     16       1.1784      2.00000
     17       1.1784      2.00000
     18       1.1784      2.00000
     19       1.1784      2.00000
     20       1.1784      2.00000
     21       3.1036      0.00001
     22       3.1036      0.00001
     23       3.1036      0.00001
     24       3.1036      0.00001
     25       5.0473      0.00000
     26       5.0473      0.00000
     27       5.0473      0.00000
     28       5.0473      0.00000


--------------------------------------------------------------------------------------------------------


 soft charge-density along one line, spin component           1
         0         1         2         3         4         5         6         7         8         9
 total charge-density along one line
 
 pseudopotential strength for first ion, spin component:           1
-10.657  -0.000  -0.000  -0.000  -0.000   0.019   0.000   0.000
 -0.000 -10.657   0.000  -0.000   0.000   0.000   0.019  -0.000
 -0.000   0.000 -10.646   0.000  -0.000   0.000  -0.000   0.018
 -0.000  -0.000   0.000 -10.657  -0.000   0.000   0.000  -0.000
 -0.000   0.000  -0.000  -0.000 -10.646   0.000  -0.000   0.000
  0.019   0.000   0.000   0.000   0.000   0.268  -0.000  -0.000
  0.000   0.019  -0.000   0.000  -0.000  -0.000   0.268   0.000
  0.000  -0.000   0.018  -0.000   0.000  -0.000   0.000   0.268
  0.000   0.000  -0.000   0.019   0.000  -0.000  -0.000   0.000
  0.000  -0.000   0.000   0.000   0.018  -0.000   0.000  -0.000
  0.000   0.000  -0.000   0.000  -0.000   0.000   0.000  -0.000
 -0.000  -0.000   0.000  -0.000   0.000   0.000   0.000  -0.000
  0.000  -0.000   0.000  -0.000   0.000  -0.000   0.000  -0.000
 -0.000  -0.000  -0.000   0.000  -0.000   0.000   0.000   0.000
 -0.000  -0.000  -0.000  -0.000   0.000   0.000   0.000   0.000
 -0.000   0.000  -0.000   0.000  -0.000   0.000  -0.000   0.000
  0.000   0.000   0.000  -0.000   0.000  -0.000  -0.000  -0.000
  0.000   0.000   0.000   0.000  -0.000  -0.000  -0.000  -0.000
 total augmentation occupancy for first ion, spin component:           1
  1.863  -0.011  -0.007   0.004  -0.016  -0.060   0.009  -0.013  -0.002   0.013   0.018  -0.016  -0.000   0.000  -0.000  -0.000
 -0.011   1.958  -0.003  -0.014  -0.003   0.009  -0.108   0.006   0.013  -0.009   0.065   0.005  -0.000  -0.000  -0.000  -0.000
 -0.007  -0.003   1.929   0.006  -0.022  -0.013   0.006  -0.084  -0.002   0.021  -0.065  -0.050  -0.000  -0.000   0.000  -0.000
  0.004  -0.014   0.006   1.928  -0.003  -0.002   0.013  -0.002  -0.067   0.011   0.024  -0.004   0.000   0.000   0.000   0.000
 -0.016  -0.003  -0.022  -0.003   1.984   0.013  -0.009   0.021   0.011  -0.130   0.097   0.033  -0.000  -0.000  -0.000  -0.000
 -0.060   0.009  -0.013  -0.002   0.013   0.126  -0.005   0.026   0.002  -0.009   0.027   0.027   0.000  -0.000   0.000   0.000
  0.009  -0.108   0.006   0.013  -0.009  -0.005   0.110  -0.008  -0.008   0.015  -0.021   0.013  -0.000   0.000   0.000  -0.000
 -0.013   0.006  -0.084  -0.002   0.021   0.026  -0.008   0.092  -0.001  -0.003   0.096   0.002   0.000  -0.000  -0.000   0.000
 -0.002   0.013  -0.002  -0.067   0.011   0.002  -0.008  -0.001   0.079  -0.015   0.003   0.013  -0.000  -0.000  -0.000  -0.000
  0.013  -0.009   0.021   0.011  -0.130  -0.009   0.015  -0.003  -0.015   0.072  -0.074   0.010   0.000   0.000  -0.000   0.000
  0.018   0.065  -0.065   0.024   0.097   0.027  -0.021   0.096   0.003  -0.074   0.978  -0.255  -0.000  -0.000   0.000  -0.000
 -0.016   0.005  -0.050  -0.004   0.033   0.027   0.013   0.002   0.013   0.010  -0.255   0.135   0.000   0.000   0.000   0.000
 -0.000  -0.000  -0.000   0.000  -0.000   0.000  -0.000   0.000  -0.000   0.000  -0.000   0.000   0.085   0.013  -0.005  -0.006
  0.000  -0.000  -0.000   0.000  -0.000  -0.000   0.000  -0.000  -0.000   0.000  -0.000   0.000   0.013   0.068   0.000  -0.001
 -0.000  -0.000   0.000   0.000  -0.000   0.000   0.000  -0.000  -0.000  -0.000   0.000   0.000  -0.005   0.000   0.128  -0.000
 -0.000  -0.000  -0.000   0.000  -0.000   0.000  -0.000   0.000  -0.000   0.000  -0.000   0.000  -0.006  -0.001  -0.000   0.000
  0.000  -0.000  -0.000   0.000  -0.000  -0.000   0.000   0.000  -0.000   0.000  -0.000  -0.000  -0.001  -0.005  -0.000   0.000
 -0.000  -0.000  -0.000   0.000  -0.000   0.000   0.000  -0.000  -0.000  -0.000   0.000  -0.000  -0.000  -0.000  -0.009   0.000


------------------------ aborting loop because EDIFF is reached ----------------------------------------




--------------------------------------------------------------------------------------------------------


    CHARGE:  VPU time    1.37: CPU time    1.37
    FORLOC:  VPU time    0.00: CPU time    0.01
    FORNL :  VPU time    8.10: CPU time    8.11
    STRESS:  VPU time    9.40: CPU time    9.40
    FORCOR:  VPU time    0.13: CPU time    0.13
    FORHAR:  VPU time    0.03: CPU time    0.03
    MIXING:  VPU time    0.00: CPU time    0.00


--------------------------------------------------------------------------------------------------------



  FREE ENERGIE OF THE ION-ELECTRON SYSTEM (eV)
  ---------------------------------------------------
  free  energy   TOTEN  =       -12.342175 eV

  energy  without entropy=      -12.342046  energy(sigma->0) =      -12.342110
 

  FORCE on cell =-STRESS in cart. coord.  units (eV/reduce length):
  Direction    X        Y        Z        XY       YZ       ZX
  --------------------------------------------------------------------------------------
  Alpha Z    346.26    346.26    346.26
  Ewald    -1204.03  -1204.03  -1204.03     -0.00      0.00      0.00
  Hartree    194.28    194.28    194.28      0.00     -0.00     -0.00
  E(xc)     -196.56   -196.56   -196.56      0.00      0.00      0.00
  Local      283.14    283.14    283.14     -0.00     -0.00      0.00
  n-local   -201.45   -216.72   -220.11      0.98      4.96      1.79
  augment    172.17    172.17    172.17     -0.00     -0.00     -0.00
  Kinetic    614.01    609.70    606.05     -3.35     -0.80     -1.89
  -------------------------------------------------------------------------------------
  Total       -7.59     -7.59     -7.59      0.00      0.00     -0.00
  in kB     -140.43   -140.43   -140.43      0.00      0.00     -0.00
  external pressure =     -140.43 kB  Pullay stress =        0.00 kB


 VOLUME and BASIS-vectors are now :
 -----------------------------------------------------------------------------
  energy-cutoff  :      750.00
  volume of cell :       86.54
      direct lattice vectors                 reciprocal lattice vectors
     4.423223016  0.000000000  0.000000000     0.226079489  0.000000000  0.000000000
     0.000000000  4.423223016  0.000000000     0.000000000  0.226079489  0.000000000
     0.000000000  0.000000000  4.423223016     0.000000000  0.000000000  0.226079489

  length of vectors
     4.423223016  4.423223016  4.423223016     0.226079489  0.226079489  0.226079489


 FORCES acting on ions
    electron-ion (+dipol)            ewald-force                    non-local-force                 convergence-correction
 -----------------------------------------------------------------------------------------------
   0.614E-14 0.483E-14 0.160E-14   0.653E-14 -.812E-14 -.956E-14   0.000E+00 -.129E-24 -.517E-25   -.445E-13 -.676E-13 -.601E-13
   -.468E-13 -.688E-12 -.211E-11   0.833E-14 0.496E-15 -.969E-14   0.000E+00 0.000E+00 0.517E-25   0.221E-13 0.277E-13 -.568E-13
   -.453E-13 0.436E-14 -.278E-11   -.247E-14 -.114E-14 0.944E-14   0.000E+00 0.000E+00 -.155E-24   0.195E-13 -.665E-13 0.380E-13
   0.606E-14 -.462E-13 -.503E-13   -.157E-13 0.748E-14 0.931E-14   0.000E+00 0.258E-25 -.155E-24   -.433E-13 0.273E-13 0.384E-13
 -----------------------------------------------------------------------------------------------
   -.799E-13 -.725E-12 -.494E-11   -.332E-14 -.128E-14 -.501E-15   0.000E+00 -.103E-24 -.310E-24   -.463E-13 -.791E-13 -.405E-13
 
 
 POSITION                                       TOTAL-FORCE (eV/Angst)
 -----------------------------------------------------------------------------------
      0.00000      0.00000      0.00000         0.000000      0.000000      0.000000
      2.21161      2.21161      0.00000         0.000000      0.000000     -0.000000
      2.21161      0.00000      2.21161         0.000000      0.000000      0.000000
      0.00000      2.21161      2.21161        -0.000000      0.000000      0.000000
 -----------------------------------------------------------------------------------
    total drift:                               -0.000000     -0.000000     -0.000000


--------------------------------------------------------------------------------------------------------



 mean value of Nose-termostat <S>:     1.000 mean value of <T> :     0.000
 mean temperature <T/S>/<1/S>  :     0.000

     LOOP+:  VPU time  313.69: CPU time  314.00
  
  
 General timing and accounting informations for this job:
 ========================================================
  
                  Total CPU time used (sec):      318.971
                            User time (sec):      283.321
                          System time (sec):       35.650
                         Elapsed time (sec):      319.303
  
                   Maximum memory used (kb):      520240.
                   Average memory used (kb):           0.
  
                          Minor page faults:       184288
                          Major page faults:            0
                 Voluntary context switches:          830
