    4    4    1    1
  0.1276167E+02  0.3709561E-09  0.3709561E-09  0.3709561E-09  0.5000000E-15
  1.000000000000000E-004
  CAR 
 unknown system                          
   44 1330   32
 
  0.0000000E+00  0.0000000E+00  0.0000000E+00  0.2143347E-04
   1       -5.6212
   2       -1.3078
   3       -1.3078
   4       -1.3078
   5       -0.9035
   6       -0.9035
   7       -0.9035
   8        0.3287
   9        0.3287
  10        0.3287
  11        1.0626
  12        1.0626
  13        1.5507
  14        1.5507
  15        1.5507
  16        1.6874
  17        1.6874
  18        1.6874
  19        1.6874
  20        1.6874
  21        1.6874
  22        4.7208
  23        4.7208
  24        4.7208
  25        9.7439
  26        9.7439
  27        9.7439
  28       15.7196
  29       15.7196
  30       15.7196
  31       15.7196
  32       15.7196
 
  0.2777778E-01  0.0000000E+00  0.0000000E+00  0.1286008E-03
   1       -5.6123
   2       -1.3079
   3       -1.3037
   4       -1.3037
   5       -0.9013
   6       -0.9011
   7       -0.9011
   8        0.3262
   9        0.3307
  10        0.3307
  11        1.0604
  12        1.0635
  13        1.5478
  14        1.5478
  15        1.5498
  16        1.6726
  17        1.6726
  18        1.6840
  19        1.6840
  20        1.6874
  21        1.6874
  22        4.6553
  23        4.7436
  24        4.7436
  25        9.7474
  26        9.7474
  27        9.8274
  28       15.6503
  29       15.6503
  30       15.6753
  31       15.6753
  32       15.7324
 
  0.5555556E-01  0.0000000E+00  0.0000000E+00  0.1286008E-03
   1       -5.5856
   2       -1.3084
   3       -1.2917
   4       -1.2917
   5       -0.8946
   6       -0.8941
   7       -0.8941
   8        0.3189
   9        0.3367
  10        0.3367
  11        1.0537
  12        1.0662
  13        1.5392
  14        1.5392
  15        1.5469
  16        1.6296
  17        1.6296
  18        1.6737
  19        1.6737
  20        1.6874
  21        1.6874
  22        4.4711
  23        4.8108
  24        4.8108
  25        9.7582
  26        9.7582
  27       10.0658
  28       15.4562
  29       15.4562
  30       15.5477
  31       15.5477
  32       15.7709
 
  0.8333333E-01  0.0000000E+00  0.0000000E+00  0.1286008E-03
   1       -5.5413
   2       -1.3098
   3       -1.2719
   4       -1.2719
   5       -0.8834
   6       -0.8823
   7       -0.8823
   8        0.3068
   9        0.3466
  10        0.3466
  11        1.0427
  12        1.0708
  13        1.5250
  14        1.5250
  15        1.5422
  16        1.5620
  17        1.5620
  18        1.6569
  19        1.6569
  20        1.6874
  21        1.6874
  22        4.1972
  23        4.9187
  24        4.9187
  25        9.7762
  26        9.7762
  27       10.4307
  28       15.1683
  29       15.1683
  30       15.3503
  31       15.3503
  32       15.8349
 
  0.1111111E+00  0.0000000E+00  0.0000000E+00  0.1286008E-03
   1       -5.4793
   2       -1.3131
   3       -1.2446
   4       -1.2446
   5       -0.8680
   6       -0.8657
   7       -0.8657
   8        0.2899
   9        0.3604
  10        0.3604
  11        1.0275
  12        1.0770
  13        1.4745
  14        1.4745
  15        1.5053
  16        1.5053
  17        1.5357
  18        1.6337
  19        1.6337
  20        1.6874
  21        1.6874
  22        3.8649
  23        5.0627
  24        5.0627
  25        9.8017
  26        9.8017
  27       10.8913
  28       14.8179
  29       14.8179
  30       15.1001
  31       15.1001
  32       15.9240
 
  0.1388889E+00  0.0000000E+00  0.0000000E+00  0.1286008E-03
   1       -5.3998
   2       -1.3197
   3       -1.2102
   4       -1.2102
   5       -0.8483
   6       -0.8444
   7       -0.8444
   8        0.2684
   9        0.3782
  10        0.3782
  11        1.0083
  12        1.0850
  13        1.3720
  14        1.3720
  15        1.4802
  16        1.4802
  17        1.5274
  18        1.6045
  19        1.6045
  20        1.6875
  21        1.6875
  22        3.5001
  23        5.2376
  24        5.2376
  25        9.8350
  26        9.8350
  27       11.4232
  28       14.4290
  29       14.4290
  30       14.8136
  31       14.8136
  32       16.0378
 
  0.1666667E+00  0.0000000E+00  0.0000000E+00  0.1286008E-03
   1       -5.3030
   2       -1.3317
   3       -1.1693
   4       -1.1693
   5       -0.8244
   6       -0.8182
   7       -0.8182
   8        0.2426
   9        0.3997
  10        0.3997
  11        0.9853
  12        1.0947
  13        1.2590
  14        1.2590
  15        1.4502
  16        1.4502
  17        1.5174
  18        1.5696
  19        1.5696
  20        1.6875
  21        1.6875
  22        3.1220
  23        5.4391
  24        5.4391
  25        9.8762
  26        9.8762
  27       12.0087
  28       14.0175
  29       14.0175
  30       14.5047
  31       14.5047
  32       16.1760
 
  0.1944444E+00  0.0000000E+00  0.0000000E+00  0.1286008E-03
   1       -5.1892
   2       -1.3516
   3       -1.1227
   4       -1.1227
   5       -0.7967
   6       -0.7872
   7       -0.7872
   8        0.2126
   9        0.4251
  10        0.4251
  11        0.9589
  12        1.1060
  13        1.1393
  14        1.1393
  15        1.4156
  16        1.4156
  17        1.5058
  18        1.5297
  19        1.5297
  20        1.6876
  21        1.6876
  22        2.7448
  23        5.6632
  24        5.6632
  25        9.9259
  26        9.9259
  27       12.6359
  28       13.5936
  29       13.5936
  30       14.1843
  31       14.1843
  32       16.3379
 
  0.2222222E+00  0.0000000E+00  0.0000000E+00  0.1286008E-03
   1       -5.0587
   2       -1.3830
   3       -1.0713
   4       -1.0713
   5       -0.7651
   6       -0.7512
   7       -0.7512
   8        0.1787
   9        0.4542
  10        0.4542
  11        0.9296
  12        1.0159
  13        1.0159
  14        1.1187
  15        1.3770
  16        1.3770
  17        1.4852
  18        1.4852
  19        1.4926
  20        1.6876
  21        1.6876
  22        2.3797
  23        5.9069
  24        5.9069
  25        9.9845
  26        9.9845
  27       13.1640
  28       13.1640
  29       13.2966
  30       13.8606
  31       13.8606
  32       16.5228
 
  0.2500000E+00  0.0000000E+00  0.0000000E+00  0.1286008E-03
   1       -4.9117
   2       -1.4302
   3       -1.0161
   4       -1.0161
   5       -0.7300
   6       -0.7103
   7       -0.7103
   8        0.1411
   9        0.4868
  10        0.4868
  11        0.8911
  12        0.8911
  13        0.8978
  14        1.1329
  15        1.3350
  16        1.3350
  17        1.4367
  18        1.4367
  19        1.4780
  20        1.6877
  21        1.6877
  22        2.0363
  23        6.1678
  24        6.1678
  25       10.0525
  26       10.0525
  27       12.7332
  28       12.7332
  29       13.5395
  30       13.5395
  31       13.9850
  32       16.7301
 
  0.2777778E+00  0.0000000E+00  0.0000000E+00  0.1286008E-03
   1       -4.7489
   2       -1.4982
   3       -0.9585
   4       -0.9585
   5       -0.6916
   6       -0.6643
   7       -0.6643
   8        0.1003
   9        0.5230
  10        0.5230
  11        0.7666
  12        0.7666
  13        0.8641
  14        1.1484
  15        1.2906
  16        1.2906
  17        1.3848
  18        1.3848
  19        1.4621
  20        1.6878
  21        1.6878
  22        1.7229
  23        6.4441
  24        6.4441
  25       10.1304
  26       10.1304
  27       12.3040
  28       12.3040
  29       13.2255
  30       13.2255
  31       14.6970
  32       16.9591
 
  0.3055556E+00  0.0000000E+00  0.0000000E+00  0.1286008E-03
   1       -4.5707
   2       -1.5920
   3       -0.9000
   4       -0.9000
   5       -0.6502
   6       -0.6132
   7       -0.6132
   8        0.0564
   9        0.5625
  10        0.5625
  11        0.6439
  12        0.6439
  13        0.8293
  14        1.1651
  15        1.2448
  16        1.2448
  17        1.3301
  18        1.3301
  19        1.4450
  20        1.4470
  21        1.6878
  22        1.6878
  23        6.7343
  24        6.7343
  25       10.2189
  26       10.2189
  27       11.8784
  28       11.8784
  29       12.9218
  30       12.9218
  31       15.4294
  32       17.2090
 
  0.3333333E+00  0.0000000E+00  0.0000000E+00  0.1286008E-03
   1       -4.3779
   2       -1.7156
   3       -0.8424
   4       -0.8424
   5       -0.6060
   6       -0.5569
   7       -0.5569
   8        0.0100
   9        0.5238
  10        0.5238
  11        0.6053
  12        0.6053
  13        0.7944
  14        1.1829
  15        1.1991
  16        1.1991
  17        1.2143
  18        1.2732
  19        1.2732
  20        1.4269
  21        1.6879
  22        1.6879
  23        7.0373
  24        7.0373
  25       10.3185
  26       10.3185
  27       11.4579
  28       11.4579
  29       12.6308
  30       12.6308
  31       16.1795
  32       17.4791
 
  0.3611111E+00  0.0000000E+00  0.0000000E+00  0.1286008E-03
   1       -4.1715
   2       -1.8710
   3       -0.7876
   4       -0.7876
   5       -0.5593
   6       -0.4954
   7       -0.4954
   8       -0.0387
   9        0.4072
  10        0.4072
  11        0.6510
  12        0.6510
  13        0.7604
  14        1.0275
  15        1.1551
  16        1.1551
  17        1.2016
  18        1.2147
  19        1.2147
  20        1.4078
  21        1.6879
  22        1.6879
  23        7.3523
  24        7.3523
  25       10.4299
  26       10.4299
  27       11.0435
  28       11.0435
  29       12.3542
  30       12.3542
  31       16.9448
  32       17.7686
 
  0.3888889E+00  0.0000000E+00  0.0000000E+00  0.1286008E-03
   1       -3.9525
   2       -2.0564
   3       -0.7379
   4       -0.7379
   5       -0.5105
   6       -0.4286
   7       -0.4286
   8       -0.0892
   9        0.2946
  10        0.2946
  11        0.6996
  12        0.6996
  13        0.7287
  14        0.8859
  15        1.1148
  16        1.1148
  17        1.1552
  18        1.1552
  19        1.2211
  20        1.3880
  21        1.6879
  22        1.6879
  23        7.6784
  24        7.6784
  25       10.5536
  26       10.5536
  27       10.6359
  28       10.6359
  29       12.0931
  30       12.0931
  31       17.7228
  32       18.0768
 
  0.4166667E+00  0.0000000E+00  0.0000000E+00  0.1286008E-03
   1       -3.7225
   2       -2.2674
   3       -0.6958
   4       -0.6958
   5       -0.4600
   6       -0.3566
   7       -0.3566
   8       -0.1412
   9        0.1865
  10        0.1865
  11        0.7010
  12        0.7508
  13        0.7508
  14        0.7852
  15        1.0802
  16        1.0802
  17        1.0952
  18        1.0952
  19        1.2413
  20        1.3676
  21        1.6880
  22        1.6880
  23        8.0151
  24        8.0151
  25       10.2359
  26       10.2359
  27       10.6899
  28       10.6899
  29       11.8486
  30       11.8486
  31       18.4030
  32       18.4044
 
  0.4444444E+00  0.0000000E+00  0.0000000E+00  0.1286008E-03
   1       -3.4834
   2       -2.4976
   3       -0.6636
   4       -0.6636
   5       -0.4081
   6       -0.2792
   7       -0.2792
   8       -0.1941
   9        0.0831
  10        0.0831
  11        0.6794
  12        0.7195
  13        0.8043
  14        0.8043
  15        1.0352
  16        1.0352
  17        1.0536
  18        1.0536
  19        1.2620
  20        1.3467
  21        1.6880
  22        1.6880
  23        8.3621
  24        8.3621
  25        9.8437
  26        9.8437
  27       10.8385
  28       10.8385
  29       11.6221
  30       11.6221
  31       18.7464
  32       18.7464
 
  0.4722222E+00  0.0000000E+00  0.0000000E+00  0.1286008E-03
   1       -3.2376
   2       -2.7400
   3       -0.6433
   4       -0.6433
   5       -0.3551
   6       -0.2477
   7       -0.1965
   8       -0.1965
   9       -0.0152
  10       -0.0152
  11        0.6665
  12        0.6818
  13        0.8599
  14        0.8599
  15        0.9757
  16        0.9757
  17        1.0367
  18        1.0367
  19        1.2830
  20        1.3256
  21        1.6880
  22        1.6880
  23        8.7187
  24        8.7187
  25        9.4599
  26        9.4599
  27       10.9952
  28       10.9952
  29       11.4184
  30       11.4184
  31       19.1063
  32       19.1063
 
  0.5000000E+00  0.0000000E+00  0.0000000E+00  0.6430041E-04
   1       -2.9884
   2       -2.9884
   3       -0.6364
   4       -0.6364
   5       -0.3015
   6       -0.3015
   7       -0.1085
   8       -0.1085
   9       -0.1085
  10       -0.1085
  11        0.6659
  12        0.6659
  13        0.9171
  14        0.9171
  15        0.9171
  16        0.9171
  17        1.0309
  18        1.0309
  19        1.3043
  20        1.3043
  21        1.6880
  22        1.6880
  23        9.0848
  24        9.0848
  25        9.0848
  26        9.0848
  27       11.1059
  28       11.1059
  29       11.2920
  30       11.2920
  31       19.4821
  32       19.4821
 
  0.2777778E-01  0.2777778E-01  0.0000000E+00  0.2572016E-03
   1       -5.6034
   2       -1.3038
   3       -1.3038
   4       -1.2997
   5       -0.8989
   6       -0.8989
   7       -0.8988
   8        0.3248
   9        0.3316
  10        0.3327
  11        1.0597
  12        1.0629
  13        1.5450
  14        1.5468
  15        1.5468
  16        1.6602
  17        1.6692
  18        1.6692
  19        1.6840
  20        1.6840
  21        1.6852
  22        4.6780
  23        4.6780
  24        4.7662
  25        9.7510
  26        9.8312
  27        9.8312
  28       15.4769
  29       15.6630
  30       15.6630
  31       15.6881
  32       15.6881
 
  0.5555556E-01  0.2777778E-01  0.0000000E+00  0.5144033E-03
   1       -5.5768
   2       -1.3043
   3       -1.2918
   4       -1.2877
   5       -0.8922
   6       -0.8919
   7       -0.8918
   8        0.3181
   9        0.3371
  10        0.3386
  11        1.0537
  12        1.0650
  13        1.5364
  14        1.5376
  15        1.5435
  16        1.6191
  17        1.6266
  18        1.6591
  19        1.6737
  20        1.6840
  21        1.6840
  22        4.4937
  23        4.7449
  24        4.8328
  25        9.7618
  26        9.8425
  27       10.0701
  28       15.2078
  29       15.4686
  30       15.5602
  31       15.7012
  32       15.7156
 
  0.8333333E-01  0.2777778E-01  0.0000000E+00  0.5144033E-03
   1       -5.5324
   2       -1.3057
   3       -1.2719
   4       -1.2680
   5       -0.8811
   6       -0.8801
   7       -0.8800
   8        0.3061
   9        0.3468
  10        0.3484
  11        1.0428
  12        1.0695
  13        1.5206
  14        1.5222
  15        1.5381
  16        1.5526
  17        1.5614
  18        1.6425
  19        1.6569
  20        1.6837
  21        1.6840
  22        4.2197
  23        4.8522
  24        4.9400
  25        9.7799
  26        9.8614
  27       10.4354
  28       14.8779
  29       15.1803
  30       15.3625
  31       15.5854
  32       15.7646
 
  0.1111111E+00  0.2777778E-01  0.0000000E+00  0.5144033E-03
   1       -5.4704
   2       -1.3089
   3       -1.2445
   4       -1.2407
   5       -0.8657
   6       -0.8636
   7       -0.8635
   8        0.2893
   9        0.3606
  10        0.3621
  11        1.0277
  12        1.0759
  13        1.4645
  14        1.4662
  15        1.5026
  16        1.5099
  17        1.5302
  18        1.6199
  19        1.6337
  20        1.6836
  21        1.6840
  22        3.8877
  23        4.9952
  24        5.0829
  25        9.8054
  26        9.8883
  27       10.8966
  28       14.5080
  29       14.8296
  30       15.1119
  31       15.3764
  32       15.8547
 
  0.1388889E+00  0.2777778E-01  0.0000000E+00  0.5144033E-03
   1       -5.3910
   2       -1.3154
   3       -1.2100
   4       -1.2064
   5       -0.8460
   6       -0.8423
   7       -0.8422
   8        0.2679
   9        0.3783
  10        0.3796
  11        1.0086
  12        1.0840
  13        1.3644
  14        1.3647
  15        1.4777
  16        1.4822
  17        1.5194
  18        1.5920
  19        1.6045
  20        1.6836
  21        1.6840
  22        3.5236
  23        5.1687
  24        5.2569
  25        9.8387
  26        9.9232
  27       11.4290
  28       14.1134
  29       14.4405
  30       14.8250
  31       15.1114
  32       15.9662
 
  0.1666667E+00  0.2777778E-01  0.0000000E+00  0.5144033E-03
   1       -5.2943
   2       -1.3272
   3       -1.1690
   4       -1.1657
   5       -0.8223
   6       -0.8162
   7       -0.8162
   8        0.2422
   9        0.3999
  10        0.4009
  11        0.9858
  12        1.0938
  13        1.2518
  14        1.2528
  15        1.4478
  16        1.4517
  17        1.5040
  18        1.5608
  19        1.5696
  20        1.6836
  21        1.6841
  22        3.1469
  23        5.3681
  24        5.4574
  25        9.8800
  26        9.9666
  27       12.0148
  28       13.7048
  29       14.0287
  30       14.5157
  31       14.8107
  32       16.1022
 
  0.1944444E+00  0.2777778E-01  0.0000000E+00  0.5144033E-03
   1       -5.1805
   2       -1.3470
   3       -1.1223
   4       -1.1192
   5       -0.7946
   6       -0.7853
   7       -0.7852
   8        0.2123
   9        0.4252
  10        0.4259
  11        0.9596
  12        1.1052
  13        1.1323
  14        1.1340
  15        1.4134
  16        1.4169
  17        1.4800
  18        1.5297
  19        1.5306
  20        1.6836
  21        1.6841
  22        2.7720
  23        5.5897
  24        5.6806
  25        9.9298
  26       10.0189
  27       12.6423
  28       13.2893
  29       13.6047
  30       14.1948
  31       14.4894
  32       16.2628
 
  0.2222222E+00  0.2777778E-01  0.0000000E+00  0.5144033E-03
   1       -5.0500
   2       -1.3782
   3       -1.0707
   4       -1.0679
   5       -0.7631
   6       -0.7495
   7       -0.7493
   8        0.1784
   9        0.4543
  10        0.4545
  11        0.9305
  12        1.0090
  13        1.0115
  14        1.1181
  15        1.3749
  16        1.3781
  17        1.4424
  18        1.4852
  19        1.5063
  20        1.6837
  21        1.6842
  22        2.4110
  23        5.8303
  24        5.9234
  25        9.9884
  26       10.0806
  27       12.8715
  28       13.1750
  29       13.3031
  30       13.8707
  31       14.1589
  32       16.4446
 
  0.2500000E+00  0.2777778E-01  0.0000000E+00  0.5144033E-03
   1       -4.9032
   2       -1.4252
   3       -1.0154
   4       -1.0129
   5       -0.7281
   6       -0.7087
   7       -0.7084
   8        0.1410
   9        0.4866
  10        0.4870
  11        0.8844
  12        0.8874
  13        0.8991
  14        1.1325
  15        1.3331
  16        1.3361
  17        1.3920
  18        1.4367
  19        1.4862
  20        1.6838
  21        1.6842
  22        2.0747
  23        6.0875
  24        6.1836
  25       10.0564
  26       10.1522
  27       12.4548
  28       12.7441
  29       13.5493
  30       13.8272
  31       13.9917
  32       16.6493
 
  0.2777778E+00  0.2777778E-01  0.0000000E+00  0.5144033E-03
   1       -4.7404
   2       -1.4929
   3       -0.9575
   4       -0.9554
   5       -0.6897
   6       -0.6630
   7       -0.6625
   8        0.1002
   9        0.5220
  10        0.5231
  11        0.7601
  12        0.7636
  13        0.8660
  14        1.1482
  15        1.2889
  16        1.2916
  17        1.3291
  18        1.3848
  19        1.4667
  20        1.6839
  21        1.6842
  22        1.7758
  23        6.3593
  24        6.4592
  25       10.1342
  26       10.2344
  27       12.0412
  28       12.3149
  29       13.2349
  30       13.5002
  31       14.7038
  32       16.8754
 
  0.3055556E+00  0.2777778E-01  0.0000000E+00  0.5144033E-03
   1       -4.5623
   2       -1.5865
   3       -0.8988
   4       -0.8970
   5       -0.6484
   6       -0.6122
   7       -0.6115
   8        0.0565
   9        0.5602
  10        0.5626
  11        0.6376
  12        0.6415
  13        0.8323
  14        1.1652
  15        1.2433
  16        1.2453
  17        1.2458
  18        1.3301
  19        1.4428
  20        1.5357
  21        1.6839
  22        1.6843
  23        6.6445
  24        6.7489
  25       10.2224
  26       10.3277
  27       11.6323
  28       11.8893
  29       12.9309
  30       13.1821
  31       15.4361
  32       17.1266
 
  0.3333333E+00  0.2777778E-01  0.0000000E+00  0.5144033E-03
   1       -4.3697
   2       -1.7099
   3       -0.8409
   4       -0.8393
   5       -0.6043
   6       -0.5564
   7       -0.5554
   8        0.0102
   9        0.5178
  10        0.5219
  11        0.6007
  12        0.6053
  13        0.7994
  14        1.1235
  15        1.1832
  16        1.1978
  17        1.2001
  18        1.2732
  19        1.3540
  20        1.4383
  21        1.6840
  22        1.6843
  23        6.9417
  24        7.0513
  25       10.3210
  26       10.4328
  27       11.2293
  28       11.4689
  29       12.6395
  30       12.8758
  31       16.1859
  32       17.3879
 
  0.3611111E+00  0.2777778E-01  0.0000000E+00  0.5144033E-03
   1       -4.1633
   2       -1.8650
   3       -0.7858
   4       -0.7845
   5       -0.5577
   6       -0.4955
   7       -0.4940
   8       -0.0384
   9        0.4016
  10        0.4058
  11        0.6413
  12        0.6511
  13        0.7702
  14        0.9811
  15        1.1540
  16        1.1561
  17        1.2022
  18        1.2147
  19        1.2559
  20        1.4144
  21        1.6841
  22        1.6843
  23        7.2501
  24        7.3658
  25       10.4281
  26       10.5505
  27       10.8357
  28       11.0545
  29       12.3625
  30       12.5837
  31       16.9502
  32       17.6743
 
  0.3888889E+00  0.2777778E-01  0.0000000E+00  0.5144033E-03
   1       -3.9445
   2       -2.0501
   3       -0.7359
   4       -0.7348
   5       -0.5091
   6       -0.4293
   7       -0.4274
   8       -0.0887
   9        0.2893
  10        0.2937
  11        0.6736
  12        0.6997
  13        0.7545
  14        0.8570
  15        1.1139
  16        1.1156
  17        1.1552
  18        1.1803
  19        1.2220
  20        1.3930
  21        1.6841
  22        1.6843
  23        7.5688
  24        7.6915
  25       10.4122
  26       10.5839
  27       10.6471
  28       10.6812
  29       12.1011
  30       12.3073
  31       17.7224
  32       17.9817
 
  0.4166667E+00  0.2777778E-01  0.0000000E+00  0.5144033E-03
   1       -3.7147
   2       -2.2609
   3       -0.6935
   4       -0.6926
   5       -0.4586
   6       -0.3580
   7       -0.3556
   8       -0.1406
   9        0.1816
  10        0.1859
  11        0.6771
  12        0.7508
  13        0.7647
  14        0.7741
  15        1.0796
  16        1.0810
  17        1.0951
  18        1.1128
  19        1.2425
  20        1.3717
  21        1.6842
  22        1.6843
  23        7.8974
  24        8.0279
  25       10.0447
  26       10.2472
  27       10.7035
  28       10.8254
  29       11.8564
  30       12.0478
  31       18.2943
  32       18.3194
 
  0.4444444E+00  0.2777778E-01  0.0000000E+00  0.5144033E-03
   1       -3.4757
   2       -2.4908
   3       -0.6610
   4       -0.6604
   5       -0.4068
   6       -0.2813
   7       -0.2784
   8       -0.1934
   9        0.0787
  10        0.0829
  11        0.6639
  12        0.7033
  13        0.8043
  14        0.8189
  15        1.0352
  16        1.0490
  17        1.0532
  18        1.0541
  19        1.2636
  20        1.3501
  21        1.6842
  22        1.6843
  23        8.2351
  24        8.3745
  25        9.6688
  26        9.8552
  27       10.8516
  28       10.9823
  29       11.6301
  30       11.8062
  31       18.6299
  32       18.6698
 
  0.4722222E+00  0.2777778E-01  0.0000000E+00  0.5144033E-03
   1       -3.2301
   2       -2.7329
   3       -0.6405
   4       -0.6401
   5       -0.3540
   6       -0.2469
   7       -0.1992
   8       -0.1959
   9       -0.0192
  10       -0.0152
  11        0.6535
  12        0.6680
  13        0.8599
  14        0.8717
  15        0.9757
  16        0.9875
  17        1.0365
  18        1.0370
  19        1.2850
  20        1.3284
  21        1.6843
  22        1.6843
  23        8.5816
  24        8.7309
  25        9.2989
  26        9.4716
  27       11.0129
  28       11.1434
  29       11.4315
  30       11.5846
  31       18.9807
  32       19.0278
 
  0.5000000E+00  0.2777778E-01  0.0000000E+00  0.2572016E-03
   1       -2.9811
   2       -2.9811
   3       -0.6333
   4       -0.6333
   5       -0.3005
   6       -0.3005
   7       -0.1119
   8       -0.1119
   9       -0.1081
  10       -0.1081
  11        0.6532
  12        0.6532
  13        0.9171
  14        0.9171
  15        0.9283
  16        0.9283
  17        1.0310
  18        1.0310
  19        1.3067
  20        1.3067
  21        1.6843
  22        1.6843
  23        8.9363
  24        8.9363
  25        9.0967
  26        9.0967
  27       11.1712
  28       11.1712
  29       11.3987
  30       11.3987
  31       19.3467
  32       19.3624
 
  0.5555556E-01  0.5555556E-01  0.0000000E+00  0.2572016E-03
   1       -5.5501
   2       -1.2921
   3       -1.2921
   4       -1.2758
   5       -0.8852
   6       -0.8852
   7       -0.8848
   8        0.3134
   9        0.3404
  10        0.3443
  11        1.0512
  12        1.0639
  13        1.5280
  14        1.5326
  15        1.5326
  16        1.5836
  17        1.6175
  18        1.6175
  19        1.6737
  20        1.6737
  21        1.6787
  22        4.5599
  23        4.5599
  24        4.8979
  25        9.7726
  26       10.0827
  27       10.0827
  28       14.8626
  29       15.5057
  30       15.5057
  31       15.5977
  32       15.5977
 
  0.8333333E-01  0.5555556E-01  0.0000000E+00  0.5144033E-03
   1       -5.5058
   2       -1.2933
   3       -1.2721
   4       -1.2562
   5       -0.8742
   6       -0.8735
   7       -0.8732
   8        0.3028
   9        0.3489
  10        0.3537
  11        1.0422
  12        1.0668
  13        1.5077
  14        1.5140
  15        1.5224
  16        1.5236
  17        1.5592
  18        1.6031
  19        1.6569
  20        1.6738
  21        1.6755
  22        4.2857
  23        4.6660
  24        5.0026
  25        9.7908
  26       10.1040
  27       10.4498
  28       14.4789
  29       15.2163
  30       15.3989
  31       15.5674
  32       15.6600
 
  0.1111111E+00  0.5555556E-01  0.0000000E+00  0.5144033E-03
   1       -5.4440
   2       -1.2963
   3       -1.2444
   4       -1.2292
   5       -0.8589
   6       -0.8571
   7       -0.8568
   8        0.2868
   9        0.3620
  10        0.3669
  11        1.0278
  12        1.0729
  13        1.4402
  14        1.4420
  15        1.4947
  16        1.5094
  17        1.5164
  18        1.5848
  19        1.6337
  20        1.6738
  21        1.6739
  22        3.9541
  23        4.8066
  24        5.1429
  25        9.8165
  26       10.1341
  27       10.9126
  28       14.0728
  29       14.8647
  30       15.1471
  31       15.6534
  32       15.7050
 
  0.1388889E+00  0.5555556E-01  0.0000000E+00  0.5144033E-03
   1       -5.3646
   2       -1.3025
   3       -1.2097
   4       -1.1952
   5       -0.8393
   6       -0.8359
   7       -0.8358
   8        0.2659
   9        0.3794
  10        0.3839
  11        1.0092
  12        1.0811
  13        1.3424
  14        1.3434
  15        1.4701
  16        1.4865
  17        1.4879
  18        1.5645
  19        1.6044
  20        1.6731
  21        1.6738
  22        3.5917
  23        4.9767
  24        5.3140
  25        9.8499
  26       10.1733
  27       11.4462
  28       13.6547
  29       14.4747
  30       14.8589
  31       15.5123
  32       15.7631
 
  0.1666667E+00  0.5555556E-01  0.0000000E+00  0.5144033E-03
   1       -5.2680
   2       -1.3140
   3       -1.1683
   4       -1.1549
   5       -0.8157
   6       -0.8101
   7       -0.8100
   8        0.2406
   9        0.4007
  10        0.4044
  11        0.9869
  12        1.0912
  13        1.2312
  14        1.2338
  15        1.4406
  16        1.4550
  17        1.4571
  18        1.5444
  19        1.5695
  20        1.6727
  21        1.6738
  22        3.2182
  23        5.1713
  24        5.5116
  25        9.8914
  26       10.2220
  27       12.0331
  28       13.2318
  29       14.0623
  30       14.5484
  31       15.2604
  32       15.8961
 
  0.1944444E+00  0.5555556E-01  0.0000000E+00  0.5144033E-03
   1       -5.1544
   2       -1.3333
   3       -1.1211
   4       -1.1088
   5       -0.7882
   6       -0.7795
   7       -0.7792
   8        0.2110
   9        0.4259
  10        0.4284
  11        0.9613
  12        1.1031
  13        1.1119
  14        1.1180
  15        1.4066
  16        1.4159
  17        1.4199
  18        1.5252
  19        1.5296
  20        1.6725
  21        1.6738
  22        2.8488
  23        5.3868
  24        5.7322
  25        9.9413
  26       10.2806
  27       12.6614
  28       12.8090
  29       13.6378
  30       14.2263
  31       14.9700
  32       16.0517
 
  0.2222222E+00  0.5555556E-01  0.0000000E+00  0.5144033E-03
   1       -5.0241
   2       -1.3639
   3       -1.0691
   4       -1.0579
   5       -0.7569
   6       -0.7442
   7       -0.7436
   8        0.1775
   9        0.4548
  10        0.4557
  11        0.9330
  12        0.9889
  13        0.9980
  14        1.1165
  15        1.3639
  16        1.3687
  17        1.3810
  18        1.4850
  19        1.5061
  20        1.6724
  21        1.6738
  22        2.4961
  23        5.6198
  24        5.9726
  25       10.0000
  26       10.3497
  27       12.3896
  28       13.2079
  29       13.3228
  30       13.9010
  31       14.6573
  32       16.2292
 
  0.2500000E+00  0.5555556E-01  0.0000000E+00  0.5144033E-03
   1       -4.8775
   2       -1.4102
   3       -1.0132
   4       -1.0033
   5       -0.7221
   6       -0.7041
   7       -0.7030
   8        0.1404
   9        0.4860
  10        0.4874
  11        0.8647