 running on    4 nodes
 distr:  one band on    1 nodes,    4 groups
 vasp.4.6.28 25Jul05 complex 
 POSCAR found :  1 types and   32 ions

 ----------------------------------------------------------------------------- 
|                                                                             |
|  ADVICE TO THIS USER RUNNING 'VASP/VAMP'   (HEAR YOUR MASTER'S VOICE ...):  |
|                                                                             |
|      You have a (more or less) 'large supercell' and for larger cells       |
|      it might be more efficient to use real space projection operators      |
|      So try LREAL= Auto  in the INCAR   file.                               |
|      Mind: If you want to do an extremely accurate calculations keep the    |
|      reciprocal projection scheme          (i.e. LREAL=.FALSE.)             |
|                                                                             |
 ----------------------------------------------------------------------------- 

 LDA part: xc-table for Pade appr. of Perdew
 POSCAR, INCAR and KPOINTS ok, starting setup
 FFT: planning ...           2
 reading WAVECAR
 entering main loop
       N       E                     dE             d eps       ncg     rms          rms(c)
DAV:   1     0.142522649924E+03    0.14252E+03   -0.36519E+04   544   0.127E+03
DAV:   2    -0.105741088789E+03   -0.24826E+03   -0.23226E+03   628   0.149E+02
DAV:   3    -0.120521248393E+03   -0.14780E+02   -0.14067E+02   688   0.288E+01
DAV:   4    -0.120879220466E+03   -0.35797E+00   -0.35067E+00   632   0.453E+00
DAV:   5    -0.120884515893E+03   -0.52954E-02   -0.52899E-02   644   0.618E-01    0.508E+00
DAV:   6    -0.120488676152E+03    0.39584E+00   -0.57620E-02   640   0.786E-01    0.315E+00
DAV:   7    -0.120200584558E+03    0.28809E+00   -0.16875E-01   584   0.126E+00    0.131E-01
DAV:   8    -0.120200619256E+03   -0.34698E-04   -0.12102E-03   660   0.138E-01    0.324E-02
DAV:   9    -0.120200636007E+03   -0.16751E-04   -0.31703E-05   516   0.161E-02    0.303E-03
DAV:  10    -0.120200630013E+03    0.59940E-05   -0.26460E-06   372   0.655E-03
   1 F= -.12020063E+03 E0= -.12019145E+03  d E =-.120201E+03
 curvature:   0.00 expect dE= 0.000E+00 dE for cont linesearch  0.000E+00
 trial: gam= 0.00000 g(F)=  0.952E-60 g(S)=  0.000E+00 ort = 0.000E+00 (trialstep = 0.100E+01)
 search vector abs. value=  0.100E-09
 reached required accuracy - stopping structural energy minimisation
 writing wavefunctions

 ----------------------------------------------------------------------------- 
|                                                                             |
|           W    W    AA    RRRRR   N    N  II  N    N   GGGG   !!!           |
|           W    W   A  A   R    R  NN   N  II  NN   N  G    G  !!!           |
|           W    W  A    A  R    R  N N  N  II  N N  N  G       !!!           |
|           W WW W  AAAAAA  RRRRR   N  N N  II  N  N N  G  GGG   !            |
|           WW  WW  A    A  R   R   N   NN  II  N   NN  G    G                |
|           W    W  A    A  R    R  N    N  II  N    N   GGGG   !!!           |
|                                                                             |
|      The partial DOS and the PROCAR file are not evaluated for NPAR/=1      |
|      please rerun with NPAR=1                                               |
|                                                                             |
 ----------------------------------------------------------------------------- 

