   4   4   0   0
  0.1657884E+02  0.4047666E-09  0.4047666E-09  0.4047666E-09  0.5000000E-15
  1.000000000000000E-004
  CAR 
 unknown system                          
     18.67927517     -5.11474290  301      6.07675439      1.00000000
     -5.115  0.0000E+00  0.0000E+00
     -5.035  0.0000E+00  0.0000E+00
     -4.956  0.0000E+00  0.0000E+00
     -4.877  0.0000E+00  0.0000E+00
     -4.797  0.0000E+00  0.0000E+00
     -4.718  0.0000E+00  0.0000E+00
     -4.639  0.0000E+00  0.0000E+00
     -4.560  0.0000E+00  0.0000E+00
     -4.480  0.0000E+00  0.0000E+00
     -4.401  0.0000E+00  0.0000E+00
     -4.322  0.0000E+00  0.0000E+00
     -4.242  0.0000E+00  0.0000E+00
     -4.163  0.0000E+00  0.0000E+00
     -4.084  0.6918E-14  0.5487E-15
     -4.004  0.1459E-01  0.1157E-02
     -3.925  0.8754E-01  0.8100E-02
     -3.846  0.1749E+00  0.2197E-01
     -3.766  0.1164E+00  0.3122E-01
     -3.687  0.8620E-01  0.3809E-01
     -3.608  0.3439E+00  0.6547E-01
     -3.528  0.3460E+00  0.9341E-01
     -3.449  0.0000E+00  0.9375E-01
     -3.370  0.1735E+00  0.1075E+00
     -3.291  0.4327E+00  0.1420E+00
     -3.211  0.3452E+00  0.1697E+00
     -3.132  0.3499E+00  0.1979E+00
     -3.053  0.1167E+00  0.2072E+00
     -2.973  0.3502E+00  0.2350E+00
     -2.894  0.7005E+00  0.2905E+00
     -2.815  0.3307E-10  0.2905E+00
     -2.735  0.4212E+00  0.3239E+00
     -2.656  0.3661E+00  0.3543E+00
     -2.577  0.8570E+00  0.4222E+00
     -2.497  0.1968E+00  0.4381E+00
     -2.418  0.1050E+01  0.5335E+00
     -2.339  0.3363E-12  0.5336E+00
     -2.259  0.3502E+00  0.5613E+00
     -2.180  0.1670E+00  0.5746E+00
     -2.101  0.1166E+01  0.6671E+00
     -2.022  0.1319E+01  0.7717E+00
     -1.942  0.1999E-05  0.7720E+00
     -1.863  0.1348E+01  0.8789E+00
     -1.784  0.8567E-03  0.8832E+00
     -1.704  0.1287E+01  0.9853E+00
     -1.625  0.5111E+00  0.1026E+01
     -1.546  0.1993E+01  0.1184E+01
     -1.466  0.1297E+01  0.1294E+01
     -1.387  0.2129E+01  0.1463E+01
     -1.308  0.2806E+01  0.1705E+01
     -1.228  0.1736E+01  0.1881E+01
     -1.149  0.4849E+01  0.2268E+01
     -1.070  0.2743E+01  0.2499E+01
     -0.990  0.3124E+01  0.2747E+01
     -0.911  0.6118E+01  0.3232E+01
     -0.832  0.4645E+01  0.3659E+01
     -0.753  0.5896E+01  0.4129E+01
     -0.673  0.7896E+01  0.4807E+01
     -0.594  0.7290E+01  0.5408E+01
     -0.515  0.4894E+01  0.5805E+01
     -0.435  0.9924E+01  0.6592E+01
     -0.356  0.6238E+01  0.7122E+01
     -0.277  0.5212E+01  0.7536E+01
     -0.197  0.5099E+01  0.7956E+01
     -0.118  0.7973E+01  0.8596E+01
     -0.039  0.5983E+01  0.9073E+01
      0.041  0.4529E+01  0.9435E+01
      0.120  0.5141E+01  0.9853E+01
      0.199  0.3720E+01  0.1019E+02
      0.279  0.4067E+01  0.1055E+02
      0.358  0.7537E+01  0.1117E+02
      0.437  0.5640E+01  0.1162E+02
      0.517  0.5053E+01  0.1202E+02
      0.596  0.8749E+01  0.1277E+02
      0.675  0.4818E+01  0.1318E+02
      0.754  0.9177E+01  0.1392E+02
      0.834  0.6483E+01  0.1445E+02
      0.913  0.8206E+01  0.1511E+02
      0.992  0.6372E+01  0.1563E+02
      1.072  0.7565E+01  0.1626E+02
      1.151  0.7071E+01  0.1685E+02
      1.230  0.8981E+01  0.1760E+02
      1.310  0.1008E+02  0.1845E+02
      1.389  0.9952E+01  0.1927E+02
      1.468  0.8392E+01  0.1995E+02
      1.548  0.1097E+02  0.2086E+02
      1.627  0.1450E+02  0.2204E+02
      1.706  0.9593E+01  0.2284E+02
      1.786  0.8479E+01  0.2352E+02
      1.865  0.6851E+01  0.2408E+02
      1.944  0.5187E+01  0.2450E+02
      2.023  0.6367E+01  0.2502E+02
      2.103  0.4965E+01  0.2543E+02
      2.182  0.7290E+01  0.2603E+02
      2.261  0.5170E+01  0.2646E+02
      2.341  0.6647E+01  0.2700E+02
      2.420  0.6431E+01  0.2754E+02
      2.499  0.7369E+01  0.2815E+02
      2.579  0.7719E+01  0.2878E+02
      2.658  0.8922E+01  0.2950E+02
      2.737  0.6468E+01  0.3004E+02
      2.817  0.6711E+01  0.3059E+02
      2.896  0.8530E+01  0.3128E+02
      2.975  0.7473E+01  0.3188E+02
      3.055  0.6592E+01  0.3243E+02
      3.134  0.5602E+01  0.3288E+02
      3.213  0.5274E+01  0.3331E+02
      3.292  0.5412E+01  0.3374E+02
      3.372  0.7032E+01  0.3432E+02
      3.451  0.7540E+01  0.3492E+02
      3.530  0.6502E+01  0.3544E+02
      3.610  0.4405E+01  0.3582E+02
      3.689  0.4409E+01  0.3618E+02
      3.768  0.9761E+01  0.3696E+02
      3.848  0.8579E+01  0.3766E+02
      3.927  0.8389E+01  0.3835E+02
      4.006  0.7662E+01  0.3898E+02
      4.086  0.1440E+02  0.4013E+02
      4.165  0.1064E+02  0.4103E+02
      4.244  0.4154E+01  0.4137E+02
      4.324  0.4193E+01  0.4170E+02
      4.403  0.3230E+01  0.4197E+02
      4.482  0.2065E+01  0.4214E+02
      4.561  0.1520E+00  0.4215E+02
      4.641  0.9020E+00  0.4222E+02
      4.720  0.4203E+01  0.4255E+02
      4.799  0.5083E+00  0.4260E+02
      4.879  0.1305E+01  0.4270E+02
      4.958  0.7972E-09  0.4271E+02
      5.037  0.1293E+01  0.4281E+02
      5.117  0.9397E-06  0.4282E+02
      5.196  0.7006E+00  0.4288E+02
      5.275  0.2410E+01  0.4307E+02
      5.355  0.1221E+01  0.4321E+02
      5.434  0.8624E+00  0.4327E+02
      5.513  0.3608E+00  0.4330E+02
      5.593  0.1337E+01  0.4341E+02
      5.672  0.7000E+00  0.4347E+02
      5.751  0.3505E+00  0.4350E+02
      5.831  0.9212E+00  0.4357E+02
      5.910  0.3029E+01  0.4382E+02
      5.989  0.9954E+00  0.4393E+02
      6.068  0.5968E+00  0.4397E+02
      6.148  0.1154E+01  0.4407E+02
      6.227  0.6999E+00  0.4412E+02
      6.306  0.3502E+00  0.4415E+02
      6.386  0.6813E+00  0.4420E+02
      6.465  0.1399E+01  0.4432E+02
      6.544  0.1148E+01  0.4441E+02
      6.624  0.1739E+01  0.4455E+02
      6.703  0.9391E+00  0.4462E+02
      6.782  0.1681E+01  0.4476E+02
      6.862  0.6847E+00  0.4482E+02
      6.941  0.7003E+00  0.4488E+02
      7.020  0.7031E+00  0.4493E+02
      7.100  0.1092E+01  0.4502E+02
      7.179  0.9882E+00  0.4510E+02
      7.258  0.7952E+00  0.4517E+02
      7.337  0.1335E+01  0.4528E+02
      7.417  0.2048E+01  0.4545E+02
      7.496  0.1758E+00  0.4547E+02
      7.575  0.1400E+01  0.4558E+02
      7.655  0.9197E+00  0.4565E+02
      7.734  0.4919E+00  0.4570E+02
      7.813  0.1434E+01  0.4581E+02
      7.893  0.5638E-02  0.4581E+02
      7.972  0.1744E+01  0.4595E+02
      8.051  0.1379E+01  0.4606E+02
      8.131  0.1080E+00  0.4607E+02
      8.210  0.9255E+00  0.4614E+02
      8.289  0.2275E+01  0.4632E+02
      8.369  0.1135E+01  0.4642E+02
      8.448  0.9436E-09  0.4644E+02
      8.527  0.7606E+00  0.4650E+02
      8.606  0.6473E+00  0.4655E+02
      8.686  0.1566E+01  0.4667E+02
      8.765  0.7438E+00  0.4673E+02
      8.844  0.1020E+01  0.4681E+02
      8.924  0.8445E+00  0.4688E+02
      9.003  0.7003E+00  0.4695E+02
      9.082  0.5616E-08  0.4695E+02
      9.162  0.1051E+01  0.4703E+02
      9.241  0.1001E+01  0.4711E+02
      9.320  0.1347E+01  0.4722E+02
      9.400  0.2554E+01  0.4744E+02
      9.479  0.1001E+01  0.4752E+02
      9.558  0.1286E+01  0.4762E+02
      9.638  0.2879E+01  0.4785E+02
      9.717  0.3766E+00  0.4790E+02
      9.796  0.6982E+00  0.4796E+02
      9.875  0.3508E+01  0.4824E+02
      9.955  0.5274E+00  0.4829E+02
     10.034  0.3721E-03  0.4829E+02
     10.113  0.1199E+01  0.4838E+02
     10.193  0.8756E+00  0.4847E+02
     10.272  0.3505E+00  0.4850E+02
     10.351  0.2156E+01  0.4867E+02
     10.431  0.1191E+01  0.4876E+02
     10.510  0.1125E+01  0.4885E+02
     10.589  0.1642E+01  0.4898E+02
     10.669  0.1168E+00  0.4899E+02
     10.748  0.1649E+01  0.4912E+02
     10.827  0.1036E+01  0.4921E+02
     10.907  0.5253E+00  0.4925E+02
     10.986  0.6969E+00  0.4930E+02
     11.065  0.2011E+01  0.4946E+02
     11.145  0.1931E+01  0.4962E+02
     11.224  0.2729E+00  0.4967E+02
     11.303  0.3391E+00  0.4970E+02
     11.382  0.2653E+01  0.4991E+02
     11.462  0.1885E+01  0.5006E+02
     11.541  0.4542E+00  0.5010E+02
     11.620  0.8928E+00  0.5017E+02
     11.700  0.4371E+00  0.5020E+02
     11.779  0.2008E+01  0.5036E+02
     11.858  0.2134E+01  0.5053E+02
     11.938  0.1510E+01  0.5065E+02
     12.017  0.1185E+01  0.5075E+02
     12.096  0.2646E+01  0.5096E+02
     12.176  0.6817E+00  0.5102E+02
     12.255  0.7360E+00  0.5108E+02
     12.334  0.4727E+00  0.5114E+02
     12.414  0.1614E+01  0.5127E+02
     12.493  0.1351E-04  0.5127E+02
     12.572  0.2580E+01  0.5147E+02
     12.651  0.1798E+01  0.5161E+02
     12.731  0.1576E+01  0.5174E+02
     12.810  0.6103E+00  0.5179E+02
     12.889  0.1156E+01  0.5189E+02
     12.969  0.3300E+00  0.5191E+02
     13.048  0.3223E-02  0.5191E+02
     13.127  0.9266E+00  0.5199E+02
     13.207  0.1153E+01  0.5209E+02
     13.286  0.3043E+01  0.5233E+02
     13.365  0.3425E+00  0.5236E+02
     13.445  0.8300E+00  0.5242E+02
     13.524  0.1879E+01  0.5257E+02
     13.603  0.1555E+01  0.5272E+02
     13.683  0.1053E+01  0.5280E+02
     13.762  0.1923E+01  0.5295E+02
     13.841  0.6416E+00  0.5301E+02
     13.920  0.5566E+00  0.5306E+02
     14.000  0.1445E+01  0.5317E+02
     14.079  0.1595E+01  0.5332E+02
     14.158  0.1892E+01  0.5347E+02
     14.238  0.4481E+00  0.5351E+02
     14.317  0.1394E+01  0.5362E+02
     14.396  0.3502E+00  0.5364E+02
     14.476  0.3703E+00  0.5367E+02
     14.555  0.3162E+01  0.5392E+02
     14.634  0.8432E+00  0.5402E+02
     14.714  0.2895E+01  0.5425E+02
     14.793  0.1051E+01  0.5433E+02
     14.872  0.1384E+01  0.5444E+02
     14.952  0.3256E+01  0.5470E+02
     15.031  0.1720E+01  0.5485E+02
     15.110  0.2066E+00  0.5486E+02
     15.189  0.6998E+00  0.5493E+02
     15.269  0.3474E+00  0.5496E+02
     15.348  0.1758E+00  0.5497E+02
     15.427  0.1751E+01  0.5511E+02
     15.507  0.1382E+01  0.5522E+02
     15.586  0.7010E+00  0.5528E+02
     15.665  0.1193E+01  0.5537E+02
     15.745  0.9078E+00  0.5544E+02
     15.824  0.9261E+00  0.5552E+02
     15.903  0.1006E+01  0.5560E+02
     15.983  0.8911E+00  0.5567E+02
     16.062  0.3597E+00  0.5570E+02
     16.141  0.4852E+00  0.5573E+02
     16.221  0.1023E+01  0.5582E+02
     16.300  0.3479E-01  0.5582E+02
     16.379  0.6210E+00  0.5587E+02
     16.459  0.1459E-01  0.5588E+02
     16.538  0.3502E+00  0.5591E+02
     16.617  0.3501E+00  0.5594E+02
     16.696  0.6965E+00  0.5599E+02
     16.776  0.0000E+00  0.5599E+02
     16.855  0.0000E+00  0.5599E+02
     16.934  0.0000E+00  0.5599E+02
     17.014  0.0000E+00  0.5599E+02
     17.093  0.0000E+00  0.5599E+02
     17.172  0.0000E+00  0.5599E+02
     17.252  0.0000E+00  0.5599E+02
     17.331  0.0000E+00  0.5599E+02
     17.410  0.0000E+00  0.5599E+02
     17.490  0.0000E+00  0.5599E+02
     17.569  0.2643E-05  0.5599E+02
     17.648  0.1167E+00  0.5600E+02
     17.728  0.0000E+00  0.5600E+02
     17.807  0.0000E+00  0.5600E+02
     17.886  0.0000E+00  0.5600E+02
     17.965  0.0000E+00  0.5600E+02
     18.045  0.0000E+00  0.5600E+02
     18.124  0.0000E+00  0.5600E+02
     18.203  0.0000E+00  0.5600E+02
     18.283  0.0000E+00  0.5600E+02
     18.362  0.0000E+00  0.5600E+02
     18.441  0.0000E+00  0.5600E+02
     18.521  0.0000E+00  0.5600E+02
     18.600  0.0000E+00  0.5600E+02
     18.679  0.0000E+00  0.5600E+02
