    4    4    1    1
  0.1657884E+02  0.4047666E-09  0.4047666E-09  0.4047666E-09  0.5000000E-15
  1.000000000000000E-004
  CAR 
 unknown system                          
   44   84   28
 
  0.0000000E+00  0.0000000E+00  0.0000000E+00  0.5787037E-03
   1       -4.0332
   2       -1.2602
   3       -1.2602
   4       -1.2602
   5       -0.9381
   6       -0.9381
   7       -0.9381
   8        1.2206
   9        1.2206
  10        1.2206
  11        2.8164
  12        2.8164
  13        4.0321
  14        4.0321
  15        4.0321
  16        4.4149
  17        4.4149
  18        4.4149
  19        4.4149
  20        4.4149
  21        4.4149
  22        7.0716
  23        7.0716
  24        7.0716
  25       12.1679
  26       12.1679
  27       12.1679
  28       16.4346
 
  0.8333333E-01  0.0000000E+00  0.0000000E+00  0.3472222E-02
   1       -3.9497
   2       -1.2301
   3       -1.2037
   4       -1.2037
   5       -0.9071
   6       -0.8909
   7       -0.8909
   8        1.1762
   9        1.2590
  10        1.2590
  11        2.7686
  12        2.8354
  13        3.9635
  14        3.9635
  15        4.0095
  16        4.0963
  17        4.0963
  18        4.3314
  19        4.3314
  20        4.4151
  21        4.4151
  22        6.5046
  23        7.4461
  24        7.4461
  25       12.0832
  26       12.0832
  27       12.8753
  28       16.3017
 
  0.1666667E+00  0.0000000E+00  0.0000000E+00  0.3472222E-02
   1       -3.7024
   2       -1.1493
   3       -1.0399
   4       -1.0399
   5       -0.8152
   6       -0.7495
   7       -0.7495
   8        1.0479
   9        1.3735
  10        1.3735
  11        2.6317
  12        2.8916
  13        3.4275
  14        3.4275
  15        3.7644
  16        3.7644
  17        3.9437
  18        4.0972
  19        4.0972
  20        4.4155
  21        4.4155
  22        5.3260
  23        8.2803
  24        8.2803
  25       11.8624
  26       11.8624
  27       14.4816
  28       15.9135
 
  0.2500000E+00  0.0000000E+00  0.0000000E+00  0.3472222E-02
   1       -3.3018
   2       -1.0513
   3       -0.7890
   4       -0.7890
   5       -0.6663
   6       -0.5147
   7       -0.5147
   8        0.8499
   9        1.5618
  10        1.5618
  11        2.4265
  12        2.6882
  13        2.6882
  14        2.9818
  15        3.4595
  16        3.4595
  17        3.7536
  18        3.7536
  19        3.8402
  20        4.0763
  21        4.4160
  22        4.4160
  23        9.2885
  24        9.2885
  25       11.5854
  26       11.5854
  27       15.3001
  28       15.3001
 
  0.3333333E+00  0.0000000E+00  0.0000000E+00  0.3472222E-02
   1       -2.7711
   2       -1.0095
   3       -0.4924
   4       -0.4924
   5       -0.4667
   6       -0.1880
   7       -0.1880
   8        0.6018
   9        1.8199
  10        1.8199
  11        1.9731
  12        1.9731
  13        2.1915
  14        2.9952
  15        3.1012
  16        3.1027
  17        3.1027
  18        3.3486
  19        3.3486
  20        3.7077
  21        4.4165
  22        4.4165
  23       10.3657
  24       10.3657
  25       11.3354
  26       11.3354
  27       14.5034
  28       14.5034
 
  0.4166667E+00  0.0000000E+00  0.0000000E+00  0.3472222E-02
   1       -2.1586
   2       -1.1504
   3       -0.2291
   4       -0.2291
   5       -0.2259
   6        0.2286
   7        0.2286
   8        0.3259
   9        1.3159
  10        1.3159
  11        1.9946
  12        2.1409
  13        2.1409
  14        2.2559
  15        2.7916
  16        2.7916
  17        2.9247
  18        2.9247
  19        3.2427
  20        3.5565
  21        4.4169
  22        4.4169
  23       11.1682
  24       11.1682
  25       11.4625
  26       11.4625
  27       13.5695
  28       13.5695
 
  0.5000000E+00  0.0000000E+00  0.0000000E+00  0.1736111E-02
   1       -1.5644
   2       -1.5644
   3       -0.1175
   4       -0.1175
   5        0.0436
   6        0.0436
   7        0.7316
   8        0.7316
   9        0.7316
  10        0.7316
  11        1.9564
  12        1.9564
  13        2.5144
  14        2.5144
  15        2.5144
  16        2.5144
  17        2.6618
  18        2.6618
  19        3.3979
  20        3.3979
  21        4.4171
  22        4.4171
  23       11.1101
  24       11.1101
  25       12.5425
  26       12.5425
  27       12.5425
  28       12.5425
 
  0.8333333E-01  0.8333333E-01  0.0000000E+00  0.6944444E-02
   1       -3.8672
   2       -1.1731
   3       -1.1731
   4       -1.1544
   5       -0.8605
   6       -0.8605
   7       -0.8388
   8        1.1569
   9        1.2735
  10        1.2941
  11        2.7555
  12        2.8240
  13        3.8753
  14        3.8753
  15        3.8851
  16        3.8991
  17        4.0595
  18        4.0595
  19        4.3313
  20        4.3313
  21        4.3606
  22        6.8850
  23        6.8850
  24        7.7683
  25       11.9849
  26       12.7887
  27       12.7887
  28       15.7693
 
  0.1666667E+00  0.8333333E-01  0.0000000E+00  0.1388889E-01
   1       -3.6226
   2       -1.0907
   3       -1.0108
   4       -1.0077
   5       -0.7704
   6       -0.7209
   7       -0.6843
   8        1.0444
   9        1.3759
  10        1.3975
  11        2.6374
  12        2.8753
  13        3.2640
  14        3.3157
  15        3.5971
  16        3.7113
  17        3.7995
  18        3.9667
  19        4.0965
  20        4.3310
  21        4.3317
  22        5.7732
  23        7.6774
  24        8.5338
  25       11.7242
  26       12.5719
  27       14.3436
  28       15.2065
 
  0.2500000E+00  0.8333333E-01  0.0000000E+00  0.1388889E-01
   1       -3.2267
   2       -0.9902
   3       -0.7852
   4       -0.7537
   5       -0.6244
   6       -0.4893
   7       -0.4364
   8        0.8546
   9        1.5613
  10        1.5613
  11        2.4496
  12        2.5399
  13        2.6293
  14        2.9763
  15        3.1279
  16        3.4217
  17        3.4979
  18        3.7523
  19        3.8130
  20        4.3252
  21        4.3304
  22        4.7076
  23        8.5650
  24        9.4986
  25       11.3854
  26       12.3360
  27       14.6612
  28       15.4613
 
  0.3333333E+00  0.8333333E-01  0.0000000E+00  0.1388889E-01
   1       -2.7020
   2       -0.9462
   3       -0.5002
   4       -0.4523
   5       -0.4290
   6       -0.1672
   7       -0.1168
   8        0.6141
   9        1.7470
  10        1.8184
  11        1.8464
  12        1.9449
  13        2.2737
  14        2.5167
  15        3.0814
  16        3.1125
  17        3.1453
  18        3.3468
  19        3.5274
  20        3.9979
  21        4.3243
  22        4.3296
  23        9.4017
  24       10.5497
  25       11.0522
  26       12.2236
  27       14.0913
  28       14.6604
 
  0.4166667E+00  0.8333333E-01  0.0000000E+00  0.1388889E-01
   1       -2.0955
   2       -1.0880
   3       -0.2158
   4       -0.1933
   5       -0.1836
   6        0.2426
   7        0.2505
   8        0.3454
   9        1.2202
  10        1.3072
  11        1.7963
  12        1.9916
  13        2.1389
  14        2.3274
  15        2.7883
  16        2.8284
  17        2.9226
  18        3.0749
  19        3.2766
  20        3.6753
  21        4.3253
  22        4.3283
  23       10.0559
  24       10.7601
  25       11.6310
  26       12.3784
  27       13.4676
  28       13.7256
 
  0.5000000E+00  0.8333333E-01  0.0000000E+00  0.6944444E-02
   1       -1.5040
   2       -1.5040
   3       -0.0760
   4       -0.0760
   5        0.0700
   6        0.0700
   7        0.6847
   8        0.6847
   9        0.7362
  10        0.7362
  11        1.7760
  12        1.7760
  13        2.5123
  14        2.5123
  15        2.6473
  16        2.6473
  17        2.6801
  18        2.6801
  19        3.4626
  20        3.4626
  21        4.3268
  22        4.3268
  23       10.4704
  24       10.4704
  25       12.7022
  26       12.7022
  27       12.8429
  28       12.8429
 
  0.1666667E+00  0.1666667E+00  0.0000000E+00  0.6944444E-02
   1       -3.3866
   2       -0.9204
   3       -0.9204
   4       -0.9146
   5       -0.6363
   6       -0.6363
   7       -0.5039
   8        0.9914
   9        1.4290
  10        1.4670
  11        2.5961
  12        2.8910
  13        2.8983
  14        2.8983
  15        2.9660
  16        3.5542
  17        3.7890
  18        3.7890
  19        4.0947
  20        4.0947
  21        4.2008
  22        6.5576
  23        6.5576
  24        9.1859
  25       11.3506
  26       13.9929
  27       13.9929
  28       14.5615
 
  0.2500000E+00  0.1666667E+00  0.0000000E+00  0.1388889E-01
   1       -3.0046
   2       -0.8120
   3       -0.7409
   4       -0.6570
   5       -0.4994
   6       -0.4142
   7       -0.2408
   8        0.8487
   9        1.5671
  10        1.5828
  11        2.1933
  12        2.4222
  13        2.4403
  14        2.4652
  15        3.0093
  16        3.3064
  17        3.5219
  18        3.6693
  19        3.7487
  20        4.0917
  21        4.1270
  22        5.4905
  23        7.3719
  24       10.0643
  25       10.8522
  26       13.5827
  27       14.0789
  28       15.4954
 
  0.3333333E+00  0.1666667E+00  0.0000000E+00  0.1388889E-01
   1       -2.4985
   2       -0.7613
   3       -0.4909
   4       -0.3401
   5       -0.3167
   6       -0.1065
   7        0.0594
   8        0.6410
   9        1.5441
  10        1.6394
  11        1.8255
  12        1.8536
  13        1.9241
  14        2.3605
  15        3.0108
  16        3.1957
  17        3.1980
  18        3.3422
  19        3.4273
  20        4.0881
  21        4.0958
  22        4.6614
  23        8.1341
  24       10.3392
  25       11.0583
  26       13.2640
  27       13.6993
  28       15.1086
 
  0.4166667E+00  0.1666667E+00  0.0000000E+00  0.1388889E-01
   1       -1.9112
   2       -0.9072
   3       -0.1882
   4       -0.0973
   5       -0.0515
   6        0.2830
   7        0.3297
   8        0.3990
   9        0.9825
  10        1.2775
  11        1.5723
  12        1.5861
  13        2.1392
  14        2.4463
  15        2.7639
  16        2.8829
  17        2.9181
  18        3.0818
  19        3.4368
  20        4.0846
  21        4.0846
  22        4.1035
  23        8.7995
  24        9.8519
  25       12.1033
  26       13.1252
  27       13.3927
  28       14.1698
 
  0.5000000E+00  0.1666667E+00  0.0000000E+00  0.6944444E-02
   1       -1.3297
   2       -1.3297
   3        0.0385
   4        0.0385
   5        0.1465
   6        0.1465
   7        0.5717
   8        0.5717
   9        0.7478
  10        0.7478
  11        1.4938
  12        1.4938
  13        2.5092
  14        2.5092
  15        2.7043
  16        2.7043
  17        2.7205
  18        2.7205
  19        3.7267
  20        3.7267
  21        4.0826
  22        4.0826
  23        9.3591
  24        9.3591
  25       13.1539
  26       13.1539
  27       13.1823
  28       13.1823
 
  0.2500000E+00  0.2500000E+00  0.0000000E+00  0.6944444E-02
   1       -2.6463
   2       -0.6260
   3       -0.5335
   4       -0.5335
   5       -0.2933
   6       -0.2933
   7        0.0205
   8        0.7880
   9        1.5825
  10        1.6779
  11        1.7694
  12        1.7694
  13        2.1130
  14        2.3960
  15        3.1157
  16        3.1657
  17        3.4403
  18        3.4403
  19        3.7438
  20        3.7438
  21        3.9454
  22        6.2596
  23        6.2596
  24       10.1652
  25       10.8639
  26       13.7250
  27       14.7571
  28       14.7571
 
  0.3333333E+00  0.2500000E+00  0.0000000E+00  0.1388889E-01
   1       -2.1726
   2       -0.4711
   3       -0.4326
   4       -0.1892
   5       -0.1331
   6       -0.0098
   7        0.2918
   8        0.6547
   9        1.1846
  10        1.3802
  11        1.5657
  12        1.6841
  13        1.8745
  14        2.3199
  15        2.8791
  16        3.1526
  17        3.2308
  18        3.3374
  19        3.4304
  20        3.7394
  21        3.8310
  22        5.3540
  23        6.9854
  24        9.4823
  25       11.7995
  26       13.5164
  27       14.1358
  28       15.7919
 
  0.4166667E+00  0.2500000E+00  0.0000000E+00  0.1388889E-01
   1       -1.6215
   2       -0.6305
   3       -0.1615
   4        0.0569
   5        0.1472
   6        0.3446
   7        0.4706
   8        0.4796
   9        0.6869
  10        1.1922
  11        1.2161
  12        1.4425
  13        2.1609
  14        2.3862
  15        2.6861
  16        2.8623
  17        2.9166
  18        2.9272
  19        3.7385
  20        3.7661
  21        3.7721
  22        4.6754
  23        7.6512
  24        8.8565
  25       12.8055
  26       13.4261
  27       13.7046
  28       14.8433
 
  0.5000000E+00  0.2500000E+00  0.0000000E+00  0.6944444E-02
   1       -1.0636
   2       -1.0636
   3        0.1631
   4        0.1631
   5        0.2638
   6        0.2638
   7        0.4846
   8        0.4846
   9        0.7593
  10        0.7593
  11        1.2636
  12        1.2636
  13        2.5157
  14        2.5157
  15        2.6143
  16        2.6143
  17        2.6709
  18        2.6709
  19        3.7464
  20        3.7464
  21        4.1694
  22        4.1694
  23        8.2630
  24        8.2630
  25       13.4762
  26       13.4762
  27       13.8338
  28       13.8338
 
  0.3333333E+00  0.3333333E+00  0.0000000E+00  0.6944444E-02
   1       -1.7464
   2       -0.3135
   3       -0.1098
   4       -0.1098
   5        0.1156
   6        0.1156
   7        0.5275
   8        0.6227
   9        0.9051
  10        0.9051
  11        1.4294
  12        1.5022
  13        2.0048
  14        2.2240
  15        2.6963
  16        2.9782
  17        2.9782
  18        3.3370
  19        3.3370
  20        3.6112
  21        3.7795
  22        6.0298
  23        6.0298
  24        8.6694
  25       12.6885
  26       13.4757
  27       14.9466
  28       14.9466
 
  0.4166667E+00  0.3333333E+00  0.0000000E+00  0.1388889E-01
   1       -1.2547
   2       -0.3118
   3       -0.1286
   4        0.2325
   5        0.2589
   6        0.4186
   7        0.5343
   8        0.5367
   9        0.6721
  10        0.9081
  11        1.1082
  12        1.3609
  13        2.2340
  14        2.2359
  15        2.5380
  16        2.7039
  17        2.7176
  18        2.9281
  19        3.3491
  20        3.4662
  21        4.2005
  22        5.2790
  23        6.6767
  24        7.9525
  25       13.5708
  26       13.6618
  27       14.2823
  28       15.6870
 
  0.5000000E+00  0.3333333E+00  0.0000000E+00  0.6944444E-02
   1       -0.7485
   2       -0.7485
   3        0.1183
   4        0.1183
   5        0.4052
   6        0.4052
   7        0.6096
   8        0.6096
   9        0.7586
  10        0.7586
  11        1.1252
  12        1.1252
  13        2.4206
  14        2.4206
  15        2.5366
  16        2.5366
  17        2.5502
  18        2.5502
  19        3.3860
  20        3.3860
  21        4.6890
  22        4.6890
  23        7.3051
  24        7.3051
  25       13.8293
  26       13.8293
  27       14.6716
  28       14.6716
 
  0.4166667E+00  0.4166667E+00  0.0000000E+00  0.6944444E-02
   1       -0.8496
   2       -0.0779
   3       -0.0720
   4       -0.0720
   5        0.4917
   6        0.4917
   7        0.5633
   8        0.7899
   9        0.7899
  10        0.8269
  11        0.9439
  12        1.2727
  13        2.1398
  14        2.3723
  15        2.3888
  16        2.4735
  17        2.4735
  18        2.9684
  19        2.9684
  20        3.2215
  21        4.6937
  22        5.8873
  23        5.8873
  24        7.1797
  25       13.8523
  26       14.6113
  27       14.9401
  28       14.9401
 
  0.5000000E+00  0.4166667E+00  0.0000000E+00  0.6944444E-02
   1       -0.4466
   2       -0.4466
   3       -0.0266
   4       -0.0266
   5        0.5461
   6        0.5461
   7        0.7302
   8        0.7302
   9        0.8404
  10        0.8404
  11        1.0741
  12        1.0741
  13        2.2337
  14        2.2337
  15        2.3302
  16        2.3302
  17        2.6380
  18        2.6380
  19        3.0587
  20        3.0587
  21        5.2446
  22        5.2446
  23        6.5085
  24        6.5085
  25       14.3013
  26       14.3013
  27       15.6069
  28       15.6071
 
  0.5000000E+00  0.5000000E+00  0.0000000E+00  0.1736111E-02
   1       -0.2073
   2       -0.2073
   3       -0.2073
   4       -0.2073
   5        0.6599
   6        0.6599
   7        0.6599
   8        0.6599
   9        1.0148
  10        1.0148
  11        1.0148
  12        1.0148
  13        2.1837
  14        2.1837
  15        2.1837
  16        2.1837
  17        2.8041
  18        2.8041
  19        2.8041
  20        2.8041
  21        5.8392
  22        5.8392
  23        5.8392
  24        5.8392
  25       14.9221
  26       14.9221
  27       14.9221
  28       14.9221
 
  0.8333333E-01  0.8333333E-01  0.8333333E-01  0.4629630E-02
   1       -3.7857
   2       -1.1238
   3       -1.1238
   4       -1.1238
   5       -0.8085
   6       -0.8085
   7       -0.8085
   8        1.1408
   9        1.3060
  10        1.3060
  11        2.7797
  12        2.7797
  13        3.7691
  14        3.7691
  15        3.7691
  16        3.8414
  17        3.8414
  18        3.8414
  19        4.3208
  20        4.3208
  21        4.3208
  22        7.1981
  23        7.1981
  24        7.1981
  25       12.6803
  26       12.6803
  27       12.6803
  28       15.9709
 
  0.1666667E+00  0.8333333E-01  0.8333333E-01  0.1388889E-01
   1       -3.5444
   2       -1.0416
   3       -0.9805
   4       -0.9805
   5       -0.7188
   6       -0.6544
   7       -0.6544
   8        1.0426
   9        1.3934
  10        1.4029
  11        2.6553
  12        2.8510
  13        3.1753
  14        3.1753
  15        3.4333
  16        3.6709
  17        3.6812
  18        3.6812
  19        4.2142
  20        4.2945
  21        4.2945
  22        6.0889
  23        7.9097
  24        7.9097
  25       12.3991
  26       12.3991
  27       14.1492
  28       15.4639
 
  0.2500000E+00  0.8333333E-01  0.8333333E-01  0.1388889E-01
   1       -3.1539
   2       -0.9413
   3       -0.7550
   4       -0.7550
   5       -0.5737
   6       -0.4075
   7       -0.4075
   8        0.8632
   9        1.5539
  10        1.5628
  11        2.4827
  12        2.4931
  13        2.4931
  14        2.9151
  15        2.9653
  16        3.4038
  17        3.4234
  18        3.4234
  19        4.0639
  20        4.2724
  21        4.2724
  22        4.9995
  23        8.7460
  24        8.7460
  25       12.0600
  26       12.0600
  27       15.0042
  28       15.0042
 
  0.3333333E+00  0.8333333E-01  0.8333333E-01  0.1388889E-01
   1       -2.6367
   2       -0.8969
   3       -0.4683
   4       -0.4683
   5       -0.3808
   6       -0.0921
   7       -0.0921
   8        0.6317
   9        1.7129
  10        1.7824
  11        1.8295
  12        1.8295
  13        2.3150
  14        2.3588
  15        3.0744
  16        3.1016
  17        3.1016
  18        3.1159
  19        3.8858
  20        4.1065
  21        4.2597
  22        4.2597
  23        9.5396
  24        9.5396
  25       11.7985
  26       11.7985
  27       14.5536
  28       14.5536
 
  0.4166667E+00  0.8333333E-01  0.8333333E-01  0.1388889E-01
   1       -2.0384
   2       -1.0386
   3       -0.1762
   4       -0.1762
   5       -0.1506
   6        0.2564
   7        0.2564
   8        0.3720
   9        1.2325
  10        1.2325
  11        1.7160
  12        1.8440
  13        2.0558
  14        2.4930
  15        2.7206
  16        2.8084
  17        2.8084
  18        3.2942
  19        3.4150
  20        3.6908
  21        4.2536
  22        4.2536
  23       10.1095
  24       10.1095
  25       11.7200
  26       11.7200
  27       14.1311
  28       14.1311
 
  0.5000000E+00  0.8333333E-01  0.8333333E-01  0.6944444E-02
   1       -1.4532
   2       -1.4532
   3       -0.0347
   4       -0.0347
   5        0.1051
   6        0.1051
   7        0.5513
   8        0.5513
   9        0.8351
  10        0.8351
  11        1.6728
  12        1.6728
  13        2.3736
  14        2.3736
  15        2.6829
  16        2.6829
  17        2.8787
  18        2.8787
  19        3.4896
  20        3.4896
  21        4.2518
  22        4.2518
  23       10.3025
  24       10.3025
  25       11.7543
  26       11.7543
  27       13.9288
  28       13.9288
 
  0.1666667E+00  0.1666667E+00  0.8333333E-01  0.1388889E-01
   1       -3.3131
   2       -0.8993
   3       -0.8993
   4       -0.8884
   5       -0.5655
   6       -0.5655
   7       -0.4719
   8        0.9988
   9        1.4402
  10        1.4636
  11        2.6392
  12        2.8245
  13        2.8245
  14        2.8511
  15        2.8555
  16        3.4594
  17        3.5356
  18        3.5356
  19        4.2004
  20        4.2004
  21        4.2198
  22        6.7651
  23        6.7651
  24        8.4891
  25       11.9460
  26       13.6572
  27       13.6572
  28       14.9610
 
  0.2500000E+00  0.1666667E+00  0.8333333E-01  0.2777778E-01
   1       -2.9392
   2       -0.8005
   3       -0.7196
   4       -0.6755
   5       -0.4218
   6       -0.3200
   7       -0.2082
   8        0.8697
   9        1.5571
  10        1.5710
  11        2.1637
  12        2.3336
  13        2.3507
  14        2.5255
  15        2.9845
  16        3.2324
  17        3.2682
  18        3.3518
  19        4.0576
  20        4.1413
  21        4.1448
  22        5.6493
  23        7.5280
  24        9.2128
  25       11.3896
  26       13.0664
  27       14.6644
  28       14.9031
 
  0.3333333E+00  0.1666667E+00  0.8333333E-01  0.2777778E-01
   1       -2.4449
   2       -0.7572
   3       -0.4742
   4       -0.3870
   5       -0.2349
   6       -0.0136
   7        0.0859
   8        0.6757
   9        1.5517
  10        1.6238
  11        1.7624
  12        1.7707
  13        1.8582
  14        2.4716
  15        2.9382
  16        2.9729
  17        3.0907
  18        3.1811
  19        3.8407
  20        4.0906
  21        4.0922
  22        4.7244
  23        8.2653
  24        9.8446
  25       10.9677
  26       12.5222
  27       14.5218
  28       15.6131
 
  0.4166667E+00  0.1666667E+00  0.8333333E-01  0.2777778E-01
   1       -1.8730
   2       -0.8998
   3       -0.1701
   4       -0.0720
   5       -0.0210
   6        0.2742
   7        0.3184
   8        0.4477
   9        1.0582
  10        1.2593
  11        1.5211
  12        1.5591
  13        1.9990
  14        2.5982
  15        2.6491
  16        2.7387
  17        2.8187
  18        3.4195
  19        3.4917
  20        4.0620
  21        4.0641
  22        4.0807
  23        8.9194
  24        9.8803
  25       11.1226
  26       12.0556
  27       14.5423
  28       15.1712
 
  0.5000000E+00  0.1666667E+00  0.8333333E-01  0.1388889E-01
   1       -1.3087
   2       -1.3087
   3        0.0784
   4        0.0784
   5        0.2098
   6        0.2098
   7        0.3756
   8        0.3756
   9        0.9273
  10        0.9273
  11        1.4571
  12        1.4571
  13        2.2795
  14        2.2795
  15        2.6660
  16        2.6660
  17        3.0342
  18        3.0342
  19        3.6993
  20        3.6993
  21        4.0543
  22        4.0543
  23        9.4664
  24        9.4664
  25       11.6037
  26       11.6037
  27       14.7680
  28       14.7680
 
  0.2500000E+00  0.2500000E+00  0.8333333E-01  0.1388889E-01
   1       -2.5939
   2       -0.6150
   3       -0.5825
   4       -0.5825
   5       -0.1758
   6       -0.1758
   7        0.0519
   8        0.8288
   9        1.5724
  10        1.6355
  11        1.7539
  12        1.7539
  13        2.0380
  14        2.4881
  15        3.0038
  16        3.1365
  17        3.1420
  18        3.1420
  19        3.9643
  20        3.9643
  21        4.0081
  22        6.3721
  23        6.3721
  24        9.7504
  25       10.6928
  26       14.0240
  27       14.0240
  28       14.5600
 
  0.3333333E+00  0.2500000E+00  0.8333333E-01  0.2777778E-01
   1       -2.1400
   2       -0.5493
   3       -0.4344
   4       -0.3045
   5        0.0083
   6        0.1297
   7        0.3100
   8        0.7181
   9        1.2228
  10        1.3758
  11        1.5562
  12        1.6518
  13        1.7721
  14        2.4711
  15        2.7814
  16        2.8368
  17        2.9571
  18        3.4015
  19        3.7197
  20        3.8692
  21        3.8926
  22        5.4015
  23        7.0797
  24        9.5913
  25       10.7898
  26       13.2427
  27       14.6367
  28       14.9827
 
  0.4166667E+00  0.2500000E+00  0.8333333E-01  0.2777778E-01
   1       -1.6166
   2       -0.7007
   3       -0.1812
   4        0.0097
   5        0.1978
   6        0.3418
   7        0.4455
   8        0.5585
   9        0.8852
  10        1.1888
  11        1.2803
  12        1.4335
  13        1.9625
  14        2.5090
  15        2.6042
  16        2.6395
  17        2.7359
  18        3.3783
  19        3.7346
  20        3.8088
  21        3.8183
  22        4.6656
  23        7.7435
  24        8.9785
  25       11.3921
  26       12.5787
  27       14.9091
  28       15.9622
 
  0.5000000E+00  0.2500000E+00  0.8333333E-01  0.1388889E-01
   1       -1.0954
   2       -1.0954
   3        0.1184
   4        0.1184
   5        0.3263
   6        0.3263
   7        0.3797
   8        0.3797
   9        1.0026
  10        1.0026
  11        1.2564
  12        1.2564
  13        2.2093
  14        2.2093
  15        2.5793
  16        2.5793
  17        2.9808
  18        2.9808
  19        3.7913
  20        3.7913
  21        4.1378
  22        4.1378
  23        8.3664
  24        8.3664
  25       11.9863
  26       11.9863
  27       15.3879
  28       15.3879
 
  0.3333333E+00  0.3333333E+00  0.8333333E-01  0.1388889E-01
   1       -1.7454
   2       -0.3403
   3       -0.3054
   4       -0.3054
   5        0.3274
   6        0.3274
   7        0.5167
   8        0.7224
   9        0.9592
  10        0.9592
  11        1.4735
  12        1.4996
  13        1.8204
  14        2.4509
  15        2.5753
  16        2.7038
  17        2.7038
  18        3.5960
  19        3.5960
  20        3.7088
  21        3.7471
  22        6.0712
  23        6.0712
  24        8.7895
  25       11.3175
  26       14.0387
  27       14.0387
  28       14.9124
 
  0.4166667E+00  0.3333333E+00  0.8333333E-01  0.2777778E-01
   1       -1.2983
   2       -0.4884
   3       -0.1968
   4       -0.0855
   5        0.4971
   6        0.5428
   7        0.5971
   8        0.6746
   9        0.7990
  10        0.9268
  11        1.2833
  12        1.3638
  13        1.9282
  14        2.4033
  15        2.4177
  16        2.5362
  17        2.5840
  18        3.2550
  19        3.5147
  20        3.5702
  21        4.1667
  22        5.2739
  23        6.7211
  24        8.0382
  25       11.9227
  26       13.2356
  27       14.9087
  28       15.3769
 
  0.5000000E+00  0.3333333E+00  0.8333333E-01  0.1388889E-01
   1       -0.8523
   2       -0.8523
   3       -0.0515
   4       -0.0515
   5        0.5243
   6        0.5243
   7        0.5947
   8        0.5947
   9        1.0697
  10        1.0697
  11        1.1310
  12        1.1310
  13        2.1282
  14        2.1282
  15        2.4032
  16        2.4032
  17        2.8853
  18        2.8853
  19        3.5031
  20        3.5031
  21        4.6605
  22        4.6605
  23        7.3639
  24        7.3639
  25       12.5479
  26       12.5479
  27       15.8343
  28       15.8343
 
  0.4166667E+00  0.4166667E+00  0.8333333E-01  0.1388889E-01
   1       -0.9544
   2       -0.3193
   3       -0.3193
   4       -0.2072
   5        0.6943
   6        0.7485
   7        0.7485
   8        0.7539
   9        0.8622
  10        0.8622
  11        1.2607
  12        1.2949
  13        1.9189
  14        2.2400
  15        2.2740
  16        2.2740
  17        2.6416
  18        3.1850
  19        3.1850
  20        3.3529
  21        4.6613
  22        5.8890
  23        5.8890
  24        7.2249
  25       12.5326
  26       13.9960
  27       13.9960
  28       15.7803
 
  0.5000000E+00  0.4166667E+00  0.8333333E-01  0.1388889E-01
   1       -0.6196
   2       -0.6196
   3       -0.2322
   4       -0.2322
   5        0.7154
   6        0.7154
   7        0.7754
   8        0.7754
   9        1.1163
  10        1.1163
  11        1.1351
  12        1.1351
  13        2.0370
  14        2.0370
  15        2.1827
  16        2.1827
  17        2.8639
  18        2.8639
  19        3.2141
  20        3.2141
  21        5.2214
  22        5.2214
  23        6.5255
  24        6.5255
  25       13.2135
  26       13.2135
  27       14.8455
  28       14.8455
 
  0.5000000E+00  0.5000000E+00  0.8333333E-01  0.3472222E-02
   1       -0.4159
   2       -0.4159
   3       -0.4159
   4       -0.4159
   5        0.8109
   6        0.8109
   7        0.8109
   8        0.8109
   9        1.1669
  10        1.1669
  11        1.1669
  12        1.1669
  13        2.0268
  14        2.0268
  15        2.0268
  16        2.0268
  17        2.9785
  18        2.9785
  19        2.9785
  20        2.9785
  21        5.8291
  22        5.8291
  23        5.8291
  24        5.8291
  25       13.9757
  26       13.9757
  27       13.9757
  28       13.9757
 
  0.1666667E+00  0.1666667E+00  0.1666667E+00  0.4629630E-02
   1       -3.0961
   2       -0.8205
   3       -0.8205
   4       -0.8205
   5       -0.3757
   6       -0.3757
   7       -0.3757
   8        0.9918
   9        1.4783
  10        1.4783
  11        2.5352
  12        2.5352
  13        2.5352
  14        2.7617
  15        2.7617
  16        3.2294
  17        3.2294
  18        3.2294
  19        4.2309
  20        4.2309
  21        4.2309
  22        7.2841
  23        7.2841
  24        7.2841
  25       12.9005
  26       12.9005
  27       12.9005
  28       16.0751
 
  0.2500000E+00  0.1666667E+00  0.1666667E+00  0.1388889E-01