   4   4   0   0
  0.2076388E+02  0.4363043E-09  0.4363043E-09  0.4363043E-09  0.5000000E-15
  1.000000000000000E-004
  CAR 
 unknown system                          
     16.20934810     -4.79630577  301      5.77493315      1.00000000
     -4.796  0.0000E+00  0.0000E+00
     -4.726  0.0000E+00  0.0000E+00
     -4.656  0.0000E+00  0.0000E+00
     -4.586  0.0000E+00  0.0000E+00
     -4.516  0.0000E+00  0.0000E+00
     -4.446  0.0000E+00  0.0000E+00
     -4.376  0.0000E+00  0.0000E+00
     -4.306  0.0000E+00  0.0000E+00
     -4.236  0.0000E+00  0.0000E+00
     -4.166  0.0000E+00  0.0000E+00
     -4.096  0.0000E+00  0.0000E+00
     -4.026  0.0000E+00  0.0000E+00
     -3.956  0.0000E+00  0.0000E+00
     -3.886  0.9193E-13  0.6437E-14
     -3.816  0.2263E-01  0.1584E-02
     -3.746  0.1373E+00  0.1122E-01
     -3.676  0.2134E+00  0.2627E-01
     -3.606  0.2525E+00  0.4397E-01
     -3.536  0.3007E+00  0.6505E-01
     -3.466  0.3402E+00  0.8898E-01
     -3.396  0.3752E+00  0.1155E+00
     -3.326  0.3988E+00  0.1434E+00
     -3.256  0.4053E+00  0.1719E+00
     -3.186  0.5000E+00  0.2070E+00
     -3.116  0.4574E+00  0.2390E+00
     -3.046  0.5351E+00  0.2765E+00
     -2.976  0.4670E+00  0.3094E+00
     -2.906  0.6262E+00  0.3533E+00
     -2.836  0.5268E+00  0.3903E+00
     -2.766  0.6091E+00  0.4331E+00
     -2.696  0.5970E+00  0.4750E+00
     -2.626  0.6467E+00  0.5205E+00
     -2.556  0.6645E+00  0.5671E+00
     -2.486  0.6563E+00  0.6132E+00
     -2.416  0.7225E+00  0.6640E+00
     -2.346  0.7215E+00  0.7149E+00
     -2.276  0.6853E+00  0.7633E+00
     -2.206  0.7657E+00  0.8170E+00
     -2.136  0.7224E+00  0.8676E+00
     -2.066  0.8169E+00  0.9248E+00
     -1.996  0.7925E+00  0.9806E+00
     -1.926  0.7291E+00  0.1032E+01
     -1.856  0.8829E+00  0.1094E+01
     -1.785  0.8675E+00  0.1155E+01
     -1.715  0.8251E+00  0.1212E+01
     -1.645  0.7889E+00  0.1268E+01
     -1.575  0.9922E+00  0.1337E+01
     -1.505  0.8285E+00  0.1396E+01
     -1.435  0.9131E+00  0.1460E+01
     -1.365  0.9391E+00  0.1526E+01
     -1.295  0.9707E+00  0.1594E+01
     -1.225  0.8661E+00  0.1655E+01
     -1.155  0.9993E+00  0.1726E+01
     -1.085  0.9949E+00  0.1796E+01
     -1.015  0.9618E+00  0.1863E+01
     -0.945  0.9647E+00  0.1931E+01
     -0.875  0.1046E+01  0.2005E+01
     -0.805  0.1038E+01  0.2078E+01
     -0.735  0.1013E+01  0.2149E+01
     -0.665  0.1045E+01  0.2223E+01
     -0.595  0.1082E+01  0.2299E+01
     -0.525  0.1072E+01  0.2375E+01
     -0.455  0.1110E+01  0.2453E+01
     -0.385  0.9824E+00  0.2523E+01
     -0.315  0.1232E+01  0.2610E+01
     -0.245  0.1057E+01  0.2684E+01
     -0.175  0.1076E+01  0.2760E+01
     -0.105  0.1253E+01  0.2847E+01
     -0.035  0.1074E+01  0.2923E+01
      0.035  0.1225E+01  0.3009E+01
      0.105  0.1247E+01  0.3096E+01
      0.175  0.1088E+01  0.3173E+01
      0.245  0.1240E+01  0.3260E+01
      0.315  0.1246E+01  0.3347E+01
      0.385  0.1220E+01  0.3433E+01
      0.455  0.1120E+01  0.3512E+01
      0.525  0.1323E+01  0.3605E+01
      0.595  0.1323E+01  0.3698E+01
      0.665  0.1209E+01  0.3783E+01
      0.735  0.1271E+01  0.3872E+01
      0.805  0.1230E+01  0.3958E+01
      0.875  0.1300E+01  0.4049E+01
      0.945  0.1494E+01  0.4154E+01
      1.015  0.1247E+01  0.4242E+01
      1.085  0.1246E+01  0.4329E+01
      1.155  0.1349E+01  0.4424E+01
      1.225  0.1478E+01  0.4527E+01
      1.295  0.1343E+01  0.4622E+01
      1.365  0.1340E+01  0.4716E+01
      1.435  0.1327E+01  0.4810E+01
      1.505  0.1479E+01  0.4914E+01
      1.575  0.1391E+01  0.5012E+01
      1.645  0.1492E+01  0.5117E+01
      1.715  0.1474E+01  0.5221E+01
      1.785  0.1423E+01  0.5321E+01
      1.855  0.1459E+01  0.5424E+01
      1.926  0.1475E+01  0.5527E+01
      1.996  0.1539E+01  0.5635E+01
      2.066  0.1278E+01  0.5725E+01
      2.136  0.1324E+01  0.5818E+01
      2.206  0.1537E+01  0.5926E+01
      2.276  0.1349E+01  0.6021E+01
      2.346  0.1582E+01  0.6132E+01
      2.416  0.1450E+01  0.6234E+01
      2.486  0.1608E+01  0.6347E+01
      2.556  0.1356E+01  0.6442E+01
      2.626  0.1551E+01  0.6551E+01
      2.696  0.1679E+01  0.6669E+01
      2.766  0.1404E+01  0.6768E+01
      2.836  0.1658E+01  0.6885E+01
      2.906  0.1403E+01  0.6983E+01
      2.976  0.1703E+01  0.7102E+01
      3.046  0.1825E+01  0.7231E+01
      3.116  0.1435E+01  0.7332E+01
      3.186  0.1560E+01  0.7441E+01
      3.256  0.1587E+01  0.7553E+01
      3.326  0.1918E+01  0.7687E+01
      3.396  0.1613E+01  0.7800E+01
      3.466  0.1591E+01  0.7912E+01
      3.536  0.1927E+01  0.8048E+01
      3.606  0.1737E+01  0.8170E+01
      3.676  0.1583E+01  0.8281E+01
      3.746  0.1774E+01  0.8406E+01
      3.816  0.1660E+01  0.8522E+01
      3.886  0.1637E+01  0.8637E+01
      3.956  0.1621E+01  0.8751E+01
      4.026  0.1699E+01  0.8870E+01
      4.096  0.1722E+01  0.8991E+01
      4.166  0.1422E+01  0.9092E+01
      4.236  0.1759E+01  0.9215E+01
      4.306  0.1662E+01  0.9332E+01
      4.376  0.1651E+01  0.9448E+01
      4.446  0.1805E+01  0.9574E+01
      4.516  0.1776E+01  0.9699E+01
      4.586  0.1777E+01  0.9824E+01
      4.656  0.1587E+01  0.9936E+01
      4.726  0.1841E+01  0.1007E+02
      4.796  0.1814E+01  0.1019E+02
      4.866  0.1928E+01  0.1033E+02
      4.936  0.1785E+01  0.1045E+02
      5.006  0.1929E+01  0.1059E+02
      5.076  0.1727E+01  0.1071E+02
      5.146  0.1626E+01  0.1082E+02
      5.216  0.1949E+01  0.1096E+02
      5.286  0.1683E+01  0.1108E+02
      5.356  0.1988E+01  0.1122E+02
      5.426  0.1780E+01  0.1134E+02
      5.496  0.1700E+01  0.1146E+02
      5.566  0.1870E+01  0.1159E+02
      5.637  0.1756E+01  0.1172E+02
      5.707  0.2096E+01  0.1187E+02
      5.777  0.1969E+01  0.1200E+02
      5.847  0.1848E+01  0.1213E+02
      5.917  0.1783E+01  0.1226E+02
      5.987  0.1902E+01  0.1239E+02
      6.057  0.2173E+01  0.1254E+02
      6.127  0.1926E+01  0.1268E+02
      6.197  0.1857E+01  0.1281E+02
      6.267  0.1878E+01  0.1294E+02
      6.337  0.2089E+01  0.1309E+02
      6.407  0.1913E+01  0.1322E+02
      6.477  0.1964E+01  0.1336E+02
      6.547  0.1920E+01  0.1350E+02
      6.617  0.1835E+01  0.1363E+02
      6.687  0.2215E+01  0.1378E+02
      6.757  0.1911E+01  0.1392E+02
      6.827  0.2135E+01  0.1407E+02
      6.897  0.1941E+01  0.1420E+02
      6.967  0.1940E+01  0.1434E+02
      7.037  0.1948E+01  0.1448E+02
      7.107  0.2302E+01  0.1464E+02
      7.177  0.2107E+01  0.1479E+02
      7.247  0.1981E+01  0.1492E+02
      7.317  0.1983E+01  0.1506E+02
      7.387  0.2061E+01  0.1521E+02
      7.457  0.2079E+01  0.1535E+02
      7.527  0.2077E+01  0.1550E+02
      7.597  0.2255E+01  0.1566E+02
      7.667  0.2066E+01  0.1580E+02
      7.737  0.2305E+01  0.1597E+02
      7.807  0.2012E+01  0.1611E+02
      7.877  0.1904E+01  0.1624E+02
      7.947  0.2081E+01  0.1639E+02
      8.017  0.2359E+01  0.1655E+02
      8.087  0.2314E+01  0.1672E+02
      8.157  0.2164E+01  0.1687E+02
      8.227  0.2030E+01  0.1701E+02
      8.297  0.2100E+01  0.1716E+02
      8.367  0.2294E+01  0.1732E+02
      8.437  0.2128E+01  0.1747E+02
      8.507  0.2368E+01  0.1764E+02
      8.577  0.2190E+01  0.1779E+02
      8.647  0.2236E+01  0.1795E+02
      8.717  0.2168E+01  0.1810E+02
      8.787  0.2293E+01  0.1826E+02
      8.857  0.2250E+01  0.1842E+02
      8.927  0.2349E+01  0.1858E+02
      8.997  0.2092E+01  0.1873E+02
      9.067  0.2400E+01  0.1890E+02
      9.137  0.2310E+01  0.1906E+02
      9.207  0.2332E+01  0.1923E+02
      9.277  0.2560E+01  0.1941E+02
      9.348  0.1977E+01  0.1954E+02
      9.418  0.2445E+01  0.1972E+02
      9.488  0.2394E+01  0.1988E+02
      9.558  0.2339E+01  0.2005E+02
      9.628  0.2249E+01  0.2021E+02
      9.698  0.2590E+01  0.2039E+02
      9.768  0.2539E+01  0.2057E+02
      9.838  0.2331E+01  0.2073E+02
      9.908  0.2390E+01  0.2090E+02
      9.978  0.2627E+01  0.2108E+02
     10.048  0.2195E+01  0.2124E+02
     10.118  0.2601E+01  0.2142E+02
     10.188  0.2613E+01  0.2161E+02
     10.258  0.2530E+01  0.2178E+02
     10.328  0.2719E+01  0.2197E+02
     10.398  0.2503E+01  0.2215E+02
     10.468  0.2720E+01  0.2234E+02
     10.538  0.2678E+01  0.2253E+02
     10.608  0.2798E+01  0.2273E+02
     10.678  0.2767E+01  0.2292E+02
     10.748  0.2750E+01  0.2311E+02
     10.818  0.2668E+01  0.2330E+02
     10.888  0.2520E+01  0.2348E+02
     10.958  0.2715E+01  0.2367E+02
     11.028  0.2537E+01  0.2385E+02
     11.098  0.2465E+01  0.2402E+02
     11.168  0.2781E+01  0.2421E+02
     11.238  0.2226E+01  0.2437E+02
     11.308  0.2554E+01  0.2455E+02
     11.378  0.2580E+01  0.2473E+02
     11.448  0.2569E+01  0.2491E+02
     11.518  0.2232E+01  0.2507E+02
     11.588  0.2279E+01  0.2523E+02
     11.658  0.2560E+01  0.2541E+02
     11.728  0.2447E+01  0.2558E+02
     11.798  0.2281E+01  0.2574E+02
     11.868  0.2249E+01  0.2590E+02
     11.938  0.2533E+01  0.2608E+02
     12.008  0.2406E+01  0.2625E+02
     12.078  0.2273E+01  0.2641E+02
     12.148  0.2361E+01  0.2657E+02
     12.218  0.2037E+01  0.2671E+02
     12.288  0.2788E+01  0.2691E+02
     12.358  0.2327E+01  0.2707E+02
     12.428  0.2205E+01  0.2723E+02
     12.498  0.2547E+01  0.2741E+02
     12.568  0.2419E+01  0.2758E+02
     12.638  0.2298E+01  0.2774E+02
     12.708  0.2263E+01  0.2790E+02
     12.778  0.2356E+01  0.2806E+02
     12.848  0.2315E+01  0.2823E+02
     12.918  0.2595E+01  0.2841E+02
     12.988  0.2461E+01  0.2858E+02
     13.059  0.2083E+01  0.2873E+02
     13.129  0.2298E+01  0.2889E+02
     13.199  0.2216E+01  0.2904E+02
     13.269  0.2582E+01  0.2923E+02
     13.339  0.2045E+01  0.2937E+02
     13.409  0.2347E+01  0.2954E+02
     13.479  0.2080E+01  0.2968E+02
     13.549  0.2453E+01  0.2985E+02
     13.619  0.2236E+01  0.3001E+02
     13.689  0.1902E+01  0.3014E+02
     13.759  0.2204E+01  0.3030E+02
     13.829  0.1762E+01  0.3042E+02
     13.899  0.1723E+01  0.3054E+02
     13.969  0.1946E+01  0.3068E+02
     14.039  0.1690E+01  0.3080E+02
     14.109  0.1468E+01  0.3090E+02
     14.179  0.1249E+01  0.3099E+02
     14.249  0.1604E+01  0.3110E+02
     14.319  0.1509E+01  0.3121E+02
     14.389  0.1108E+01  0.3129E+02
     14.459  0.1226E+01  0.3137E+02
     14.529  0.1085E+01  0.3145E+02
     14.599  0.1035E+01  0.3152E+02
     14.669  0.1126E+01  0.3160E+02
     14.739  0.1259E+01  0.3169E+02
     14.809  0.9924E+00  0.3176E+02
     14.879  0.7856E+00  0.3182E+02
     14.949  0.9171E+00  0.3188E+02
     15.019  0.7102E+00  0.3193E+02
     15.089  0.5161E+00  0.3197E+02
     15.159  0.3412E+00  0.3199E+02
     15.229  0.1176E+00  0.3200E+02
     15.299  0.1895E-01  0.3200E+02
     15.369  0.0000E+00  0.3200E+02
     15.439  0.0000E+00  0.3200E+02
     15.509  0.0000E+00  0.3200E+02
     15.579  0.0000E+00  0.3200E+02
     15.649  0.0000E+00  0.3200E+02
     15.719  0.0000E+00  0.3200E+02
     15.789  0.0000E+00  0.3200E+02
     15.859  0.0000E+00  0.3200E+02
     15.929  0.0000E+00  0.3200E+02
     15.999  0.0000E+00  0.3200E+02
     16.069  0.0000E+00  0.3200E+02
     16.139  0.0000E+00  0.3200E+02
     16.209  0.0000E+00  0.3200E+02
