    4    4    1    1
  0.2076388E+02  0.4363043E-09  0.4363043E-09  0.4363043E-09  0.5000000E-15
  1.000000000000000E-004
  CAR 
 unknown system                          
   12 1330   16
 
  0.0000000E+00  0.0000000E+00  0.0000000E+00  0.2143347E-04
   1       -3.8415
   2        3.4280
   3        3.4280
   4        3.4280
   5        4.1446
   6        4.1446
   7        4.1446
   8       10.4334
   9       10.4334
  10       10.4334
  11       10.4334
  12       10.4334
  13       10.4334
  14       10.9909
  15       10.9909
  16       10.9909
 
  0.2777778E-01  0.0000000E+00  0.0000000E+00  0.1286008E-03
   1       -3.8355
   2        3.2434
   3        3.4336
   4        3.4336
   5        4.1504
   6        4.1504
   7        4.3397
   8       10.2268
   9       10.2268
  10       10.3784
  11       10.3784
  12       10.4387
  13       10.4387
  14       10.9968
  15       11.2085
  16       11.2085
 
  0.5555556E-01  0.0000000E+00  0.0000000E+00  0.1286008E-03
   1       -3.8175
   2        2.9037
   3        3.4504
   4        3.4504
   5        4.1679
   6        4.1679
   7        4.7110
   8        9.8795
   9        9.8795
  10       10.2273
  11       10.2273
  12       10.4545
  13       10.4545
  14       11.0145
  15       11.5890
  16       11.5890
 
  0.8333333E-01  0.0000000E+00  0.0000000E+00  0.1286008E-03
   1       -3.7876
   2        2.5389
   3        3.4784
   4        3.4784
   5        4.1969
   6        4.1969
   7        5.1284
   8        9.5182
   9        9.5182
  10       10.0096
  11       10.0096
  12       10.4809
  13       10.4809
  14       11.0440
  15       12.0055
  16       12.0055
 
  0.1111111E+00  0.0000000E+00  0.0000000E+00  0.1286008E-03
   1       -3.7456
   2        2.1738
   3        3.5177
   4        3.5177
   5        4.2376
   6        4.2376
   7        5.5672
   8        9.1608
   9        9.1608
  10        9.7520
  11        9.7520
  12       10.5178
  13       10.5178
  14       11.0853
  15       12.4403
  16       12.4403
 
  0.1388889E+00  0.0000000E+00  0.0000000E+00  0.1286008E-03
   1       -3.6917
   2        1.8148
   3        3.5681
   4        3.5681
   5        4.2898
   6        4.2898
   7        6.0207
   8        8.8116
   9        8.8116
  10        9.4729
  11        9.4729
  12       10.5652
  13       10.5652
  14       11.1383
  15       12.8889
  16       12.8889
 
  0.1666667E+00  0.0000000E+00  0.0000000E+00  0.1286008E-03
   1       -3.6259
   2        1.4642
   3        3.6298
   4        3.6298
   5        4.3535
   6        4.3535
   7        6.4867
   8        8.4719
   9        8.4719
  10        9.1837
  11        9.1837
  12       10.6233
  13       10.6233
  14       11.2032
  15       13.2516
  16       13.3499
 
  0.1944444E+00  0.0000000E+00  0.0000000E+00  0.1286008E-03
   1       -3.5481
   2        1.1232
   3        3.7027
   4        3.7027
   5        4.4286
   6        4.4286
   7        6.9637
   8        8.1426
   9        8.1426
  10        8.8912
  11        8.8912
  12       10.6918
  13       10.6918
  14       11.2798
  15       13.3243
  16       13.8225
 
  0.2222222E+00  0.0000000E+00  0.0000000E+00  0.1286008E-03
   1       -3.4583
   2        0.7924
   3        3.7868
   4        3.7868
   5        4.5150
   6        4.5150
   7        7.4511
   8        7.8239
   9        7.8239
  10        8.6000
  11        8.6000
  12       10.7709
  13       10.7709
  14       11.3681
  15       13.4080
  16       14.3063
 
  0.2500000E+00  0.0000000E+00  0.0000000E+00  0.1286008E-03
   1       -3.3567
   2        0.4722
   3        3.8821
   4        3.8821
   5        4.6126
   6        4.6126
   7        7.5161
   8        7.5161
   9        7.9483
  10        8.3129
  11        8.3129
  12       10.8605
  13       10.8605
  14       11.4681
  15       13.5029
  16       14.2639
 
  0.2777778E+00  0.0000000E+00  0.0000000E+00  0.1286008E-03
   1       -3.2431
   2        0.1627
   3        3.9887
   4        3.9887
   5        4.7211
   6        4.7211
   7        7.2192
   8        7.2192
   9        8.0319
  10        8.0319
  11        8.4549
  12       10.9607
  13       10.9607
  14       11.5798
  15       13.6088
  16       13.9871
 
  0.3055556E+00  0.0000000E+00  0.0000000E+00  0.1286008E-03
   1       -3.1177
   2       -0.1358
   3        4.1065
   4        4.1065
   5        4.8403
   6        4.8403
   7        6.9334
   8        6.9334
   9        7.7587
  10        7.7587
  11        8.9701
  12       11.0714
  13       11.0714
  14       11.7031
  15       13.7204
  16       13.7252
 
  0.3333333E+00  0.0000000E+00  0.0000000E+00  0.1286008E-03
   1       -2.9805
   2       -0.4232
   3        4.2355
   4        4.2355
   5        4.9698
   6        4.9698
   7        6.6587
   8        6.6587
   9        7.4945
  10        7.4945
  11        9.4935
  12       11.1926
  13       11.1926
  14       11.8381
  15       13.4639
  16       13.4639
 
  0.3611111E+00  0.0000000E+00  0.0000000E+00  0.1286008E-03
   1       -2.8314
   2       -0.6995
   3        4.3757
   4        4.3757
   5        5.1088
   6        5.1088
   7        6.3952
   8        6.3952
   9        7.2407
  10        7.2407
  11       10.0244
  12       11.3243
  13       11.3243
  14       11.9845
  15       13.2175
  16       13.2175
 
  0.3888889E+00  0.0000000E+00  0.0000000E+00  0.1286008E-03
   1       -2.6706
   2       -0.9644
   3        4.5271
   4        4.5271
   5        5.2560
   6        5.2560
   7        6.1428
   8        6.1428
   9        6.9990
  10        6.9990
  11       10.5615
  12       11.4666
  13       11.4666
  14       12.1425
  15       12.9814
  16       12.9814
 
  0.4166667E+00  0.0000000E+00  0.0000000E+00  0.1286008E-03
   1       -2.4980
   2       -1.2181
   3        4.6898
   4        4.6898
   5        5.4087
   6        5.4087
   7        5.9016
   8        5.9016
   9        6.7725
  10        6.7725
  11       11.1037
  12       11.6194
  13       11.6194
  14       12.3118
  15       12.7556
  16       12.7556
 
  0.4444444E+00  0.0000000E+00  0.0000000E+00  0.1286008E-03
   1       -2.3137
   2       -1.4602
   3        4.8637
   4        4.8637
   5        5.5604
   6        5.5604
   7        5.6716
   8        5.6716
   9        6.5681
  10        6.5681
  11       11.6488
  12       11.7826
  13       11.7826
  14       12.4925
  15       12.5402
  16       12.5402
 
  0.4722222E+00  0.0000000E+00  0.0000000E+00  0.1286008E-03
   1       -2.1177
   2       -1.6910
   3        5.0488
   4        5.0488
   5        5.4528
   6        5.4528
   7        5.6921
   8        5.6921
   9        6.4045
  10        6.4045
  11       11.9564
  12       11.9564
  13       12.1939
  14       12.3352
  15       12.3352
  16       12.6844
 
  0.5000000E+00  0.0000000E+00  0.0000000E+00  0.6430041E-04
   1       -1.9101
   2       -1.9101
   3        5.2452
   4        5.2452
   5        5.2452
   6        5.2452
   7        5.7524
   8        5.7524
   9        6.3337
  10        6.3337
  11       12.1405
  12       12.1405
  13       12.1405
  14       12.1405
  15       12.7341
  16       12.7341
 
  0.2777778E-01  0.2777778E-01  0.0000000E+00  0.2572016E-03
   1       -3.8295
   2        3.2490
   3        3.2490
   4        3.4392
   5        4.1562
   6        4.3455
   7        4.3455
   8       10.0093
   9       10.2322
  10       10.2322
  11       10.3837
  12       10.3837
  13       10.4439
  14       11.2143
  15       11.2143
  16       11.3127
 
  0.5555556E-01  0.2777778E-01  0.0000000E+00  0.5144033E-03
   1       -3.8115
   2        2.9094
   3        3.2660
   4        3.4560
   5        4.1737
   6        4.3628
   7        4.7168
   8        9.6794
   9        9.8850
  10       10.2326
  11       10.2485
  12       10.3677
  13       10.3996
  14       11.2316
  15       11.5920
  16       11.5947
 
  0.8333333E-01  0.2777778E-01  0.0000000E+00  0.5144033E-03
   1       -3.7816
   2        2.5447
   3        3.2943
   4        3.4840
   5        4.2027
   6        4.3916
   7        5.1341
   8        9.3319
   9        9.5238
  10       10.0150
  11       10.1735
  12       10.2755
  13       10.4260
  14       11.2604
  15       11.9615
  16       12.0112
 
  0.1111111E+00  0.2777778E-01  0.0000000E+00  0.5144033E-03
   1       -3.7396
   2        2.1796
   3        3.3339
   4        3.5233
   5        4.2434
   6        4.4319
   7        5.5728
   8        8.9836
   9        9.1664
  10        9.7575
  11        9.9224
  12       10.3134
  13       10.4631
  14       11.3007
  15       12.3720
  16       12.4459
 
  0.1388889E+00  0.2777778E-01  0.0000000E+00  0.5144033E-03
   1       -3.6857
   2        1.8205
   3        3.3848
   4        3.5737
   5        4.2955
   6        4.4837
   7        6.0263
   8        8.6405
   9        8.8171
  10        9.4784
  11        9.6445
  12       10.3621
  13       10.5107
  14       11.3525
  15       12.8061
  16       12.8945
 
  0.1666667E+00  0.2777778E-01  0.0000000E+00  0.5144033E-03
   1       -3.6199
   2        1.4700
   3        3.4469
   4        3.6354
   5        4.3592
   6        4.5468
   7        6.4922
   8        8.3051
   9        8.4775
  10        9.1892
  11        9.3548
  12       10.4216
  13       10.5689
  14       11.4159
  15       13.2573
  16       13.3157
 
  0.1944444E+00  0.2777778E-01  0.0000000E+00  0.5144033E-03
   1       -3.5421
   2        1.1290
   3        3.5204
   4        3.7083
   5        4.4342
   6        4.6213
   7        6.9692
   8        7.9788
   9        8.1482
  10        8.8968
  11        9.0615
  12       10.4918
  13       10.6377
  14       11.4907
  15       13.3877
  16       13.7226
 
  0.2222222E+00  0.2777778E-01  0.0000000E+00  0.5144033E-03
   1       -3.4523
   2        0.7983
   3        3.6051
   4        3.7924
   5        4.5206
   6        4.7070
   7        7.4566
   8        7.6623
   9        7.8295
  10        8.6057
  11        8.7694
  12       10.5729
  13       10.7170
  14       11.5771
  15       13.4711
  16       14.2006
 
  0.2500000E+00  0.2777778E-01  0.0000000E+00  0.5144033E-03
   1       -3.3507
   2        0.4780
   3        3.7011
   4        3.8877
   5        4.6180
   6        4.8039
   7        7.3562
   8        7.5217
   9        7.9537
  10        8.3187
  11        8.4815
  12       10.6647
  13       10.8070
  14       11.6749
  15       13.5657
  16       14.1232
 
  0.2777778E+00  0.2777778E-01  0.0000000E+00  0.5144033E-03
   1       -3.2371
   2        0.1686
   3        3.8084
   4        3.9943
   5        4.7264
   6        4.9116
   7        7.0607
   8        7.2248
   9        8.0378
  10        8.1999
  11        8.4601
  12       10.7672
  13       10.9076
  14       11.7842
  15       13.6712
  16       13.8494
 
  0.3055556E+00  0.2777778E-01  0.0000000E+00  0.5144033E-03
   1       -3.1118
   2       -0.1299
   3        3.9268
   4        4.1121
   5        4.8453
   6        5.0300
   7        6.7762
   8        6.9390
   9        7.7647
  10        7.9261
  11        8.9752
  12       10.8805
  13       11.0188
  14       11.9050
  15       13.5737
  16       13.6633
 
  0.3333333E+00  0.2777778E-01  0.0000000E+00  0.5144033E-03
   1       -2.9745
   2       -0.4174
   3        4.0565
   4        4.2411
   5        4.9741
   6        5.1586
   7        6.5032
   8        6.6643
   9        7.5008
  10        7.6611
  11        9.4983
  12       11.0044
  13       11.1407
  14       12.0372
  15       13.3142
  16       13.4073
 
  0.3611111E+00  0.2777778E-01  0.0000000E+00  0.5144033E-03
   1       -2.8255
   2       -0.6936
   3        4.1973
   4        4.3813
   5        5.1118
   6        5.2966
   7        6.2422
   8        6.4008
   9        7.2474
  10        7.4062
  11       10.0286
  12       11.1390
  13       11.2735
  14       12.1808
  15       13.0647
  16       13.1612
 
  0.3888889E+00  0.2777778E-01  0.0000000E+00  0.5144033E-03
   1       -2.6646
   2       -0.9586
   3        4.3491
   4        4.5327
   5        5.2554
   6        5.4426
   7        5.9955
   8        6.1484
   9        7.0066
  10        7.1626
  11       10.5646
  12       11.2843
  13       11.4175
  14       12.3357
  15       12.8254
  16       12.9252
 
  0.4166667E+00  0.2777778E-01  0.0000000E+00  0.5144033E-03
   1       -2.4921
   2       -1.2122
   3        4.5120
   4        4.6954
   5        5.3934
   6        5.5931
   7        5.7728
   8        5.9072
   9        6.7821
  10        6.9325
  11       11.1031
  12       11.4402
  13       11.5747
  14       12.5019
  15       12.5963
  16       12.6992
 
  0.4444444E+00  0.2777778E-01  0.0000000E+00  0.5144033E-03
   1       -2.3078
   2       -1.4543
   3        4.6856
   4        4.8693
   5        5.4286
   6        5.6673
   7        5.6772
   8        5.7394
   9        6.5832
  10        6.7200
  11       11.6066
  12       11.6191
  13       11.7679
  14       12.3775
  15       12.4833
  16       12.6793
 
  0.4722222E+00  0.2777778E-01  0.0000000E+00  0.5144033E-03
   1       -2.1118
   2       -1.6850
   3        4.8695
   4        5.0544
   5        5.2604
   6        5.4584
   7        5.7683
   8        5.8532
   9        6.4389
  10        6.5367
  11       11.7836
  12       11.8890
  13       12.1691
  14       12.2181
  15       12.2773
  16       12.8678
 
  0.5000000E+00  0.2777778E-01  0.0000000E+00  0.2572016E-03
   1       -1.9042
   2       -1.9042
   3        5.0626
   4        5.0626
   5        5.2508
   6        5.2508
   7        5.8658
   8        5.8658
   9        6.4189
  10        6.4189
  11       11.9711
  12       11.9711
  13       12.0804
  14       12.0804
  15       12.7530
  16       12.7530
 
  0.5555556E-01  0.5555556E-01  0.0000000E+00  0.2572016E-03
   1       -3.7936
   2        2.9265
   3        2.9265
   4        3.4728
   5        4.1911
   6        4.7339
   7        4.7339
   8        9.3527
   9        9.9014
  10        9.9014
  11       10.2486
  12       10.2486
  13       10.4755
  14       11.6118
  15       11.6118
  16       11.6649
 
  0.8333333E-01  0.5555556E-01  0.0000000E+00  0.5144033E-03
   1       -3.7636
   2        2.5619
   3        2.9550
   4        3.5009
   5        4.2201
   6        4.7625
   7        5.1511
   8        9.0083
   9        9.5403
  10        9.9289
  11       10.0311
  12       10.2753
  13       10.4076
  14       11.6401
  15       11.8855
  16       12.0281
 
  0.1111111E+00  0.5555556E-01  0.0000000E+00  0.5144033E-03
   1       -3.7217
   2        2.1968
   3        2.9949
   4        3.5401
   5        4.2607
   6        4.8024
   7        5.5897
   8        8.6630
   9        9.1830
  10        9.7738
  11        9.9673
  12       10.2135
  13       10.3127
  14       11.6799
  15       12.2202
  16       12.4627
 
  0.1388889E+00  0.5555556E-01  0.0000000E+00  0.5144033E-03
   1       -3.6678
   2        1.8378
   3        3.0462
   4        3.5906
   5        4.3128
   6        4.8537
   7        6.0432
   8        8.3223
   9        8.8338
  10        9.4949
  11        9.9602
  12       10.0168
  13       10.3607
  14       11.7310
  15       12.6149
  16       12.9113
 
  0.1666667E+00  0.5555556E-01  0.0000000E+00  0.5144033E-03
   1       -3.6019
   2        1.4874
   3        3.1088
   4        3.6522
   5        4.3763
   6        4.9163
   7        6.5089
   8        7.9888
   9        8.4942
  10        9.2059
  11        9.6821
  12       10.0771
  13       10.4194
  14       11.7934
  15       13.0429
  16       13.3722
 
  0.1944444E+00  0.5555556E-01  0.0000000E+00  0.5144033E-03
   1       -3.5241
   2        1.1464
   3        3.1828
   4        3.7251
   5        4.4512
   6        4.9902
   7        6.9858
   8        7.6640
   9        8.1649
  10        8.9137
  11        9.3947
  12       10.1485
  13       10.4888
  14       11.8672
  15       13.4930
  16       13.5644
 
  0.2222222E+00  0.5555556E-01  0.0000000E+00  0.5144033E-03
   1       -3.4344
   2        0.8157
   3        3.2682
   4        3.8092
   5        4.5373
   6        5.0752
   7        7.3488
   8        7.4729
   9        7.8462
  10        8.6228
  11        9.1059
  12       10.2307
  13       10.5689
  14       11.9523
  15       13.6471
  16       13.9601
 
  0.2500000E+00  0.5555556E-01  0.0000000E+00  0.5144033E-03
   1       -3.3328
   2        0.4955
   3        3.3648
   4        3.9046
   5        4.6343
   6        5.1711
   7        7.0437
   8        7.5384
   9        7.9698
  10        8.3360
  11        8.8200
  12       10.3239
  13       10.6598
  14       12.0487
  15       13.7408
  16       13.8305
 
  0.2777778E+00  0.5555556E-01  0.0000000E+00  0.5144033E-03
   1       -3.2192
   2        0.1861
   3        3.4728
   4        4.0111
   5        4.7420
   6        5.2779
   7        6.7494
   8        7.2416
   9        8.0555
  10        8.4758
  11        8.5396
  12       10.4280
  13       10.7614
  14       12.1564
  15       13.5480
  16       13.7736
 
  0.3055556E+00  0.5555556E-01  0.0000000E+00  0.5144033E-03
   1       -3.0939
   2       -0.1124
   3        3.5920
   4        4.1289
   5        4.8598
   6        5.3950
   7        6.4666
   8        6.9558
   9        7.7829
  10        8.2664
  11        8.9904
  12       10.5430
  13       10.8741
  14       12.2754
  15       13.2753
  16       13.5094
 
  0.3333333E+00  0.5555556E-01  0.0000000E+00  0.5144033E-03
   1       -2.9566
   2       -0.3998
   3        3.7224
   4        4.2579
   5        4.9863
   6        5.5220
   7        6.1964
   8        6.6811
   9        7.5197
  10        8.0016
  11        9.5125
  12       10.6688
  13       10.9979
  14       12.4056
  15       13.0124
  16       13.2545
 
  0.3611111E+00  0.5555556E-01  0.0000000E+00  0.5144033E-03
   1       -2.8076
   2       -0.6760
   3        3.8640
   4        4.3981
   5        5.1184
   6        5.6578
   7        5.9421
   8        6.4176
   9        7.2678
  10        7.7464
  11       10.0408
  12       10.8055
  13       11.1337
  14       12.5470
  15       12.7595
  16       13.0091
 
  0.3888889E+00  0.5555556E-01  0.0000000E+00  0.5144033E-03
   1       -2.6468
   2       -0.9409
   3        4.0166
   4        4.5496
   5        5.2427
   6        5.7164
   7        5.7997
   8        6.1652
   9        7.0302
  10        7.5015
  11       10.5721
  12       10.9530
  13       11.2838
  14       12.5169
  15       12.6996
  16       12.7732
 
  0.4166667E+00  0.5555556E-01  0.0000000E+00  0.5144033E-03
   1       -2.4742
   2       -1.1945
   3        4.1802
   4        4.7122
   5        5.2808
   6        5.5970
   7        5.9240
   8        5.9414
   9        6.8138
  10        7.2683
  11       11.0934
  12       11.1112
  13       11.4600
  14       12.2846
  15       12.5470
  16       12.8633
 
  0.4444444E+00  0.5555556E-01  0.0000000E+00  0.5144033E-03
   1       -2.2900
   2       -1.4366
   3        4.3545
   4        4.8861
   5        5.1340
   6        5.6810
   7        5.6940
   8        6.0608
   9        6.6411
  10        7.0486
  11       11.2802
  12       11.5038
  13       11.7611
  14       12.0626
  15       12.3303
  16       13.0381
 
  0.4722222E+00  0.5555556E-01  0.0000000E+00  0.5144033E-03
   1       -2.0940
   2       -1.6673
   3        4.5391
   4        4.9343
   5        5.0713
   6        5.4752
   7        5.8321
   8        6.0892
   9        6.5815
  10        6.8470
  11       11.4599
  12       11.7276
  13       11.8512
  14       12.1228
  15       12.2606
  16       13.2238
 
  0.5000000E+00  0.5555556E-01  0.0000000E+00  0.2572016E-03
   1       -1.8865
   2       -1.8865
   3        4.7331
   4        4.7331
   5        5.2676
   6        5.2676
   7        5.9861
   8        5.9861
   9        6.6762
  10        6.6762
  11       11.6502
  12       11.6502
  13       11.9234
  14       11.9234
  15       12.7957
  16       12.7957
 
  0.8333333E-01  0.8333333E-01  0.0000000E+00  0.2572016E-03
   1       -3.7337
   2        2.5905
   3        2.5905
   4        3.5289
   5        4.2491
   6        5.1795
   7        5.1795
   8        8.6640
   9        9.5680
  10        9.5680
  11       10.0581
  12       10.0581
  13       10.5282
  14       11.8998
  15       12.0563
  16       12.0563
 
  0.1111111E+00  0.8333333E-01  0.0000000E+00  0.5144033E-03
   1       -3.6917
   2        2.2256
   3        2.6306
   4        3.5681
   5        4.2895
   6        5.2192
   7        5.6179
   8        8.3185
   9        9.2108
  10        9.6067
  11        9.8010
  12       10.0958
  13       10.4705
  14       12.0849
  15       12.0958
  16       12.4908
 
  0.1388889E+00  0.8333333E-01  0.0000000E+00  0.5144033E-03
   1       -3.6378
   2        1.8667
   3        2.6821
   4        3.6186
   5        4.3415
   6        5.2701
   7        6.0712
   8        7.9778
   9        8.8616
  10        9.5225
  11        9.6564
  12       10.1444
  13       10.2842
  14       12.1465
  15       12.4031
  16       12.9393
 
  0.1666667E+00  0.8333333E-01  0.0000000E+00  0.5144033E-03
   1       -3.5720
   2        1.5163
   3        2.7451
   4        3.6803
   5        4.4048
   6        5.3323
   7        6.5367
   8        7.6443
   9        8.5221
  10        9.2337
  11        9.7172
  12       10.0375
  13       10.2037
  14       12.2085
  15       12.7928
  16       13.4001
 
  0.1944444E+00  0.8333333E-01  0.0000000E+00  0.5144033E-03
   1       -3.4942
   2        1.1754
   3        2.8195
   4        3.7532
   5        4.4793
   6        5.4056
   7        7.0133
   8        7.3196
   9        8.1928
  10        8.9418
  11        9.7661
  12        9.7890
  13       10.2739
  14       12.2817
  15       13.2215
  16       13.8260
 
  0.2222222E+00  0.8333333E-01  0.0000000E+00  0.5144033E-03
   1       -3.4045
   2        0.8448
   3        2.9053
   4        3.8373
   5        4.5649
   6        5.4899
   7        7.0046
   8        7.5001
   9        7.8742
  10        8.6513
  11        9.4864
  12        9.8719
  13       10.3550
  14       12.3662
  15       13.6751
  16       13.7943
 
  0.2500000E+00  0.8333333E-01  0.0000000E+00  0.5144033E-03
   1       -3.3029
   2        0.5246
   3        3.0024
   4        3.9326
   5        4.6612
   6        5.5850
   7        6.7000
   8        7.5664
   9        7.9965
  10        8.3650
  11        9.2060
  12        9.9657
  13       10.4470
  14       12.4619
  15       13.5001
  16       13.8263
 
  0.2777778E+00  0.8333333E-01  0.0000000E+00  0.5144033E-03
   1       -3.1894
   2        0.2153
   3        3.1109
   4        4.0391
   5        4.7675
   6        5.6907
   7        6.4068
   8        7.2696
   9        8.0851
  10        8.5019
  11        8.9292
  12       10.0705
  13       10.5502
  14       12.5687
  15       13.2153
  16       13.5554
 
  0.3055556E+00  0.8333333E-01  0.0000000E+00  0.5144033E-03
   1       -3.0640
   2       -0.0831
   3        3.2307
   4        4.1569
   5        4.8826
   6        5.8063
   7        6.1265
   8        6.9838
   9        7.8135
  10        8.6585
  11        9.0152
  12       10.1863
  13       10.6650
  14       12.6868
  15       12.9403
  16       13.2928
 
  0.3333333E+00  0.8333333E-01  0.0000000E+00  0.5144033E-03
   1       -2.9268
   2       -0.3705
   3        3.3617
   4        4.2859
   5        5.0029
   6        5.8626
   7        5.9310
   8        6.7091
   9        7.5521
  10        8.3954
  11        9.5353
  12       10.3130
  13       10.7920
  14       12.6752
  15       12.8160
  16       13.0389
 
  0.3611111E+00  0.8333333E-01  0.0000000E+00  0.5144033E-03
   1       -2.7778
   2       -0.6466
   3        3.5040
   4        4.4261
   5        5.1145
   6        5.6289
   7        6.0626
   8        6.4456
   9        7.3036
  10        8.1411
  11       10.0590
  12       10.4507
  13       10.9338
  14       12.4203
  15       12.7940
  16       12.9563
 
  0.3888889E+00  0.8333333E-01  0.0000000E+00  0.5144033E-03
   1       -2.6171
   2       -0.9115
   3        3.6573
   4        4.5776
   5        5.1453
   6        5.4973
   7        6.1932
   8        6.1955
   9        7.0743
  10        7.8964
  11       10.5766
  12       10.5993
  13       11.0992
  14       12.1757
  15       12.5583
  16       13.1076
 
  0.4166667E+00  0.8333333E-01  0.0000000E+00  0.5144033E-03
   1       -2.4445
   2       -1.1650
   3        3.8217
   4        4.7403
   5        5.0003
   6        5.5623
   7        5.9520
   8        6.3101
   9        6.8841
  10        7.6624
  11       10.7587
  12       11.0335
  13       11.3417
  14       11.9414
  15       12.3319
  16       13.2700
 
  0.4444444E+00  0.8333333E-01  0.0000000E+00  0.5144033E-03
   1       -2.2603
   2       -1.4071
   3        3.9969
   4        4.7942
   5        4.9142
   6        5.7089
   7        5.7220
   8        6.3385
   9        6.8013
  10        7.4400
  11       10.9290
  12       11.3106
  13       11.7176
  14       11.7788
  15       12.1147
  16       13.4432
 
  0.4722222E+00  0.8333333E-01  0.0000000E+00  0.5144033E-03
   1       -2.0644
   2       -1.6378
   3        4.1827
   4        4.5833
   5        5.0993
   6        5.5032
   7        5.8785
   8        6.2267
   9        6.8805
  10        7.2312
  11       11.1101
  12       11.5045
  13       11.5116
  14       11.9065
  15       12.3046
  16       13.3860
 
  0.5000000E+00  0.8333333E-01  0.0000000E+00  0.2572016E-03
   1       -1.8569
   2       -1.8569
   3        4.3785
   4        4.3785
   5        5.2956
   6        5.2956
   7        6.0565
   8        6.0565
   9        7.0403
  10        7.0403
  11       11.3019
  12       11.3019
  13       11.7064
  14       11.7064
  15       12.8459
  16       12.8459
 
  0.1111111E+00  0.1111111E+00  0.0000000E+00  0.2572016E-03
   1       -3.6498
   2        2.2658
   3        2.2658
   4        3.6074
   5        4.3299
   6        5.6574
   7        5.6574
   8        7.9725
   9        9.2496
  10        9.2496
  11        9.8392
  12        9.8392
  13       10.6018
  14       12.0723
  15       12.5301
  16       12.5301
 
  0.1388889E+00  0.1111111E+00  0.0000000E+00  0.5144033E-03
   1       -3.5959
   2        1.9071
   3        2.3176
   4        3.6578
   5        4.3816
   6        5.7080
   7        6.1103
   8        7.6312
   9        8.9006
  10        9.2995
  11        9.5610
  12        9.8883
  13       10.5550
  14       12.2452
  15       12.5806
  16       12.9784
 
  0.1666667E+00  0.1111111E+00  0.0000000E+00  0.5144033E-03
   1       -3.5301
   2        1.5568
   3        2.3808
   4        3.7195
   5        4.4445
   6        5.7697
   7        6.5755
   8        7.2973
   9        8.5611
  10        9.2727
  11        9.3606
  12        9.9483
  13       10.3789
  14       12.5604
  15       12.6423
  16       13.4391
 
  0.1944444E+00  0.1111111E+00  0.0000000E+00  0.5144033E-03
   1       -3.4524
   2        1.2160
   3        2.4554
   4        3.7924
   5        4.5185
   6        5.8424
   7        6.9724
   8        7.0517
   9        8.2318
  10        8.9813
  11        9.4326
  12       10.0194
  13       10.1415
  14       12.7151
  15       12.9525
  16       13.7637
 
  0.2222222E+00  0.1111111E+00  0.0000000E+00  0.5144033E-03
   1       -3.3627
   2        0.8855
   3        2.5415
   4        3.8765
   5        4.6033
   6        5.9260
   7        6.6576
   8        7.5380
   9        7.9133
  10        8.6913
  11        9.5158
  12        9.8795
  13       10.1015
  14       12.7992
  15       13.3864
  16       13.4586
 
  0.2500000E+00  0.1111111E+00  0.0000000E+00  0.5144033E-03
   1       -3.2611
   2        0.5654
   3        2.6390
   4        3.9718
   5        4.6980
   6        6.0201
   7        6.3539
   8        7.6055
   9        8.0337
  10        8.4057
  11        9.6093
  12        9.6100
  13       10.1950
  14       12.8944
  15       13.1626
  16       13.5719
 
  0.2777778E+00  0.1111111E+00  0.0000000E+00  0.5144033E-03
   1       -3.1476
   2        0.2562
   3        2.7479
   4        4.0784
   5        4.8015
   6        6.0631
   7        6.1243
   8        7.3087
   9        8.1270
  10        8.5378
  11        9.3389
  12        9.7153
  13       10.3002
  14       12.8762
  15       13.0008
  16       13.3025
 
  0.3055556E+00  0.1111111E+00  0.0000000E+00  0.5144033E-03
   1       -3.0223
   2       -0.0422
   3        2.8682
   4        4.1962
   5        4.9099
   6        5.7889
   7        6.2377
   8        7.0230
   9        7.8572
  10        9.0491
  11        9.0724
  12        9.8315
  13       10.4179
  14       12.5995
  15       13.0408
  16       13.1182
 
  0.3333333E+00  0.1111111E+00  0.0000000E+00  0.5144033E-03
   1       -2.8851
   2       -0.3294
   3        2.9998
   4        4.3252
   5        5.0092
   6        5.5456
   7        6.3584
   8        6.7483
   9        7.5993
  10        8.8122
  11        9.5647
  12        9.9588
  13       10.5504
  14       12.3329
  15       12.7875
  16       13.2467
 
  0.3611111E+00  0.1111111E+00  0.0000000E+00  0.5144033E-03
   1       -2.7362
   2       -0.6055
   3        3.1426
   4        4.4654
   5        5.0304
   6        5.4021
   7        6.4811
   8        6.4848
   9        7.3591
  10        8.5599
  11       10.0766
  12       10.0971
  13       10.7052
  14       12.0765
  15       12.5429
  16       13.3862
 
  0.3888889E+00  0.1111111E+00  0.0000000E+00  0.5144033E-03
   1       -2.5754
   2       -0.8703
   3        3.2966
   4        4.6168
   5        4.8810
   6        5.4507
   7        6.2324
   8        6.5877
   9        7.1554
  10        8.3165
  11       10.2463
  12       10.5471
  13       10.9191
  14       11.8305
  15       12.3072
  16       13.5367
 
  0.4166667E+00  0.1111111E+00  0.0000000E+00  0.5144033E-03
   1       -2.4029