       N       E                     dE             d eps       ncg     rms          rms(c)
DAV:   1     0.113575108944E+02    0.11358E+02   -0.58609E+03 42560   0.966E+02
DAV:   2    -0.134624827094E+02   -0.24820E+02   -0.23194E+02 54512   0.101E+02
DAV:   3    -0.143625804755E+02   -0.90010E+00   -0.89232E+00 57160   0.143E+01
DAV:   4    -0.143701847985E+02   -0.76043E-02   -0.76031E-02 50864   0.158E+00
DAV:   5    -0.143702869856E+02   -0.10219E-03   -0.10219E-03 58952   0.190E-01    0.166E+00
DAV:   6    -0.143239114823E+02    0.46376E-01   -0.97518E-03 50856   0.492E-01    0.103E+00
DAV:   7    -0.142910351208E+02    0.32876E-01   -0.28655E-02 49656   0.807E-01    0.488E-02
DAV:   8    -0.142909987307E+02    0.36390E-04   -0.18760E-04 55080   0.842E-02    0.131E-02
DAV:   9    -0.142910008007E+02   -0.20700E-05   -0.56030E-06 55024   0.112E-02    0.132E-03
DAV:  10    -0.142909994350E+02    0.13657E-05   -0.89766E-08 56904   0.174E-03    0.295E-04
DAV:  11    -0.142909993392E+02    0.95841E-07   -0.19581E-09 39920   0.232E-04    0.362E-05
DAV:  12    -0.142909993744E+02   -0.35218E-07   -0.43346E-10 33424   0.127E-04    0.944E-06
DAV:  13    -0.142909993709E+02    0.34402E-08   -0.77577E-11 30224   0.446E-05
   1 F= -.14290999E+02 E0= -.14290944E+02  d E =-.111500E-03
