 vasp.4.6.28 25Jul05 complex 
 executed on             LinuxIFC date 2017.01.14  09:14:28
 running on    8 nodes
 distr:  one band on    1 nodes,    8 groups


--------------------------------------------------------------------------------------------------------


 INCAR:
 POTCAR:   PAW_PBE Al 04Jan2001                   
 POTCAR:   PAW_PBE Al 04Jan2001                   
   VRHFIN =Al: s2p1                                                             
   LEXCH  = PE                                                                  
   EATOM  =    53.5387 eV,    3.9350 Ry                                         
                                                                                
   TITEL  = PAW_PBE Al 04Jan2001                                                
   LULTRA =        F    use ultrasoft PP ?                                      
   IUNSCR =        1    unscreen: 0-lin 1-nonlin 2-no                           
   RPACOR =    1.500    partial core radius                                     
   POMASS =   26.982; ZVAL   =    3.000    mass and valenz                      
   RCORE  =    1.900    outmost cutoff radius                                   
   RWIGS  =    2.650; RWIGS  =    1.402    wigner-seitz radius (au A)           
   ENMAX  =  240.300; ENMIN  =  180.225 eV                                      
   ICORE  =        2    local potential                                         
   LCOR   =        T    correct aug charges                                     
   LPAW   =        T    paw PP                                                  
   EAUG   =  291.052                                                            
   DEXC   =    -.041                                                            
   RMAX   =    2.974    core radius for proj-oper                               
   RAUG   =    1.300    factor for augmentation sphere                          
   RDEP   =    1.966    radius for radial grids                                 
   QCUT   =   -4.203; QGAM   =    8.405    optimization parameters              
                                                                                
   Description                                                                  
     l     E      TYP  RCUT    TYP  RCUT                                        
     0   .000     23  1.900                                                     
     0   .000     23  1.900                                                     
     1   .000     23  1.900                                                     
     1  1.000     23  1.900                                                     
     2   .000      7  1.900                                                     
  local pseudopotential read in
  partial core-charges read in
  atomic valenz-charges read in
  non local Contribution for L=           0  read in
    real space projection operators read in
  non local Contribution for L=           0  read in
    real space projection operators read in
  non local Contribution for L=           1  read in
    real space projection operators read in
  non local Contribution for L=           1  read in
    real space projection operators read in
    PAW grid and wavefunctions read in
 
   number of l-projection  operators is LMAX  =           4
   number of lm-projection operators is LMMAX =           8
 
 PAW_PBE Al 04Jan2001                   :
 energy of atom  1       EATOM=  -53.5387
 kinetic energy error for atom=    0.0000 (will be added to EATOM!!)
 
 EXHCAR: internal setup
 exchange correlation table for  LEXCH =        8
   RHO(1)=    0.500       N(1)  =     2000
   RHO(2)=  100.500       N(2)  =     4000
 
 POSCAR: Al                                      
  positions in direct lattice
  No initial velocities read in
 


--------------------------------------------------------------------------------------------------------


 ion  position               nearest neighbor table
   1  0.500  0.500  0.000-   2 3.09   3 3.09   4 3.09   2 3.09   3 3.09   2 3.09   4 3.09   2 3.09
                             3 3.09   4 3.09   3 3.09   4 3.09
   2  0.500  0.000  0.500-   1 3.09   3 3.09   4 3.09   1 3.09   4 3.09   1 3.09   3 3.09   1 3.09
                             3 3.09   4 3.09   4 3.09   3 3.09
   3  0.000  0.500  0.500-   1 3.09   2 3.09   4 3.09   1 3.09   4 3.09   2 3.09   4 3.09   4 3.09
                             1 3.09   2 3.09   1 3.09   2 3.09
   4  0.000  0.000  0.000-   1 3.09   2 3.09   3 3.09   2 3.09   3 3.09   1 3.09   3 3.09   3 3.09
                             1 3.09   2 3.09   2 3.09   1 3.09
 
  LATTYP: Found a simple cubic cell.
 ALAT       =     4.3630432696
  
  Lattice vectors:
  
 A1 = (   4.3630432696,   0.0000000000,   0.0000000000)
 A2 = (   0.0000000000,   4.3630432696,   0.0000000000)
 A3 = (   0.0000000000,   0.0000000000,   4.3630432696)
 Subroutine PRICEL returns following result:
 
  LATTYP: Found a face centered cubic cell.
 ALAT       =     4.3630432696
  
  Lattice vectors:
  
 A1 = (   2.1815216348,   2.1815216348,   0.0000000000)
 A2 = (   2.1815216348,   0.0000000000,  -2.1815216348)
 A3 = (   0.0000000000,   2.1815216348,  -2.1815216348)
 
   4 primitive cells build up your supercell.
 

Analysis of symmetry for initial positions (statically):

 Routine SETGRP: Setting up the symmetry group for a 
 simple cubic supercell.


 Subroutine GETGRP returns: Found 48 space group operations
 (whereof 48 operations were pure point group operations)
 out of a pool of 48 trial point group operations.


The static configuration has the point symmetry O_h .

Analysis of symmetry for dynamics (positions and initial velocities):

 Subroutine DYNSYM returns: Found 48 space group operations
 (whereof 48 operations were pure point group operations)
 out of a pool of 48 trial space group operations
 (whereof 48 operations were pure point group operations)
 and found also     4 'primitive' translations


The dynamic configuration has the point symmetry O_h .
 
 
 KPOINTS: Automatic mesh                          

Automatic generation of k-mesh.
 
 Subroutine IBZKPT returns following result:
 ===========================================
 
 Found   1330 irreducible k-points:
 
 Following reciprocal coordinates:
            Coordinates               Weight
  0.000000  0.000000  0.000000      1.000000
  0.027778  0.000000  0.000000      6.000000
  0.055556  0.000000  0.000000      6.000000
  0.083333  0.000000  0.000000      6.000000
  0.111111  0.000000  0.000000      6.000000
  0.138889  0.000000  0.000000      6.000000
  0.166667  0.000000  0.000000      6.000000
  0.194444  0.000000  0.000000      6.000000
  0.222222  0.000000  0.000000      6.000000
  0.250000  0.000000  0.000000      6.000000
  0.277778  0.000000  0.000000      6.000000
  0.305556  0.000000  0.000000      6.000000
  0.333333  0.000000  0.000000      6.000000
  0.361111  0.000000  0.000000      6.000000
  0.388889  0.000000  0.000000      6.000000
  0.416667  0.000000  0.000000      6.000000
  0.444444  0.000000  0.000000      6.000000
  0.472222  0.000000  0.000000      6.000000
  0.500000  0.000000  0.000000      3.000000
  0.027778  0.027778  0.000000     12.000000
  0.055556  0.027778  0.000000     24.000000
  0.083333  0.027778  0.000000     24.000000
  0.111111  0.027778  0.000000     24.000000
  0.138889  0.027778  0.000000     24.000000
  0.166667  0.027778  0.000000     24.000000
  0.194444  0.027778  0.000000     24.000000
  0.222222  0.027778  0.000000     24.000000
  0.250000  0.027778  0.000000     24.000000
  0.277778  0.027778  0.000000     24.000000
  0.305556  0.027778  0.000000     24.000000
  0.333333  0.027778  0.000000     24.000000
  0.361111  0.027778  0.000000     24.000000
  0.388889  0.027778  0.000000     24.000000
  0.416667  0.027778  0.000000     24.000000
  0.444444  0.027778  0.000000     24.000000
  0.472222  0.027778  0.000000     24.000000
  0.500000  0.027778  0.000000     12.000000
  0.055556  0.055556  0.000000     12.000000
  0.083333  0.055556  0.000000     24.000000
  0.111111  0.055556  0.000000     24.000000
  0.138889  0.055556  0.000000     24.000000
  0.166667  0.055556  0.000000     24.000000
  0.194444  0.055556  0.000000     24.000000
  0.222222  0.055556  0.000000     24.000000
  0.250000  0.055556  0.000000     24.000000
  0.277778  0.055556  0.000000     24.000000
  0.305556  0.055556  0.000000     24.000000
  0.333333  0.055556  0.000000     24.000000
  0.361111  0.055556  0.000000     24.000000
  0.388889  0.055556  0.000000     24.000000
  0.416667  0.055556  0.000000     24.000000
  0.444444  0.055556  0.000000     24.000000
  0.472222  0.055556  0.000000     24.000000
  0.500000  0.055556  0.000000     12.000000
  0.083333  0.083333  0.000000     12.000000
  0.111111  0.083333  0.000000     24.000000
  0.138889  0.083333  0.000000     24.000000
  0.166667  0.083333  0.000000     24.000000
  0.194444  0.083333  0.000000     24.000000
  0.222222  0.083333  0.000000     24.000000
  0.250000  0.083333  0.000000     24.000000
  0.277778  0.083333  0.000000     24.000000
  0.305556  0.083333  0.000000     24.000000
  0.333333  0.083333  0.000000     24.000000
  0.361111  0.083333  0.000000     24.000000
  0.388889  0.083333  0.000000     24.000000
  0.416667  0.083333  0.000000     24.000000
  0.444444  0.083333  0.000000     24.000000
  0.472222  0.083333  0.000000     24.000000
  0.500000  0.083333  0.000000     12.000000
  0.111111  0.111111  0.000000     12.000000
  0.138889  0.111111  0.000000     24.000000
  0.166667  0.111111  0.000000     24.000000
  0.194444  0.111111  0.000000     24.000000
  0.222222  0.111111  0.000000     24.000000
  0.250000  0.111111  0.000000     24.000000
  0.277778  0.111111  0.000000     24.000000
  0.305556  0.111111  0.000000     24.000000
  0.333333  0.111111  0.000000     24.000000
  0.361111  0.111111  0.000000     24.000000
  0.388889  0.111111  0.000000     24.000000
  0.416667  0.111111  0.000000     24.000000
  0.444444  0.111111  0.000000     24.000000
  0.472222  0.111111  0.000000     24.000000
  0.500000  0.111111  0.000000     12.000000
  0.138889  0.138889  0.000000     12.000000
  0.166667  0.138889  0.000000     24.000000
  0.194444  0.138889  0.000000     24.000000
  0.222222  0.138889  0.000000     24.000000
  0.250000  0.138889  0.000000     24.000000
  0.277778  0.138889  0.000000     24.000000
  0.305556  0.138889  0.000000     24.000000
  0.333333  0.138889  0.000000     24.000000
  0.361111  0.138889  0.000000     24.000000
  0.388889  0.138889  0.000000     24.000000
  0.416667  0.138889  0.000000     24.000000
  0.444444  0.138889  0.000000     24.000000
  0.472222  0.138889  0.000000     24.000000
  0.500000  0.138889  0.000000     12.000000
  0.166667  0.166667  0.000000     12.000000
  0.194444  0.166667  0.000000     24.000000
  0.222222  0.166667  0.000000     24.000000
  0.250000  0.166667  0.000000     24.000000
  0.277778  0.166667  0.000000     24.000000
  0.305556  0.166667  0.000000     24.000000
  0.333333  0.166667  0.000000     24.000000
  0.361111  0.166667  0.000000     24.000000
  0.388889  0.166667  0.000000     24.000000
  0.416667  0.166667  0.000000     24.000000
  0.444444  0.166667  0.000000     24.000000
  0.472222  0.166667  0.000000     24.000000
  0.500000  0.166667  0.000000     12.000000
  0.194444  0.194444  0.000000     12.000000
  0.222222  0.194444  0.000000     24.000000
  0.250000  0.194444  0.000000     24.000000
  0.277778  0.194444  0.000000     24.000000
  0.305556  0.194444  0.000000     24.000000
  0.333333  0.194444  0.000000     24.000000
  0.361111  0.194444  0.000000     24.000000
  0.388889  0.194444  0.000000     24.000000
  0.416667  0.194444  0.000000     24.000000
  0.444444  0.194444  0.000000     24.000000
  0.472222  0.194444  0.000000     24.000000
  0.500000  0.194444  0.000000     12.000000
  0.222222  0.222222  0.000000     12.000000
  0.250000  0.222222  0.000000     24.000000
  0.277778  0.222222  0.000000     24.000000
  0.305556  0.222222  0.000000     24.000000
  0.333333  0.222222  0.000000     24.000000
  0.361111  0.222222  0.000000     24.000000
  0.388889  0.222222  0.000000     24.000000
  0.416667  0.222222  0.000000     24.000000
  0.444444  0.222222  0.000000     24.000000
  0.472222  0.222222  0.000000     24.000000
  0.500000  0.222222  0.000000     12.000000
  0.250000  0.250000  0.000000     12.000000
  0.277778  0.250000  0.000000     24.000000
  0.305556  0.250000  0.000000     24.000000
  0.333333  0.250000  0.000000     24.000000
  0.361111  0.250000  0.000000     24.000000
  0.388889  0.250000  0.000000     24.000000
  0.416667  0.250000  0.000000     24.000000
  0.444444  0.250000  0.000000     24.000000
  0.472222  0.250000  0.000000     24.000000
  0.500000  0.250000  0.000000     12.000000
  0.277778  0.277778  0.000000     12.000000
  0.305556  0.277778  0.000000     24.000000
  0.333333  0.277778  0.000000     24.000000
  0.361111  0.277778  0.000000     24.000000
  0.388889  0.277778  0.000000     24.000000
  0.416667  0.277778  0.000000     24.000000
  0.444444  0.277778  0.000000     24.000000
  0.472222  0.277778  0.000000     24.000000
  0.500000  0.277778  0.000000     12.000000
  0.305556  0.305556  0.000000     12.000000
  0.333333  0.305556  0.000000     24.000000
  0.361111  0.305556  0.000000     24.000000
  0.388889  0.305556  0.000000     24.000000
  0.416667  0.305556  0.000000     24.000000
  0.444444  0.305556  0.000000     24.000000
  0.472222  0.305556  0.000000     24.000000
  0.500000  0.305556  0.000000     12.000000
  0.333333  0.333333  0.000000     12.000000
  0.361111  0.333333  0.000000     24.000000
  0.388889  0.333333  0.000000     24.000000
  0.416667  0.333333  0.000000     24.000000
  0.444444  0.333333  0.000000     24.000000
  0.472222  0.333333  0.000000     24.000000
  0.500000  0.333333  0.000000     12.000000
  0.361111  0.361111  0.000000     12.000000
  0.388889  0.361111  0.000000     24.000000
  0.416667  0.361111  0.000000     24.000000
  0.444444  0.361111  0.000000     24.000000
  0.472222  0.361111  0.000000     24.000000
  0.500000  0.361111  0.000000     12.000000
  0.388889  0.388889  0.000000     12.000000
  0.416667  0.388889  0.000000     24.000000
  0.444444  0.388889  0.000000     24.000000
  0.472222  0.388889  0.000000     24.000000
  0.500000  0.388889  0.000000     12.000000
  0.416667  0.416667  0.000000     12.000000
  0.444444  0.416667  0.000000     24.000000
  0.472222  0.416667  0.000000     24.000000
  0.500000  0.416667  0.000000     12.000000
  0.444444  0.444444  0.000000     12.000000
  0.472222  0.444444  0.000000     24.000000
  0.500000  0.444444  0.000000     12.000000
  0.472222  0.472222  0.000000     12.000000
  0.500000  0.472222  0.000000     12.000000
  0.500000  0.500000  0.000000      3.000000
  0.027778  0.027778  0.027778      8.000000
  0.055556  0.027778  0.027778     24.000000
  0.083333  0.027778  0.027778     24.000000
  0.111111  0.027778  0.027778     24.000000
  0.138889  0.027778  0.027778     24.000000
  0.166667  0.027778  0.027778     24.000000
  0.194444  0.027778  0.027778     24.000000
  0.222222  0.027778  0.027778     24.000000
  0.250000  0.027778  0.027778     24.000000
  0.277778  0.027778  0.027778     24.000000
  0.305556  0.027778  0.027778     24.000000
  0.333333  0.027778  0.027778     24.000000
  0.361111  0.027778  0.027778     24.000000
  0.388889  0.027778  0.027778     24.000000
  0.416667  0.027778  0.027778     24.000000
  0.444444  0.027778  0.027778     24.000000
  0.472222  0.027778  0.027778     24.000000
  0.500000  0.027778  0.027778     12.000000
  0.055556  0.055556  0.027778     24.000000
  0.083333  0.055556  0.027778     48.000000
  0.111111  0.055556  0.027778     48.000000
  0.138889  0.055556  0.027778     48.000000
  0.166667  0.055556  0.027778     48.000000
  0.194444  0.055556  0.027778     48.000000
  0.222222  0.055556  0.027778     48.000000
  0.250000  0.055556  0.027778     48.000000
  0.277778  0.055556  0.027778     48.000000
  0.305556  0.055556  0.027778     48.000000
  0.333333  0.055556  0.027778     48.000000
  0.361111  0.055556  0.027778     48.000000
  0.388889  0.055556  0.027778     48.000000
  0.416667  0.055556  0.027778     48.000000
  0.444444  0.055556  0.027778     48.000000
  0.472222  0.055556  0.027778     48.000000
  0.500000  0.055556  0.027778     24.000000
  0.083333  0.083333  0.027778     24.000000
  0.111111  0.083333  0.027778     48.000000
  0.138889  0.083333  0.027778     48.000000
  0.166667  0.083333  0.027778     48.000000
  0.194444  0.083333  0.027778     48.000000
  0.222222  0.083333  0.027778     48.000000
  0.250000  0.083333  0.027778     48.000000
  0.277778  0.083333  0.027778     48.000000
  0.305556  0.083333  0.027778     48.000000
  0.333333  0.083333  0.027778     48.000000
  0.361111  0.083333  0.027778     48.000000
  0.388889  0.083333  0.027778     48.000000
  0.416667  0.083333  0.027778     48.000000
  0.444444  0.083333  0.027778     48.000000
  0.472222  0.083333  0.027778     48.000000
  0.500000  0.083333  0.027778     24.000000
  0.111111  0.111111  0.027778     24.000000
  0.138889  0.111111  0.027778     48.000000
  0.166667  0.111111  0.027778     48.000000
  0.194444  0.111111  0.027778     48.000000
  0.222222  0.111111  0.027778     48.000000
  0.250000  0.111111  0.027778     48.000000
  0.277778  0.111111  0.027778     48.000000
  0.305556  0.111111  0.027778     48.000000
  0.333333  0.111111  0.027778     48.000000
  0.361111  0.111111  0.027778     48.000000
  0.388889  0.111111  0.027778     48.000000
  0.416667  0.111111  0.027778     48.000000
  0.444444  0.111111  0.027778     48.000000
  0.472222  0.111111  0.027778     48.000000
  0.500000  0.111111  0.027778     24.000000
  0.138889  0.138889  0.027778     24.000000
  0.166667  0.138889  0.027778     48.000000
  0.194444  0.138889  0.027778     48.000000
  0.222222  0.138889  0.027778     48.000000
  0.250000  0.138889  0.027778     48.000000
  0.277778  0.138889  0.027778     48.000000
  0.305556  0.138889  0.027778     48.000000
  0.333333  0.138889  0.027778     48.000000
  0.361111  0.138889  0.027778     48.000000
  0.388889  0.138889  0.027778     48.000000
  0.416667  0.138889  0.027778     48.000000
  0.444444  0.138889  0.027778     48.000000
  0.472222  0.138889  0.027778     48.000000
  0.500000  0.138889  0.027778     24.000000
  0.166667  0.166667  0.027778     24.000000
  0.194444  0.166667  0.027778     48.000000
  0.222222  0.166667  0.027778     48.000000
  0.250000  0.166667  0.027778     48.000000
  0.277778  0.166667  0.027778     48.000000
  0.305556  0.166667  0.027778     48.000000
  0.333333  0.166667  0.027778     48.000000
  0.361111  0.166667  0.027778     48.000000
  0.388889  0.166667  0.027778     48.000000
  0.416667  0.166667  0.027778     48.000000
  0.444444  0.166667  0.027778     48.000000
  0.472222  0.166667  0.027778     48.000000
  0.500000  0.166667  0.027778     24.000000
  0.194444  0.194444  0.027778     24.000000
  0.222222  0.194444  0.027778     48.000000
  0.250000  0.194444  0.027778     48.000000
  0.277778  0.194444  0.027778     48.000000
  0.305556  0.194444  0.027778     48.000000
  0.333333  0.194444  0.027778     48.000000
  0.361111  0.194444  0.027778     48.000000
  0.388889  0.194444  0.027778     48.000000
  0.416667  0.194444  0.027778     48.000000
  0.444444  0.194444  0.027778     48.000000
  0.472222  0.194444  0.027778     48.000000
  0.500000  0.194444  0.027778     24.000000
  0.222222  0.222222  0.027778     24.000000
  0.250000  0.222222  0.027778     48.000000
  0.277778  0.222222  0.027778     48.000000
  0.305556  0.222222  0.027778     48.000000
  0.333333  0.222222  0.027778     48.000000
  0.361111  0.222222  0.027778     48.000000
  0.388889  0.222222  0.027778     48.000000
  0.416667  0.222222  0.027778     48.000000
  0.444444  0.222222  0.027778     48.000000
  0.472222  0.222222  0.027778     48.000000
  0.500000  0.222222  0.027778     24.000000
  0.250000  0.250000  0.027778     24.000000
  0.277778  0.250000  0.027778     48.000000
  0.305556  0.250000  0.027778     48.000000
  0.333333  0.250000  0.027778     48.000000
  0.361111  0.250000  0.027778     48.000000
  0.388889  0.250000  0.027778     48.000000
  0.416667  0.250000  0.027778     48.000000
  0.444444  0.250000  0.027778     48.000000
  0.472222  0.250000  0.027778     48.000000
  0.500000  0.250000  0.027778     24.000000
  0.277778  0.277778  0.027778     24.000000
  0.305556  0.277778  0.027778     48.000000
  0.333333  0.277778  0.027778     48.000000
  0.361111  0.277778  0.027778     48.000000
  0.388889  0.277778  0.027778     48.000000
  0.416667  0.277778  0.027778     48.000000
  0.444444  0.277778  0.027778     48.000000
  0.472222  0.277778  0.027778     48.000000
  0.500000  0.277778  0.027778     24.000000
  0.305556  0.305556  0.027778     24.000000
  0.333333  0.305556  0.027778     48.000000
  0.361111  0.305556  0.027778     48.000000
  0.388889  0.305556  0.027778     48.000000
  0.416667  0.305556  0.027778     48.000000
  0.444444  0.305556  0.027778     48.000000
  0.472222  0.305556  0.027778     48.000000
  0.500000  0.305556  0.027778     24.000000
  0.333333  0.333333  0.027778     24.000000
  0.361111  0.333333  0.027778     48.000000
  0.388889  0.333333  0.027778     48.000000
  0.416667  0.333333  0.027778     48.000000
  0.444444  0.333333  0.027778     48.000000
  0.472222  0.333333  0.027778     48.000000
  0.500000  0.333333  0.027778     24.000000
  0.361111  0.361111  0.027778     24.000000
  0.388889  0.361111  0.027778     48.000000
  0.416667  0.361111  0.027778     48.000000
  0.444444  0.361111  0.027778     48.000000
  0.472222  0.361111  0.027778     48.000000
  0.500000  0.361111  0.027778     24.000000
  0.388889  0.388889  0.027778     24.000000
  0.416667  0.388889  0.027778     48.000000
  0.444444  0.388889  0.027778     48.000000
  0.472222  0.388889  0.027778     48.000000
  0.500000  0.388889  0.027778     24.000000
  0.416667  0.416667  0.027778     24.000000
  0.444444  0.416667  0.027778     48.000000
  0.472222  0.416667  0.027778     48.000000
  0.500000  0.416667  0.027778     24.000000
  0.444444  0.444444  0.027778     24.000000
  0.472222  0.444444  0.027778     48.000000
  0.500000  0.444444  0.027778     24.000000
  0.472222  0.472222  0.027778     24.000000
  0.500000  0.472222  0.027778     24.000000
  0.500000  0.500000  0.027778      6.000000
  0.055556  0.055556  0.055556      8.000000
  0.083333  0.055556  0.055556     24.000000
  0.111111  0.055556  0.055556     24.000000
  0.138889  0.055556  0.055556     24.000000
  0.166667  0.055556  0.055556     24.000000
  0.194444  0.055556  0.055556     24.000000
  0.222222  0.055556  0.055556     24.000000
  0.250000  0.055556  0.055556     24.000000
  0.277778  0.055556  0.055556     24.000000
  0.305556  0.055556  0.055556     24.000000
  0.333333  0.055556  0.055556     24.000000
  0.361111  0.055556  0.055556     24.000000
  0.388889  0.055556  0.055556     24.000000
  0.416667  0.055556  0.055556     24.000000
  0.444444  0.055556  0.055556     24.000000
  0.472222  0.055556  0.055556     24.000000
  0.500000  0.055556  0.055556     12.000000
  0.083333  0.083333  0.055556     24.000000
  0.111111  0.083333  0.055556     48.000000
  0.138889  0.083333  0.055556     48.000000
  0.166667  0.083333  0.055556     48.000000
  0.194444  0.083333  0.055556     48.000000
  0.222222  0.083333  0.055556     48.000000
  0.250000  0.083333  0.055556     48.000000
  0.277778  0.083333  0.055556     48.000000
  0.305556  0.083333  0.055556     48.000000
  0.333333  0.083333  0.055556     48.000000
  0.361111  0.083333  0.055556     48.000000
  0.388889  0.083333  0.055556     48.000000
  0.416667  0.083333  0.055556     48.000000
  0.444444  0.083333  0.055556     48.000000
  0.472222  0.083333  0.055556     48.000000
  0.500000  0.083333  0.055556     24.000000
  0.111111  0.111111  0.055556     24.000000
  0.138889  0.111111  0.055556     48.000000
  0.166667  0.111111  0.055556     48.000000
  0.194444  0.111111  0.055556     48.000000
  0.222222  0.111111  0.055556     48.000000
  0.250000  0.111111  0.055556     48.000000
  0.277778  0.111111  0.055556     48.000000
  0.305556  0.111111  0.055556     48.000000
  0.333333  0.111111  0.055556     48.000000
  0.361111  0.111111  0.055556     48.000000
  0.388889  0.111111  0.055556     48.000000
  0.416667  0.111111  0.055556     48.000000
  0.444444  0.111111  0.055556     48.000000
  0.472222  0.111111  0.055556     48.000000
  0.500000  0.111111  0.055556     24.000000
  0.138889  0.138889  0.055556     24.000000
  0.166667  0.138889  0.055556     48.000000
  0.194444  0.138889  0.055556     48.000000
  0.222222  0.138889  0.055556     48.000000
  0.250000  0.138889  0.055556     48.000000
  0.277778  0.138889  0.055556     48.000000
  0.305556  0.138889  0.055556     48.000000
  0.333333  0.138889  0.055556     48.000000
  0.361111  0.138889  0.055556     48.000000
  0.388889  0.138889  0.055556     48.000000
  0.416667  0.138889  0.055556     48.000000
  0.444444  0.138889  0.055556     48.000000
  0.472222  0.138889  0.055556     48.000000
  0.500000  0.138889  0.055556     24.000000
  0.166667  0.166667  0.055556     24.000000
  0.194444  0.166667  0.055556     48.000000
  0.222222  0.166667  0.055556     48.000000
  0.250000  0.166667  0.055556     48.000000
  0.277778  0.166667  0.055556     48.000000
  0.305556  0.166667  0.055556     48.000000
  0.333333  0.166667  0.055556     48.000000
  0.361111  0.166667  0.055556     48.000000
  0.388889  0.166667  0.055556     48.000000
  0.416667  0.166667  0.055556     48.000000
  0.444444  0.166667  0.055556     48.000000
  0.472222  0.166667  0.055556     48.000000
  0.500000  0.166667  0.055556     24.000000
  0.194444  0.194444  0.055556     24.000000
  0.222222  0.194444  0.055556     48.000000
  0.250000  0.194444  0.055556     48.000000
  0.277778  0.194444  0.055556     48.000000
  0.305556  0.194444  0.055556     48.000000
  0.333333  0.194444  0.055556     48.000000
  0.361111  0.194444  0.055556     48.000000
  0.388889  0.194444  0.055556     48.000000
  0.416667  0.194444  0.055556     48.000000
  0.444444  0.194444  0.055556     48.000000
  0.472222  0.194444  0.055556     48.000000
  0.500000  0.194444  0.055556     24.000000
  0.222222  0.222222  0.055556     24.000000
  0.250000  0.222222  0.055556     48.000000
  0.277778  0.222222  0.055556     48.000000
  0.305556  0.222222  0.055556     48.000000
  0.333333  0.222222  0.055556     48.000000
  0.361111  0.222222  0.055556     48.000000
  0.388889  0.222222  0.055556     48.000000
  0.416667  0.222222  0.055556     48.000000
  0.444444  0.222222  0.055556     48.000000
  0.472222  0.222222  0.055556     48.000000
  0.500000  0.222222  0.055556     24.000000
  0.250000  0.250000  0.055556     24.000000
  0.277778  0.250000  0.055556     48.000000
  0.305556  0.250000  0.055556     48.000000
  0.333333  0.250000  0.055556     48.000000
  0.361111  0.250000  0.055556     48.000000
  0.388889  0.250000  0.055556     48.000000
  0.416667  0.250000  0.055556     48.000000
  0.444444  0.250000  0.055556     48.000000
  0.472222  0.250000  0.055556     48.000000
  0.500000  0.250000  0.055556     24.000000
  0.277778  0.277778  0.055556     24.000000
  0.305556  0.277778  0.055556     48.000000
  0.333333  0.277778  0.055556     48.000000
  0.361111  0.277778  0.055556     48.000000
  0.388889  0.277778  0.055556     48.000000
  0.416667  0.277778  0.055556     48.000000
  0.444444  0.277778  0.055556     48.000000
  0.472222  0.277778  0.055556     48.000000
  0.500000  0.277778  0.055556     24.000000
  0.305556  0.305556  0.055556     24.000000
  0.333333  0.305556  0.055556     48.000000
  0.361111  0.305556  0.055556     48.000000
  0.388889  0.305556  0.055556     48.000000
  0.416667  0.305556  0.055556     48.000000
  0.444444  0.305556  0.055556     48.000000
  0.472222  0.305556  0.055556     48.000000
  0.500000  0.305556  0.055556     24.000000
  0.333333  0.333333  0.055556     24.000000
  0.361111  0.333333  0.055556     48.000000
  0.388889  0.333333  0.055556     48.000000
  0.416667  0.333333  0.055556     48.000000
  0.444444  0.333333  0.055556     48.000000
  0.472222  0.333333  0.055556     48.000000
  0.500000  0.333333  0.055556     24.000000
  0.361111  0.361111  0.055556     24.000000
  0.388889  0.361111  0.055556     48.000000
  0.416667  0.361111  0.055556     48.000000
  0.444444  0.361111  0.055556     48.000000
  0.472222  0.361111  0.055556     48.000000
  0.500000  0.361111  0.055556     24.000000
  0.388889  0.388889  0.055556     24.000000
  0.416667  0.388889  0.055556     48.000000
  0.444444  0.388889  0.055556     48.000000
  0.472222  0.388889  0.055556     48.000000
  0.500000  0.388889  0.055556     24.000000
  0.416667  0.416667  0.055556     24.000000
  0.444444  0.416667  0.055556     48.000000
  0.472222  0.416667  0.055556     48.000000
  0.500000  0.416667  0.055556     24.000000
  0.444444  0.444444  0.055556     24.000000
  0.472222  0.444444  0.055556     48.000000
  0.500000  0.444444  0.055556     24.000000
  0.472222  0.472222  0.055556     24.000000
  0.500000  0.472222  0.055556     24.000000
  0.500000  0.500000  0.055556      6.000000
  0.083333  0.083333  0.083333      8.000000
  0.111111  0.083333  0.083333     24.000000
  0.138889  0.083333  0.083333     24.000000
  0.166667  0.083333  0.083333     24.000000
  0.194444  0.083333  0.083333     24.000000
  0.222222  0.083333  0.083333     24.000000
  0.250000  0.083333  0.083333     24.000000
  0.277778  0.083333  0.083333     24.000000
  0.305556  0.083333  0.083333     24.000000
  0.333333  0.083333  0.083333     24.000000
  0.361111  0.083333  0.083333     24.000000
  0.388889  0.083333  0.083333     24.000000
  0.416667  0.083333  0.083333     24.000000
  0.444444  0.083333  0.083333     24.000000
  0.472222  0.083333  0.083333     24.000000
  0.500000  0.083333  0.083333     12.000000
  0.111111  0.111111  0.083333     24.000000
  0.138889  0.111111  0.083333     48.000000
  0.166667  0.111111  0.083333     48.000000
  0.194444  0.111111  0.083333     48.000000
  0.222222  0.111111  0.083333     48.000000
  0.250000  0.111111  0.083333     48.000000
  0.277778  0.111111  0.083333     48.000000
  0.305556  0.111111  0.083333     48.000000
  0.333333  0.111111  0.083333     48.000000
  0.361111  0.111111  0.083333     48.000000
  0.388889  0.111111  0.083333     48.000000
  0.416667  0.111111  0.083333     48.000000
  0.444444  0.111111  0.083333     48.000000
  0.472222  0.111111  0.083333     48.000000
  0.500000  0.111111  0.083333     24.000000
  0.138889  0.138889  0.083333     24.000000
  0.166667  0.138889  0.083333     48.000000
  0.194444  0.138889  0.083333     48.000000
  0.222222  0.138889  0.083333     48.000000
  0.250000  0.138889  0.083333     48.000000
  0.277778  0.138889  0.083333     48.000000
  0.305556  0.138889  0.083333     48.000000
  0.333333  0.138889  0.083333     48.000000
  0.361111  0.138889  0.083333     48.000000
  0.388889  0.138889  0.083333     48.000000
  0.416667  0.138889  0.083333     48.000000
  0.444444  0.138889  0.083333     48.000000
  0.472222  0.138889  0.083333     48.000000
  0.500000  0.138889  0.083333     24.000000
  0.166667  0.166667  0.083333     24.000000
  0.194444  0.166667  0.083333     48.000000
  0.222222  0.166667  0.083333     48.000000
  0.250000  0.166667  0.083333     48.000000
  0.277778  0.166667  0.083333     48.000000
  0.305556  0.166667  0.083333     48.000000
  0.333333  0.166667  0.083333     48.000000
  0.361111  0.166667  0.083333     48.000000
  0.388889  0.166667  0.083333     48.000000
  0.416667  0.166667  0.083333     48.000000
  0.444444  0.166667  0.083333     48.000000
  0.472222  0.166667  0.083333     48.000000
  0.500000  0.166667  0.083333     24.000000
  0.194444  0.194444  0.083333     24.000000
  0.222222  0.194444  0.083333     48.000000
  0.250000  0.194444  0.083333     48.000000
  0.277778  0.194444  0.083333     48.000000
  0.305556  0.194444  0.083333     48.000000
  0.333333  0.194444  0.083333     48.000000
  0.361111  0.194444  0.083333     48.000000
  0.388889  0.194444  0.083333     48.000000
  0.416667  0.194444  0.083333     48.000000
  0.444444  0.194444  0.083333     48.000000
  0.472222  0.194444  0.083333     48.000000
  0.500000  0.194444  0.083333     24.000000
  0.222222  0.222222  0.083333     24.000000
  0.250000  0.222222  0.083333     48.000000
  0.277778  0.222222  0.083333     48.000000
  0.305556  0.222222  0.083333     48.000000
  0.333333  0.222222  0.083333     48.000000
  0.361111  0.222222  0.083333     48.000000
  0.388889  0.222222  0.083333     48.000000
  0.416667  0.222222  0.083333     48.000000
  0.444444  0.222222  0.083333     48.000000
  0.472222  0.222222  0.083333     48.000000
  0.500000  0.222222  0.083333     24.000000
  0.250000  0.250000  0.083333     24.000000
  0.277778  0.250000  0.083333     48.000000
  0.305556  0.250000  0.083333     48.000000
  0.333333  0.250000  0.083333     48.000000
  0.361111  0.250000  0.083333     48.000000
  0.388889  0.250000  0.083333     48.000000
  0.416667  0.250000  0.083333     48.000000
  0.444444  0.250000  0.083333     48.000000
  0.472222  0.250000  0.083333     48.000000
  0.500000  0.250000  0.083333     24.000000
  0.277778  0.277778  0.083333     24.000000
  0.305556  0.277778  0.083333     48.000000
  0.333333  0.277778  0.083333     48.000000
  0.361111  0.277778  0.083333     48.000000
  0.388889  0.277778  0.083333     48.000000
  0.416667  0.277778  0.083333     48.000000
  0.444444  0.277778  0.083333     48.000000
  0.472222  0.277778  0.083333     48.000000
  0.500000  0.277778  0.083333     24.000000
  0.305556  0.305556  0.083333     24.000000
  0.333333  0.305556  0.083333     48.000000
  0.361111  0.305556  0.083333     48.000000
  0.388889  0.305556  0.083333     48.000000
  0.416667  0.305556  0.083333     48.000000
  0.444444  0.305556  0.083333     48.000000
  0.472222  0.305556  0.083333     48.000000
  0.500000  0.305556  0.083333     24.000000
  0.333333  0.333333  0.083333     24.000000
  0.361111  0.333333  0.083333     48.000000
  0.388889  0.333333  0.083333     48.000000
  0.416667  0.333333  0.083333     48.000000
  0.444444  0.333333  0.083333     48.000000
  0.472222  0.333333  0.083333     48.000000
  0.500000  0.333333  0.083333     24.000000
  0.361111  0.361111  0.083333     24.000000
  0.388889  0.361111  0.083333     48.000000
  0.416667  0.361111  0.083333     48.000000
  0.444444  0.361111  0.083333     48.000000
  0.472222  0.361111  0.083333     48.000000
  0.500000  0.361111  0.083333     24.000000
  0.388889  0.388889  0.083333     24.000000
  0.416667  0.388889  0.083333     48.000000
  0.444444  0.388889  0.083333     48.000000
  0.472222  0.388889  0.083333     48.000000
  0.500000  0.388889  0.083333     24.000000
  0.416667  0.416667  0.083333     24.000000
  0.444444  0.416667  0.083333     48.000000
  0.472222  0.416667  0.083333     48.000000
  0.500000  0.416667  0.083333     24.000000
  0.444444  0.444444  0.083333     24.000000
  0.472222  0.444444  0.083333     48.000000
  0.500000  0.444444  0.083333     24.000000
  0.472222  0.472222  0.083333     24.000000
  0.500000  0.472222  0.083333     24.000000
  0.500000  0.500000  0.083333      6.000000
  0.111111  0.111111  0.111111      8.000000
  0.138889  0.111111  0.111111     24.000000
  0.166667  0.111111  0.111111     24.000000
  0.194444  0.111111  0.111111     24.000000
  0.222222  0.111111  0.111111     24.000000
  0.250000  0.111111  0.111111     24.000000
  0.277778  0.111111  0.111111     24.000000
  0.305556  0.111111  0.111111     24.000000
  0.333333  0.111111  0.111111     24.000000
  0.361111  0.111111  0.111111     24.000000
  0.388889  0.111111  0.111111     24.000000
  0.416667  0.111111  0.111111     24.000000
  0.444444  0.111111  0.111111     24.000000
  0.472222  0.111111  0.111111     24.000000
  0.500000  0.111111  0.111111     12.000000
  0.138889  0.138889  0.111111     24.000000
  0.166667  0.138889  0.111111     48.000000
  0.194444  0.138889  0.111111     48.000000
  0.222222  0.138889  0.111111     48.000000
  0.250000  0.138889  0.111111     48.000000
  0.277778  0.138889  0.111111     48.000000
  0.305556  0.138889  0.111111     48.000000
  0.333333  0.138889  0.111111     48.000000
  0.361111  0.138889  0.111111     48.000000
  0.388889  0.138889  0.111111     48.000000
  0.416667  0.138889  0.111111     48.000000
  0.444444  0.138889  0.111111     48.000000
  0.472222  0.138889  0.111111     48.000000
  0.500000  0.138889  0.111111     24.000000
  0.166667  0.166667  0.111111     24.000000
  0.194444  0.166667  0.111111     48.000000
  0.222222  0.166667  0.111111     48.000000
  0.250000  0.166667  0.111111     48.000000
  0.277778  0.166667  0.111111     48.000000
  0.305556  0.166667  0.111111     48.000000
  0.333333  0.166667  0.111111     48.000000
  0.361111  0.166667  0.111111     48.000000
  0.388889  0.166667  0.111111     48.000000
  0.416667  0.166667  0.111111     48.000000
  0.444444  0.166667  0.111111     48.000000
  0.472222  0.166667  0.111111     48.000000
  0.500000  0.166667  0.111111     24.000000
  0.194444  0.194444  0.111111     24.000000
  0.222222  0.194444  0.111111     48.000000
  0.250000  0.194444  0.111111     48.000000
  0.277778  0.194444  0.111111     48.000000
  0.305556  0.194444  0.111111     48.000000
  0.333333  0.194444  0.111111     48.000000
  0.361111  0.194444  0.111111     48.000000
  0.388889  0.194444  0.111111     48.000000
  0.416667  0.194444  0.111111     48.000000
  0.444444  0.194444  0.111111     48.000000
  0.472222  0.194444  0.111111     48.000000
  0.500000  0.194444  0.111111     24.000000
  0.222222  0.222222  0.111111     24.000000
  0.250000  0.222222  0.111111     48.000000
  0.277778  0.222222  0.111111     48.000000
  0.305556  0.222222  0.111111     48.000000
  0.333333  0.222222  0.111111     48.000000
  0.361111  0.222222  0.111111     48.000000
  0.388889  0.222222  0.111111     48.000000
  0.416667  0.222222  0.111111     48.000000
  0.444444  0.222222  0.111111     48.000000
  0.472222  0.222222  0.111111     48.000000
  0.500000  0.222222  0.111111     24.000000
  0.250000  0.250000  0.111111     24.000000
  0.277778  0.250000  0.111111     48.000000
  0.305556  0.250000  0.111111     48.000000
  0.333333  0.250000  0.111111     48.000000
  0.361111  0.250000  0.111111     48.000000
  0.388889  0.250000  0.111111     48.000000
  0.416667  0.250000  0.111111     48.000000
  0.444444  0.250000  0.111111     48.000000
  0.472222  0.250000  0.111111     48.000000
  0.500000  0.250000  0.111111     24.000000
  0.277778  0.277778  0.111111     24.000000
  0.305556  0.277778  0.111111     48.000000
  0.333333  0.277778  0.111111     48.000000
  0.361111  0.277778  0.111111     48.000000
  0.388889  0.277778  0.111111     48.000000
  0.416667  0.277778  0.111111     48.000000
  0.444444  0.277778  0.111111     48.000000
  0.472222  0.277778  0.111111     48.000000
  0.500000  0.277778  0.111111     24.000000
  0.305556  0.305556  0.111111     24.000000
  0.333333  0.305556  0.111111     48.000000
  0.361111  0.305556  0.111111     48.000000
  0.388889  0.305556  0.111111     48.000000
  0.416667  0.305556  0.111111     48.000000
  0.444444  0.305556  0.111111     48.000000
  0.472222  0.305556  0.111111     48.000000
  0.500000  0.305556  0.111111     24.000000
  0.333333  0.333333  0.111111     24.000000
  0.361111  0.333333  0.111111     48.000000
  0.388889  0.333333  0.111111     48.000000
  0.416667  0.333333  0.111111     48.000000
  0.444444  0.333333  0.111111     48.000000
  0.472222  0.333333  0.111111     48.000000
  0.500000  0.333333  0.111111     24.000000
  0.361111  0.361111  0.111111     24.000000
  0.388889  0.361111  0.111111     48.000000
  0.416667  0.361111  0.111111     48.000000
  0.444444  0.361111  0.111111     48.000000
  0.472222  0.361111  0.111111     48.000000
  0.500000  0.361111  0.111111     24.000000
  0.388889  0.388889  0.111111     24.000000
  0.416667  0.388889  0.111111     48.000000
  0.444444  0.388889  0.111111     48.000000
  0.472222  0.388889  0.111111     48.000000
  0.500000  0.388889  0.111111     24.000000
  0.416667  0.416667  0.111111     24.000000
  0.444444  0.416667  0.111111     48.000000
  0.472222  0.416667  0.111111     48.000000
  0.500000  0.416667  0.111111     24.000000
  0.444444  0.444444  0.111111     24.000000
  0.472222  0.444444  0.111111     48.000000
  0.500000  0.444444  0.111111     24.000000
  0.472222  0.472222  0.111111     24.000000
  0.500000  0.472222  0.111111     24.000000
  0.500000  0.500000  0.111111      6.000000
  0.138889  0.138889  0.138889      8.000000
  0.166667  0.138889  0.138889     24.000000
  0.194444  0.138889  0.138889     24.000000
  0.222222  0.138889  0.138889     24.000000
  0.250000  0.138889  0.138889     24.000000
  0.277778  0.138889  0.138889     24.000000
  0.305556  0.138889  0.138889     24.000000
  0.333333  0.138889  0.138889     24.000000
  0.361111  0.138889  0.138889     24.000000
  0.388889  0.138889  0.138889     24.000000
  0.416667  0.138889  0.138889     24.000000
  0.444444  0.138889  0.138889     24.000000
  0.472222  0.138889  0.138889     24.000000
  0.500000  0.138889  0.138889     12.000000
  0.166667  0.166667  0.138889     24.000000
  0.194444  0.166667  0.138889     48.000000
  0.222222  0.166667  0.138889     48.000000
  0.250000  0.166667  0.138889     48.000000
  0.277778  0.166667  0.138889     48.000000
  0.305556  0.166667  0.138889     48.000000
  0.333333  0.166667  0.138889     48.000000
  0.361111  0.166667  0.138889     48.000000
  0.388889  0.166667  0.138889     48.000000
  0.416667  0.166667  0.138889     48.000000
  0.444444  0.166667  0.138889     48.000000
  0.472222  0.166667  0.138889     48.000000
  0.500000  0.166667  0.138889     24.000000
  0.194444  0.194444  0.138889     24.000000
  0.222222  0.194444  0.138889     48.000000
  0.250000  0.194444  0.138889     48.000000
  0.277778  0.194444  0.138889     48.000000
  0.305556  0.194444  0.138889     48.000000
  0.333333  0.194444  0.138889     48.000000
  0.361111  0.194444  0.138889     48.000000
  0.388889  0.194444  0.138889     48.000000
  0.416667  0.194444  0.138889     48.000000
  0.444444  0.194444  0.138889     48.000000
  0.472222  0.194444  0.138889     48.000000
  0.500000  0.194444  0.138889     24.000000
  0.222222  0.222222  0.138889     24.000000
  0.250000  0.222222  0.138889     48.000000
  0.277778  0.222222  0.138889     48.000000
  0.305556  0.222222  0.138889     48.000000
  0.333333  0.222222  0.138889     48.000000
  0.361111  0.222222  0.138889     48.000000
  0.388889  0.222222  0.138889     48.000000
  0.416667  0.222222  0.138889     48.000000
  0.444444  0.222222  0.138889     48.000000
  0.472222  0.222222  0.138889     48.000000
  0.500000  0.222222  0.138889     24.000000
  0.250000  0.250000  0.138889     24.000000
  0.277778  0.250000  0.138889     48.000000
  0.305556  0.250000  0.138889     48.000000
  0.333333  0.250000  0.138889     48.000000
  0.361111  0.250000  0.138889     48.000000
  0.388889  0.250000  0.138889     48.000000
  0.416667  0.250000  0.138889     48.000000
  0.444444  0.250000  0.138889     48.000000
  0.472222  0.250000  0.138889     48.000000
  0.500000  0.250000  0.138889     24.000000
  0.277778  0.277778  0.138889     24.000000
  0.305556  0.277778  0.138889     48.000000
  0.333333  0.277778  0.138889     48.000000
  0.361111  0.277778  0.138889     48.000000
  0.388889  0.277778  0.138889     48.000000
  0.416667  0.277778  0.138889     48.000000
  0.444444  0.277778  0.138889     48.000000
  0.472222  0.277778  0.138889     48.000000
  0.500000  0.277778  0.138889     24.000000
  0.305556  0.305556  0.138889     24.000000
  0.333333  0.305556  0.138889     48.000000
  0.361111  0.305556  0.138889     48.000000
  0.388889  0.305556  0.138889     48.000000
  0.416667  0.305556  0.138889     48.000000
  0.444444  0.305556  0.138889     48.000000
  0.472222  0.305556  0.138889     48.000000
  0.500000  0.305556  0.138889     24.000000
  0.333333  0.333333  0.138889     24.000000
  0.361111  0.333333  0.138889     48.000000
  0.388889  0.333333  0.138889     48.000000
  0.416667  0.333333  0.138889     48.000000
  0.444444  0.333333  0.138889     48.000000
  0.472222  0.333333  0.138889     48.000000
  0.500000  0.333333  0.138889     24.000000
  0.361111  0.361111  0.138889     24.000000
  0.388889  0.361111  0.138889     48.000000
  0.416667  0.361111  0.138889     48.000000
  0.444444  0.361111  0.138889     48.000000
  0.472222  0.361111  0.138889     48.000000
  0.500000  0.361111  0.138889     24.000000
  0.388889  0.388889  0.138889     24.000000
  0.416667  0.388889  0.138889     48.000000
  0.444444  0.388889  0.138889     48.000000
  0.472222  0.388889  0.138889     48.000000
  0.500000  0.388889  0.138889     24.000000
  0.416667  0.416667  0.138889     24.000000
  0.444444  0.416667  0.138889     48.000000
  0.472222  0.416667  0.138889     48.000000
  0.500000  0.416667  0.138889     24.000000
  0.444444  0.444444  0.138889     24.000000
  0.472222  0.444444  0.138889     48.000000
  0.500000  0.444444  0.138889     24.000000
  0.472222  0.472222  0.138889     24.000000
  0.500000  0.472222  0.138889     24.000000
  0.500000  0.500000  0.138889      6.000000
  0.166667  0.166667  0.166667      8.000000
  0.194444  0.166667  0.166667     24.000000
  0.222222  0.166667  0.166667     24.000000
  0.250000  0.166667  0.166667     24.000000
  0.277778  0.166667  0.166667     24.000000
  0.305556  0.166667  0.166667     24.000000
  0.333333  0.166667  0.166667     24.000000
  0.361111  0.166667  0.166667     24.000000
  0.388889  0.166667  0.166667     24.000000
  0.416667  0.166667  0.166667     24.000000
  0.444444  0.166667  0.166667     24.000000
  0.472222  0.166667  0.166667     24.000000
  0.500000  0.166667  0.166667     12.000000
  0.194444  0.194444  0.166667     24.000000
  0.222222  0.194444  0.166667     48.000000
  0.250000  0.194444  0.166667     48.000000
  0.277778  0.194444  0.166667     48.000000
  0.305556  0.194444  0.166667     48.000000
  0.333333  0.194444  0.166667     48.000000
  0.361111  0.194444  0.166667     48.000000
  0.388889  0.194444  0.166667     48.000000
  0.416667  0.194444  0.166667     48.000000
  0.444444  0.194444  0.166667     48.000000
  0.472222  0.194444  0.166667     48.000000
  0.500000  0.194444  0.166667     24.000000
  0.222222  0.222222  0.166667     24.000000
  0.250000  0.222222  0.166667     48.000000
  0.277778  0.222222  0.166667     48.000000
  0.305556  0.222222  0.166667     48.000000
  0.333333  0.222222  0.166667     48.000000
  0.361111  0.222222  0.166667     48.000000
  0.388889  0.222222  0.166667     48.000000
  0.416667  0.222222  0.166667     48.000000
  0.444444  0.222222  0.166667     48.000000
  0.472222  0.222222  0.166667     48.000000
  0.500000  0.222222  0.166667     24.000000
  0.250000  0.250000  0.166667     24.000000
  0.277778  0.250000  0.166667     48.000000
  0.305556  0.250000  0.166667     48.000000
  0.333333  0.250000  0.166667     48.000000
  0.361111  0.250000  0.166667     48.000000
  0.388889  0.250000  0.166667     48.000000
  0.416667  0.250000  0.166667     48.000000
  0.444444  0.250000  0.166667     48.000000
  0.472222  0.250000  0.166667     48.000000
  0.500000  0.250000  0.166667     24.000000
  0.277778  0.277778  0.166667     24.000000
  0.305556  0.277778  0.166667     48.000000
  0.333333  0.277778  0.166667     48.000000
  0.361111  0.277778  0.166667     48.000000
  0.388889  0.277778  0.166667     48.000000
  0.416667  0.277778  0.166667     48.000000
  0.444444  0.277778  0.166667     48.000000
  0.472222  0.277778  0.166667     48.000000
  0.500000  0.277778  0.166667     24.000000
  0.305556  0.305556  0.166667     24.000000
  0.333333  0.305556  0.166667     48.000000
  0.361111  0.305556  0.166667     48.000000
  0.388889  0.305556  0.166667     48.000000
  0.416667  0.305556  0.166667     48.000000
  0.444444  0.305556  0.166667     48.000000
  0.472222  0.305556  0.166667     48.000000
  0.500000  0.305556  0.166667     24.000000
  0.333333  0.333333  0.166667     24.000000
  0.361111  0.333333  0.166667     48.000000
  0.388889  0.333333  0.166667     48.000000
  0.416667  0.333333  0.166667     48.000000
  0.444444  0.333333  0.166667     48.000000
  0.472222  0.333333  0.166667     48.000000
  0.500000  0.333333  0.166667     24.000000
  0.361111  0.361111  0.166667     24.000000
  0.388889  0.361111  0.166667     48.000000
  0.416667  0.361111  0.166667     48.000000
  0.444444  0.361111  0.166667     48.000000
  0.472222  0.361111  0.166667     48.000000
  0.500000  0.361111  0.166667     24.000000
  0.388889  0.388889  0.166667     24.000000
  0.416667  0.388889  0.166667     48.000000
  0.444444  0.388889  0.166667     48.000000
  0.472222  0.388889  0.166667     48.000000
  0.500000  0.388889  0.166667     24.000000
  0.416667  0.416667  0.166667     24.000000
  0.444444  0.416667  0.166667     48.000000
  0.472222  0.416667  0.166667     48.000000
  0.500000  0.416667  0.166667     24.000000
  0.444444  0.444444  0.166667     24.000000
  0.472222  0.444444  0.166667     48.000000
  0.500000  0.444444  0.166667     24.000000
  0.472222  0.472222  0.166667     24.000000
  0.500000  0.472222  0.166667     24.000000
  0.500000  0.500000  0.166667      6.000000
  0.194444  0.194444  0.194444      8.000000
  0.222222  0.194444  0.194444     24.000000
  0.250000  0.194444  0.194444     24.000000
  0.277778  0.194444  0.194444     24.000000
  0.305556  0.194444  0.194444     24.000000
  0.333333  0.194444  0.194444     24.000000
  0.361111  0.194444  0.194444     24.000000
  0.388889  0.194444  0.194444     24.000000
  0.416667  0.194444  0.194444     24.000000
  0.444444  0.194444  0.194444     24.000000
  0.472222  0.194444  0.194444     24.000000
  0.500000  0.194444  0.194444     12.000000
  0.222222  0.222222  0.194444     24.000000
  0.250000  0.222222  0.194444     48.000000
  0.277778  0.222222  0.194444     48.000000
  0.305556  0.222222  0.194444     48.000000
  0.333333  0.222222  0.194444     48.000000
  0.361111  0.222222  0.194444     48.000000
  0.388889  0.222222  0.194444     48.000000
  0.416667  0.222222  0.194444     48.000000
  0.444444  0.222222  0.194444     48.000000
  0.472222  0.222222  0.194444     48.000000
  0.500000  0.222222  0.194444     24.000000
  0.250000  0.250000  0.194444     24.000000
  0.277778  0.250000  0.194444     48.000000
  0.305556  0.250000  0.194444     48.000000
  0.333333  0.250000  0.194444     48.000000
  0.361111  0.250000  0.194444     48.000000
  0.388889  0.250000  0.194444     48.000000
  0.416667  0.250000  0.194444     48.000000
  0.444444  0.250000  0.194444     48.000000
  0.472222  0.250000  0.194444     48.000000
  0.500000  0.250000  0.194444     24.000000
  0.277778  0.277778  0.194444     24.000000
  0.305556  0.277778  0.194444     48.000000
  0.333333  0.277778  0.194444     48.000000
  0.361111  0.277778  0.194444     48.000000
  0.388889  0.277778  0.194444     48.000000
  0.416667  0.277778  0.194444     48.000000
  0.444444  0.277778  0.194444     48.000000
  0.472222  0.277778  0.194444     48.000000
  0.500000  0.277778  0.194444     24.000000
  0.305556  0.305556  0.194444     24.000000
  0.333333  0.305556  0.194444     48.000000
  0.361111  0.305556  0.194444     48.000000
  0.388889  0.305556  0.194444     48.000000
  0.416667  0.305556  0.194444     48.000000
  0.444444  0.305556  0.194444     48.000000
  0.472222  0.305556  0.194444     48.000000
  0.500000  0.305556  0.194444     24.000000
  0.333333  0.333333  0.194444     24.000000
  0.361111  0.333333  0.194444     48.000000
  0.388889  0.333333  0.194444     48.000000
  0.416667  0.333333  0.194444     48.000000
  0.444444  0.333333  0.194444     48.000000
  0.472222  0.333333  0.194444     48.000000
  0.500000  0.333333  0.194444     24.000000
  0.361111  0.361111  0.194444     24.000000
  0.388889  0.361111  0.194444     48.000000
  0.416667  0.361111  0.194444     48.000000
  0.444444  0.361111  0.194444     48.000000
  0.472222  0.361111  0.194444     48.000000
  0.500000  0.361111  0.194444     24.000000
  0.388889  0.388889  0.194444     24.000000
  0.416667  0.388889  0.194444     48.000000
  0.444444  0.388889  0.194444     48.000000
  0.472222  0.388889  0.194444     48.000000
  0.500000  0.388889  0.194444     24.000000
  0.416667  0.416667  0.194444     24.000000
  0.444444  0.416667  0.194444     48.000000
  0.472222  0.416667  0.194444     48.000000
  0.500000  0.416667  0.194444     24.000000
  0.444444  0.444444  0.194444     24.000000
  0.472222  0.444444  0.194444     48.000000
  0.500000  0.444444  0.194444     24.000000
  0.472222  0.472222  0.194444     24.000000
  0.500000  0.472222  0.194444     24.000000
  0.500000  0.500000  0.194444      6.000000
  0.222222  0.222222  0.222222      8.000000
  0.250000  0.222222  0.222222     24.000000
  0.277778  0.222222  0.222222     24.000000
  0.305556  0.222222  0.222222     24.000000
  0.333333  0.222222  0.222222     24.000000
  0.361111  0.222222  0.222222     24.000000
  0.388889  0.222222  0.222222     24.000000
  0.416667  0.222222  0.222222     24.000000
  0.444444  0.222222  0.222222     24.000000
  0.472222  0.222222  0.222222     24.000000
  0.500000  0.222222  0.222222     12.000000
  0.250000  0.250000  0.222222     24.000000
  0.277778  0.250000  0.222222     48.000000
  0.305556  0.250000  0.222222     48.000000
  0.333333  0.250000  0.222222     48.000000
  0.361111  0.250000  0.222222     48.000000
  0.388889  0.250000  0.222222     48.000000
  0.416667  0.250000  0.222222     48.000000
  0.444444  0.250000  0.222222     48.000000
  0.472222  0.250000  0.222222     48.000000
  0.500000  0.250000  0.222222     24.000000
  0.277778  0.277778  0.222222     24.000000
  0.305556  0.277778  0.222222     48.000000
  0.333333  0.277778  0.222222     48.000000
  0.361111  0.277778  0.222222     48.000000
  0.388889  0.277778  0.222222     48.000000
  0.416667  0.277778  0.222222     48.000000
  0.444444  0.277778  0.222222     48.000000
  0.472222  0.277778  0.222222     48.000000
  0.500000  0.277778  0.222222     24.000000
  0.305556  0.305556  0.222222     24.000000
  0.333333  0.305556  0.222222     48.000000
  0.361111  0.305556  0.222222     48.000000
  0.388889  0.305556  0.222222     48.000000
  0.416667  0.305556  0.222222     48.000000
  0.444444  0.305556  0.222222     48.000000
  0.472222  0.305556  0.222222     48.000000
  0.500000  0.305556  0.222222     24.000000
  0.333333  0.333333  0.222222     24.000000
  0.361111  0.333333  0.222222     48.000000
  0.388889  0.333333  0.222222     48.000000
  0.416667  0.333333  0.222222     48.000000
  0.444444  0.333333  0.222222     48.000000
  0.472222  0.333333  0.222222     48.000000
  0.500000  0.333333  0.222222     24.000000
  0.361111  0.361111  0.222222     24.000000
  0.388889  0.361111  0.222222     48.000000
  0.416667  0.361111  0.222222     48.000000
  0.444444  0.361111  0.222222     48.000000
  0.472222  0.361111  0.222222     48.000000
  0.500000  0.361111  0.222222     24.000000
  0.388889  0.388889  0.222222     24.000000
  0.416667  0.388889  0.222222     48.000000
  0.444444  0.388889  0.222222     48.000000
  0.472222  0.388889  0.222222     48.000000
  0.500000  0.388889  0.222222     24.000000
  0.416667  0.416667  0.222222     24.000000
  0.444444  0.416667  0.222222     48.000000
  0.472222  0.416667  0.222222     48.000000
  0.500000  0.416667  0.222222     24.000000
  0.444444  0.444444  0.222222     24.000000
  0.472222  0.444444  0.222222     48.000000
  0.500000  0.444444  0.222222     24.000000
  0.472222  0.472222  0.222222     24.000000
  0.500000  0.472222  0.222222     24.000000
  0.500000  0.500000  0.222222      6.000000
  0.250000  0.250000  0.250000      8.000000
  0.277778  0.250000  0.250000     24.000000
  0.305556  0.250000  0.250000     24.000000
  0.333333  0.250000  0.250000     24.000000
  0.361111  0.250000  0.250000     24.000000
  0.388889  0.250000  0.250000     24.000000
  0.416667  0.250000  0.250000     24.000000
  0.444444  0.250000  0.250000     24.000000
  0.472222  0.250000  0.250000     24.000000
  0.500000  0.250000  0.250000     12.000000
  0.277778  0.277778  0.250000     24.000000
  0.305556  0.277778  0.250000     48.000000
  0.333333  0.277778  0.250000     48.000000
  0.361111  0.277778  0.250000     48.000000
  0.388889  0.277778  0.250000     48.000000
  0.416667  0.277778  0.250000     48.000000
  0.444444  0.277778  0.250000     48.000000
  0.472222  0.277778  0.250000     48.000000
  0.500000  0.277778  0.250000     24.000000
  0.305556  0.305556  0.250000     24.000000
  0.333333  0.305556  0.250000     48.000000
  0.361111  0.305556  0.250000     48.000000
  0.388889  0.305556  0.250000     48.000000
  0.416667  0.305556  0.250000     48.000000
  0.444444  0.305556  0.250000     48.000000
  0.472222  0.305556  0.250000     48.000000
  0.500000  0.305556  0.250000     24.000000
  0.333333  0.333333  0.250000     24.000000
  0.361111  0.333333  0.250000     48.000000
  0.388889  0.333333  0.250000     48.000000
  0.416667  0.333333  0.250000     48.000000
  0.444444  0.333333  0.250000     48.000000
  0.472222  0.333333  0.250000     48.000000
  0.500000  0.333333  0.250000     24.000000
  0.361111  0.361111  0.250000     24.000000
  0.388889  0.361111  0.250000     48.000000
  0.416667  0.361111  0.250000     48.000000
  0.444444  0.361111  0.250000     48.000000
  0.472222  0.361111  0.250000     48.000000
  0.500000  0.361111  0.250000     24.000000
  0.388889  0.388889  0.250000     24.000000
  0.416667  0.388889  0.250000     48.000000
  0.444444  0.388889  0.250000     48.000000
  0.472222  0.388889  0.250000     48.000000
  0.500000  0.388889  0.250000     24.000000
  0.416667  0.416667  0.250000     24.000000
  0.444444  0.416667  0.250000     48.000000
  0.472222  0.416667  0.250000     48.000000
  0.500000  0.416667  0.250000     24.000000
  0.444444  0.444444  0.250000     24.000000
  0.472222  0.444444  0.250000     48.000000
  0.500000  0.444444  0.250000     24.000000
  0.472222  0.472222  0.250000     24.000000
  0.500000  0.472222  0.250000     24.000000
  0.500000  0.500000  0.250000      6.000000
  0.277778  0.277778  0.277778      8.000000
  0.305556  0.277778  0.277778     24.000000
  0.333333  0.277778  0.277778     24.000000
  0.361111  0.277778  0.277778     24.000000
  0.388889  0.277778  0.277778     24.000000
  0.416667  0.277778  0.277778     24.000000
  0.444444  0.277778  0.277778     24.000000
  0.472222  0.277778  0.277778     24.000000
  0.500000  0.277778  0.277778     12.000000
  0.305556  0.305556  0.277778     24.000000
  0.333333  0.305556  0.277778     48.000000
  0.361111  0.305556  0.277778     48.000000
  0.388889  0.305556  0.277778     48.000000
  0.416667  0.305556  0.277778     48.000000
  0.444444  0.305556  0.277778     48.000000
  0.472222  0.305556  0.277778     48.000000
  0.500000  0.305556  0.277778     24.000000
  0.333333  0.333333  0.277778     24.000000
  0.361111  0.333333  0.277778     48.000000
  0.388889  0.333333  0.277778     48.000000
  0.416667  0.333333  0.277778     48.000000
  0.444444  0.333333  0.277778     48.000000
  0.472222  0.333333  0.277778     48.000000
  0.500000  0.333333  0.277778     24.000000
  0.361111  0.361111  0.277778     24.000000
  0.388889  0.361111  0.277778     48.000000
  0.416667  0.361111  0.277778     48.000000
  0.444444  0.361111  0.277778     48.000000
  0.472222  0.361111  0.277778     48.000000
  0.500000  0.361111  0.277778     24.000000
  0.388889  0.388889  0.277778     24.000000
  0.416667  0.388889  0.277778     48.000000
  0.444444  0.388889  0.277778     48.000000
  0.472222  0.388889  0.277778     48.000000
  0.500000  0.388889  0.277778     24.000000
  0.416667  0.416667  0.277778     24.000000
  0.444444  0.416667  0.277778     48.000000
  0.472222  0.416667  0.277778     48.000000
  0.500000  0.416667  0.277778     24.000000
  0.444444  0.444444  0.277778     24.000000
  0.472222  0.444444  0.277778     48.000000
  0.500000  0.444444  0.277778     24.000000
  0.472222  0.472222  0.277778     24.000000
  0.500000  0.472222  0.277778     24.000000
  0.500000  0.500000  0.277778      6.000000
  0.305556  0.305556  0.305556      8.000000
  0.333333  0.305556  0.305556     24.000000
  0.361111  0.305556  0.305556     24.000000
  0.388889  0.305556  0.305556     24.000000
  0.416667  0.305556  0.305556     24.000000
  0.444444  0.305556  0.305556     24.000000
  0.472222  0.305556  0.305556     24.000000
  0.500000  0.305556  0.305556     12.000000
  0.333333  0.333333  0.305556     24.000000
  0.361111  0.333333  0.305556     48.000000
  0.388889  0.333333  0.305556     48.000000
  0.416667  0.333333  0.305556     48.000000
  0.444444  0.333333  0.305556     48.000000
  0.472222  0.333333  0.305556     48.000000
  0.500000  0.333333  0.305556     24.000000
  0.361111  0.361111  0.305556     24.000000
  0.388889  0.361111  0.305556     48.000000
  0.416667  0.361111  0.305556     48.000000
  0.444444  0.361111  0.305556     48.000000
  0.472222  0.361111  0.305556     48.000000
  0.500000  0.361111  0.305556     24.000000
  0.388889  0.388889  0.305556     24.000000
  0.416667  0.388889  0.305556     48.000000
  0.444444  0.388889  0.305556     48.000000
  0.472222  0.388889  0.305556     48.000000
  0.500000  0.388889  0.305556     24.000000
  0.416667  0.416667  0.305556     24.000000
  0.444444  0.416667  0.305556     48.000000
  0.472222  0.416667  0.305556     48.000000
  0.500000  0.416667  0.305556     24.000000
  0.444444  0.444444  0.305556     24.000000
  0.472222  0.444444  0.305556     48.000000
  0.500000  0.444444  0.305556     24.000000
  0.472222  0.472222  0.305556     24.000000
  0.500000  0.472222  0.305556     24.000000
  0.500000  0.500000  0.305556      6.000000
  0.333333  0.333333  0.333333      8.000000
  0.361111  0.333333  0.333333     24.000000
  0.388889  0.333333  0.333333     24.000000
  0.416667  0.333333  0.333333     24.000000
  0.444444  0.333333  0.333333     24.000000
  0.472222  0.333333  0.333333     24.000000
  0.500000  0.333333  0.333333     12.000000
  0.361111  0.361111  0.333333     24.000000
  0.388889  0.361111  0.333333     48.000000
  0.416667  0.361111  0.333333     48.000000
  0.444444  0.361111  0.333333     48.000000
  0.472222  0.361111  0.333333     48.000000
  0.500000  0.361111  0.333333     24.000000
  0.388889  0.388889  0.333333     24.000000
  0.416667  0.388889  0.333333     48.000000
  0.444444  0.388889  0.333333     48.000000
  0.472222  0.388889  0.333333     48.000000
  0.500000  0.388889  0.333333     24.000000
  0.416667  0.416667  0.333333     24.000000
  0.444444  0.416667  0.333333     48.000000
  0.472222  0.416667  0.333333     48.000000
  0.500000  0.416667  0.333333     24.000000
  0.444444  0.444444  0.333333     24.000000
  0.472222  0.444444  0.333333     48.000000
  0.500000  0.444444  0.333333     24.000000
  0.472222  0.472222  0.333333     24.000000
  0.500000  0.472222  0.333333     24.000000
  0.500000  0.500000  0.333333      6.000000
  0.361111  0.361111  0.361111      8.000000
  0.388889  0.361111  0.361111     24.000000
  0.416667  0.361111  0.361111     24.000000
  0.444444  0.361111  0.361111     24.000000
  0.472222  0.361111  0.361111     24.000000
  0.500000  0.361111  0.361111     12.000000
  0.388889  0.388889  0.361111     24.000000
  0.416667  0.388889  0.361111     48.000000
  0.444444  0.388889  0.361111     48.000000
  0.472222  0.388889  0.361111     48.000000
  0.500000  0.388889  0.361111     24.000000
  0.416667  0.416667  0.361111     24.000000
  0.444444  0.416667  0.361111     48.000000
  0.472222  0.416667  0.361111     48.000000
  0.500000  0.416667  0.361111     24.000000
  0.444444  0.444444  0.361111     24.000000
  0.472222  0.444444  0.361111     48.000000
  0.500000  0.444444  0.361111     24.000000
  0.472222  0.472222  0.361111     24.000000
  0.500000  0.472222  0.361111     24.000000
  0.500000  0.500000  0.361111      6.000000
  0.388889  0.388889  0.388889      8.000000
  0.416667  0.388889  0.388889     24.000000
  0.444444  0.388889  0.388889     24.000000
  0.472222  0.388889  0.388889     24.000000
  0.500000  0.388889  0.388889     12.000000
  0.416667  0.416667  0.388889     24.000000
  0.444444  0.416667  0.388889     48.000000
  0.472222  0.416667  0.388889     48.000000
  0.500000  0.416667  0.388889     24.000000
  0.444444  0.444444  0.388889     24.000000
  0.472222  0.444444  0.388889     48.000000
  0.500000  0.444444  0.388889     24.000000
  0.472222  0.472222  0.388889     24.000000
  0.500000  0.472222  0.388889     24.000000
  0.500000  0.500000  0.388889      6.000000
  0.416667  0.416667  0.416667      8.000000
  0.444444  0.416667  0.416667     24.000000
  0.472222  0.416667  0.416667     24.000000
  0.500000  0.416667  0.416667     12.000000
  0.444444  0.444444  0.416667     24.000000
  0.472222  0.444444  0.416667     48.000000
  0.500000  0.444444  0.416667     24.000000
  0.472222  0.472222  0.416667     24.000000
  0.500000  0.472222  0.416667     24.000000
  0.500000  0.500000  0.416667      6.000000
  0.444444  0.444444  0.444444      8.000000
  0.472222  0.444444  0.444444     24.000000
  0.500000  0.444444  0.444444     12.000000
  0.472222  0.472222  0.444444     24.000000
  0.500000  0.472222  0.444444     24.000000
  0.500000  0.500000  0.444444      6.000000
  0.472222  0.472222  0.472222      8.000000
  0.500000  0.472222  0.472222     12.000000
  0.500000  0.500000  0.472222      6.000000
  0.500000  0.500000  0.500000      1.000000
 
 Following cartesian coordinates:
            Coordinates               Weight
  0.000000  0.000000  0.000000      1.000000
  0.006876  0.000000  0.000000      6.000000
  0.013752  0.000000  0.000000      6.000000
  0.020628  0.000000  0.000000      6.000000
  0.027504  0.000000  0.000000      6.000000
  0.034380  0.000000  0.000000      6.000000
  0.041256  0.000000  0.000000      6.000000
  0.048132  0.000000  0.000000      6.000000
  0.055007  0.000000  0.000000      6.000000
  0.061883  0.000000  0.000000      6.000000
  0.068759  0.000000  0.000000      6.000000
  0.075635  0.000000  0.000000      6.000000
  0.082511  0.000000  0.000000      6.000000
  0.089387  0.000000  0.000000      6.000000
  0.096263  0.000000  0.000000      6.000000
  0.103139  0.000000  0.000000      6.000000
  0.110015  0.000000  0.000000      6.000000
  0.116891  0.000000  0.000000      6.000000
  0.123767  0.000000  0.000000      3.000000
  0.006876  0.006876  0.000000     12.000000
  0.013752  0.006876  0.000000     24.000000
  0.020628  0.006876  0.000000     24.000000
  0.027504  0.006876  0.000000     24.000000
  0.034380  0.006876  0.000000     24.000000
  0.041256  0.006876  0.000000     24.000000
  0.048132  0.006876  0.000000     24.000000
  0.055007  0.006876  0.000000     24.000000
  0.061883  0.006876  0.000000     24.000000
  0.068759  0.006876  0.000000     24.000000
  0.075635  0.006876  0.000000     24.000000
  0.082511  0.006876  0.000000     24.000000
  0.089387  0.006876  0.000000     24.000000
  0.096263  0.006876  0.000000     24.000000
  0.103139  0.006876  0.000000     24.000000
  0.110015  0.006876  0.000000     24.000000
  0.116891  0.006876  0.000000     24.000000
  0.123767  0.006876  0.000000     12.000000
  0.013752  0.013752  0.000000     12.000000
  0.020628  0.013752  0.000000     24.000000
  0.027504  0.013752  0.000000     24.000000
  0.034380  0.013752  0.000000     24.000000
  0.041256  0.013752  0.000000     24.000000
  0.048132  0.013752  0.000000     24.000000
  0.055007  0.013752  0.000000     24.000000
  0.061883  0.013752  0.000000     24.000000
  0.068759  0.013752  0.000000     24.000000
  0.075635  0.013752  0.000000     24.000000
  0.082511  0.013752  0.000000     24.000000
  0.089387  0.013752  0.000000     24.000000
  0.096263  0.013752  0.000000     24.000000
  0.103139  0.013752  0.000000     24.000000
  0.110015  0.013752  0.000000     24.000000
  0.116891  0.013752  0.000000     24.000000
  0.123767  0.013752  0.000000     12.000000
  0.020628  0.020628  0.000000     12.000000
  0.027504  0.020628  0.000000     24.000000
  0.034380  0.020628  0.000000     24.000000
  0.041256  0.020628  0.000000     24.000000
  0.048132  0.020628  0.000000     24.000000
  0.055007  0.020628  0.000000     24.000000
  0.061883  0.020628  0.000000     24.000000
  0.068759  0.020628  0.000000     24.000000
  0.075635  0.020628  0.000000     24.000000
  0.082511  0.020628  0.000000     24.000000
  0.089387  0.020628  0.000000     24.000000
  0.096263  0.020628  0.000000     24.000000
  0.103139  0.020628  0.000000     24.000000
  0.110015  0.020628  0.000000     24.000000
  0.116891  0.020628  0.000000     24.000000
  0.123767  0.020628  0.000000     12.000000
  0.027504  0.027504  0.000000     12.000000
  0.034380  0.027504  0.000000     24.000000
  0.041256  0.027504  0.000000     24.000000
  0.048132  0.027504  0.000000     24.000000
  0.055007  0.027504  0.000000     24.000000
  0.061883  0.027504  0.000000     24.000000
  0.068759  0.027504  0.000000     24.000000
  0.075635  0.027504  0.000000     24.000000
  0.082511  0.027504  0.000000     24.000000
  0.089387  0.027504  0.000000     24.000000
  0.096263  0.027504  0.000000     24.000000
  0.103139  0.027504  0.000000     24.000000
  0.110015  0.027504  0.000000     24.000000
  0.116891  0.027504  0.000000     24.000000
  0.123767  0.027504  0.000000     12.000000
  0.034380  0.034380  0.000000     12.000000
  0.041256  0.034380  0.000000     24.000000
  0.048132  0.034380  0.000000     24.000000
  0.055007  0.034380  0.000000     24.000000
  0.061883  0.034380  0.000000     24.000000
  0.068759  0.034380  0.000000     24.000000
  0.075635  0.034380  0.000000     24.000000
  0.082511  0.034380  0.000000     24.000000
  0.089387  0.034380  0.000000     24.000000
  0.096263  0.034380  0.000000     24.000000
  0.103139  0.034380  0.000000     24.000000
  0.110015  0.034380  0.000000     24.000000
  0.116891  0.034380  0.000000     24.000000
  0.123767  0.034380  0.000000     12.000000
  0.041256  0.041256  0.000000     12.000000
  0.048132  0.041256  0.000000     24.000000
  0.055007  0.041256  0.000000     24.000000
  0.061883  0.041256  0.000000     24.000000
  0.068759  0.041256  0.000000     24.000000
  0.075635  0.041256  0.000000     24.000000
  0.082511  0.041256  0.000000     24.000000
  0.089387  0.041256  0.000000     24.000000
  0.096263  0.041256  0.000000     24.000000
  0.103139  0.041256  0.000000     24.000000
  0.110015  0.041256  0.000000     24.000000
  0.116891  0.041256  0.000000     24.000000
  0.123767  0.041256  0.000000     12.000000
  0.048132  0.048132  0.000000     12.000000
  0.055007  0.048132  0.000000     24.000000
  0.061883  0.048132  0.000000     24.000000
  0.068759  0.048132  0.000000     24.000000
  0.075635  0.048132  0.000000     24.000000
  0.082511  0.048132  0.000000     24.000000
  0.089387  0.048132  0.000000     24.000000
  0.096263  0.048132  0.000000     24.000000
  0.103139  0.048132  0.000000     24.000000
  0.110015  0.048132  0.000000     24.000000
  0.116891  0.048132  0.000000     24.000000
  0.123767  0.048132  0.000000     12.000000
  0.055007  0.055007  0.000000     12.000000
  0.061883  0.055007  0.000000     24.000000
  0.068759  0.055007  0.000000     24.000000
  0.075635  0.055007  0.000000     24.000000
  0.082511  0.055007  0.000000     24.000000
  0.089387  0.055007  0.000000     24.000000
  0.096263  0.055007  0.000000     24.000000
  0.103139  0.055007  0.000000     24.000000
  0.110015  0.055007  0.000000     24.000000
  0.116891  0.055007  0.000000     24.000000
  0.123767  0.055007  0.000000     12.000000
  0.061883  0.061883  0.000000     12.000000
  0.068759  0.061883  0.000000     24.000000
  0.075635  0.061883  0.000000     24.000000
  0.082511  0.061883  0.000000     24.000000
  0.089387  0.061883  0.000000     24.000000
  0.096263  0.061883  0.000000     24.000000
  0.103139  0.061883  0.000000     24.000000
  0.110015  0.061883  0.000000     24.000000
  0.116891  0.061883  0.000000     24.000000
  0.123767  0.061883  0.000000     12.000000
  0.068759  0.068759  0.000000     12.000000
  0.075635  0.068759  0.000000     24.000000
  0.082511  0.068759  0.000000     24.000000
  0.089387  0.068759  0.000000     24.000000
  0.096263  0.068759  0.000000     24.000000
  0.103139  0.068759  0.000000     24.000000
  0.110015  0.068759  0.000000     24.000000
  0.116891  0.068759  0.000000     24.000000
  0.123767  0.068759  0.000000     12.000000
  0.075635  0.075635  0.000000     12.000000
  0.082511  0.075635  0.000000     24.000000
  0.089387  0.075635  0.000000     24.000000
  0.096263  0.075635  0.000000     24.000000
  0.103139  0.075635  0.000000     24.000000
  0.110015  0.075635  0.000000     24.000000
  0.116891  0.075635  0.000000     24.000000
  0.123767  0.075635  0.000000     12.000000
  0.082511  0.082511  0.000000     12.000000
  0.089387  0.082511  0.000000     24.000000
  0.096263  0.082511  0.000000     24.000000
  0.103139  0.082511  0.000000     24.000000
  0.110015  0.082511  0.000000     24.000000
  0.116891  0.082511  0.000000     24.000000
  0.123767  0.082511  0.000000     12.000000
  0.089387  0.089387  0.000000     12.000000
  0.096263  0.089387  0.000000     24.000000
  0.103139  0.089387  0.000000     24.000000
  0.110015  0.089387  0.000000     24.000000
  0.116891  0.089387  0.000000     24.000000
  0.123767  0.089387  0.000000     12.000000
  0.096263  0.096263  0.000000     12.000000
  0.103139  0.096263  0.000000     24.000000
  0.110015  0.096263  0.000000     24.000000
  0.116891  0.096263  0.000000     24.000000
  0.123767  0.096263  0.000000     12.000000
  0.103139  0.103139  0.000000     12.000000
  0.110015  0.103139  0.000000     24.000000
  0.116891  0.103139  0.000000     24.000000
  0.123767  0.103139  0.000000     12.000000
  0.110015  0.110015  0.000000     12.000000
  0.116891  0.110015  0.000000     24.000000
  0.123767  0.110015  0.000000     12.000000
  0.116891  0.116891  0.000000     12.000000
  0.123767  0.116891  0.000000     12.000000
  0.123767  0.123767  0.000000      3.000000
  0.006876  0.006876  0.006876      8.000000
  0.013752  0.006876  0.006876     24.000000
  0.020628  0.006876  0.006876     24.000000
  0.027504  0.006876  0.006876     24.000000
  0.034380  0.006876  0.006876     24.000000
  0.041256  0.006876  0.006876     24.000000
  0.048132  0.006876  0.006876     24.000000
  0.055007  0.006876  0.006876     24.000000
  0.061883  0.006876  0.006876     24.000000
  0.068759  0.006876  0.006876     24.000000
  0.075635  0.006876  0.006876     24.000000
  0.082511  0.006876  0.006876     24.000000
  0.089387  0.006876  0.006876     24.000000
  0.096263  0.006876  0.006876     24.000000
  0.103139  0.006876  0.006876     24.000000
  0.110015  0.006876  0.006876     24.000000
  0.116891  0.006876  0.006876     24.000000
  0.123767  0.006876  0.006876     12.000000
  0.013752  0.013752  0.006876     24.000000
  0.020628  0.013752  0.006876     48.000000
  0.027504  0.013752  0.006876     48.000000
  0.034380  0.013752  0.006876     48.000000
  0.041256  0.013752  0.006876     48.000000
  0.048132  0.013752  0.006876     48.000000
  0.055007  0.013752  0.006876     48.000000
  0.061883  0.013752  0.006876     48.000000
  0.068759  0.013752  0.006876     48.000000
  0.075635  0.013752  0.006876     48.000000
  0.082511  0.013752  0.006876     48.000000
  0.089387  0.013752  0.006876     48.000000
  0.096263  0.013752  0.006876     48.000000
  0.103139  0.013752  0.006876     48.000000
  0.110015  0.013752  0.006876     48.000000
  0.116891  0.013752  0.006876     48.000000
  0.123767  0.013752  0.006876     24.000000
  0.020628  0.020628  0.006876     24.000000
  0.027504  0.020628  0.006876     48.000000
  0.034380  0.020628  0.006876     48.000000
  0.041256  0.020628  0.006876     48.000000
  0.048132  0.020628  0.006876     48.000000
  0.055007  0.020628  0.006876     48.000000
  0.061883  0.020628  0.006876     48.000000
  0.068759  0.020628  0.006876     48.000000
  0.075635  0.020628  0.006876     48.000000
  0.082511  0.020628  0.006876     48.000000
  0.089387  0.020628  0.006876     48.000000
  0.096263  0.020628  0.006876     48.000000
  0.103139  0.020628  0.006876     48.000000
  0.110015  0.020628  0.006876     48.000000
  0.116891  0.020628  0.006876     48.000000
  0.123767  0.020628  0.006876     24.000000
  0.027504  0.027504  0.006876     24.000000
  0.034380  0.027504  0.006876     48.000000
  0.041256  0.027504  0.006876     48.000000
  0.048132  0.027504  0.006876     48.000000
  0.055007  0.027504  0.006876     48.000000
  0.061883  0.027504  0.006876     48.000000
  0.068759  0.027504  0.006876     48.000000
  0.075635  0.027504  0.006876     48.000000
  0.082511  0.027504  0.006876     48.000000
  0.089387  0.027504  0.006876     48.000000
  0.096263  0.027504  0.006876     48.000000
  0.103139  0.027504  0.006876     48.000000
  0.110015  0.027504  0.006876     48.000000
  0.116891  0.027504  0.006876     48.000000
  0.123767  0.027504  0.006876     24.000000
  0.034380  0.034380  0.006876     24.000000
  0.041256  0.034380  0.006876     48.000000
  0.048132  0.034380  0.006876     48.000000
  0.055007  0.034380  0.006876     48.000000
  0.061883  0.034380  0.006876     48.000000
  0.068759  0.034380  0.006876     48.000000
  0.075635  0.034380  0.006876     48.000000
  0.082511  0.034380  0.006876     48.000000
  0.089387  0.034380  0.006876     48.000000
  0.096263  0.034380  0.006876     48.000000
  0.103139  0.034380  0.006876     48.000000
  0.110015  0.034380  0.006876     48.000000
  0.116891  0.034380  0.006876     48.000000
  0.123767  0.034380  0.006876     24.000000
  0.041256  0.041256  0.006876     24.000000
  0.048132  0.041256  0.006876     48.000000
  0.055007  0.041256  0.006876     48.000000
  0.061883  0.041256  0.006876     48.000000
  0.068759  0.041256  0.006876     48.000000
  0.075635  0.041256  0.006876     48.000000
  0.082511  0.041256  0.006876     48.000000
  0.089387  0.041256  0.006876     48.000000
  0.096263  0.041256  0.006876     48.000000
  0.103139  0.041256  0.006876     48.000000
  0.110015  0.041256  0.006876     48.000000
  0.116891  0.041256  0.006876     48.000000
  0.123767  0.041256  0.006876     24.000000
  0.048132  0.048132  0.006876     24.000000
  0.055007  0.048132  0.006876     48.000000
  0.061883  0.048132  0.006876     48.000000
  0.068759  0.048132  0.006876     48.000000
  0.075635  0.048132  0.006876     48.000000
  0.082511  0.048132  0.006876     48.000000
  0.089387  0.048132  0.006876     48.000000
  0.096263  0.048132  0.006876     48.000000
  0.103139  0.048132  0.006876     48.000000
  0.110015  0.048132  0.006876     48.000000
  0.116891  0.048132  0.006876     48.000000
  0.123767  0.048132  0.006876     24.000000
  0.055007  0.055007  0.006876     24.000000
  0.061883  0.055007  0.006876     48.000000
  0.068759  0.055007  0.006876     48.000000
  0.075635  0.055007  0.006876     48.000000
  0.082511  0.055007  0.006876     48.000000
  0.089387  0.055007  0.006876     48.000000
  0.096263  0.055007  0.006876     48.000000
  0.103139  0.055007  0.006876     48.000000
  0.110015  0.055007  0.006876     48.000000
  0.116891  0.055007  0.006876     48.000000
[...]
     16      14.7866      0.00000

 k-point *** :       0.5000    0.5000    0.3889
  band No.  band energies     occupation 
      1       1.1267      2.00000
      2       1.1267      2.00000
      3       1.1267      2.00000
      4       1.1267      2.00000
      5       2.8393      2.00000
      6       2.8393      2.00000
      7       2.8393      2.00000
      8       2.8393      2.00000
      9      13.8199      0.00000
     10      13.8199      0.00000
     11      13.8199      0.00000
     12      13.8199      0.00000
     13      14.7126      0.00000
     14      14.7126      0.00000
     15      14.7126      0.00000
     16      14.7126      0.00000

 k-point *** :       0.4167    0.4167    0.4167
  band No.  band energies     occupation 
      1       0.1515      2.00000
      2       1.3937      2.00000
      3       1.3937      2.00000
      4       1.3937      2.00000
      5       2.7012      2.00000
      6       2.7012      2.00000
      7       2.7012      2.00000
      8       3.9254      2.00000
      9      13.3967      0.00000
     10      13.3967      0.00000
     11      13.3967      0.00000
     12      13.9369      0.00000
     13      13.9369      0.00000
     14      13.9369      0.00000
     15      14.9140      0.00000
     16      14.9140      0.00000

 k-point *** :       0.4444    0.4167    0.4167
  band No.  band energies     occupation 
      1       0.3317      2.00000
      2       1.1618      2.00000
      3       1.5606      2.00000
      4       1.5606      2.00000
      5       2.4777      2.00000
      6       2.4777      2.00000
      7       2.8736      2.00000
      8       3.6916      2.00000
      9      13.5308      0.00000
     10      13.5308      0.00000
     11      13.8701      0.00000
     12      14.0190      0.00000
     13      14.0190      0.00000
     14      14.0896      0.00000
     15      14.7519      0.00000
     16      15.0171      0.00000

 k-point *** :       0.4722    0.4167    0.4167
  band No.  band energies     occupation 
      1       0.5232      2.00000
      2       0.9386      2.00000
      3       1.7196      2.00000
      4       1.7196      2.00000
      5       2.2849      2.00000
      6       2.2849      2.00000
      7       3.0598      2.00000
      8       3.4692      2.00000
      9      13.6448      0.00000
     10      13.6448      0.00000
     11      14.0069      0.00000
     12      14.0069      0.00000
     13      14.2494      0.00000
     14      14.3102      0.00000
     15      14.5836      0.00000
     16      14.9399      0.00000

 k-point *** :       0.5000    0.4167    0.4167
  band No.  band energies     occupation 
      1       0.7256      2.00000
      2       0.7256      2.00000
      3       1.8057      2.00000
      4       1.8057      2.00000
      5       2.1874      2.00000
      6       2.1874      2.00000
      7       3.2585      2.00000
      8       3.2585      2.00000
      9      13.6978      0.00000
     10      13.6978      0.00000
     11      13.9826      0.00000
     12      13.9826      0.00000
     13      14.4148      0.00000
     14      14.4148      0.00000
     15      14.6853      0.00000
     16      14.6853      0.00000

 k-point *** :       0.4444    0.4444    0.4167
  band No.  band energies     occupation 
      1       0.5114      2.00000
      2       1.3352      2.00000
      3       1.3352      2.00000
      4       1.7077      2.00000
      5       2.2736      2.00000
      6       2.6442      2.00000
      7       2.6442      2.00000
      8       3.4578      2.00000
      9      13.6786      0.00000
     10      13.9739      0.00000
     11      13.9739      0.00000
     12      14.1884      0.00000
     13      14.1884      0.00000
     14      14.2362      0.00000
     15      14.7367      0.00000
     16      15.0516      0.00000

 k-point *** :       0.4722    0.4444    0.4167
  band No.  band energies     occupation 
      1       0.7022      2.00000
      2       1.1150      2.00000
      3       1.5137      2.00000
      4       1.7819      2.00000
      5       2.1650      2.00000
      6       2.4322      2.00000
      7       2.8279      2.00000
      8       3.2357      2.00000
      9      13.8147      0.00000
     10      13.9980      0.00000
     11      14.2455      0.00000
     12      14.2721      0.00000
     13      14.3210      0.00000
     14      14.4690      0.00000
     15      14.6050      0.00000
     16      15.0106      0.00000

 k-point *** :       0.5000    0.4444    0.4167
  band No.  band energies     occupation 
      1       0.9035      2.00000
      2       0.9035      2.00000
      3       1.6841      2.00000
      4       1.6841      2.00000
      5       2.2509      2.00000
      6       2.2509      2.00000
      7       3.0255      2.00000
      8       3.0255      2.00000
      9      13.9303      0.00000
     10      13.9303      0.00000
     11      14.3043      0.00000
     12      14.3043      0.00000
     13      14.4484      0.00000
     14      14.4484      0.00000
     15      14.7988      0.00000
     16      14.7988      0.00000

 k-point *** :       0.4722    0.4722    0.4167
  band No.  band energies     occupation 
      1       0.8918      2.00000
      2       1.3000      2.00000
      3       1.3000      2.00000
      4       1.6723      2.00000
      5       2.2396      2.00000
      6       2.6099      2.00000
      7       2.6099      2.00000
      8       3.0141      2.00000
      9      13.9635      0.00000
     10      14.2067      0.00000
     11      14.2067      0.00000
     12      14.5064      0.00000
     13      14.5370      0.00000
     14      14.5812      0.00000
     15      14.5812      0.00000
     16      15.0187      0.00000

 k-point *** :       0.5000    0.4722    0.4167
  band No.  band energies     occupation 
      1       1.0916      2.00000
      2       1.0916      2.00000
      3       1.4902      2.00000
      4       1.4902      2.00000
      5       2.4094      2.00000
      6       2.4094      2.00000
      7       2.8050      2.00000
      8       2.8050      2.00000
      9      14.0973      0.00000
     10      14.0973      0.00000
     11      14.3675      0.00000
     12      14.3675      0.00000
     13      14.6159      0.00000
     14      14.6159      0.00000
     15      14.8694      0.00000
     16      14.8694      0.00000

 k-point *** :       0.5000    0.5000    0.4167
  band No.  band energies     occupation 
      1       1.2883      2.00000
      2       1.2883      2.00000
      3       1.2883      2.00000
      4       1.2883      2.00000
      5       2.5985      2.00000
      6       2.5985      2.00000
      7       2.5985      2.00000
      8       2.5985      2.00000
      9      14.2433      0.00000
     10      14.2433      0.00000
     11      14.2433      0.00000
     12      14.2433      0.00000
     13      14.8168      0.00000
     14      14.8168      0.00000
     15      14.8168      0.00000
     16      14.8168      0.00000

 k-point *** :       0.4444    0.4444    0.4444
  band No.  band energies     occupation 
      1       0.6904      2.00000
      2       1.5020      2.00000
      3       1.5020      2.00000
      4       1.5020      2.00000
      5       2.4208      2.00000
      6       2.4208      2.00000
      7       2.4208      2.00000
      8       3.2243      2.00000
      9      14.1289      0.00000
     10      14.1289      0.00000
     11      14.1289      0.00000
     12      14.3813      0.00000
     13      14.3813      0.00000
     14      14.3813      0.00000
     15      14.9510      0.00000
     16      14.9510      0.00000

 k-point *** :       0.4722    0.4444    0.4444
  band No.  band energies     occupation 
      1       0.8801      2.00000
      2       1.2883      2.00000
      3       1.6605      2.00000
      4       1.6605      2.00000
      5       2.2283      2.00000
      6       2.2283      2.00000
      7       2.5985      2.00000
      8       3.0027      2.00000
      9      14.2360      0.00000
     10      14.2360      0.00000
     11      14.4725      0.00000
     12      14.4725      0.00000
     13      14.5302      0.00000
     14      14.5324      0.00000
     15      14.8225      0.00000
     16      14.9988      0.00000

 k-point *** :       0.5000    0.4444    0.4444
  band No.  band energies     occupation 
      1       1.0798      2.00000
      2       1.0798      2.00000
      3       1.7462      2.00000
      4       1.7462      2.00000
      5       2.1313      2.00000
      6       2.1313      2.00000
      7       2.7936      2.00000
      8       2.7936      2.00000
      9      14.2804      0.00000
     10      14.2804      0.00000
     11      14.4889      0.00000
     12      14.4889      0.00000
     13      14.6792      0.00000
     14      14.6792      0.00000
     15      14.8451      0.00000
     16      14.8451      0.00000

 k-point *** :       0.4722    0.4722    0.4444
  band No.  band energies     occupation 
      1       1.0681      2.00000
      2       1.4667      2.00000
      3       1.4667      2.00000
      4       1.7343      2.00000
      5       2.1201      2.00000
      6       2.3866      2.00000
      7       2.3866      2.00000
      8       2.7822      2.00000
      9      14.3812      0.00000
     10      14.5389      0.00000
     11      14.5389      0.00000
     12      14.6661      0.00000
     13      14.6849      0.00000
     14      14.6849      0.00000
     15      14.8114      0.00000
     16      15.0244      0.00000

 k-point *** :       0.5000    0.4722    0.4444
  band No.  band energies     occupation 
      1       1.2649      2.00000
      2       1.2649      2.00000
      3       1.6369      2.00000
      4       1.6369      2.00000
      5       2.2056      2.00000
      6       2.2056      2.00000
      7       2.5756      2.00000
      8       2.5756      2.00000
      9      14.4843      0.00000
     10      14.4843      0.00000
     11      14.6985      0.00000
     12      14.6985      0.00000
     13      14.7354      0.00000
     14      14.7354      0.00000
     15      14.9266      0.00000
     16      14.9266      0.00000

 k-point *** :       0.5000    0.5000    0.4444
  band No.  band energies     occupation 
      1       1.4550      2.00000
      2       1.4550      2.00000
      3       1.4550      2.00000
      4       1.4550      2.00000
      5       2.3752      2.00000
      6       2.3752      2.00000
      7       2.3752      2.00000
      8       2.3752      2.00000
      9      14.6145      0.00000
     10      14.6145      0.00000
     11      14.6145      0.00000
     12      14.6145      0.00000
     13      14.9075      0.00000
     14      14.9075      0.00000
     15      14.9075      0.00000
     16      14.9075      0.00000

 k-point *** :       0.4722    0.4722    0.4722
  band No.  band energies     occupation 
      1       1.2532      2.00000
      2       1.6251      2.00000
      3       1.6251      2.00000
      4       1.6251      2.00000
      5       2.1943      2.00000
      6       2.1943      2.00000
      7       2.1943      2.00000
      8       2.5642      2.00000
      9      14.7317      0.00000
     10      14.7317      0.00000
     11      14.7317      0.00000
     12      14.7901      0.00000
     13      14.7901      0.00000
     14      14.7901      0.00000
     15      14.9829      0.00000
     16      14.9829      0.00000

 k-point *** :       0.5000    0.4722    0.4722
  band No.  band energies     occupation 
      1       1.4433      2.00000
      2       1.4433      2.00000
      3       1.7104      2.00000
      4       1.7104      2.00000
      5       2.0976      2.00000
      6       2.0976      2.00000
      7       2.3638      2.00000
      8       2.3638      2.00000
      9      14.7708      0.00000
     10      14.7708      0.00000
     11      14.8567      0.00000
     12      14.8567      0.00000
     13      14.9001      0.00000
     14      14.9001      0.00000
     15      14.9556      0.00000
     16      14.9556      0.00000

 k-point *** :       0.5000    0.5000    0.4722
  band No.  band energies     occupation 
      1       1.6133      2.00000
      2       1.6133      2.00000
      3       1.6133      2.00000
      4       1.6133      2.00000
      5       2.1830      2.00000
      6       2.1830      2.00000
      7       2.1830      2.00000
      8       2.1830      2.00000
      9      14.8890      0.00000
     10      14.8890      0.00000
     11      14.8890      0.00000
     12      14.8890      0.00000
     13      14.9719      0.00000
     14      14.9719      0.00000
     15      14.9719      0.00000
     16      14.9719      0.00000

 k-point *** :       0.5000    0.5000    0.5000
  band No.  band energies     occupation 
      1       1.6985      2.00000
      2       1.6985      2.00000
      3       1.6985      2.00000
      4       1.6985      2.00000
      5       2.0864      2.00000
      6       2.0864      2.00000
      7       2.0864      2.00000
      8       2.0864      2.00000
      9      14.9957      0.00000
     10      14.9957      0.00000
     11      14.9957      0.00000
     12      14.9957      0.00000
     13      14.9957      0.00000
     14      14.9957      0.00000
     15      14.9957      0.00000
     16      14.9957      0.00000


--------------------------------------------------------------------------------------------------------


 soft charge-density along one line, spin component           1
         0         1         2         3         4         5         6         7         8         9
 total charge-density along one line
 
 pseudopotential strength for first ion, spin component:           1
  8.516  -0.003   0.000  -0.000  -0.000   0.000  -0.000  -0.000
 -0.003   0.000   0.000  -0.000  -0.000  -0.000   0.000   0.000
  0.000   0.000   1.979   0.000   0.000  -0.020  -0.000  -0.000
 -0.000  -0.000   0.000   1.979   0.000  -0.000  -0.020  -0.000
 -0.000  -0.000   0.000   0.000   1.979  -0.000  -0.000  -0.020
  0.000  -0.000  -0.020  -0.000  -0.000  -0.013  -0.000  -0.000
 -0.000   0.000  -0.000  -0.020  -0.000  -0.000  -0.013  -0.000
 -0.000   0.000  -0.000  -0.000  -0.020  -0.000  -0.000  -0.013
 total augmentation occupancy for first ion, spin component:           1
  1.445  -0.234   0.000  -0.000   0.000   0.000  -0.000   0.000
 -0.234   0.285  -0.000  -0.000   0.000   0.000   0.000  -0.000
  0.000  -0.000   0.568  -0.106   0.013  -0.103   0.015   0.003
 -0.000  -0.000  -0.106   0.644  -0.028   0.015  -0.087   0.007
  0.000   0.000   0.013  -0.028   0.507   0.003   0.007  -0.105
  0.000   0.000  -0.103   0.015   0.003   0.021  -0.002  -0.001
 -0.000   0.000   0.015  -0.087   0.007  -0.002   0.013  -0.001
  0.000  -0.000   0.003   0.007  -0.105  -0.001  -0.001   0.025


------------------------ aborting loop because EDIFF is reached ----------------------------------------




--------------------------------------------------------------------------------------------------------


    CHARGE:  VPU time    2.02: CPU time    2.02
    FORLOC:  VPU time    0.00: CPU time    0.00
    FORNL :  VPU time    3.37: CPU time    3.37
    STRESS:  VPU time   22.19: CPU time   22.18
    FORCOR:  VPU time    0.07: CPU time    0.07
    FORHAR:  VPU time    0.01: CPU time    0.01
    MIXING:  VPU time    0.00: CPU time    0.00


--------------------------------------------------------------------------------------------------------



  FREE ENERGIE OF THE ION-ELECTRON SYSTEM (eV)
  ---------------------------------------------------
  free  energy   TOTEN  =       -14.290999 eV

  energy  without entropy=      -14.290888  energy(sigma->0) =      -14.290944
 

  FORCE on cell =-STRESS in cart. coord.  units (eV/reduce length):
  Direction    X        Y        Z        XY       YZ       ZX
  --------------------------------------------------------------------------------------
  Alpha Z     -0.65     -0.65     -0.65
  Ewald      -90.79    -90.79    -90.79     -0.00      0.00      0.00
  Hartree      0.17      0.17      0.17     -0.00     -0.00     -0.00
  E(xc)      -32.10    -32.10    -32.10      0.00      0.00      0.00
  Local       -3.14     -3.14     -3.14      0.00     -0.00     -0.00
  n-local     73.13     73.52     74.50     -0.17      0.01     -0.09
  augment     -4.80     -4.80     -4.80      0.00      0.00      0.00
  Kinetic     49.83     51.80     55.16      1.58     -7.46     -1.69
  -------------------------------------------------------------------------------------
  Total       -5.32     -5.32     -5.32     -0.00     -0.00     -0.00
  in kB     -102.64   -102.64   -102.64     -0.00     -0.00     -0.00
  external pressure =     -102.64 kB  Pullay stress =        0.00 kB


 VOLUME and BASIS-vectors are now :
 -----------------------------------------------------------------------------
  energy-cutoff  :     1000.00
  volume of cell :       83.06
      direct lattice vectors                 reciprocal lattice vectors
     4.363043270  0.000000000  0.000000000     0.229197819  0.000000000  0.000000000
     0.000000000  4.363043270  0.000000000     0.000000000  0.229197819  0.000000000
     0.000000000  0.000000000  4.363043270     0.000000000  0.000000000  0.229197819

  length of vectors
     4.363043270  4.363043270  4.363043270     0.229197819  0.229197819  0.229197819


 FORCES acting on ions
    electron-ion (+dipol)            ewald-force                    non-local-force                 convergence-correction
 -----------------------------------------------------------------------------------------------
   -.465E-14 -.462E-13 -.588E-13   0.374E-15 0.614E-15 -.719E-15   -.161E-26 0.631E-27 -.290E-26   -.541E-15 -.340E-17 -.678E-16
   -.446E-14 0.790E-16 -.141E-13   0.313E-15 -.551E-15 0.261E-15   -.104E-26 -.368E-26 -.207E-26   -.536E-15 0.101E-16 0.668E-16
   -.519E-15 -.324E-14 -.475E-14   -.373E-15 0.444E-15 0.275E-15   -.641E-26 0.361E-26 -.203E-26   0.550E-15 -.220E-16 0.636E-16
   0.207E-15 0.163E-15 -.366E-15   -.434E-15 -.722E-15 0.105E-15   -.254E-27 0.376E-27 -.101E-27   0.543E-15 0.176E-16 -.642E-16
 -----------------------------------------------------------------------------------------------
   -.943E-14 -.492E-13 -.780E-13   -.121E-15 -.215E-15 -.785E-16   -.932E-26 0.931E-27 -.710E-26   0.166E-16 0.232E-17 -.154E-17
 
 
 POSITION                                       TOTAL-FORCE (eV/Angst)
 -----------------------------------------------------------------------------------
      2.18152      2.18152      0.00000         0.000000     -0.000000     -0.000000
      2.18152      0.00000      2.18152        -0.000000     -0.000000     -0.000000
      0.00000      2.18152      2.18152        -0.000000      0.000000      0.000000
      0.00000      0.00000      0.00000         0.000000      0.000000     -0.000000
 -----------------------------------------------------------------------------------
    total drift:                               -0.000000     -0.000000     -0.000000


--------------------------------------------------------------------------------------------------------



 mean value of Nose-termostat <S>:     1.000 mean value of <T> :     0.000
 mean temperature <T/S>/<1/S>  :     0.000

     LOOP+:  VPU time  688.51: CPU time  702.83
  
  
 General timing and accounting informations for this job:
 ========================================================
  
                  Total CPU time used (sec):      713.732
                            User time (sec):      569.388
                          System time (sec):      144.344
                         Elapsed time (sec):      728.070
  
                   Maximum memory used (kb):     4429748.
                   Average memory used (kb):           0.
  
                          Minor page faults:       842118
                          Major page faults:            0
                 Voluntary context switches:          953
