 vasp.4.6.28 25Jul05 complex 
 executed on             LinuxIFC date 2017.01.27  15:40:33
 running on    4 nodes
 distr:  one band on    1 nodes,    4 groups


--------------------------------------------------------------------------------------------------------


 INCAR:
 POTCAR:   PAW_PBE Cu 05Jan2001                   
 POTCAR:   PAW_PBE Cu 05Jan2001                   
   VRHFIN =Cu: d10 p1                                                           
   LEXCH  = PE                                                                  
   EATOM  =  1390.9800 eV,  102.2341 Ry                                         
                                                                                
   TITEL  = PAW_PBE Cu 05Jan2001                                                
   LULTRA =        F    use ultrasoft PP ?                                      
   IUNSCR =        1    unscreen: 0-lin 1-nonlin 2-no                           
   RPACOR =    2.000    partial core radius                                     
   POMASS =   63.546; ZVAL   =   11.000    mass and valenz                      
   RCORE  =    2.300    outmost cutoff radius                                   
   RWIGS  =    2.480; RWIGS  =    1.312    wigner-seitz radius (au A)           
   ENMAX  =  273.214; ENMIN  =  204.910 eV                                      
   RCLOC  =    1.712    cutoff for local pot                                    
   LCOR   =        T    correct aug charges                                     
   LPAW   =        T    paw PP                                                  
   EAUG   =  516.456                                                            
   DEXC   =    -.008                                                            
   RMAX   =    2.789    core radius for proj-oper                               
   RAUG   =    1.300    factor for augmentation sphere                          
   RDEP   =    2.302    radius for radial grids                                 
   QCUT   =   -4.481; QGAM   =    8.962    optimization parameters              
                                                                                
   Description                                                                  
     l     E      TYP  RCUT    TYP  RCUT                                        
     2   .000     23  2.300                                                     
     2   .000     23  2.300                                                     
     0   .000     23  2.300                                                     
     0   .000     23  2.300                                                     
     1  -.200     23  2.300                                                     
     1   .000     23  2.300                                                     
     3   .000      7   .000                                                     
  local pseudopotential read in
  partial core-charges read in
  atomic valenz-charges read in
  non local Contribution for L=           2  read in
    real space projection operators read in
  non local Contribution for L=           2  read in
    real space projection operators read in
  non local Contribution for L=           0  read in
    real space projection operators read in
  non local Contribution for L=           0  read in
    real space projection operators read in
  non local Contribution for L=           1  read in
    real space projection operators read in
  non local Contribution for L=           1  read in
    real space projection operators read in
    PAW grid and wavefunctions read in
 
   number of l-projection  operators is LMAX  =           6
   number of lm-projection operators is LMMAX =          18
 

 ----------------------------------------------------------------------------- 
|                                                                             |
|  ADVICE TO THIS USER RUNNING 'VASP/VAMP'   (HEAR YOUR MASTER'S VOICE ...):  |
|                                                                             |
|      You have a (more or less) 'large supercell' and for larger cells       |
|      it might be more efficient to use real space projection operators      |
|      So try LREAL= Auto  in the INCAR   file.                               |
|      Mind: If you want to do an extremely accurate calculations keep the    |
|      reciprocal projection scheme          (i.e. LREAL=.FALSE.)             |
|                                                                             |
 ----------------------------------------------------------------------------- 

 PAW_PBE Cu 05Jan2001                   :
 energy of atom  1       EATOM=-1390.9800
 kinetic energy error for atom=    0.0032 (will be added to EATOM!!)
 
 EXHCAR: internal setup
 exchange correlation table for  LEXCH =        8
   RHO(1)=    0.500       N(1)  =     2000
   RHO(2)=  100.500       N(2)  =     4000
 
 POSCAR: No title                                
  positions in direct lattice
  No initial velocities read in
 


--------------------------------------------------------------------------------------------------------


 ion  position               nearest neighbor table
   1  0.667  0.667  0.333-   5 2.67   8 2.67   9 2.67  43 2.67  60 2.67  59 2.67   3 2.67  38 2.67
                             2 2.67  19 2.67  34 2.67 101 2.67
   2  0.667  0.833  0.500-   3 2.67  14 2.67   9 2.67  10 2.67  34 2.67  39 2.67   1 2.67   6 2.67
                            61 2.67  97 2.67  60 2.67  35 2.67
   3  0.833  0.667  0.500-   2 2.67   9 2.67  14 2.67  12 2.67  19 2.67   1 2.67  39 2.67  49 2.67
                            87 2.67  11 2.67  44 2.67  43 2.67
   4  0.667  0.667  0.000-  21 2.67  15 2.67  66 2.67  83 2.67  20 2.67   8 2.67   5 2.67  38 2.67
                            59 2.67  82 2.67 107 2.67  63 2.67
   5  0.667  0.833  0.167-   1 2.67   8 2.67   9 2.67  60 2.67  21 2.67  59 2.67  22 2.67   4 2.67
                             6 2.67  16 2.67  84 2.67  83 2.67
   6  0.667  0.000  0.333-  22 2.67  17 2.67   9 2.67  23 2.67  10 2.67  84 2.67   5 2.67   2 2.67
                            85 2.67  61 2.67  60 2.67   7 2.67
   7  0.667  0.167  0.500-  24 2.67  18 2.67  10 2.67  86 2.67  23 2.67  64 2.67  62 2.67  35 2.67
                           105 2.67  61 2.67  85 2.67   6 2.67
   8  0.833  0.667  0.167-   5 2.67   1 2.67   9 2.67  21 2.67  43 2.67  38 2.67  26 2.67   4 2.67
                            11 2.67  70 2.67  25 2.67  66 2.67
   9  0.833  0.833  0.333-   1 2.67   5 2.67   8 2.67   6 2.67   3 2.67  11 2.67  22 2.67  26 2.67
                             2 2.67  12 2.67  27 2.67  10 2.67
  10  0.833  0.000  0.500-   7 2.67  35 2.67   2 2.67   6 2.67  23 2.67  12 2.67  39 2.67  27 2.67
                            28 2.67  67 2.67  64 2.67   9 2.67
  11  0.000  0.667  0.333-  26 2.67   9 2.67  29 2.67  30 2.67   8 2.67  12 2.67  70 2.67  49 2.67
                            75 2.67   3 2.67  43 2.67  13 2.67
  12  0.000  0.833  0.500-  13 2.67  44 2.67   3 2.67  11 2.67  27 2.67  10 2.67  39 2.67  30 2.67
                             9 2.67  31 2.67  71 2.67  67 2.67
  13  0.167  0.667  0.500-  33 2.67  30 2.67  12 2.67  81 2.67  32 2.67  76 2.67  71 2.67 102 2.67
                            44 2.67  11 2.67  49 2.67  75 2.67
  14  0.667  0.667  0.667-  39 2.67  20 2.67  15 2.67   2 2.67  63 2.67  82 2.67  87 2.67  97 2.67
                             3 2.67  34 2.67 108 2.67  19 2.67
  15  0.667  0.833  0.833-  20 2.67  39 2.67  14 2.67  35 2.67   4 2.67  40 2.67  82 2.67  21 2.67
                            97 2.67  98 2.67  83 2.67  16 2.67
  16  0.667  0.000  0.000-  21 2.67  40 2.67  41 2.67  22 2.67   5 2.67  36 2.67  99 2.67  84 2.67
                            98 2.67  83 2.67  17 2.67  15 2.67
  17  0.667  0.167  0.167-  42 2.67  23 2.67  18 2.67   6 2.67  37 2.67  22 2.67  85 2.67 100 2.67
                            41 2.67  99 2.67  84 2.67  16 2.67
  18  0.667  0.333  0.333-  23 2.67  42 2.67  17 2.67  38 2.67   7 2.67  43 2.67  85 2.67  24 2.67
                           100 2.67 101 2.67  86 2.67  19 2.67
  19  0.667  0.500  0.500-  24 2.67  43 2.67   3 2.67  87 2.67   1 2.67  62 2.67  34 2.67 108 2.67
                           101 2.67  86 2.67  14 2.67  18 2.67
  20  0.833  0.667  0.833-  15 2.67  39 2.67  14 2.67  44 2.67   4 2.67  45 2.67  63 2.67  21 2.67
                            87 2.67  66 2.67  89 2.67  25 2.67
  21  0.833  0.833  0.000-   4 2.67   8 2.67  16 2.67  25 2.67   5 2.67  15 2.67  20 2.67  40 2.67
                            45 2.67  26 2.67  22 2.67  46 2.69
  22  0.833  0.000  0.167-   6 2.67   9 2.67  17 2.67   5 2.67  16 2.67  27 2.67  23 2.67  26 2.67
                            41 2.67  47 2.67  21 2.67  46 2.69
  23  0.833  0.167  0.333-  18 2.67  42 2.67  17 2.67  47 2.67   7 2.67   6 2.67  48 2.67  24 2.67
                            22 2.67  27 2.67  10 2.67  28 2.67
  24  0.833  0.333  0.500-   7 2.67  19 2.67  28 2.67  64 2.67  62 2.67  18 2.67  23 2.67  43 2.67
                            48 2.67  49 2.67  88 2.67  87 2.67
  25  0.000  0.667  0.000-  21 2.67  45 2.67  51 2.67  26 2.67  70 2.67  92 2.67  50 2.67   8 2.67
                            66 2.67  29 2.67  20 2.67  89 2.67
  26  0.000  0.833  0.167-  11 2.67   9 2.67  29 2.67   8 2.67  30 2.67  25 2.67  27 2.67  22 2.67
                            51 2.67  21 2.67  52 2.67  46 2.67
  27  0.000  0.000  0.333-  47 2.67  52 2.67  22 2.67  26 2.67  30 2.67  23 2.67  12 2.67  10 2.67
                             9 2.67  31 2.67  53 2.67  28 2.67
  28  0.000  0.167  0.500-  24 2.67  48 2.67  54 2.67  88 2.67  67 2.67  31 2.67  53 2.67  64 2.67
                            10 2.67  23 2.67  90 2.67  27 2.67
  29  0.167  0.667  0.167-  56 2.67  32 2.67  30 2.67  26 2.67  51 2.67  11 2.67  75 2.67  96 2.67
                            55 2.67  25 2.67  70 2.67  92 2.67
  30  0.167  0.833  0.333-  32 2.67  56 2.67  29 2.67  52 2.67  13 2.67  11 2.67  57 2.67  33 2.67
                            26 2.67  27 2.67  12 2.67  31 2.67
  31  0.167  0.000  0.500-  33 2.67  57 2.67  58 2.67  93 2.67  53 2.67  71 2.67  28 2.67  67 2.67
                            12 2.67  27 2.67  90 2.67  30 2.67
  32  0.333  0.667  0.333-  30 2.67  56 2.67  29 2.67  59 2.67  13 2.67  60 2.67  75 2.67  33 2.67
                            96 2.67  81 2.67 101 2.67  34 2.67
  33  0.333  0.833  0.500-  13 2.67  31 2.67  34 2.67  76 2.67  71 2.67  30 2.67  32 2.67  57 2.67
                            60 2.67  61 2.67  97 2.67  93 2.67
  34  0.500  0.667  0.500-  33 2.67  60 2.67   2 2.67  97 2.67  19 2.67 108 2.67   1 2.67  76 2.67
                            81 2.67  32 2.67  14 2.67 101 2.67
  35  0.667  0.000  0.667-  40 2.67  39 2.67  15 2.67  98 2.67  10 2.67  64 2.67  36 2.67   7 2.67
                           105 2.67  61 2.67  97 2.67   2 2.67
  36  0.667  0.167  0.833-  62 2.67  64 2.67  65 2.67  40 2.67 106 2.67 105 2.67  41 2.67  37 2.67
                            35 2.67  16 2.67  99 2.67  98 2.67
  37  0.667  0.333  0.000-  41 2.67  17 2.67  65 2.67  66 2.67  99 2.67  42 2.67  36 2.67  63 2.67
                           107 2.67 100 2.67 106 2.67  38 2.67
  38  0.667  0.500  0.167-  43 2.67  42 2.67  18 2.67 101 2.67  66 2.67   8 2.67   1 2.67   4 2.67
                            59 2.67 100 2.67 107 2.67  37 2.67
  39  0.833  0.833  0.667-  20 2.67  15 2.67  14 2.67  35 2.67  44 2.67   2 2.67  45 2.67   3 2.67
                            40 2.67  10 2.67  12 2.67  67 2.67
  40  0.833  0.000  0.833-  35 2.67  36 2.67  64 2.67  67 2.67  16 2.67  15 2.67  39 2.67  21 2.67
                            45 2.67  68 2.67  41 2.67  46 2.69
  41  0.833  0.167  0.000-  37 2.67  65 2.67  17 2.67  16 2.67  69 2.67  36 2.67  42 2.67  22 2.67
                            68 2.67  47 2.67  40 2.67  46 2.69
  42  0.833  0.333  0.167-  23 2.67  18 2.67  17 2.67  38 2.67  47 2.67  37 2.67  48 2.67  41 2.67
                            43 2.67  66 2.67  69 2.67  70 2.67
  43  0.833  0.500  0.333-  38 2.67   8 2.67   1 2.67  70 2.67  19 2.67  18 2.67  42 2.67  48 2.67
                            24 2.67  49 2.67  11 2.67   3 2.67
  44  0.000  0.667  0.667-  45 2.67  20 2.67  39 2.67  12 2.67  89 2.67  71 2.67  50 2.67 102 2.67
                            13 2.67   3 2.67  87 2.67  49 2.67
  45  0.000  0.833  0.833-  44 2.67  25 2.67  50 2.67  67 2.67  71 2.67  20 2.67  39 2.67  40 2.67
                            21 2.67  51 2.67  72 2.67  46 2.67
  46  0.002  0.000  0.000-  51 2.66  72 2.66  73 2.66  52 2.66  26 2.67  68 2.67  47 2.67  45 2.67
                            41 2.69  22 2.69  21 2.69  40 2.69
  47  0.000  0.167  0.167-  48 2.67  27 2.67  42 2.67  23 2.67  69 2.67  74 2.67  53 2.67  52 2.67
                            73 2.67  41 2.67  22 2.67  46 2.67
  48  0.000  0.333  0.333-  47 2.67  28 2.67  53 2.67  70 2.67  74 2.67  23 2.67  42 2.67  43 2.67
                            24 2.67  54 2.67  75 2.67  49 2.67
  49  0.000  0.500  0.500-   3 2.67  11 2.67  54 2.67  88 2.67  87 2.67  75 2.67  24 2.67  43 2.67
                            13 2.67 102 2.67  48 2.67  44 2.67
  50  0.167  0.667  0.833-  71 2.67  76 2.67  77 2.67  45 2.67 104 2.67  44 2.67  55 2.67 102 2.67
                            51 2.67  92 2.67  25 2.67  89 2.67
  51  0.167  0.833  0.000-  46 2.66  55 2.67  29 2.67  77 2.67  25 2.67  78 2.67  56 2.67  50 2.67
                            72 2.67  26 2.67  45 2.67  52 2.67
  52  0.167  0.000  0.167-  46 2.66  57 2.67  27 2.67  56 2.67  30 2.67  78 2.67  79 2.67  53 2.67
                            47 2.67  73 2.67  26 2.67  51 2.67
  53  0.167  0.167  0.333-  74 2.67  79 2.67  80 2.67  57 2.67  48 2.67  58 2.67  47 2.67  54 2.67
                            52 2.67  31 2.67  28 2.67  27 2.67
  54  0.167  0.333  0.500-  58 2.67  90 2.67  80 2.67  81 2.67  28 2.67 103 2.67  53 2.67  49 2.67
                            75 2.67  88 2.67  48 2.67 102 2.67
  55  0.333  0.667  0.000-  51 2.67  77 2.67  29 2.67  83 2.67  92 2.67  50 2.67  56 2.67  96 2.67
                           107 2.67  82 2.67  59 2.67 104 2.67
  56  0.333  0.833  0.167-  32 2.67  30 2.67  29 2.67  52 2.67  59 2.67  51 2.67  60 2.67  55 2.67
                            57 2.67  78 2.67  83 2.67  84 2.67
  57  0.333  0.000  0.333-  52 2.67  53 2.67  79 2.67  84 2.67  31 2.67  30 2.67  56 2.67  33 2.67
                            60 2.67  61 2.67  85 2.67  58 2.67
  58  0.333  0.167  0.500-  54 2.67  80 2.67  90 2.67  86 2.67  31 2.67  53 2.67 103 2.67  93 2.67
                            61 2.67  85 2.67 105 2.67  57 2.67
  59  0.500  0.667  0.167-  60 2.67  56 2.67  32 2.67  83 2.67 101 2.67   5 2.67   1 2.67  38 2.67
                             4 2.67  96 2.67  55 2.67 107 2.67
  60  0.500  0.833  0.333-  59 2.67   5 2.67  34 2.67   1 2.67  84 2.67  32 2.67  56 2.67  57 2.67
                            33 2.67   6 2.67   2 2.67  61 2.67
  61  0.500  0.000  0.500-   2 2.67  58 2.67  85 2.67  97 2.67  93 2.67   6 2.67   7 2.67  33 2.67
                            35 2.67  57 2.67  60 2.67 105 2.67
  62  0.667  0.333  0.667-  36 2.67  64 2.67  65 2.67 106 2.67  24 2.67 105 2.67  87 2.67  63 2.67
                             7 2.67  19 2.67 108 2.67  86 2.67
  63  0.667  0.500  0.833-  87 2.67  65 2.67  14 2.67  20 2.67  66 2.67 108 2.67  62 2.67  37 2.67
                            82 2.67 107 2.67 106 2.67   4 2.67
  64  0.833  0.167  0.667-  62 2.67  36 2.67  65 2.67  24 2.67  40 2.67  35 2.67  88 2.67  68 2.67
                             7 2.67  67 2.67  28 2.67  10 2.67
  65  0.833  0.333  0.833-  36 2.67  62 2.67  64 2.67  63 2.67  41 2.67  68 2.67  87 2.67  88 2.67
                            37 2.67  69 2.67  89 2.67  66 2.67
  66  0.833  0.500  0.000-   4 2.67  38 2.67  37 2.67  63 2.67  42 2.67  20 2.67  69 2.67  89 2.67
                            70 2.67  25 2.67  65 2.67   8 2.67
  67  0.000  0.000  0.667-  40 2.67  45 2.67  72 2.67  68 2.67  28 2.67  71 2.67  64 2.67  31 2.67
                            10 2.67  39 2.67  90 2.67  12 2.67
  68  0.000  0.167  0.833-  88 2.67  65 2.67  90 2.67  91 2.67  64 2.67  69 2.67  67 2.67  72 2.67
                            41 2.67  73 2.67  40 2.67  46 2.67
  69  0.000  0.333  0.000-  47 2.67  73 2.67  41 2.67  68 2.67  66 2.67  89 2.67  42 2.67  91 2.67
                            65 2.67  74 2.67  92 2.67  70 2.67
  70  0.000  0.500  0.167-  43 2.67  48 2.67  75 2.67  11 2.67  25 2.67  74 2.67   8 2.67  92 2.67
                            29 2.67  42 2.67  66 2.67  69 2.67
  71  0.167  0.833  0.667-  50 2.67  76 2.67  77 2.67  45 2.67  33 2.67  44 2.67  93 2.67  72 2.67
                            13 2.67  31 2.67  67 2.67  12 2.67
  72  0.167  0.000  0.833-  46 2.66  93 2.67  90 2.67  77 2.67  94 2.67  78 2.67  67 2.67  71 2.67
                            51 2.67  68 2.67  45 2.67  73 2.67
  73  0.167  0.167  0.000-  46 2.66  95 2.67  78 2.67  91 2.67  69 2.67  94 2.67  79 2.67  74 2.67
                            52 2.67  47 2.67  68 2.67  72 2.67
  74  0.167  0.333  0.167-  53 2.67  79 2.67  80 2.67  48 2.67  95 2.67  47 2.67  96 2.67  73 2.67
                            75 2.67  70 2.67  92 2.67  69 2.67
  75  0.167  0.500  0.333-  96 2.67  80 2.67  29 2.67  32 2.67  81 2.67  70 2.67  74 2.67  54 2.67
                            11 2.67  49 2.67  48 2.67  13 2.67
  76  0.333  0.667  0.667-  71 2.67  50 2.67  77 2.67  33 2.67 104 2.67 102 2.67  97 2.67  82 2.67
                            13 2.67 108 2.67  34 2.67  81 2.67
  77  0.333  0.833  0.833-  50 2.67  71 2.67  76 2.67  72 2.67  55 2.67  82 2.67  93 2.67  97 2.67
                            51 2.67  83 2.67  98 2.67  78 2.67
  78  0.333  0.000  0.000-  73 2.67  52 2.67  51 2.67  72 2.67  56 2.67  83 2.67  94 2.67  98 2.67
                            84 2.67  99 2.67  79 2.67  77 2.67
  79  0.333  0.167  0.167-  74 2.67  53 2.67  80 2.67  57 2.67  95 2.67  52 2.67 100 2.67  73 2.67
                            85 2.67  84 2.67  99 2.67  78 2.67
  80  0.333  0.333  0.333-  53 2.67  74 2.67  79 2.67  75 2.67  58 2.67  85 2.67  96 2.67 100 2.67
                            54 2.67  86 2.67 101 2.67  81 2.67
  81  0.333  0.500  0.500-  13 2.67 102 2.67  54 2.67  75 2.67  86 2.67  32 2.67 103 2.67 101 2.67
                            34 2.67 108 2.67  80 2.67  76 2.67
  82  0.500  0.667  0.833-  97 2.67  77 2.67  14 2.67  15 2.67  76 2.67  83 2.67 108 2.67 107 2.67
                            63 2.67  55 2.67   4 2.67 104 2.67
  83  0.500  0.833  0.000-   4 2.67  59 2.67  55 2.67  82 2.67  78 2.67  98 2.67  15 2.67  56 2.67
                            16 2.67   5 2.67  77 2.67  84 2.67
  84  0.500  0.000  0.167-  57 2.67  60 2.67   6 2.67  85 2.67  79 2.67   5 2.67  99 2.67  16 2.67
                            17 2.67  56 2.67  78 2.67  83 2.67
  85  0.500  0.167  0.333- 100 2.67  80 2.67  17 2.67  18 2.67  79 2.67  86 2.67  84 2.67  61 2.67
                             6 2.67  58 2.67  57 2.67   7 2.67
  86  0.500  0.333  0.500-   7 2.67 105 2.67  58 2.67  85 2.67 101 2.67  81 2.67 103 2.67  18 2.67
                            80 2.67  19 2.67  62 2.67 108 2.67
  87  0.833  0.500  0.667-  63 2.67  14 2.67  65 2.67  62 2.67  19 2.67  89 2.67  20 2.67  88 2.67
                             3 2.67  49 2.67  44 2.67  24 2.67
  88  0.000  0.333  0.667-  68 2.67  65 2.67  90 2.67  64 2.67  91 2.67  28 2.67  89 2.67  87 2.67
                            49 2.67  54 2.67  24 2.67 102 2.67
  89  0.000  0.500  0.833-  44 2.67 102 2.67  87 2.67  88 2.67  69 2.67  91 2.67  20 2.67  66 2.67
                            50 2.67  92 2.67  65 2.67  25 2.67
  90  0.167  0.167  0.667- 103 2.67  94 2.67  91 2.67  88 2.67  54 2.67  93 2.67  68 2.67  72 2.67
                            58 2.67  67 2.67  28 2.67  31 2.67
  91  0.167  0.333  0.833-  94 2.67 103 2.67  90 2.67 102 2.67  73 2.67  68 2.67 104 2.67  95 2.67
                            88 2.67  89 2.67  69 2.67  92 2.67
  92  0.167  0.500  0.000-  95 2.67 104 2.67  55 2.67  96 2.67  50 2.67  25 2.67  74 2.67  70 2.67
                            89 2.67  69 2.67  91 2.67  29 2.67
  93  0.333  0.000  0.667-  72 2.67  77 2.67  90 2.67  71 2.67  31 2.67  98 2.67  94 2.67  97 2.67
                            58 2.67  61 2.67 105 2.67  33 2.67
  94  0.333  0.167  0.833-  91 2.67 103 2.67  90 2.67 105 2.67  73 2.67  72 2.67 106 2.67  95 2.67
                            93 2.67  98 2.67  78 2.67  99 2.67
  95  0.333  0.333  0.000-  73 2.67  79 2.67  92 2.67  99 2.67  74 2.67  91 2.67  94 2.67 104 2.67
                           106 2.67 100 2.67 107 2.67  96 2.67
  96  0.333  0.500  0.167-  75 2.67  29 2.67  80 2.67  74 2.67  92 2.67 101 2.67  32 2.67 100 2.67
                            55 2.67 107 2.67  59 2.67  95 2.67
  97  0.500  0.833  0.667-  82 2.67  77 2.67  14 2.67  76 2.67  15 2.67  34 2.67  98 2.67  93 2.67
                            61 2.67   2 2.67  33 2.67  35 2.67
  98  0.500  0.000  0.833-  35 2.67 105 2.67  93 2.67  97 2.67  94 2.67  83 2.67  15 2.67  78 2.67
                            16 2.67  36 2.67  77 2.67  99 2.67
  99  0.500  0.167  0.000-  95 2.67 106 2.67  37 2.67 100 2.67  84 2.67  16 2.67  36 2.67  79 2.67
                            17 2.67  78 2.67  94 2.67  98 2.67
 100  0.500  0.333  0.167-  85 2.67  80 2.67  17 2.67  79 2.67  18 2.67  99 2.67 101 2.67  96 2.67
                           107 2.67  37 2.67  38 2.67  95 2.67
 101  0.500  0.500  0.333-  38 2.67  59 2.67  96 2.67 100 2.67  86 2.67  18 2.67  32 2.67  81 2.67
                             1 2.67  80 2.67  19 2.67  34 2.67
 102  0.167  0.500  0.667- 104 2.67  91 2.67 103 2.67  89 2.67  81 2.67  76 2.67  50 2.67  44 2.67
                            13 2.67  49 2.67  88 2.67  54 2.67
 103  0.333  0.333  0.667-  94 2.67  91 2.67  90 2.67 102 2.67 105 2.67  54 2.67 106 2.67  58 2.67
                           104 2.67  81 2.67  86 2.67 108 2.67
 104  0.333  0.500  0.833- 102 2.67  76 2.67  50 2.67 108 2.67  92 2.67  91 2.67 103 2.67 106 2.67
                            95 2.67 107 2.67  82 2.67  55 2.67
 105  0.500  0.167  0.667- 106 2.67  94 2.67  98 2.67 103 2.67  86 2.67  62 2.67  36 2.67  35 2.67
                             7 2.67  58 2.67  93 2.67  61 2.67
 106  0.500  0.333  0.833- 105 2.67  62 2.67  99 2.67  36 2.67 108 2.67  94 2.67 103 2.67 104 2.67
                            95 2.67  63 2.67  37 2.67 107 2.67
 107  0.500  0.500  0.000-  37 2.67  55 2.67  82 2.67 100 2.67  96 2.67  63 2.67  95 2.67  38 2.67
                             4 2.67 104 2.67  59 2.67 106 2.67
 108  0.500  0.500  0.667- 104 2.67 106 2.67  63 2.67  82 2.67  62 2.67  34 2.67  76 2.67  19 2.67
                           103 2.67  81 2.67  14 2.67  86 2.67
 
  LATTYP: Found a simple cubic cell.
 ALAT       =    11.3475907700
  
  Lattice vectors:
  
 A1 = (  11.3475907700,   0.0000000000,   0.0000000000)
 A2 = (   0.0000002100,  11.3475907700,   0.0000000000)
 A3 = (   0.0000002100,   0.0000002100,  11.3475907700)
 Subroutine PRICEL returns:
 Original cell was already a primitive cell.
 

Analysis of symmetry for initial positions (statically):

 Routine SETGRP: Setting up the symmetry group for a 
 simple cubic supercell.


 Subroutine GETGRP returns: Found  8 space group operations
 (whereof  8 operations were pure point group operations)
 out of a pool of 48 trial point group operations.


The static configuration has the point symmetry C_4v.

Analysis of symmetry for dynamics (positions and initial velocities):

 Subroutine DYNSYM returns: Found  8 space group operations
 (whereof  8 operations were pure point group operations)
 out of a pool of  8 trial space group operations
 (whereof  8 operations were pure point group operations)
 and found also     1 'primitive' translations


The dynamic configuration has the point symmetry C_4v.
 
 
 KPOINTS: Automatic mesh                          

Automatic generation of k-mesh.
 
 Subroutine IBZKPT returns following result:
 ===========================================
 
 Found     18 irreducible k-points:
 
 Following reciprocal coordinates:
            Coordinates               Weight
  0.083333  0.083333  0.083333      8.000000
  0.250000  0.083333  0.083333      8.000000
  0.416667  0.083333  0.083333      8.000000
  0.083333  0.250000  0.083333     16.000000
  0.250000  0.250000  0.083333     16.000000
  0.416667  0.250000  0.083333     16.000000
  0.083333  0.416667  0.083333     16.000000
  0.250000  0.416667  0.083333     16.000000
  0.416667  0.416667  0.083333     16.000000
  0.083333  0.250000  0.250000      8.000000
  0.250000  0.250000  0.250000      8.000000
  0.416667  0.250000  0.250000      8.000000
  0.083333  0.416667  0.250000     16.000000
  0.250000  0.416667  0.250000     16.000000
  0.416667  0.416667  0.250000     16.000000
  0.083333  0.416667  0.416667      8.000000
  0.250000  0.416667  0.416667      8.000000
  0.416667  0.416667  0.416667      8.000000
 
 Following cartesian coordinates:
            Coordinates               Weight
  0.007344  0.007344  0.007344      8.000000
  0.022031  0.007344  0.007344      8.000000
  0.036719  0.007344  0.007344      8.000000
  0.007344  0.022031  0.007344     16.000000
  0.022031  0.022031  0.007344     16.000000
  0.036719  0.022031  0.007344     16.000000
  0.007344  0.036719  0.007344     16.000000
  0.022031  0.036719  0.007344     16.000000
  0.036719  0.036719  0.007344     16.000000
  0.007344  0.022031  0.022031      8.000000
  0.022031  0.022031  0.022031      8.000000
  0.036719  0.022031  0.022031      8.000000
  0.007344  0.036719  0.022031     16.000000
  0.022031  0.036719  0.022031     16.000000
  0.036719  0.036719  0.022031     16.000000
  0.007344  0.036719  0.036719      8.000000
  0.022031  0.036719  0.036719      8.000000
  0.036719  0.036719  0.036719      8.000000
 


--------------------------------------------------------------------------------------------------------




 Dimension of arrays:
   k-Points           NKPTS =     18   number of bands    NBANDS=    712
   number of dos      NEDOS =    301   number of ions     NIONS =    108
   non local maximal  LDIM  =      6   non local SUM 2l+1 LMDIM =     18
   total plane-waves  NPLWV = 592704
   max r-space proj   IRMAX =      1   max aug-charges    IRDMAX= 114076
   dimension x,y,z NGX =    84 NGY =   84 NGZ =   84
   dimension x,y,z NGXF=   168 NGYF=  168 NGZF=  168
   support grid    NGXF=   336 NGYF=  336 NGZF=  336
   ions per type =             108
 NGX,Y,Z   is equivalent  to a cutoff of  12.31, 12.31, 12.31 a.u.
 NGXF,Y,Z  is equivalent  to a cutoff of  24.61, 24.61, 24.61 a.u.


 I would recommend the setting:
   dimension x,y,z NGX =    83 NGY =   83 NGZ =   83
 SYSTEM =  No title                                
 POSCAR =  No title                                

 Startparameter for this run:
   NWRITE =      2    write-flag & timer
   PREC   = accura    medium, high low
   ISTART =      1    job   : 0-new  1-cont  2-samecut
   ICHARG =      0    charge: 1-file 2-atom 10-const
   ISPIN  =      1    spin polarized calculation?
   LNONCOLLINEAR =      F non collinear calculations
   LSORBIT =      F    spin-orbit coupling
   INIWAV =      1    electr: 0-lowe 1-rand  2-diag
   LASPH  =      F    aspherical Exc in radial PAW
   METAGGA=      F    non-selfconsistent MetaGGA calc.

 Electronic Relaxation 1
   ENCUT  =  500.0 eV  36.75 Ry    6.06 a.u.  20.69 20.69 20.69*2*pi/ulx,y,z
   ENINI  =  500.0     initial cutoff
   ENAUG  =  516.5 eV  augmentation charge cutoff
   NELM   =     60;   NELMIN=  2; NELMDL=  0     # of ELM steps 
   EDIFF  = 0.1E-04   stopping-criterion for ELM
   LREAL  =      F    real-space projection
   LCOMPAT=      F    compatible to vasp.4.4
   LREAL_COMPAT= F    compatible to vasp.4.5.1-3
   GGA_COMPAT  = T    GGA compatible to vasp.4.4-vasp.4.6
   LMAXPAW     = -100 max onsite density
   LMAXMIX     =    2 max onsite mixed and CHGCAR
   VOSKOWN=      1    Vosko Wilk Nusair interpolation
   ROPT   =    0.00000
 Ionic relaxation
   EDIFFG = -.2E-01   stopping-criterion for IOM
   NSW    =      0    number of steps for IOM
   NBLOCK =      1;   KBLOCK =      1    inner block; outer block 
   IBRION =     -1    ionic relax: 0-MD 1-quasi-New 2-CG
   NFREE  =      0    steps in history (QN), initial steepest desc. (CG)
   ISIF   =      2    stress and relaxation
   IWAVPR =     10    prediction:  0-non 1-charg 2-wave 3-comb
   ISYM   =      2    0-nonsym 1-usesym 2-fastsym
   LCORR  =      T    Harris-Foulkes like correction to forces

   POTIM  =   0.50    time-step for ionic-motion
   TEIN   =    0.0    initial temperature
   TEBEG  =    0.0;   TEEND  =   0.0 temperature during run
   SMASS  =  -3.00    Nose mass-parameter (am)
   estimated Nose-frequenzy (Omega)   =  0.10E-29 period in steps =****** mass=  -0.294E-26a.u.
   NPACO  =    256;   APACO  = 16.0  distance and # of slots for P.C.
   PSTRESS=    0.0 pullay stress

  Mass of Ions in am
   POMASS =  63.55
  Ionic Valenz
   ZVAL   =  11.00
  Atomic Wigner-Seitz radii
   RWIGS  =   1.17
   NELECT =    1188.0000    total number of electrons
   NUPDOWN=      -1.0000    fix difference up-down

 DOS related values:
   EMIN   =  10.00;   EMAX   =-10.00  energy-range for DOS
   ISMEAR =     1;   SIGMA  =   0.20  broadening in eV -4-tet -1-fermi 0-gaus

 Electronic relaxation 2 (details)
   IALGO  =     48    algorithm
   LDIAG  =      T    sub-space diagonalisation
   IMIX   =      4    mixing-type and parameters
     AMIX     =   0.40;   BMIX     =  1.00
     AMIX_MAG =   1.60;   BMIX_MAG =  1.00
     AMIN     =   0.10
     WC   =   100.;   INIMIX=   1;  MIXPRE=   1

 Intra band minimization:
   WEIMIN = 0.0000     energy-eigenvalue tresh-hold
   EBREAK =  0.35E-08  absolut break condition
   DEPER  =   0.30     relativ break condition  

   TIME   =   0.10     timestep for ELM

  volume/ion in A,a.u.               =      13.53        91.30
  Fermi-wavevector in a.u.,eV,Ry     =   1.527953 31.764708  2.334640

 Second variation
   LSECVAR=     F    do a second variation
 
 Write flags
   LWAVE  =      F    write WAVECAR
   LCHARG =      F    write CHGCAR
   LVTOT  =      F    write LOCPOT, local potential
   LELF   =      F    write electronic localiz. function (ELF)
   LORBIT =      0    0 simple, 1 ext, 2 COOP (PROOUT)


 Dipole corrections
   IDIPOL =      0    1-x, 2-y, 3-z
   LDIPOL =      F    correct potential



--------------------------------------------------------------------------------------------------------


 Static calculation
 charge density will be updated during run
 non-spin polarized calculation
 RMM-DIIS sequential band-by-band
 performe sub-space diagonalisation
    before iterative eigenvector-optimisation
 modified Broyden-mixing scheme, WC =      100.0
 initial mixing is a Kerker type mixing with AMIX =  0.4000 and BMIX =      1.0000
 Hartree-type preconditioning will be used
 using additional bands          118
 reciprocal scheme for non local part
 use partial core corrections
 calculate Harris-corrections to forces 
   (improved forces if not selfconsistent)
 use gradient corrections 
 use of overlap-Matrix (Vanderbilt PP)
 Methfessel and Paxton  Order N= 1 SIGMA  =   0.20


--------------------------------------------------------------------------------------------------------


  energy-cutoff  :      500.00
  volume of cell :     1461.20
      direct lattice vectors                 reciprocal lattice vectors
    11.347590770  0.000000000  0.000000000     0.088124433 -0.000000002 -0.000000002
     0.000000210 11.347590770  0.000000000     0.000000000  0.088124433 -0.000000002
     0.000000210  0.000000210 11.347590770     0.000000000  0.000000000  0.088124433

  length of vectors
    11.347590770 11.347590770 11.347590770     0.088124433  0.088124433  0.088124433


 
 old parameters found on file WAVECAR:
  energy-cutoff  :      500.00
  volume of cell :     1461.20
      direct lattice vectors                 reciprocal lattice vectors
    11.347590770  0.000000000  0.000000000     0.088124433 -0.000000002 -0.000000002
     0.000000210 11.347590770  0.000000000     0.000000000  0.088124433 -0.000000002
     0.000000210  0.000000210 11.347590770     0.000000000  0.000000000  0.088124433

  length of vectors

 
 k-points in units of 2pi/SCALE and weight: Automatic mesh                          
   0.00734370  0.00734370  0.00734370       0.037
   0.02203111  0.00734370  0.00734370       0.037
   0.03671851  0.00734370  0.00734370       0.037
   0.00734370  0.02203111  0.00734370       0.074
   0.02203111  0.02203111  0.00734370       0.074
   0.03671851  0.02203111  0.00734370       0.074
   0.00734370  0.03671851  0.00734370       0.074
   0.02203111  0.03671851  0.00734370       0.074
   0.03671851  0.03671851  0.00734370       0.074
   0.00734370  0.02203111  0.02203111       0.037
   0.02203111  0.02203111  0.02203111       0.037
   0.03671851  0.02203111  0.02203111       0.037
   0.00734370  0.03671851  0.02203111       0.074
   0.02203111  0.03671851  0.02203111       0.074
   0.03671851  0.03671851  0.02203111       0.074
   0.00734370  0.03671851  0.03671851       0.037
   0.02203111  0.03671851  0.03671851       0.037
   0.03671851  0.03671851  0.03671851       0.037
 
 k-points in reciprocal lattice and weights: Automatic mesh                          
   0.08333333  0.08333333  0.08333333       0.037
   0.25000000  0.08333333  0.08333333       0.037
   0.41666667  0.08333333  0.08333333       0.037
   0.08333333  0.25000000  0.08333333       0.074
   0.25000000  0.25000000  0.08333333       0.074
   0.41666667  0.25000000  0.08333333       0.074
   0.08333333  0.41666667  0.08333333       0.074
   0.25000000  0.41666667  0.08333333       0.074
   0.41666667  0.41666667  0.08333333       0.074
   0.08333333  0.25000000  0.25000000       0.037
   0.25000000  0.25000000  0.25000000       0.037
   0.41666667  0.25000000  0.25000000       0.037
   0.08333333  0.41666667  0.25000000       0.074
   0.25000000  0.41666667  0.25000000       0.074
   0.41666667  0.41666667  0.25000000       0.074
   0.08333333  0.41666667  0.41666667       0.037
   0.25000000  0.41666667  0.41666667       0.037
   0.41666667  0.41666667  0.41666667       0.037
 
 position of ions in fractional coordinates (direct lattice) 
   0.66666667  0.66666667  0.33333333
   0.66666667  0.83333333  0.50000000
   0.83333333  0.66666667  0.50000000
   0.66666667  0.66666667  0.00000000
   0.66666667  0.83333333  0.16666667
   0.66666667  0.00000000  0.33333333
   0.66666667  0.16666667  0.50000000
   0.83333333  0.66666667  0.16666667
   0.83333333  0.83333333  0.33333333
   0.83333333  0.00000000  0.50000000
   0.00000000  0.66666667  0.33333333
   0.00000000  0.83333333  0.50000000
   0.16666667  0.66666667  0.50000000
   0.66666667  0.66666667  0.66666667
   0.66666667  0.83333333  0.83333333
   0.66666667  0.00000000  0.00000000
   0.66666667  0.16666667  0.16666667
   0.66666667  0.33333333  0.33333333
   0.66666667  0.50000000  0.50000000
   0.83333333  0.66666667  0.83333333
   0.83333333  0.83333333  0.00000000
   0.83333333  0.00000000  0.16666667
   0.83333333  0.16666667  0.33333333
   0.83333333  0.33333333  0.50000000
   0.00000000  0.66666667  0.00000000
   0.00000000  0.83333333  0.16666667
   0.00000000  0.00000000  0.33333333
   0.00000000  0.16666667  0.50000000
   0.16666667  0.66666667  0.16666667
   0.16666667  0.83333333  0.33333333
   0.16666667  0.00000000  0.50000000
   0.33333333  0.66666667  0.33333333
   0.33333333  0.83333333  0.50000000
   0.50000000  0.66666667  0.50000000
   0.66666667  0.00000000  0.66666667
   0.66666667  0.16666667  0.83333333
   0.66666667  0.33333333  0.00000000
   0.66666667  0.50000000  0.16666667
   0.83333333  0.83333333  0.66666667
   0.83333333  0.00000000  0.83333333
   0.83333333  0.16666667  0.00000000
   0.83333333  0.33333333  0.16666667
   0.83333333  0.50000000  0.33333333
   0.00000000  0.66666667  0.66666667
   0.00000000  0.83333333  0.83333333
   0.00176200  0.00000000  0.00000000
   0.00000000  0.16666667  0.16666667
   0.00000000  0.33333333  0.33333333
   0.00000000  0.50000000  0.50000000
   0.16666667  0.66666667  0.83333333
   0.16666667  0.83333333  0.00000000
   0.16666667  0.00000000  0.16666667
   0.16666667  0.16666667  0.33333333
   0.16666667  0.33333333  0.50000000
   0.33333333  0.66666667  0.00000000
   0.33333333  0.83333333  0.16666667
   0.33333333  0.00000000  0.33333333
   0.33333333  0.16666667  0.50000000
   0.50000000  0.66666667  0.16666667
   0.50000000  0.83333333  0.33333333
   0.50000000  0.00000000  0.50000000
   0.66666667  0.33333333  0.66666667
   0.66666667  0.50000000  0.83333333
   0.83333333  0.16666667  0.66666667
   0.83333333  0.33333333  0.83333333
   0.83333333  0.50000000  0.00000000
   0.00000000  0.00000000  0.66666667
   0.00000000  0.16666667  0.83333333
   0.00000000  0.33333333  0.00000000
   0.00000000  0.50000000  0.16666667
   0.16666667  0.83333333  0.66666667
   0.16666667  0.00000000  0.83333333
   0.16666667  0.16666667  0.00000000
   0.16666667  0.33333333  0.16666667
   0.16666667  0.50000000  0.33333333
   0.33333333  0.66666667  0.66666667
   0.33333333  0.83333333  0.83333333
   0.33333333  0.00000000  0.00000000
   0.33333333  0.16666667  0.16666667
   0.33333333  0.33333333  0.33333333
   0.33333333  0.50000000  0.50000000
   0.50000000  0.66666667  0.83333333
   0.50000000  0.83333333  0.00000000
   0.50000000  0.00000000  0.16666667
   0.50000000  0.16666667  0.33333333
   0.50000000  0.33333333  0.50000000
   0.83333333  0.50000000  0.66666667
   0.00000000  0.33333333  0.66666667
   0.00000000  0.50000000  0.83333333
   0.16666667  0.16666667  0.66666667
   0.16666667  0.33333333  0.83333333
   0.16666667  0.50000000  0.00000000
   0.33333333  0.00000000  0.66666667
   0.33333333  0.16666667  0.83333333
   0.33333333  0.33333333  0.00000000
   0.33333333  0.50000000  0.16666667
   0.50000000  0.83333333  0.66666667
   0.50000000  0.00000000  0.83333333
   0.50000000  0.16666667  0.00000000
   0.50000000  0.33333333  0.16666667
   0.50000000  0.50000000  0.33333333
   0.16666667  0.50000000  0.66666667
   0.33333333  0.33333333  0.66666667
   0.33333333  0.50000000  0.83333333
   0.50000000  0.16666667  0.66666667
   0.50000000  0.33333333  0.83333333
   0.50000000  0.50000000  0.00000000
   0.50000000  0.50000000  0.66666667
 
 position of ions in cartesian coordinates  (Angst):
   7.56506076  7.56506062  3.78253022
   7.56506083  9.45632571  5.67379539
   9.45632585  7.56506066  5.67379539
   7.56506069  7.56506055  0.00000000
   7.56506076  9.45632564  1.89126517
   7.56506062  0.00000007  3.78253022
   7.56506069  1.89126527  5.67379539
   9.45632578  7.56506059  1.89126517
   9.45632585  9.45632567  3.78253022
   9.45632571  0.00000011  5.67379539
   0.00000021  7.56506062  3.78253022
   0.00000028  9.45632571  5.67379539
   1.89126541  7.56506066  5.67379539
   7.56506083  7.56506069  7.56506055
   7.56506090  9.45632578  9.45632560
   7.56506055  0.00000000  0.00000000
   7.56506062  1.89126520  1.89126517
   7.56506069  3.78253029  3.78253022
   7.56506076  5.67379549  5.67379539
   9.45632592  7.56506073  9.45632560
   9.45632578  9.45632560  0.00000000
   9.45632564  0.00000004  1.89126517
   9.45632571  1.89126524  3.78253022
   9.45632578  3.78253032  5.67379539
   0.00000014  7.56506055  0.00000000
   0.00000021  9.45632564  1.89126517
   0.00000007  0.00000007  3.78253022
   0.00000014  1.89126527  5.67379539
   1.89126534  7.56506059  1.89126517
   1.89126541  9.45632567  3.78253022
   1.89126527  0.00000011  5.67379539
   3.78253043  7.56506062  3.78253022
   3.78253050  9.45632571  5.67379539
   5.67379563  7.56506066  5.67379539
   7.56506069  0.00000014  7.56506055
   7.56506076  1.89126534  9.45632560
   7.56506062  3.78253022  0.00000000
   7.56506069  5.67379542  1.89126517
   9.45632592  9.45632574  7.56506055
   9.45632578  0.00000017  9.45632560
   9.45632564  1.89126517  0.00000000
   9.45632571  3.78253025  1.89126517
   9.45632578  5.67379545  3.78253022
   0.00000028  7.56506069  7.56506055
   0.00000035  9.45632578  9.45632560
   0.01999445  0.00000000  0.00000000
   0.00000007  1.89126520  1.89126517
   0.00000014  3.78253029  3.78253022
   0.00000021  5.67379549  5.67379539
   1.89126548  7.56506073  9.45632560
   1.89126534  9.45632560  0.00000000
   1.89126520  0.00000004  1.89126517
   1.89126527  1.89126524  3.78253022
   1.89126534  3.78253032  5.67379539
   3.78253036  7.56506055  0.00000000
   3.78253043  9.45632564  1.89126517
   3.78253029  0.00000007  3.78253022
   3.78253036  1.89126527  5.67379539
   5.67379556  7.56506059  1.89126517
   5.67379563  9.45632567  3.78253022
   5.67379549  0.00000011  5.67379539
   7.56506076  3.78253036  7.56506055
   7.56506083  5.67379556  9.45632560
   9.45632578  1.89126531  7.56506055
   9.45632585  3.78253039  9.45632560
   9.45632571  5.67379539  0.00000000
   0.00000014  0.00000014  7.56506055
   0.00000021  1.89126534  9.45632560
   0.00000007  3.78253022  0.00000000
   0.00000014  5.67379542  1.89126517
   1.89126548  9.45632574  7.56506055
   1.89126534  0.00000017  9.45632560
   1.89126520  1.89126517  0.00000000
   1.89126527  3.78253025  1.89126517
   1.89126534  5.67379545  3.78253022
   3.78253050  7.56506069  7.56506055
   3.78253057  9.45632578  9.45632560
   3.78253022  0.00000000  0.00000000
   3.78253029  1.89126520  1.89126517
   3.78253036  3.78253029  3.78253022
   3.78253043  5.67379549  5.67379539
   5.67379570  7.56506073  9.45632560
   5.67379556  9.45632560  0.00000000
   5.67379542  0.00000004  1.89126517
   5.67379549  1.89126524  3.78253022
   5.67379556  3.78253032  5.67379539
   9.45632585  5.67379553  7.56506055
   0.00000021  3.78253036  7.56506055
   0.00000028  5.67379556  9.45632560
   1.89126534  1.89126531  7.56506055
   1.89126541  3.78253039  9.45632560
   1.89126527  5.67379539  0.00000000
   3.78253036  0.00000014  7.56506055
   3.78253043  1.89126534  9.45632560
   3.78253029  3.78253022  0.00000000
   3.78253036  5.67379542  1.89126517
   5.67379570  9.45632574  7.56506055
   5.67379556  0.00000017  9.45632560
   5.67379542  1.89126517  0.00000000
   5.67379549  3.78253025  1.89126517
   5.67379556  5.67379545  3.78253022
   1.89126541  5.67379553  7.56506055
   3.78253043  3.78253036  7.56506055
   3.78253050  5.67379556  9.45632560
   5.67379556  1.89126531  7.56506055
   5.67379563  3.78253039  9.45632560
   5.67379549  5.67379539  0.00000000
   5.67379563  5.67379553  7.56506055
 


--------------------------------------------------------------------------------------------------------


 k-point  1 :  0.08330.08330.0833  plane waves:  37101
 k-point  2 :  0.25000.08330.0833  plane waves:  37112
 k-point  3 :  0.41670.08330.0833  plane waves:  37116
 k-point  4 :  0.08330.25000.0833  plane waves:  37112
 k-point  5 :  0.25000.25000.0833  plane waves:  37091
 k-point  6 :  0.41670.25000.0833  plane waves:  37105
 k-point  7 :  0.08330.41670.0833  plane waves:  37116
 k-point  8 :  0.25000.41670.0833  plane waves:  37105
 k-point  9 :  0.41670.41670.0833  plane waves:  37090
 k-point 10 :  0.08330.25000.2500  plane waves:  37091
 k-point 11 :  0.25000.25000.2500  plane waves:  37044
 k-point 12 :  0.41670.25000.2500  plane waves:  37082
 k-point 13 :  0.08330.41670.2500  plane waves:  37105
 k-point 14 :  0.25000.41670.2500  plane waves:  37082
 k-point 15 :  0.41670.41670.2500  plane waves:  37081
 k-point 16 :  0.08330.41670.4167  plane waves:  37090
 k-point 17 :  0.25000.41670.4167  plane waves:  37081
 k-point 18 :  0.41670.41670.4167  plane waves:  37095

 maximum and minimum number of plane-waves per node :  37116 37044

 maximum number of plane-waves:  37116
 maximal index in each direction: 
   IXMAX= 20   IYMAX= 20   IZMAX= 20
   IXMIN=-21   IYMIN=-21   IZMIN=-21

 NGX is ok and might be reduce to  84
 NGY is ok and might be reduce to  84
 NGZ is ok and might be reduce to  84

 parallel 3dFFT wavefunction:
    minimum data exchange during FFTs selected (reduces bandwidth)
 parallel 3dFFT charge:
    minimum data exchange during FFTs selected (reduces bandwidth)

 For storing wavefunctions 7606.43 MBYTES are necessary
 For predicting wavefunctions  902.07 MBYTES are necessary
Broyden mixing: mesh for mixing (old mesh)
   NGX = 41   NGY = 41   NGZ = 41
  (NGX  =168   NGY  =168   NGZ  =168)
 gives a total of  68921 points
 charge density for first step will be calculated from the start-wavefunctions


--------------------------------------------------------------------------------------------------------


 Maximum index for augmentation-charges        27759 (set IRDMAX)


--------------------------------------------------------------------------------------------------------


 initial charge from wavefunction
 First call to EWALD:  gamma=   0.156
 Maximum number of real-space cells 3x 3x 3
 Maximum number of reciprocal cells 3x 3x 3

    FEWALD:  VPU time    0.03: CPU time    0.03


----------------------------------------- Iteration    1(   1)  ---------------------------------------


    POTLOK:  VPU time    1.09: CPU time    1.09
    SETDIJ:  VPU time    1.33: CPU time    1.33
    EDDIAG:  VPU time  149.21: CPU time  149.17
  RMM-DIIS:  VPU time 1583.40: CPU time 1582.98
    ORTHCH:  VPU time   31.13: CPU time   31.14
    DOS   :  VPU time    0.00: CPU time   -0.00
    CHARGE:  VPU time   55.67: CPU time   55.68
    MIXING:  VPU time    0.02: CPU time    0.02
    ------------------------------------------
      LOOP:  VPU time 1822.11: CPU time 1821.67

 eigenvalue-minimisations  : 26361
 total energy-change (2. order) :-0.3948658E+03  (-0.3841413E+02)
 number of electron 1187.9999975 magnetization 
 augmentation part   777.0651015 magnetization 

 Broyden mixing:
  rms(total) = 0.34751E+00    rms(broyden)= 0.34064E+00
  rms(prec ) = 0.43375E+00
  weight for this iteration     100.00

 Free energy of the ion-electron system (eV)
  ---------------------------------------------------
  alpha Z        PSCENC =     10198.58515210
  Ewald energy   TEWEN  =   -114045.65804815
  -1/2 Hartree   DENC   =    -35897.12368688
  -V(xc)+E(xc)   XCENC  =      4608.25484411
  PAW double counting   =    117037.63557365  -132683.61367087
  entropy T*S    EENTRO =        -0.00931538
  eigenvalues    EBANDS =       161.56570671
  atomic energy  EATOM  =    150225.49765690
  ---------------------------------------------------
  free energy    TOTEN  =      -394.86578781 eV

  energy without entropy =     -394.85647242  energy(sigma->0) =     -394.86268268


--------------------------------------------------------------------------------------------------------




----------------------------------------- Iteration    1(   2)  ---------------------------------------


    POTLOK:  VPU time    1.02: CPU time    1.02
    SETDIJ:  VPU time    1.21: CPU time    1.21
    EDDIAG:  VPU time  145.10: CPU time  145.06
  RMM-DIIS:  VPU time 1665.01: CPU time 1664.46
    ORTHCH:  VPU time   30.28: CPU time   30.27
    DOS   :  VPU time    0.00: CPU time   -0.00
    CHARGE:  VPU time   28.29: CPU time   28.28
    MIXING:  VPU time    0.02: CPU time    0.02
    ------------------------------------------
      LOOP:  VPU time 1871.21: CPU time 1870.60

 eigenvalue-minimisations  : 26989
 total energy-change (2. order) : 0.7714113E-02  (-0.5523749E+00)
 number of electron 1187.9999975 magnetization 
 augmentation part   780.9561831 magnetization 

 Broyden mixing:
  rms(total) = 0.19365E+00    rms(broyden)= 0.19364E+00
  rms(prec ) = 0.25547E+00
  weight for this iteration     100.00

 eigenvalues of (default mixing * dielectric matrix)
  average eigenvalue GAMMA=   0.6481
  0.6481

 Free energy of the ion-electron system (eV)
  ---------------------------------------------------
  alpha Z        PSCENC =     10198.58515210
  Ewald energy   TEWEN  =   -114045.65804815
  -1/2 Hartree   DENC   =    -35769.32679345
  -V(xc)+E(xc)   XCENC  =      4592.14785637
  PAW double counting   =    116710.10249408  -132290.99180948
  entropy T*S    EENTRO =        -0.03510354
  eigenvalues    EBANDS =       -15.17947853
  atomic energy  EATOM  =    150225.49765690
  ---------------------------------------------------
  free energy    TOTEN  =      -394.85807369 eV

  energy without entropy =     -394.82297016  energy(sigma->0) =     -394.84637251


--------------------------------------------------------------------------------------------------------




----------------------------------------- Iteration    1(   3)  ---------------------------------------


    POTLOK:  VPU time    0.70: CPU time    0.70
    SETDIJ:  VPU time    0.76: CPU time    0.76
    EDDIAG:  VPU time   93.36: CPU time   93.32
  RMM-DIIS:  VPU time  914.79: CPU time  914.36
    ORTHCH:  VPU time   25.42: CPU time   25.41
    DOS   :  VPU time    0.00: CPU time   -0.00
    CHARGE:  VPU time   26.83: CPU time   26.82
    MIXING:  VPU time    0.02: CPU time    0.02
    ------------------------------------------
      LOOP:  VPU time 1062.15: CPU time 1061.66

 eigenvalue-minimisations  : 27049
 total energy-change (2. order) : 0.6390921E-01  (-0.3468940E-01)
 number of electron 1187.9999975 magnetization 
 augmentation part   779.7814517 magnetization 

 Broyden mixing:
  rms(total) = 0.77173E-01    rms(broyden)= 0.77167E-01
  rms(prec ) = 0.11690E+00
  weight for this iteration     100.00

 eigenvalues of (default mixing * dielectric matrix)
  average eigenvalue GAMMA=   0.5612
  0.6901  0.4323

 Free energy of the ion-electron system (eV)
  ---------------------------------------------------
  alpha Z        PSCENC =     10198.58515210
  Ewald energy   TEWEN  =   -114045.65804815
  -1/2 Hartree   DENC   =    -35806.98902517
  -V(xc)+E(xc)   XCENC  =      4594.04464164
  PAW double counting   =    116766.43439313  -132360.47769767
  entropy T*S    EENTRO =        -0.02909331
  eigenvalues    EBANDS =        33.79785605
  atomic energy  EATOM  =    150225.49765690
  ---------------------------------------------------
  free energy    TOTEN  =      -394.79416448 eV

  energy without entropy =     -394.76507117  energy(sigma->0) =     -394.78446671


--------------------------------------------------------------------------------------------------------




----------------------------------------- Iteration    1(   4)  ---------------------------------------


    POTLOK:  VPU time    0.73: CPU time    0.73
    SETDIJ:  VPU time    0.77: CPU time    0.77
    EDDIAG:  VPU time   93.08: CPU time   93.05
  RMM-DIIS:  VPU time  909.22: CPU time  908.95
    ORTHCH:  VPU time   25.38: CPU time   25.37
    DOS   :  VPU time    0.00: CPU time   -0.00
    CHARGE:  VPU time   27.32: CPU time   27.31
    MIXING:  VPU time    0.02: CPU time    0.02
    ------------------------------------------
      LOOP:  VPU time 1056.77: CPU time 1056.46

 eigenvalue-minimisations  : 27100
 total energy-change (2. order) : 0.1226174E-01  (-0.2457224E-02)
 number of electron 1187.9999975 magnetization 
 augmentation part   779.7644261 magnetization 

 Broyden mixing:
  rms(total) = 0.19500E-01    rms(broyden)= 0.19499E-01
  rms(prec ) = 0.23811E-01
  weight for this iteration     100.00

 eigenvalues of (default mixing * dielectric matrix)
  average eigenvalue GAMMA=   0.8313
  1.3752  0.7298  0.3890

 Free energy of the ion-electron system (eV)
  ---------------------------------------------------
  alpha Z        PSCENC =     10198.58515210
  Ewald energy   TEWEN  =   -114045.65804815
  -1/2 Hartree   DENC   =    -35810.76800958
  -V(xc)+E(xc)   XCENC  =      4594.22131856
  PAW double counting   =    116766.99460045  -132359.14633581
  entropy T*S    EENTRO =        -0.02906710
  eigenvalues    EBANDS =        35.52082988
  atomic energy  EATOM  =    150225.49765690
  ---------------------------------------------------
  free energy    TOTEN  =      -394.78190274 eV

  energy without entropy =     -394.75283564  energy(sigma->0) =     -394.77221371


--------------------------------------------------------------------------------------------------------




----------------------------------------- Iteration    1(   5)  ---------------------------------------


    POTLOK:  VPU time    0.71: CPU time    0.71
    SETDIJ:  VPU time    0.76: CPU time    0.76
    EDDIAG:  VPU time   93.46: CPU time   93.43
  RMM-DIIS:  VPU time  911.15: CPU time  910.81
    ORTHCH:  VPU time   25.41: CPU time   25.40
    DOS   :  VPU time    0.00: CPU time   -0.00
    CHARGE:  VPU time   26.75: CPU time   26.74
    MIXING:  VPU time    0.02: CPU time    0.02
    ------------------------------------------
      LOOP:  VPU time 1058.53: CPU time 1058.13

 eigenvalue-minimisations  : 27203
 total energy-change (2. order) : 0.1065317E-02  (-0.2958982E-03)
 number of electron 1187.9999975 magnetization 
 augmentation part   779.8709027 magnetization 

 Broyden mixing:
  rms(total) = 0.17305E-01    rms(broyden)= 0.17305E-01
  rms(prec ) = 0.22085E-01
  weight for this iteration     100.00

 eigenvalues of (default mixing * dielectric matrix)
  average eigenvalue GAMMA=   0.9882
  2.0353  0.9317  0.6072  0.3785

 Free energy of the ion-electron system (eV)
  ---------------------------------------------------
  alpha Z        PSCENC =     10198.58515210
  Ewald energy   TEWEN  =   -114045.65804815
  -1/2 Hartree   DENC   =    -35814.44688958
  -V(xc)+E(xc)   XCENC  =      4594.37036374
  PAW double counting   =    116759.07819569  -132344.04986842
  entropy T*S    EENTRO =        -0.02954919
  eigenvalues    EBANDS =        31.87214948
  atomic energy  EATOM  =    150225.49765690
  ---------------------------------------------------
  free energy    TOTEN  =      -394.78083742 eV

  energy without entropy =     -394.75128824  energy(sigma->0) =     -394.77098770


--------------------------------------------------------------------------------------------------------




----------------------------------------- Iteration    1(   6)  ---------------------------------------


    POTLOK:  VPU time    0.73: CPU time    0.73
    SETDIJ:  VPU time    0.77: CPU time    0.76
    EDDIAG:  VPU time   93.72: CPU time   93.69
  RMM-DIIS:  VPU time  932.75: CPU time  932.38
    ORTHCH:  VPU time   25.45: CPU time   25.44
    DOS   :  VPU time    0.00: CPU time   -0.00
    CHARGE:  VPU time   27.51: CPU time   27.50
    MIXING:  VPU time    0.02: CPU time    0.02
    ------------------------------------------
      LOOP:  VPU time 1081.22: CPU time 1080.80

 eigenvalue-minimisations  : 27440
 total energy-change (2. order) : 0.5555595E-03  (-0.1173729E-03)
 number of electron 1187.9999975 magnetization 
 augmentation part   779.8207594 magnetization 

 Broyden mixing:
  rms(total) = 0.99210E-02    rms(broyden)= 0.99208E-02
  rms(prec ) = 0.13417E-01
  weight for this iteration     100.00

 eigenvalues of (default mixing * dielectric matrix)
  average eigenvalue GAMMA=   0.9739
  2.3521  1.1034  0.6561  0.3895  0.3683

 Free energy of the ion-electron system (eV)
  ---------------------------------------------------
  alpha Z        PSCENC =     10198.58515210
  Ewald energy   TEWEN  =   -114045.65804815
  -1/2 Hartree   DENC   =    -35819.30228221
  -V(xc)+E(xc)   XCENC  =      4594.59667372
  PAW double counting   =    116759.65584753  -132342.31636828
  entropy T*S    EENTRO =        -0.02926476
  eigenvalues    EBANDS =        34.19035128
  atomic energy  EATOM  =    150225.49765690
  ---------------------------------------------------
  free energy    TOTEN  =      -394.78028187 eV

  energy without entropy =     -394.75101710  energy(sigma->0) =     -394.77052694


--------------------------------------------------------------------------------------------------------




----------------------------------------- Iteration    1(   7)  ---------------------------------------


    POTLOK:  VPU time    0.71: CPU time    0.71
    SETDIJ:  VPU time    0.76: CPU time    0.76
    EDDIAG:  VPU time   93.22: CPU time   93.18
  RMM-DIIS:  VPU time  929.02: CPU time  928.65
    ORTHCH:  VPU time   25.50: CPU time   25.49
    DOS   :  VPU time    0.00: CPU time   -0.00
    CHARGE:  VPU time   27.48: CPU time   27.47
    MIXING:  VPU time    0.02: CPU time    0.02
    ------------------------------------------
      LOOP:  VPU time 1076.98: CPU time 1076.55

 eigenvalue-minimisations  : 27194
 total energy-change (2. order) : 0.3093082E-03  (-0.5115573E-04)
 number of electron 1187.9999975 magnetization 
 augmentation part   779.7771363 magnetization 

 Broyden mixing:
  rms(total) = 0.18974E-02    rms(broyden)= 0.18970E-02
  rms(prec ) = 0.22946E-02
  weight for this iteration     100.00

 eigenvalues of (default mixing * dielectric matrix)
  average eigenvalue GAMMA=   1.0582
  2.5514  1.3296  1.0653  0.6385  0.3716  0.3927

 Free energy of the ion-electron system (eV)
  ---------------------------------------------------
  alpha Z        PSCENC =     10198.58515210
  Ewald energy   TEWEN  =   -114045.65804815
  -1/2 Hartree   DENC   =    -35822.51604943
  -V(xc)+E(xc)   XCENC  =      4594.74802902
  PAW double counting   =    116760.26046999  -132341.80523640
  entropy T*S    EENTRO =        -0.02902432
  eigenvalues    EBANDS =        36.13707773
  atomic energy  EATOM  =    150225.49765690
  ---------------------------------------------------
  free energy    TOTEN  =      -394.77997256 eV

  energy without entropy =     -394.75094823  energy(sigma->0) =     -394.77029778


--------------------------------------------------------------------------------------------------------




----------------------------------------- Iteration    1(   8)  ---------------------------------------


    POTLOK:  VPU time    0.69: CPU time    0.69
    SETDIJ:  VPU time    0.76: CPU time    0.76
    EDDIAG:  VPU time   93.19: CPU time   93.14
  RMM-DIIS:  VPU time  860.40: CPU time  859.97
    ORTHCH:  VPU time   25.42: CPU time   25.41
    DOS   :  VPU time    0.00: CPU time   -0.00
    CHARGE:  VPU time   26.57: CPU time   26.55
    MIXING:  VPU time    0.02: CPU time    0.02
    ------------------------------------------
      LOOP:  VPU time 1007.32: CPU time 1006.83

 eigenvalue-minimisations  : 25162
 total energy-change (2. order) : 0.5271382E-04  (-0.6207680E-05)
 number of electron 1187.9999975 magnetization 
 augmentation part   779.7964569 magnetization 

 Broyden mixing:
  rms(total) = 0.94938E-03    rms(broyden)= 0.94933E-03
  rms(prec ) = 0.12881E-02
  weight for this iteration     100.00

 eigenvalues of (default mixing * dielectric matrix)
  average eigenvalue GAMMA=   1.0093
  2.6128  1.5069  1.0853  0.6493  0.3729  0.3943  0.4435

 Free energy of the ion-electron system (eV)
  ---------------------------------------------------
  alpha Z        PSCENC =     10198.58515210
  Ewald energy   TEWEN  =   -114045.65804815
  -1/2 Hartree   DENC   =    -35822.75815732
  -V(xc)+E(xc)   XCENC  =      4594.75567672
  PAW double counting   =    116757.86333133  -132338.49389213
  entropy T*S    EENTRO =        -0.02911306
  eigenvalues    EBANDS =        35.45747376
  atomic energy  EATOM  =    150225.49765690
  ---------------------------------------------------
  free energy    TOTEN  =      -394.77991984 eV

  energy without entropy =     -394.75080678  energy(sigma->0) =     -394.77021549


--------------------------------------------------------------------------------------------------------




----------------------------------------- Iteration    1(   9)  ---------------------------------------


    POTLOK:  VPU time    0.70: CPU time    0.70
    SETDIJ:  VPU time    0.76: CPU time    0.76
    EDDIAG:  VPU time   93.11: CPU time   93.08
  RMM-DIIS:  VPU time  516.99: CPU time  516.77
    ORTHCH:  VPU time   25.46: CPU time   25.45
    DOS   :  VPU time    0.00: CPU time   -0.00
    ------------------------------------------
      LOOP:  VPU time  637.29: CPU time  637.03

 eigenvalue-minimisations  : 14740
 total energy-change (2. order) : 0.3838475E-05  (-0.3695907E-06)
 number of electron 1187.9999975 magnetization 
 augmentation part   779.7964569 magnetization 

 Free energy of the ion-electron system (eV)
  ---------------------------------------------------
  alpha Z        PSCENC =     10198.58515210
  Ewald energy   TEWEN  =   -114045.65804815
  -1/2 Hartree   DENC   =    -35822.83515490
  -V(xc)+E(xc)   XCENC  =      4594.75923691
  PAW double counting   =    116757.59020224  -132338.19104409
  entropy T*S    EENTRO =        -0.02910746
  eigenvalues    EBANDS =        35.50119043
  atomic energy  EATOM  =    150225.49765690
  ---------------------------------------------------
  free energy    TOTEN  =      -394.77991600 eV

  energy without entropy =     -394.75080854  energy(sigma->0) =     -394.77021352


--------------------------------------------------------------------------------------------------------




 average (electrostatic) potential at core
  the test charge radii are     1.0053
  (the norm of the test charge is              1.0000)
       1 -40.7278       2 -40.7278       3 -40.7279       4 -40.7277       5 -40.7279
       6 -40.7277       7 -40.7278       8 -40.7278       9 -40.7278      10 -40.7278
      11 -40.7278      12 -40.7278      13 -40.7278      14 -40.7278      15 -40.7279
      16 -40.7277      17 -40.7279      18 -40.7278      19 -40.7278      20 -40.7278
      21 -40.7256      22 -40.7256      23 -40.7278      24 -40.7279      25 -40.7278
      26 -40.7278      27 -40.7278      28 -40.7278      29 -40.7279      30 -40.7279
      31 -40.7278      32 -40.7279      33 -40.7279      34 -40.7279      35 -40.7277
      36 -40.7279      37 -40.7277      38 -40.7278      39 -40.7278      40 -40.7256
      41 -40.7256      42 -40.7278      43 -40.7279      44 -40.7278      45 -40.7278
      46 -40.7281      47 -40.7278      48 -40.7278      49 -40.7278      50 -40.7279
      51 -40.7301      52 -40.7301      53 -40.7279      54 -40.7278      55 -40.7279
      56 -40.7278      57 -40.7279      58 -40.7279      59 -40.7279      60 -40.7279
      61 -40.7278      62 -40.7278      63 -40.7278      64 -40.7278      65 -40.7278
      66 -40.7278      67 -40.7278      68 -40.7278      69 -40.7278      70 -40.7278
      71 -40.7279      72 -40.7301      73 -40.7301      74 -40.7279      75 -40.7278
      76 -40.7279      77 -40.7278      78 -40.7279      79 -40.7278      80 -40.7279
      81 -40.7279      82 -40.7279      83 -40.7278      84 -40.7278      85 -40.7279
      86 -40.7279      87 -40.7279      88 -40.7278      89 -40.7278      90 -40.7279
      91 -40.7279      92 -40.7278      93 -40.7279      94 -40.7278      95 -40.7279
      96 -40.7279      97 -40.7279      98 -40.7278      99 -40.7278     100 -40.7279
     101 -40.7279     102 -40.7278     103 -40.7279     104 -40.7279     105 -40.7279
     106 -40.7279     107 -40.7278     108 -40.7279
 
 
 
 E-fermi :   2.7091     XC(G=0): -12.0243     alpha+bet : -8.4069
   add alpha+bet to get absolut eigen values

 k-point   1 :       0.0833    0.0833    0.0833
  band No.  band energies     occupation 
      1      -5.6311      2.00000
      2      -4.6322      2.00000
      3      -4.6314      2.00000
      4      -4.6307      2.00000
      5      -4.2481      2.00000
      6      -4.2473      2.00000
      7      -4.2466      2.00000
      8      -3.6970      2.00000
      9      -3.6962      2.00000
     10      -3.6955      2.00000
     11      -3.3451      2.00000
     12      -3.3437      2.00000
     13      -3.3434      2.00000
     14      -3.3434      2.00000
     15      -3.3431      2.00000
     16      -3.3417      2.00000
     17      -3.0073      2.00000
     18      -3.0066      2.00000
     19      -3.0059      2.00000
     20      -2.9209      2.00000
     21      -2.6507      2.00000
     22      -2.6501      2.00000
     23      -2.6495      2.00000
     24      -2.4197      2.00000
     25      -2.4192      2.00000
     26      -2.4186      2.00000
     27      -2.2349      2.00000
     28      -2.0103      2.00000
     29      -2.0097      2.00000
     30      -2.0091      2.00000
     31      -1.7337      2.00000
     32      -1.7332      2.00000
     33      -1.7327      2.00000
     34      -1.4482      2.00000
     35      -1.4481      2.00000
     36      -1.4481      2.00000
     37      -1.4133      2.00000
     38      -1.4123      2.00000
     39      -1.4120      2.00000
     40      -1.4120      2.00000
     41      -1.4118      2.00000
     42      -1.4110      2.00000
     43      -1.4089      2.00000
     44      -1.4088      2.00000
     45      -1.4088      2.00000
     46      -1.3847      2.00000
     47      -1.3841      2.00000
     48      -1.3835      2.00000
     49      -1.3803      2.00000
     50      -1.3802      2.00000
     51      -1.3798      2.00000
     52      -1.3798      2.00000
     53      -1.3792      2.00000
     54      -1.3792      2.00000
     55      -1.2715      2.00000
     56      -1.2709      2.00000
     57      -1.2704      2.00000
     58      -1.2306      2.00000
     59      -1.2301      2.00000
     60      -1.2297      2.00000
     61      -1.2296      2.00000
     62      -1.2293      2.00000
     63      -1.2290      2.00000
     64      -1.2278      2.00000
     65      -1.2278      2.00000
     66      -1.2274      2.00000
     67      -1.2272      2.00000
     68      -1.2268      2.00000
     69      -1.2268      2.00000
     70      -1.2163      2.00000
     71      -1.2163      2.00000
     72      -1.2163      2.00000
     73      -1.1984      2.00000
     74      -1.1980      2.00000
     75      -1.1977      2.00000
     76      -1.1977      2.00000
     77      -1.1974      2.00000
     78      -1.1969      2.00000
     79      -1.0783      2.00000
     80      -1.0783      2.00000
     81      -1.0783      2.00000
     82      -1.0731      2.00000
     83      -1.0725      2.00000
     84      -1.0723      2.00000
     85      -1.0723      2.00000
     86      -1.0722      2.00000
     87      -1.0716      2.00000
     88      -1.0375      2.00000
     89      -1.0367      2.00000
     90      -1.0364      2.00000
     91      -1.0364      2.00000
     92      -1.0362      2.00000
     93      -1.0354      2.00000
     94      -0.9681      2.00000
     95      -0.9674      2.00000
     96      -0.9673      2.00000
     97      -0.9673      2.00000
     98      -0.9671      2.00000
     99      -0.9665      2.00000
    100      -0.8497      2.00000
    101      -0.8494      2.00000
    102      -0.8491      2.00000
    103      -0.8375      2.00000
    104      -0.8371      2.00000
    105      -0.8367      2.00000
    106      -0.8158      2.00000
    107      -0.8158      2.00000
    108      -0.8154      2.00000
    109      -0.8154      2.00000
    110      -0.8151      2.00000
    111      -0.8151      2.00000
    112      -0.7848      2.00000
    113      -0.7846      2.00000
    114      -0.7843      2.00000
    115      -0.7842      2.00000
    116      -0.7840      2.00000
    117      -0.7838      2.00000
    118      -0.7820      2.00000
    119      -0.7816      2.00000
    120      -0.7814      2.00000
    121      -0.7669      2.00000
    122      -0.7666      2.00000
    123      -0.7663      2.00000
    124      -0.7086      2.00000
    125      -0.7086      2.00000
    126      -0.7083      2.00000
    127      -0.7083      2.00000
    128      -0.7079      2.00000
    129      -0.7079      2.00000
    130      -0.6726      2.00000
    131      -0.6724      2.00000
    132      -0.6722      2.00000
    133      -0.6512      2.00000
    134      -0.6509      2.00000
    135      -0.6507      2.00000
    136      -0.6506      2.00000
    137      -0.6504      2.00000
    138      -0.6501      2.00000
    139      -0.6158      2.00000
    140      -0.6152      2.00000
    141      -0.6151      2.00000
    142      -0.6151      2.00000
    143      -0.6150      2.00000
    144      -0.6144      2.00000
    145      -0.5932      2.00000
    146      -0.5927      2.00000
    147      -0.5925      2.00000
    148      -0.5925      2.00000
    149      -0.5923      2.00000
    150      -0.5918      2.00000
    151      -0.5729      2.00000
    152      -0.5725      2.00000
    153      -0.5722      2.00000
    154      -0.5722      2.00000
    155      -0.5720      2.00000
    156      -0.5716      2.00000
    157      -0.5446      2.00000
    158      -0.5443      2.00000
    159      -0.5441      2.00000
    160      -0.5255      2.00000
    161      -0.5251      2.00000
    162      -0.5248      2.00000
    163      -0.5248      2.00000
    164      -0.5246      2.00000
    165      -0.5242      2.00000
    166      -0.3676      2.00000
    167      -0.3675      2.00000
    168      -0.3675      2.00000
    169      -0.3182      2.00000
    170      -0.3179      2.00000
    171      -0.3176      2.00000
    172      -0.3062      2.00000
    173      -0.3056      2.00000
    174      -0.3055      2.00000
    175      -0.3055      2.00000
    176      -0.3054      2.00000
    177      -0.3049      2.00000
    178      -0.2990      2.00000
    179      -0.2984      2.00000
    180      -0.2982      2.00000
    181      -0.2982      2.00000
    182      -0.2981      2.00000
    183      -0.2976      2.00000
    184      -0.2943      2.00000
    185      -0.2940      2.00000
    186      -0.2937      2.00000
    187      -0.2644      2.00000
    188      -0.2642      2.00000
    189      -0.2639      2.00000
    190      -0.2587      2.00000
    191      -0.2584      2.00000
    192      -0.2581      2.00000
    193      -0.2486      2.00000
    194      -0.2483      2.00000
    195      -0.2480      2.00000
    196      -0.2254      2.00000
    197      -0.2247      2.00000
    198      -0.2244      2.00000
    199      -0.2244      2.00000
    200      -0.2241      2.00000
    201      -0.2236      2.00000
    202      -0.2183      2.00000
    203      -0.2181      2.00000
    204      -0.2178      2.00000
    205      -0.2178      2.00000
    206      -0.2175      2.00000
    207      -0.2173      2.00000
    208      -0.2095      2.00000
    209      -0.2091      2.00000
    210      -0.2089      2.00000
    211      -0.2089      2.00000
    212      -0.2088      2.00000
    213      -0.2083      2.00000
    214      -0.2081      2.00000
    215      -0.2079      2.00000
    216      -0.2076      2.00000
    217      -0.1641      2.00000
    218      -0.1640      2.00000
    219      -0.1639      2.00000
    220      -0.1192      2.00000
    221      -0.1189      2.00000
    222      -0.1187      2.00000
    223      -0.1166      2.00000
    224      -0.1160      2.00000
    225      -0.1158      2.00000
    226      -0.1158      2.00000
    227      -0.1155      2.00000
    228      -0.1149      2.00000
    229      -0.0852      2.00000
    230      -0.0851      2.00000
    231      -0.0847      2.00000
    232      -0.0847      2.00000
    233      -0.0844      2.00000
    234      -0.0843      2.00000
    235      -0.0532      2.00000
    236      -0.0503      2.00000
    237      -0.0503      2.00000
    238      -0.0500      2.00000
    239      -0.0500      2.00000
    240      -0.0497      2.00000
    241      -0.0497      2.00000
    242       0.0105      2.00000
    243       0.0110      2.00000
    244       0.0115      2.00000
    245       0.0343      2.00000
    246       0.0435      2.00000
    247       0.0436      2.00000
    248       0.0523      2.00000
    249       0.0525      2.00000
    250       0.0527      2.00000
    251       0.0536      2.00000
    252       0.0539      2.00000
    253       0.0542      2.00000
    254       0.0605      2.00000
    255       0.0607      2.00000
    256       0.0610      2.00000
    257       0.0854      2.00000
    258       0.0855      2.00000
    259       0.0968      2.00000
    260       0.0970      2.00000
    261       0.0972      2.00000
    262       0.1017      2.00000
    263       0.1019      2.00000
    264       0.1022      2.00000
    265       0.1060      2.00000
    266       0.1060      2.00000
    267       0.1061      2.00000
    268       0.1071      2.00000
    269       0.1073      2.00000
    270       0.1075      2.00000
    271       0.1075      2.00000
    272       0.1078      2.00000
    273       0.1079      2.00000
    274       0.1115      2.00000
    275       0.1117      2.00000
    276       0.1118      2.00000
    277       0.1140      2.00000
    278       0.1141      2.00000
    279       0.1143      2.00000
    280       0.1143      2.00000
    281       0.1146      2.00000
    282       0.1146      2.00000
    283       0.1264      2.00000
    284       0.1264      2.00000
    285       0.1265      2.00000
    286       0.1310      2.00000
    287       0.1315      2.00000
    288       0.1320      2.00000
    289       0.1331      2.00000
    290       0.1332      2.00000
    291       0.1345      2.00000
    292       0.1345      2.00000
    293       0.1347      2.00000
    294       0.1347      2.00000
    295       0.1350      2.00000
    296       0.1351      2.00000
    297       0.1486      2.00000
    298       0.1488      2.00000
    299       0.1490      2.00000
    300       0.1491      2.00000
    301       0.1493      2.00000
    302       0.1495      2.00000
    303       0.1628      2.00000
    304       0.1630      2.00000
    305       0.1633      2.00000
    306       0.2017      2.00000
    307       0.2018      2.00000
    308       0.2021      2.00000
    309       0.2052      2.00000
    310       0.2053      2.00000
    311       0.2053      2.00000
    312       0.2499      2.00000
    313       0.2502      2.00000
    314       0.2506      2.00000
    315       0.2521      2.00000
    316       0.2524      2.00000
    317       0.2527      2.00000
    318       0.2583      2.00000
    319       0.2583      2.00000
    320       0.2587      2.00000
    321       0.2587      2.00000
    322       0.2591      2.00000
    323       0.2591      2.00000
    324       0.2678      2.00000
    325       0.2682      2.00000
    326       0.2687      2.00000
    327       0.2844      2.00000
    328       0.2848      2.00000
    329       0.2851      2.00000
    330       0.2997      2.00000
    331       0.3002      2.00000
    332       0.3006      2.00000
    333       0.3197      2.00000
    334       0.3200      2.00000
    335       0.3204      2.00000
    336       0.3217      2.00000
    337       0.3229      2.00000
    338       0.3229      2.00000
    339       0.3232      2.00000
    340       0.3232      2.00000
    341       0.3234      2.00000
    342       0.3235      2.00000
    343       0.3259      2.00000
    344       0.3262      2.00000
    345       0.3264      2.00000
    346       0.3296      2.00000
    347       0.3296      2.00000
    348       0.3298      2.00000
    349       0.3299      2.00000
    350       0.3301      2.00000
    351       0.3302      2.00000
    352       0.3318      2.00000
    353       0.3321      2.00000
    354       0.3325      2.00000
    355       0.3692      2.00000
    356       0.3692      2.00000
    357       0.3693      2.00000
    358       0.3747      2.00000
    359       0.3750      2.00000
    360       0.3753      2.00000
    361       0.3753      2.00000
    362       0.3756      2.00000
    363       0.3760      2.00000
    364       0.4016      2.00000
    365       0.4020      2.00000
    366       0.4024      2.00000
    367       0.4521      2.00000
    368       0.4521      2.00000
    369       0.4522      2.00000
    370       0.4919      2.00000
    371       0.4920      2.00000
    372       0.4921      2.00000
    373       0.4990      2.00000
    374       0.4991      2.00000
    375       0.4994      2.00000
    376       0.4994      2.00000
    377       0.4996      2.00000
    378       0.4998      2.00000
    379       0.5029      2.00000
    380       0.5030      2.00000
    381       0.5032      2.00000
    382       0.5054      2.00000
    383       0.5057      2.00000
    384       0.5060      2.00000
    385       0.6047      2.00000
    386       0.6048      2.00000
    387       0.6050      2.00000
    388       0.6158      2.00000
    389       0.6161      2.00000
    390       0.6164      2.00000
    391       0.6533      2.00000
    392       0.6536      2.00000
    393       0.6537      2.00000
    394       0.6537      2.00000
    395       0.6539      2.00000
    396       0.6541      2.00000
    397       0.6740      2.00000
    398       0.6741      2.00000
    399       0.6743      2.00000
    400       0.6743      2.00000
    401       0.6746      2.00000
    402       0.6747      2.00000
    403       0.7058      2.00000
    404       0.7061      2.00000
    405       0.7064      2.00000
    406       0.7073      2.00000
    407       0.7073      2.00000
    408       0.7345      2.00000
    409       0.7346      2.00000
    410       0.7349      2.00000
    411       0.7349      2.00000
    412       0.7349      2.00000
    413       0.7350      2.00000
    414       0.7352      2.00000
    415       0.7354      2.00000
    416       0.7355      2.00000
    417       0.7355      2.00000
    418       0.7358      2.00000
    419       0.7360      2.00000
    420       0.7951      2.00000
    421       0.7955      2.00000
    422       0.7956      2.00000
    423       0.7956      2.00000
    424       0.7956      2.00000
    425       0.7960      2.00000
    426       0.8026      2.00000
    427       0.8029      2.00000
    428       0.8030      2.00000
    429       0.8034      2.00000
    430       0.8035      2.00000
    431       0.8037      2.00000
    432       0.8037      2.00000
    433       0.8040      2.00000
    434       0.8040      2.00000
    435       0.8361      2.00000
    436       0.8363      2.00000
    437       0.8365      2.00000
    438       0.8372      2.00000
    439       0.8373      2.00000
    440       0.8375      2.00000
    441       0.8465      2.00000
    442       0.8470      2.00000
    443       0.8474      2.00000
[...]
   0.174E+01 0.147E-01 0.147E-01   -.174E+01 -.144E-01 -.144E-01   0.638E-02 0.951E-04 0.951E-04   -.250E-02 -.496E-03 -.496E-03
   0.205E+00 0.173E-02 0.173E-02   -.206E+00 -.696E-03 -.696E-03   -.563E-03 -.118E-04 -.118E-04   0.134E-02 -.104E-02 -.104E-02
   0.107E+00 -.494E-08 -.494E-08   -.107E+00 0.504E-08 0.504E-08   -.503E-03 0.281E-20 -.138E-20   0.552E-03 0.225E-09 0.225E-09
   0.110E+00 0.299E+00 0.162E+00   -.109E+00 -.301E+00 -.164E+00   -.116E-02 0.144E-02 0.415E-03   0.373E-03 0.619E-03 0.139E-02
   -.102E+01 0.273E+01 -.332E-08   0.101E+01 -.273E+01 0.533E-09   0.151E-01 -.107E-01 -.390E-20   -.127E-02 -.431E-03 -.484E-09
   -.102E+01 -.416E-07 -.273E+01   0.101E+01 0.508E-07 0.273E+01   0.151E-01 0.198E-09 0.107E-01   -.127E-02 0.211E-09 0.431E-03
   0.110E+00 -.162E+00 -.299E+00   -.109E+00 0.164E+00 0.301E+00   -.116E-02 -.415E-03 -.144E-02   0.373E-03 -.139E-02 -.619E-03
   0.628E-01 -.443E-01 0.633E-09   -.619E-01 0.458E-01 -.682E-09   -.146E-03 0.114E-03 -.113E-23   -.882E-03 -.160E-02 0.101E-10
   -.254E+00 0.250E+00 0.236E-09   0.252E+00 -.247E+00 -.290E-09   0.402E-02 -.482E-02 0.832E-21   -.171E-02 0.202E-02 0.698E-10
   -.512E+00 0.301E+00 -.301E+00   0.514E+00 -.303E+00 0.303E+00   -.161E-02 0.148E-02 -.148E-02   0.895E-04 0.674E-03 -.674E-03
   -.254E+00 -.380E-08 -.250E+00   0.252E+00 0.411E-08 0.247E+00   0.402E-02 0.891E-10 0.482E-02   -.171E-02 0.483E-09 -.202E-02
   -.101E+00 -.445E-01 0.103E-07   0.104E+00 0.460E-01 -.105E-07   -.170E-02 0.349E-03 0.156E-20   -.123E-02 -.191E-02 -.416E-09
   -.253E+00 -.134E-04 0.871E-03   0.256E+00 -.899E-03 0.456E-03   -.185E-02 0.521E-05 0.202E-04   -.139E-02 0.921E-03 -.138E-02
   -.253E+00 -.871E-03 0.134E-04   0.256E+00 -.456E-03 0.899E-03   -.185E-02 -.202E-04 -.521E-05   -.139E-02 0.138E-02 -.921E-03
   -.206E+00 0.796E-09 0.208E-07   0.203E+00 -.697E-09 -.120E-07   0.381E-02 0.748E-21 -.109E-19   -.105E-02 0.290E-09 -.570E-09
   -.100E+00 0.720E-01 -.720E-01   0.100E+00 -.719E-01 0.719E-01   -.282E-03 0.139E-03 -.139E-03   -.171E-03 -.184E-03 0.184E-03
   -.103E+00 0.954E-08 -.469E-01   0.105E+00 -.971E-08 0.457E-01   -.176E-02 0.583E-11 0.315E-03   -.162E-03 -.426E-09 0.866E-03
   0.104E+00 0.165E+00 -.300E+00   -.105E+00 -.165E+00 0.301E+00   -.116E-02 0.377E-03 -.133E-02   0.189E-02 -.813E-03 0.853E-03
   0.104E+00 0.300E+00 -.165E+00   -.105E+00 -.301E+00 0.165E+00   -.116E-02 0.133E-02 -.377E-03   0.189E-02 -.853E-03 0.813E-03
   0.955E-01 -.497E-08 -.360E-09   -.969E-01 0.528E-08 0.343E-09   0.214E-03 0.401E-21 -.206E-21   0.118E-02 0.180E-09 -.140E-09
   0.595E+00 -.122E-08 -.527E-02   -.599E+00 0.853E-09 0.472E-02   0.239E-02 -.647E-12 -.349E-04   0.976E-03 -.460E-09 0.612E-03
   0.174E+01 0.147E-01 -.147E-01   -.174E+01 -.144E-01 0.144E-01   0.638E-02 0.951E-04 -.951E-04   -.250E-02 -.496E-03 0.496E-03
   0.595E+00 0.527E-02 -.120E-08   -.599E+00 -.472E-02 0.764E-09   0.239E-02 0.349E-04 -.214E-20   0.975E-03 -.612E-03 -.356E-09
   0.211E+00 -.139E-07 0.170E-02   -.213E+00 0.144E-07 -.455E-03   0.102E-02 0.342E-12 0.185E-04   0.151E-02 0.435E-09 -.128E-02
   0.110E+00 0.162E+00 0.299E+00   -.109E+00 -.164E+00 -.301E+00   -.116E-02 0.415E-03 0.144E-02   0.373E-03 0.139E-02 0.619E-03
   -.102E+01 0.473E-07 0.273E+01   0.101E+01 -.499E-07 -.273E+01   0.151E-01 -.198E-09 -.107E-01   -.127E-02 -.492E-09 -.431E-03
   -.102E+01 -.273E+01 0.891E-08   0.101E+01 0.273E+01 0.351E-09   0.151E-01 0.107E-01 0.182E-20   -.127E-02 0.431E-03 0.203E-09
   0.110E+00 -.299E+00 -.162E+00   -.109E+00 0.301E+00 0.164E+00   -.116E-02 -.144E-02 -.415E-03   0.373E-03 -.619E-03 -.139E-02
   0.628E-01 -.180E-09 -.443E-01   -.619E-01 0.166E-09 0.458E-01   -.146E-03 0.212E-11 0.114E-03   -.882E-03 -.197E-10 -.160E-02
   -.978E-01 0.709E-01 0.709E-01   0.992E-01 -.727E-01 -.727E-01   -.282E-03 0.116E-03 0.116E-03   -.120E-02 0.170E-02 0.170E-02
   -.512E+00 0.301E+00 0.301E+00   0.514E+00 -.303E+00 -.303E+00   -.161E-02 0.148E-02 0.148E-02   0.895E-04 0.674E-03 0.674E-03
   -.149E+01 0.167E-08 -.305E-05   0.151E+01 -.473E-09 -.473E-09   -.202E-01 -.970E-21 0.861E-21   0.545E-02 0.545E-09 0.544E-09
   -.512E+00 -.301E+00 -.301E+00   0.514E+00 0.303E+00 0.303E+00   -.161E-02 -.148E-02 -.148E-02   0.895E-04 -.674E-03 -.674E-03
   -.978E-01 -.709E-01 -.709E-01   0.992E-01 0.727E-01 0.727E-01   -.282E-03 -.116E-03 -.116E-03   -.120E-02 -.170E-02 -.170E-02
   -.527E-01 0.247E-08 0.244E-08   0.529E-01 -.249E-08 -.249E-08   0.460E-03 -.122E-20 0.489E-21   -.598E-03 -.142E-09 -.142E-09
   -.253E+00 -.134E-04 -.871E-03   0.256E+00 -.899E-03 -.456E-03   -.185E-02 0.521E-05 -.202E-04   -.139E-02 0.921E-03 0.138E-02
   -.610E+00 0.785E-03 0.999E-09   0.611E+00 -.172E-02 -.874E-09   0.161E-02 -.375E-04 -.882E-21   -.346E-02 0.995E-03 0.639E-09
   -.610E+00 0.101E-08 -.785E-03   0.611E+00 -.841E-09 0.172E-02   0.161E-02 0.694E-12 0.375E-04   -.346E-02 0.704E-09 -.995E-03
   -.253E+00 0.871E-03 0.134E-04   0.256E+00 0.456E-03 0.899E-03   -.185E-02 0.202E-04 -.521E-05   -.139E-02 -.138E-02 -.921E-03
   -.124E+00 0.503E-03 0.596E-08   0.123E+00 0.278E-03 -.607E-08   0.334E-03 0.220E-04 0.802E-21   0.230E-03 -.794E-03 -.329E-09
   0.598E-01 -.532E-10 -.465E-01   -.604E-01 0.739E-10 0.459E-01   -.141E-03 0.149E-11 0.803E-04   0.635E-03 -.532E-11 0.501E-03
   0.205E+00 0.173E-02 -.173E-02   -.206E+00 -.696E-03 0.696E-03   -.563E-03 -.118E-04 0.118E-04   0.134E-02 -.104E-02 0.104E-02
   0.211E+00 -.139E-07 -.170E-02   -.213E+00 0.144E-07 0.455E-03   0.102E-02 -.342E-12 -.185E-04   0.151E-02 0.492E-09 0.128E-02
   0.110E+00 -.162E+00 0.299E+00   -.109E+00 0.164E+00 -.301E+00   -.116E-02 -.415E-03 0.144E-02   0.373E-03 -.139E-02 0.619E-03
   0.110E+00 -.299E+00 0.162E+00   -.109E+00 0.301E+00 -.164E+00   -.116E-02 -.144E-02 0.415E-03   0.373E-03 -.619E-03 0.139E-02
   0.997E-01 -.520E-08 -.372E-09   -.997E-01 0.549E-08 0.353E-09   0.183E-03 0.184E-20 -.321E-21   -.229E-03 0.158E-09 -.843E-10
   -.254E+00 0.485E-08 0.250E+00   0.252E+00 -.487E-08 -.247E+00   0.402E-02 -.891E-10 -.482E-02   -.171E-02 0.107E-09 0.202E-02
   -.512E+00 -.301E+00 0.301E+00   0.514E+00 0.303E+00 -.303E+00   -.161E-02 -.148E-02 0.148E-02   0.895E-04 -.674E-03 0.674E-03
   -.254E+00 -.250E+00 0.791E-09   0.252E+00 0.247E+00 -.471E-09   0.402E-02 0.482E-02 -.113E-20   -.171E-02 -.202E-02 0.521E-09
   -.101E+00 0.949E-08 -.445E-01   0.104E+00 -.967E-08 0.460E-01   -.170E-02 0.646E-11 0.349E-03   -.123E-02 -.451E-09 -.191E-02
   -.253E+00 -.871E-03 -.134E-04   0.256E+00 -.456E-03 -.899E-03   -.185E-02 -.202E-04 0.521E-05   -.139E-02 0.138E-02 0.921E-03
   -.610E+00 0.110E-08 0.785E-03   0.611E+00 -.906E-09 -.172E-02   0.161E-02 -.694E-12 -.375E-04   -.346E-02 0.658E-09 0.995E-03
   -.610E+00 -.785E-03 0.964E-09   0.611E+00 0.172E-02 -.873E-09   0.161E-02 0.375E-04 -.158E-20   -.346E-02 -.995E-03 0.722E-09
   -.253E+00 0.134E-04 0.871E-03   0.256E+00 0.899E-03 0.456E-03   -.185E-02 -.521E-05 0.202E-04   -.139E-02 -.921E-03 -.138E-02
   -.124E+00 0.600E-08 0.503E-03   0.123E+00 -.606E-08 0.278E-03   0.334E-03 0.406E-12 0.220E-04   0.230E-03 -.343E-09 -.794E-03
   0.628E-01 -.566E-08 0.443E-01   -.619E-01 0.583E-08 -.458E-01   -.146E-03 -.212E-11 -.114E-03   -.882E-03 0.270E-09 0.160E-02
   -.978E-01 -.709E-01 0.709E-01   0.992E-01 0.727E-01 -.727E-01   -.282E-03 -.116E-03 0.116E-03   -.120E-02 -.170E-02 0.170E-02
   -.101E+00 0.398E-08 0.445E-01   0.104E+00 -.397E-08 -.460E-01   -.170E-02 -.646E-11 -.349E-03   -.123E-02 -.174E-09 0.191E-02
   -.253E+00 0.871E-03 -.134E-04   0.256E+00 0.456E-03 -.899E-03   -.185E-02 0.202E-04 0.521E-05   -.139E-02 -.138E-02 0.921E-03
   -.253E+00 0.134E-04 -.871E-03   0.256E+00 0.899E-03 -.456E-03   -.185E-02 -.521E-05 -.202E-04   -.139E-02 -.921E-03 0.138E-02
   -.206E+00 0.119E-07 0.809E-09   0.203E+00 -.120E-07 -.697E-09   0.381E-02 -.123E-19 -.218E-20   -.105E-02 -.570E-09 0.290E-09
   -.124E+00 0.600E-08 -.503E-03   0.123E+00 -.604E-08 -.278E-03   0.334E-03 -.406E-12 -.220E-04   0.230E-03 -.328E-09 0.794E-03
 -----------------------------------------------------------------------------------------------
   0.239E-02 0.191E-09 0.217E-07   -.480E-11 -.161E-11 -.424E-11   -.587E-03 0.147E-18 0.425E-17   -.302E-02 -.575E-10 -.570E-10
 
 
 POSITION                                       TOTAL-FORCE (eV/Angst)
 -----------------------------------------------------------------------------------
      7.56506      7.56506      3.78253        -0.000060      0.000009     -0.000009
      7.56506      9.45633      5.67380         0.000070      0.000041     -0.000000
      9.45633      7.56506      5.67380        -0.000080      0.000023     -0.000000
      7.56506      7.56506      0.00000        -0.000037     -0.000000      0.000000
      7.56506      9.45633      1.89127         0.000613      0.000304     -0.000304
      7.56506      0.00000      3.78253        -0.000037      0.000000      0.000000
      7.56506      1.89127      5.67380         0.000070     -0.000041     -0.000000
      9.45633      7.56506      1.89127         0.000308      0.000301     -0.000100
      9.45633      9.45633      3.78253         0.000308      0.000100     -0.000301
      9.45633      0.00000      5.67380        -0.000024     -0.000000      0.000000
      0.00000      7.56506      3.78253         0.000035      0.000019     -0.000019
      0.00000      9.45633      5.67380         0.000109      0.000025     -0.000000
      1.89127      7.56506      5.67380        -0.000104     -0.000005      0.000000
      7.56506      7.56506      7.56506        -0.000060      0.000009      0.000009
      7.56506      9.45633      9.45633         0.000613      0.000304      0.000304
      7.56506      0.00000      0.00000         0.000929      0.000000      0.000000
      7.56506      1.89127      1.89127         0.000613     -0.000304     -0.000304
      7.56506      3.78253      3.78253        -0.000060     -0.000009     -0.000009
      7.56506      5.67380      5.67380         0.000063     -0.000000     -0.000000
      9.45633      7.56506      9.45633         0.000308      0.000301      0.000100
      9.45633      9.45633      0.00000         0.008171      0.008548     -0.000000
      9.45633      0.00000      1.89127         0.008171     -0.000000     -0.008548
      9.45633      1.89127      3.78253         0.000308     -0.000100     -0.000301
      9.45633      3.78253      5.67380        -0.000080     -0.000023     -0.000000
      0.00000      7.56506      0.00000        -0.000433      0.000026      0.000000
      0.00000      9.45633      1.89127        -0.000399      0.000045     -0.000045
      0.00000      0.00000      3.78253        -0.000433     -0.000000     -0.000026
      0.00000      1.89127      5.67380         0.000109     -0.000025      0.000000
      1.89127      7.56506      1.89127         0.000278     -0.000263      0.000057
      1.89127      9.45633      3.78253         0.000278     -0.000057      0.000263
      1.89127      0.00000      5.67380        -0.000051     -0.000000     -0.000000
      3.78253      7.56506      3.78253        -0.000073      0.000007     -0.000007
      3.78253      9.45633      5.67380         0.000064      0.000015     -0.000000
      5.67380      7.56506      5.67380         0.000042     -0.000009      0.000000
      7.56506      0.00000      7.56506        -0.000037     -0.000000     -0.000000
      7.56506      1.89127      9.45633         0.000613     -0.000304      0.000304
      7.56506      3.78253      0.00000        -0.000037      0.000000     -0.000000
      7.56506      5.67380      1.89127         0.000070     -0.000000     -0.000041
      9.45633      9.45633      7.56506         0.000308      0.000100      0.000301
      9.45633      0.00000      9.45633         0.008171      0.000000      0.008548
      9.45633      1.89127      0.00000         0.008171     -0.008548      0.000000
      9.45633      3.78253      1.89127         0.000308     -0.000301     -0.000100
      9.45633      5.67380      3.78253        -0.000080     -0.000000     -0.000023
      0.00000      7.56506      7.56506         0.000035      0.000019      0.000019
      0.00000      9.45633      9.45633        -0.000399      0.000045      0.000045
      0.01999      0.00000      0.00000        -0.074850     -0.000000     -0.000000
      0.00000      1.89127      1.89127        -0.000399     -0.000045     -0.000045
      0.00000      3.78253      3.78253         0.000035     -0.000019     -0.000019
      0.00000      5.67380      5.67380        -0.000185     -0.000000      0.000000
      1.89127      7.56506      9.45633         0.000278     -0.000263     -0.000057
      1.89127      9.45633      0.00000         0.008809     -0.009405     -0.000000
      1.89127      0.00000      1.89127         0.008809      0.000000      0.009405
      1.89127      1.89127      3.78253         0.000278      0.000057      0.000263
      1.89127      3.78253      5.67380        -0.000104      0.000005      0.000000
      3.78253      7.56506      0.00000        -0.000046      0.000011      0.000000
      3.78253      9.45633      1.89127         0.000604     -0.000273      0.000273
      3.78253      0.00000      3.78253        -0.000046     -0.000000     -0.000011
      3.78253      1.89127      5.67380         0.000064     -0.000015     -0.000000
      5.67380      7.56506      1.89127         0.000109      0.000014     -0.000032
      5.67380      9.45633      3.78253         0.000109      0.000032     -0.000014
      5.67380      0.00000      5.67380         0.000253     -0.000000      0.000000
      7.56506      3.78253      7.56506        -0.000060     -0.000009      0.000009
      7.56506      5.67380      9.45633         0.000070      0.000000      0.000041
      9.45633      1.89127      7.56506         0.000308     -0.000100      0.000301
      9.45633      3.78253      9.45633         0.000308     -0.000301      0.000100
      9.45633      5.67380      0.00000        -0.000024     -0.000000     -0.000000
      0.00000      0.00000      7.56506        -0.000433      0.000000      0.000026
      0.00000      1.89127      9.45633        -0.000399     -0.000045      0.000045
      0.00000      3.78253      0.00000        -0.000433     -0.000026     -0.000000
      0.00000      5.67380      1.89127         0.000109     -0.000000     -0.000025
      1.89127      9.45633      7.56506         0.000278     -0.000057     -0.000263
      1.89127      0.00000      9.45633         0.008809     -0.000000     -0.009405
      1.89127      1.89127      0.00000         0.008809      0.009405     -0.000000
      1.89127      3.78253      1.89127         0.000278      0.000263      0.000057
      1.89127      5.67380      3.78253        -0.000104      0.000000      0.000005
      3.78253      7.56506      7.56506        -0.000073      0.000007      0.000007
      3.78253      9.45633      9.45633         0.000604     -0.000273     -0.000273
      3.78253      0.00000      0.00000         0.000914     -0.000000      0.000000
      3.78253      1.89127      1.89127         0.000604      0.000273      0.000273
      3.78253      3.78253      3.78253        -0.000073     -0.000007     -0.000007
      3.78253      5.67380      5.67380         0.000082      0.000000     -0.000000
      5.67380      7.56506      9.45633         0.000109      0.000014      0.000032
      5.67380      9.45633      0.00000        -0.000501      0.000023     -0.000000
      5.67380      0.00000      1.89127        -0.000501     -0.000000     -0.000023
      5.67380      1.89127      3.78253         0.000109     -0.000032     -0.000014
      5.67380      3.78253      5.67380         0.000042      0.000009      0.000000
      9.45633      5.67380      7.56506        -0.000080      0.000000      0.000023
      0.00000      3.78253      7.56506         0.000035     -0.000019      0.000019
      0.00000      5.67380      9.45633         0.000109      0.000000      0.000025
      1.89127      1.89127      7.56506         0.000278      0.000057     -0.000263
      1.89127      3.78253      9.45633         0.000278      0.000263     -0.000057
      1.89127      5.67380      0.00000        -0.000051      0.000000     -0.000000
      3.78253      0.00000      7.56506        -0.000046      0.000000      0.000011
      3.78253      1.89127      9.45633         0.000604      0.000273     -0.000273
      3.78253      3.78253      0.00000        -0.000046     -0.000011      0.000000
      3.78253      5.67380      1.89127         0.000064     -0.000000     -0.000015
      5.67380      9.45633      7.56506         0.000109      0.000032      0.000014
      5.67380      0.00000      9.45633        -0.000501      0.000000      0.000023
      5.67380      1.89127      0.00000        -0.000501     -0.000023     -0.000000
      5.67380      3.78253      1.89127         0.000109     -0.000014     -0.000032
      5.67380      5.67380      3.78253         0.000042      0.000000      0.000009
      1.89127      5.67380      7.56506        -0.000104     -0.000000     -0.000005
      3.78253      3.78253      7.56506        -0.000073     -0.000007      0.000007
      3.78253      5.67380      9.45633         0.000064      0.000000      0.000015
      5.67380      1.89127      7.56506         0.000109     -0.000032      0.000014
      5.67380      3.78253      9.45633         0.000109     -0.000014      0.000032
      5.67380      5.67380      0.00000         0.000253      0.000000      0.000000
      5.67380      5.67380      7.56506         0.000042     -0.000000     -0.000009
 -----------------------------------------------------------------------------------
    total drift:                               -0.001218      0.000000      0.000000


--------------------------------------------------------------------------------------------------------



 mean value of Nose-termostat <S>:     1.000 mean value of <T> :     0.000
 mean temperature <T/S>/<1/S>  :     0.000

     LOOP+:  VPU time13320.16: CPU time13314.94

 ----------------------------------------------------------------------------- 
|                                                                             |
|           W    W    AA    RRRRR   N    N  II  N    N   GGGG   !!!           |
|           W    W   A  A   R    R  NN   N  II  NN   N  G    G  !!!           |
|           W    W  A    A  R    R  N N  N  II  N N  N  G       !!!           |
|           W WW W  AAAAAA  RRRRR   N  N N  II  N  N N  G  GGG   !            |
|           WW  WW  A    A  R   R   N   NN  II  N   NN  G    G                |
|           W    W  A    A  R    R  N    N  II  N    N   GGGG   !!!           |
|                                                                             |
|      The partial DOS and the PROCAR file are not evaluated for NPAR/=1      |
|      please rerun with NPAR=1                                               |
|                                                                             |
 ----------------------------------------------------------------------------- 

  
  
 General timing and accounting informations for this job:
 ========================================================
  
                  Total CPU time used (sec):    13764.361
                            User time (sec):    13391.604
                          System time (sec):      372.757
                         Elapsed time (sec):    13761.224
  
                   Maximum memory used (kb):     3509188.
                   Average memory used (kb):           0.
  
                          Minor page faults:      1192918
                          Major page faults:            0
                 Voluntary context switches:          935
