   32   32   60    1
  0.1215678E+02  0.7300000E-09  0.7300000E-09  0.7300000E-09  0.5000000E-15
  1.000000000000000E-004
  CAR 
 unknown system                          
  352   40  216
 
  0.0000000E+00  0.0000000E+00  0.0000000E+00  0.2915452E-02
   1       -5.5734
   2       -2.8416
   3       -2.8416
   4       -2.8416
   5       -2.8416
   6       -2.8416
   7       -2.8416
   8       -1.3529
   9       -1.3529
  10       -1.3529
  11       -1.3529
  12       -1.1511
  13       -1.1511
  14       -1.1511
  15       -0.9759
  16       -0.9759
  17       -0.9759
  18       -0.9759
  19       -0.9758
  20       -0.9758
  21       -0.9758
  22       -0.9758
  23       -0.9758
  24       -0.9758
  25       -0.9758
  26       -0.9758
  27       -0.7102
  28       -0.7102
  29       -0.7102
  30       -0.4283
  31       -0.4283
  32       -0.4283
  33       -0.4283
  34       -0.4283
  35       -0.4283
  36       -0.0511
  37       -0.0511
  38       -0.0511
  39       -0.0511
  40       -0.0510
  41       -0.0510
  42        0.1563
  43        0.1563
  44        0.1563
  45        0.1563
  46        0.1563
  47        0.1563
  48        0.1563
  49        0.1563
  50        0.1563
  51        0.1563
  52        0.1563
  53        0.1563
  54        0.1592
  55        0.1592
  56        0.1592
  57        0.1592
  58        0.1592
  59        0.1592
  60        0.1592
  61        0.1593
  62        0.1593
  63        0.1593
  64        0.1593
  65        0.1593
  66        0.3633
  67        0.3633
  68        0.3633
  69        0.3633
  70        0.3633
  71        0.3633
  72        0.3633
  73        0.3633
  74        0.3633
  75        0.3634
  76        0.3634
  77        0.3634
  78        0.6148
  79        0.6148
  80        0.6148
  81        0.6148
  82        0.6149
  83        0.6149
  84        0.6149
  85        0.6149
  86        0.6431
  87        0.6431
  88        0.6432
  89        1.0094
  90        1.0094
  91        1.0094
  92        1.0094
  93        1.0095
  94        1.0095
  95        1.1345
  96        1.1345
  97        1.1345
  98        1.1345
  99        1.1345
 100        1.1345
 101        1.1345
 102        1.1345
 103        1.1345
 104        1.1345
 105        1.1345
 106        1.1346
 107        1.2869
 108        1.2869
 109        1.2869
 110        1.2869
 111        1.2869
 112        1.2869
 113        1.2869
 114        1.2869
 115        1.2869
 116        1.2869
 117        1.2869
 118        1.2869
 119        1.4111
 120        1.4111
 121        1.4111
 122        1.4111
 123        1.4111
 124        1.4111
 125        1.4428
 126        1.4428
 127        1.4428
 128        1.4428
 129        1.4428
 130        1.4428
 131        1.4428
 132        1.4428
 133        1.4428
 134        1.4428
 135        1.4428
 136        1.4428
 137        1.4486
 138        1.4487
 139        1.7133
 140        1.7133
 141        1.7133
 142        1.7133
 143        1.7133
 144        1.7133
 145        1.9837
 146        1.9837
 147        1.9837
 148        1.9975
 149        1.9975
 150        1.9975
 151        1.9975
 152        1.9975
 153        1.9975
 154        1.9975
 155        1.9975
 156        2.1337
 157        2.1337
 158        2.1337
 159        2.1337
 160        2.1337
 161        2.1337
 162        2.1344
 163        2.1344
 164        2.1344
 165        2.1344
 166        2.1344
 167        2.1344
 168        2.6964
 169        2.6964
 170        2.6964
 171        2.6964
 172        3.3070
 173        3.3070
 174        3.3070
 175        3.3070
 176        3.3070
 177        3.3070
 178        3.3070
 179        3.3070
 180        3.3070
 181        3.3070
 182        3.3070
 183        3.3070
 184        5.1656
 185        5.1656
 186        5.1659
 187        7.3039
 188        7.3039
 189        7.3039
 190        7.3039
 191        9.7889
 192        9.7889
 193        9.7889
 194        9.7889
 195        9.7890
 196        9.7890
 197        9.7891
 198        9.7891
 199        9.7892
 200        9.7892
 201        9.7892
 202        9.7892
 203       10.6372
 204       10.6372
 205       10.6375
 206       11.8748
 207       11.8748
 208       11.8749
 209       11.8749
 210       11.8749
 211       11.8749
 212       12.3211
 213       12.3212
 214       12.3213
 215       12.3213
 216       12.3213
 
  0.1428571E+00  0.0000000E+00  0.0000000E+00  0.5830904E-02
   1       -5.5121
   2       -3.4936
   3       -2.7918
   4       -2.7918
   5       -2.7918
   6       -2.7918
   7       -2.2035
   8       -1.3412
   9       -1.3412
  10       -1.3412
  11       -1.3412
  12       -1.3391
  13       -1.3391
  14       -1.3391
  15       -1.3391
  16       -1.1516
  17       -1.1227
  18       -1.1227
  19       -1.0038
  20       -1.0038
  21       -1.0038
  22       -1.0038
  23       -0.6941
  24       -0.6932
  25       -0.6932
  26       -0.6656
  27       -0.6656
  28       -0.6656
  29       -0.6656
  30       -0.4759
  31       -0.4759
  32       -0.4063
  33       -0.4063
  34       -0.4063
  35       -0.4063
  36       -0.2007
  37       -0.0785
  38       -0.0785
  39       -0.0441
  40       -0.0441
  41       -0.0441
  42       -0.0441
  43        0.1003
  44        0.1289
  45        0.1289
  46        0.1289
  47        0.1289
  48        0.1328
  49        0.1328
  50        0.1328
  51        0.1328
  52        0.1586
  53        0.1586
  54        0.1586
  55        0.1586
  56        0.1776
  57        0.1776
  58        0.1776
  59        0.1776
  60        0.2253
  61        0.2253
  62        0.2253
  63        0.2253
  64        0.2366
  65        0.2366
  66        0.2366
  67        0.2366
  68        0.3776
  69        0.3776
  70        0.3776
  71        0.3776
  72        0.4286
  73        0.4286
  74        0.4549
  75        0.4549
  76        0.4549
  77        0.4549
  78        0.6035
  79        0.6035
  80        0.6035
  81        0.6035
  82        0.6253
  83        0.6304
  84        0.6304
  85        0.6304
  86        0.6304
  87        0.6574
  88        0.6574
  89        0.9352
  90        0.9352
  91        0.9352
  92        0.9352
  93        1.0377
  94        1.0746
  95        1.0746
  96        1.0746
  97        1.0746
  98        1.1024
  99        1.1296
 100        1.1296
 101        1.1460
 102        1.1460
 103        1.1460
 104        1.1460
 105        1.1864
 106        1.1864
 107        1.1864
 108        1.1864
 109        1.2868
 110        1.2868
 111        1.2868
 112        1.2868
 113        1.3467
 114        1.3467
 115        1.3467
 116        1.3467
 117        1.3723
 118        1.3723
 119        1.3723
 120        1.3723
 121        1.4112
 122        1.4112
 123        1.4112
 124        1.4112
 125        1.4325
 126        1.4514
 127        1.4514
 128        1.4539
 129        1.4539
 130        1.4552
 131        1.5045
 132        1.5045
 133        1.5045
 134        1.5045
 135        1.5400
 136        1.5400
 137        1.5400
 138        1.5400
 139        1.6539
 140        1.7336
 141        1.7336
 142        1.7336
 143        1.7336
 144        1.7730
 145        1.8027
 146        1.8027
 147        1.8027
 148        1.8027
 149        1.9627
 150        1.9627
 151        1.9768
 152        1.9802
 153        1.9802
 154        1.9802
 155        1.9802
 156        2.0274
 157        2.0274
 158        2.1077
 159        2.1077
 160        2.1077
 161        2.1077
 162        2.1089
 163        2.1089
 164        2.1337
 165        2.1337
 166        2.1344
 167        2.1344
 168        2.8225
 169        2.8225
 170        2.8225
 171        2.8225
 172        2.8711
 173        2.8711
 174        2.8711
 175        2.8711
 176        3.3000
 177        3.3000
 178        3.3000
 179        3.3000
 180        3.8769
 181        3.8769
 182        3.8769
 183        3.8769
 184        4.7714
 185        5.3270
 186        5.3270
 187        7.4800
 188        7.4800
 189        7.4800
 190        7.4800
 191        8.8243
 192        8.8243
 193        9.0317
 194        9.0317
 195        9.0317
 196        9.0317
 197        9.8714
 198        9.8714
 199        9.8714
 200        9.8714
 201       10.6603
 202       10.6603
 203       10.8133
 204       10.8133
 205       11.1546
 206       11.6094
 207       11.6094
 208       12.1209
 209       12.1209
 210       12.1209
 211       12.1209
 212       12.2646
 213       12.2646
 214       12.2646
 215       12.2646
 216       12.4195
 
  0.2857143E+00  0.0000000E+00  0.0000000E+00  0.5830904E-02
   1       -5.3290
   2       -4.0953
   3       -2.6445
   4       -2.6445
   5       -2.6445
   6       -2.6445
   7       -1.7275
   8       -1.7275
   9       -1.7275
  10       -1.7275
  11       -1.6813
  12       -1.2990
  13       -1.2990
  14       -1.2990
  15       -1.2990
  16       -1.1615
  17       -1.0729
  18       -1.0729
  19       -1.0729
  20       -1.0729
  21       -1.0402
  22       -1.0402
  23       -0.6464
  24       -0.6419
  25       -0.6419
  26       -0.5992
  27       -0.5992
  28       -0.4242
  29       -0.4242
  30       -0.4242
  31       -0.4242
  32       -0.3437
  33       -0.3437
  34       -0.3437
  35       -0.3437
  36       -0.3412
  37       -0.2750
  38       -0.2750
  39       -0.0238
  40       -0.0238
  41       -0.0238
  42       -0.0238
  43        0.0667
  44        0.0667
  45        0.0667
  46        0.0667
  47        0.0897
  48        0.0897
  49        0.0897
  50        0.0897
  51        0.0908
  52        0.0908
  53        0.0908
  54        0.0908
  55        0.1651
  56        0.1651
  57        0.1651
  58        0.1651
  59        0.1840
  60        0.1840
  61        0.1840
  62        0.1840
  63        0.2458
  64        0.3984
  65        0.3984
  66        0.3984
  67        0.3984
  68        0.4281
  69        0.4281
  70        0.4281
  71        0.4281
  72        0.5238
  73        0.5238
  74        0.5238
  75        0.5238
  76        0.5711
  77        0.5711
  78        0.5711
  79        0.5711
  80        0.5728
  81        0.6765
  82        0.6765
  83        0.6765
  84        0.6765
  85        0.7003
  86        0.7003
  87        0.7360
  88        0.7360
  89        0.8089
  90        0.8089
  91        0.8089
  92        0.8089
  93        0.9616
  94        0.9616
  95        0.9616
  96        0.9616
  97        0.9882
  98        0.9882
  99        1.1199
 100        1.2137
 101        1.2137
 102        1.2137
 103        1.2137
 104        1.2678
 105        1.2678
 106        1.2678
 107        1.2678
 108        1.2872
 109        1.2872
 110        1.2872
 111        1.2872
 112        1.3272
 113        1.3272
 114        1.3272
 115        1.3272
 116        1.3852
 117        1.4003
 118        1.4003
 119        1.4003
 120        1.4003
 121        1.4066
 122        1.4066
 123        1.4066
 124        1.4066
 125        1.4179
 126        1.4298
 127        1.4298
 128        1.4298
 129        1.4298
 130        1.4746
 131        1.5540
 132        1.5540
 133        1.5978
 134        1.6223
 135        1.6223
 136        1.6223
 137        1.6223
 138        1.6227
 139        1.6227
 140        1.6595
 141        1.6595
 142        1.6595
 143        1.6595
 144        1.7611
 145        1.7611
 146        1.8256
 147        1.8256
 148        1.8256
 149        1.8256
 150        1.8299
 151        1.9013
 152        1.9013
 153        1.9293
 154        1.9293
 155        1.9293
 156        1.9293
 157        1.9566
 158        2.0325
 159        2.0325
 160        2.0325
 161        2.0325
 162        2.0371
 163        2.0371
 164        2.1338
 165        2.1338
 166        2.1343
 167        2.1343
 168        2.5276
 169        2.5276
 170        2.5276
 171        2.5276
 172        3.0097
 173        3.0097
 174        3.0097
 175        3.0097
 176        3.2766
 177        3.2766
 178        3.2766
 179        3.2766
 180        3.8863
 181        4.6139
 182        4.6139
 183        4.6139
 184        4.6139
 185        5.7579
 186        5.7579
 187        7.7978
 188        7.7978
 189        7.7978
 190        7.7978
 191        7.9255
 192        7.9255
 193        7.9874
 194        7.9874
 195        7.9874
 196        7.9874
 197       10.1145
 198       10.1145
 199       10.1145
 200       10.1145
 201       10.7312
 202       10.7312
 203       10.9671
 204       10.9671
 205       10.9671
 206       10.9671
 207       11.2889
 208       11.2889
 209       11.6726
 210       11.6726
 211       11.6726
 212       11.6726
 213       11.8907
 214       11.8907
 215       12.2905
 216       12.2905
 
  0.4285714E+00  0.0000000E+00  0.0000000E+00  0.5830904E-02
   1       -5.0273
   2       -4.6126
   3       -2.4072
   4       -2.4072
   5       -2.4072
   6       -2.4072
   7       -2.0939
   8       -2.0939
   9       -2.0939
  10       -2.0939
  11       -1.3574
  12       -1.2360
  13       -1.2360
  14       -1.2360
  15       -1.2360
  16       -1.2104
  17       -1.1568
  18       -1.1568
  19       -1.1568
  20       -1.1568
  21       -0.9129
  22       -0.9129
  23       -0.7572
  24       -0.7572
  25       -0.5693
  26       -0.5558
  27       -0.5558
  28       -0.4660
  29       -0.4338
  30       -0.4338
  31       -0.2595
  32       -0.2595
  33       -0.2595
  34       -0.2595
  35       -0.2577
  36       -0.2577
  37       -0.2577
  38       -0.2577
  39       -0.0350
  40       -0.0350
  41       -0.0350
  42       -0.0350
  43       -0.0242
  44       -0.0242
  45       -0.0242
  46       -0.0242
  47        0.0078
  48        0.0078
  49        0.0078
  50        0.0078
  51        0.0473
  52        0.0473
  53        0.0473
  54        0.0473
  55        0.1737
  56        0.1737
  57        0.1737
  58        0.1737
  59        0.1814
  60        0.1814
  61        0.1814
  62        0.1814
  63        0.3776
  64        0.4661
  65        0.4661
  66        0.4661
  67        0.4661
  68        0.4886
  69        0.5226
  70        0.5226
  71        0.5226
  72        0.5226
  73        0.5975
  74        0.5975
  75        0.5975
  76        0.5975
  77        0.6919
  78        0.6919
  79        0.6919
  80        0.6919
  81        0.6924
  82        0.6924
  83        0.6924
  84        0.6924
  85        0.7505
  86        0.7505
  87        0.7505
  88        0.7505
  89        0.7707
  90        0.7707
  91        0.8481
  92        0.8481
  93        0.8481
  94        0.8481
  95        0.8675
  96        0.8675
  97        1.0408
  98        1.0408
  99        1.0408
 100        1.0408
 101        1.0722
 102        1.0722
 103        1.2183
 104        1.2909
 105        1.2909
 106        1.2909
 107        1.2909
 108        1.3016
 109        1.3016
 110        1.3016
 111        1.3016
 112        1.3023
 113        1.3023
 114        1.3023
 115        1.3023
 116        1.3112
 117        1.3405
 118        1.3405
 119        1.3405
 120        1.3405
 121        1.3751
 122        1.3751
 123        1.3751
 124        1.3751
 125        1.3865
 126        1.3865
 127        1.3865
 128        1.3865
 129        1.4235
 130        1.4235
 131        1.5059
 132        1.5476
 133        1.6821
 134        1.6821
 135        1.7429
 136        1.7429
 137        1.7429
 138        1.7429
 139        1.7835
 140        1.7835
 141        1.7914
 142        1.7914
 143        1.7914
 144        1.7914
 145        1.8043
 146        1.8043
 147        1.8482
 148        1.8482
 149        1.8482
 150        1.8482
 151        1.8812
 152        1.9214
 153        1.9214
 154        1.9214
 155        1.9214
 156        1.9242
 157        1.9253
 158        1.9253
 159        2.0063
 160        2.0063
 161        2.0063
 162        2.0063
 163        2.0317
 164        2.1340
 165        2.1340
 166        2.1341
 167        2.1341
 168        2.2440
 169        2.2440
 170        2.2440
 171        2.2440
 172        2.9004
 173        3.1458
 174        3.1458
 175        3.1458
 176        3.1458
 177        3.2295
 178        3.2295
 179        3.2295
 180        3.2295
 181        5.5266
 182        5.5266
 183        5.5266
 184        5.5266
 185        6.3691
 186        6.3691
 187        6.5996
 188        6.5996
 189        6.5996
 190        6.5996
 191        7.1018
 192        7.1018
 193        8.7749
 194        8.7749
 195        8.7749
 196        8.7749
 197        9.7849
 198        9.7849
 199        9.7849
 200        9.7849
 201       10.5059
 202       10.5059
 203       10.5059
 204       10.5059
 205       10.8546
 206       10.8546
 207       11.0304
 208       11.0304
 209       11.0304
 210       11.0304
 211       11.0378
 212       11.0378
 213       12.5266
 214       12.5266
 215       12.5266
 216       12.5266
 
  0.0000000E+00  0.1428571E+00  0.0000000E+00  0.1166181E-01
   1       -5.5121
   2       -3.4937
   3       -2.7918
   4       -2.7918
   5       -2.7917
   6       -2.7917
   7       -2.2036
   8       -1.3412
   9       -1.3412
  10       -1.3412
  11       -1.3412
  12       -1.3391
  13       -1.3391
  14       -1.3391
  15       -1.3391
  16       -1.1516
  17       -1.1227
  18       -1.1227
  19       -1.0038
  20       -1.0038
  21       -1.0038
  22       -1.0038
  23       -0.6941
  24       -0.6932
  25       -0.6932
  26       -0.6656
  27       -0.6656
  28       -0.6656
  29       -0.6656
  30       -0.4760
  31       -0.4760
  32       -0.4064
  33       -0.4063
  34       -0.4063
  35       -0.4063
  36       -0.2007
  37       -0.0785
  38       -0.0785
  39       -0.0441
  40       -0.0441
  41       -0.0441
  42       -0.0440
  43        0.1003
  44        0.1289
  45        0.1289
  46        0.1289
  47        0.1289
  48        0.1327
  49        0.1328
  50        0.1328
  51        0.1328
  52        0.1586
  53        0.1586
  54        0.1587
  55        0.1587
  56        0.1776
  57        0.1776
  58        0.1776
  59        0.1776
  60        0.2253
  61        0.2253
  62        0.2253
  63        0.2253
  64        0.2366
  65        0.2366
  66        0.2366
  67        0.2366
  68        0.3776
  69        0.3776
  70        0.3776
  71        0.3776
  72        0.4286
  73        0.4286
  74        0.4549
  75        0.4549
  76        0.4549
  77        0.4549
  78        0.6035
  79        0.6035
  80        0.6035
  81        0.6035
  82        0.6252
  83        0.6305
  84        0.6305
  85        0.6305
  86        0.6305
  87        0.6574
  88        0.6575
  89        0.9352
  90        0.9352
  91        0.9353
  92        0.9353
  93        1.0376
  94        1.0746
  95        1.0746
  96        1.0746
  97        1.0746
  98        1.1023
  99        1.1296
 100        1.1296
 101        1.1459
 102        1.1460
 103        1.1460
 104        1.1460
 105        1.1863
 106        1.1863
 107        1.1863
 108        1.1864
 109        1.2868
 110        1.2868
 111        1.2868
 112        1.2868
 113        1.3467
 114        1.3467
 115        1.3467
 116        1.3467
 117        1.3723
 118        1.3723
 119        1.3723
 120        1.3724
 121        1.4112
 122        1.4112
 123        1.4112
 124        1.4112
 125        1.4324
 126        1.4514
 127        1.4514
 128        1.4540
 129        1.4540
 130        1.4552
 131        1.5045
 132        1.5045
 133        1.5045
 134        1.5045
 135        1.5399
 136        1.5399
 137        1.5400
 138        1.5400
 139        1.6540
 140        1.7336
 141        1.7336
 142        1.7336
 143        1.7336
 144        1.7730
 145        1.8027
 146        1.8027
 147        1.8027
 148        1.8027
 149        1.9627
 150        1.9627
 151        1.9768
 152        1.9802
 153        1.9802
 154        1.9802
 155        1.9802
 156        2.0273
 157        2.0274
 158        2.1077
 159        2.1077
 160        2.1077
 161        2.1077
 162        2.1089
 163        2.1090
 164        2.1337
 165        2.1338
 166        2.1344
 167        2.1344
 168        2.8225
 169        2.8225
 170        2.8225
 171        2.8225
 172        2.8711
 173        2.8711
 174        2.8711
 175        2.8712
 176        3.3000
 177        3.3000
 178        3.3000
 179        3.3000
 180        3.8768
 181        3.8768
 182        3.8769
 183        3.8769
 184        4.7711
 185        5.3270
 186        5.3272
 187        7.4799
 188        7.4800
 189        7.4800
 190        7.4800
 191        8.8242
 192        8.8244
 193        9.0314
 194        9.0314
 195        9.0315
 196        9.0315
 197        9.8716
 198        9.8716
 199        9.8717
 200        9.8717
 201       10.6603
 202       10.6606
 203       10.8132
 204       10.8134
 205       11.1542
 206       11.6094
 207       11.6097
 208       12.1209
 209       12.1209
 210       12.1212
 211       12.1212
 212       12.2644
 213       12.2644
 214       12.2644
 215       12.2644
 216       12.4196
 
  0.1428571E+00  0.1428571E+00  0.0000000E+00  0.2332362E-01
   1       -5.4509
   2       -3.4403
   3       -3.4403
   4       -2.7429
   5       -2.7429
   6       -2.1579
   7       -2.1578
   8       -1.8031
   9       -1.3748
  10       -1.3748
  11       -1.3456
  12       -1.3456
  13       -1.3456
  14       -1.3456
  15       -1.2790
  16       -1.2790
  17       -1.1227
  18       -1.1226
  19       -1.0948
  20       -0.9230
  21       -0.9230
  22       -0.7148
  23       -0.7148
  24       -0.7147
  25       -0.7147
  26       -0.6773
  27       -0.6773
  28       -0.6766
  29       -0.4759
  30       -0.4586
  31       -0.4585
  32       -0.4527
  33       -0.4527
  34       -0.3840
  35       -0.3840
  36       -0.1913
  37       -0.1913
  38       -0.0904
  39       -0.0903
  40       -0.0719
  41       -0.0719
  42       -0.0365
  43       -0.0365
  44        0.0781
  45        0.0781
  46        0.0961
  47        0.0961
  48        0.1048
  49        0.1048
  50        0.1311
  51        0.1495
  52        0.1810
  53        0.1810
  54        0.1810
  55        0.1810
  56        0.1934
  57        0.1934
  58        0.2287
  59        0.2287
  60        0.2287
  61        0.2287
  62        0.2528
  63        0.2759
  64        0.2759
  65        0.2759
  66        0.2759
  67        0.3199
  68        0.3199
  69        0.3961
  70        0.3961
  71        0.4254
  72        0.4254
  73        0.4653
  74        0.4653
  75        0.4653
  76        0.4653
  77        0.5641
  78        0.5689
  79        0.5689
  80        0.6083
  81        0.6083
  82        0.6152
  83        0.6416
  84        0.6416
  85        0.6571
  86        0.6571
  87        0.6643
  88        0.6707
  89        0.8892
  90        0.8892
  91        0.9533
  92        0.9533
  93        0.9984
  94        0.9984
  95        1.0732
  96        1.0732
  97        1.0732
  98        1.0732
  99        1.1150
 100        1.1297
 101        1.1297
 102        1.1306
 103        1.1306
 104        1.1307
 105        1.1307
 106        1.2074
 107        1.2074
 108        1.2079
 109        1.2294
 110        1.2294
 111        1.2370
 112        1.2370
 113        1.2735
 114        1.4078
 115        1.4078
 116        1.4279
 117        1.4391
 118        1.4391
 119        1.4471
 120        1.4471
 121        1.4500
 122        1.4500
 123        1.4500
 124        1.4500
 125        1.4511
 126        1.4536
 127        1.4536
 128        1.4552
 129        1.4552
 130        1.4964
 131        1.4964
 132        1.5295
 133        1.5295
 134        1.5910
 135        1.5910
 136        1.5944
 137        1.5944
 138        1.5944
 139        1.5944
 140        1.6067
 141        1.6656
 142        1.6657
 143        1.7158
 144        1.7158
 145        1.7430
 146        1.7430
 147        1.8083
 148        1.8083
 149        1.9424
 150        1.9424
 151        1.9425
 152        1.9460
 153        1.9889
 154        1.9889
 155        1.9913
 156        1.9913
 157        2.0120
 158        2.0120
 159        2.0848
 160        2.0848
 161        2.1073
 162        2.1073
 163        2.1081
 164        2.1081
 165        2.1089
 166        2.1089
 167        2.1179
 168        2.5197
 169        2.5676
 170        2.5676
 171        2.8600
 172        2.8600
 173        2.8601
 174        2.8601
 175        3.2321
 176        3.2321
 177        3.3487
 178        3.3488
 179        3.8779
 180        3.8779
 181        3.8780
 182        3.8780
 183        4.5346
 184        4.9302
 185        4.9305
 186        5.4793
 187        7.3372
 188        7.3372
 189        7.9303
 190        7.9303
 191        8.1696
 192        8.1698
 193        8.9118
 194        8.9119
 195        8.9268
 196        8.9268
 197        9.2999
 198        9.2999
 199        9.9416
 200        9.9418
 201       10.6835
 202       10.8921
 203       10.8922
 204       11.1837
 205       11.1841
 206       11.4868
 207       11.4868
 208       11.4870
 209       11.4870
 210       11.5590
 211       11.7032
 212       11.7033
 213       12.3426
 214       12.3428
 215       12.7868
 216       12.7868
 
  0.2857143E+00  0.1428571E+00  0.0000000E+00  0.2332362E-01
   1       -5.2685
   2       -4.0393
   3       -3.2820
   4       -2.5988
   5       -2.5988
   6       -2.2620
   7       -2.0237
   8       -1.7118
   9       -1.7118
  10       -1.6400
  11       -1.3889
  12       -1.3889
  13       -1.3576
  14       -1.3576
  15       -1.2265
  16       -1.1940
  17       -1.1940
  18       -1.1310
  19       -1.0387
  20       -1.0138
  21       -0.8286
  22       -0.8286
  23       -0.6303
  24       -0.6268
  25       -0.6266
  26       -0.5920
  27       -0.5871
  28       -0.5771
  29       -0.4850
  30       -0.4850
  31       -0.4124
  32       -0.3852
  33       -0.3451
  34       -0.3297
  35       -0.3203
  36       -0.3203
  37       -0.2749
  38       -0.2652
  39       -0.1635
  40       -0.1244
  41       -0.0527
  42       -0.0140
  43       -0.0140
  44       -0.0100
  45       -0.0100
  46       -0.0015
  47        0.0156
  48        0.0563
  49        0.0956
  50        0.0956
  51        0.1170
  52        0.1256
  53        0.1256
  54        0.1556
  55        0.1935
  56        0.2251
  57        0.2251
  58        0.2477
  59        0.2696
  60        0.2696
  61        0.2914
  62        0.2914
  63        0.3080
  64        0.3157
  65        0.3367
  66        0.3367
  67        0.4065
  68        0.4151
  69        0.4476
  70        0.4476
  71        0.4942
  72        0.4942
  73        0.5132
  74        0.5132
  75        0.5308
  76        0.5308
  77        0.5676
  78        0.5948
  79        0.5948
  80        0.6366
  81        0.6804
  82        0.6804
  83        0.6965
  84        0.7031
  85        0.7102
  86        0.7132
  87        0.7132
  88        0.7254
  89        0.7898
  90        0.7898
  91        0.8230
  92        0.8480
  93        0.9406
  94        0.9538
  95        0.9538
  96        0.9887
  97        1.0191
  98        1.0191
  99        1.1108
 100        1.1108
 101        1.1317
 102        1.1483
 103        1.1671
 104        1.2030
 105        1.2030
 106        1.2037
 107        1.2112
 108        1.2165
 109        1.2165
 110        1.2734
 111        1.2745
 112        1.2984
 113        1.2984
 114        1.3186
 115        1.3267
 116        1.3543
 117        1.3543
 118        1.3864
 119        1.3936
 120        1.3936
 121        1.4316
 122        1.4396
 123        1.4396
 124        1.4531
 125        1.4589
 126        1.4681
 127        1.4711
 128        1.5200
 129        1.5200
 130        1.5456
 131        1.5597
 132        1.5629
 133        1.5838
 134        1.5838
 135        1.6030
 136        1.6223
 137        1.6371
 138        1.6979
 139        1.7019
 140        1.7019
 141        1.7041
 142        1.7041
 143        1.7068
 144        1.7117
 145        1.7208
 146        1.7422
 147        1.8155
 148        1.8155
 149        1.8693
 150        1.8829
 151        1.9095
 152        1.9256
 153        1.9374
 154        1.9374
 155        1.9648
 156        1.9648
 157        1.9735
 158        1.9779
 159        2.0209
 160        2.0209
 161        2.0324
 162        2.0332
 163        2.0370
 164        2.1069
 165        2.1084
 166        2.1089
 167        2.1093
 168        2.2474
 169        2.5155
 170        2.5155
 171        2.5868
 172        2.5868
 173        2.8260
 174        2.8260
 175        2.9180
 176        3.5732
 177        3.5732
 178        3.8759
 179        3.8759
 180        3.9996
 181        4.0519
 182        4.6253
 183        4.6253
 184        5.3439
 185        5.3471
 186        5.8920
 187        7.0114
 188        7.3590
 189        7.5644
 190        7.5644
 191        7.8186
 192        7.8186
 193        8.0201
 194        8.6276
 195        8.6276
 196        8.6518
 197        9.1687
 198        9.3961
 199        9.3961
 200       10.2215
 201       10.2215
 202       10.7546
 203       10.7911
 204       10.8029
 205       10.8029
 206       10.8666
 207       11.1252
 208       11.2743
 209       11.4108
 210       11.8123
 211       11.8123
 212       11.8368
 213       11.9674
 214       11.9783
 215       12.4523
 216       12.6348
 
  0.4285714E+00  0.1428571E+00  0.0000000E+00  0.2332362E-01
   1       -4.9677
   2       -4.5545
   3       -3.0245
   4       -2.6786
   5       -2.3674
   6       -2.3674
   7       -2.0637
   8       -2.0637
   9       -1.8103
  10       -1.5353
  11       -1.3861
  12       -1.3861
  13       -1.3732
  14       -1.3732
  15       -1.3205
  16       -1.1772
  17       -1.0860
  18       -1.0860
  19       -0.9605
  20       -0.9605
  21       -0.9089
  22       -0.8886
  23       -0.7496
  24       -0.7349
  25       -0.5543
  26       -0.5429
  27       -0.5418
  28       -0.4526
  29       -0.4255
  30       -0.4216