<?xml version="1.0" encoding="ISO-8859-1"?>
<modeling>
 <generator>
  <i name="program" type="string">vasp</i>
  <i name="version" type="string">4.6.28 </i>
  <i name="subversion" type="string">25Jul05 complex  parallel</i>
  <i name="platform" type="string">LinuxIFC</i>
  <i name="date" type="string">2016 01 15</i>
  <i name="time" type="string">17:01:01</i>
 </generator>
 <incar>
  <i type="string" name="PREC">accurate</i>
  <i type="int" name="IALGO">    38</i>
  <i type="logical" name="ADDGRID"> T  </i>
  <i name="EDIFF">      0.00000001</i>
  <i type="int" name="IBRION">     2</i>
  <i type="int" name="NSW">    60</i>
  <i type="int" name="ISIF">     3</i>
  <i name="ENCUT">    500.00000000</i>
  <i type="logical" name="LREAL"> F  </i>
  <i type="int" name="ISMEAR">     0</i>
  <i name="SIGMA">      0.01000000</i>
  <i type="logical" name="LWAVE"> F  </i>
  <i type="logical" name="LCHARG"> F  </i>
 </incar>
 <kpoints>
  <generation param="Auto">
   <i name="subdivisionlength">     50.00000000</i>
   <v type="int" name="divisions">       7       7       7</v>
   <v name="usershift">      0.00000000      0.00000000      0.00000000</v>
   <v name="genvec1">      0.14285714      0.00000000      0.00000000</v>
   <v name="genvec2">      0.00000000      0.14285714      0.00000000</v>
   <v name="genvec3">      0.00000000      0.00000000      0.14285714</v>
   <v name="shift">      0.00000000      0.00000000      0.00000000</v>
  </generation>
  <varray name="kpointlist" >
   <v>       0.00000000      0.00000000      0.00000000</v>
   <v>       0.14285714      0.00000000      0.00000000</v>
   <v>       0.28571429      0.00000000      0.00000000</v>
   <v>       0.42857143      0.00000000      0.00000000</v>
   <v>       0.00000000      0.14285714      0.00000000</v>
   <v>       0.14285714      0.14285714      0.00000000</v>
   <v>       0.28571429      0.14285714      0.00000000</v>
   <v>       0.42857143      0.14285714      0.00000000</v>
   <v>       0.00000000      0.28571429      0.00000000</v>
   <v>       0.14285714      0.28571429      0.00000000</v>
   <v>       0.28571429      0.28571429      0.00000000</v>
   <v>       0.42857143      0.28571429      0.00000000</v>
   <v>       0.00000000      0.42857143      0.00000000</v>
   <v>       0.14285714      0.42857143      0.00000000</v>
   <v>       0.28571429      0.42857143      0.00000000</v>
   <v>       0.42857143      0.42857143      0.00000000</v>
   <v>       0.00000000      0.14285714      0.14285714</v>
   <v>       0.14285714      0.14285714      0.14285714</v>
   <v>       0.28571429      0.14285714      0.14285714</v>
   <v>       0.42857143      0.14285714      0.14285714</v>
   <v>       0.00000000      0.28571429      0.14285714</v>
   <v>       0.14285714      0.28571429      0.14285714</v>
   <v>       0.28571429      0.28571429      0.14285714</v>
   <v>       0.42857143      0.28571429      0.14285714</v>
   <v>       0.00000000      0.42857143      0.14285714</v>
   <v>       0.14285714      0.42857143      0.14285714</v>
   <v>       0.28571429      0.42857143      0.14285714</v>
   <v>       0.42857143      0.42857143      0.14285714</v>
   <v>       0.00000000      0.28571429      0.28571429</v>
   <v>       0.14285714      0.28571429      0.28571429</v>
   <v>       0.28571429      0.28571429      0.28571429</v>
   <v>       0.42857143      0.28571429      0.28571429</v>
   <v>       0.00000000      0.42857143      0.28571429</v>
   <v>       0.14285714      0.42857143      0.28571429</v>
   <v>       0.28571429      0.42857143      0.28571429</v>
   <v>       0.42857143      0.42857143      0.28571429</v>
   <v>       0.00000000      0.42857143      0.42857143</v>
   <v>       0.14285714      0.42857143      0.42857143</v>
   <v>       0.28571429      0.42857143      0.42857143</v>
   <v>       0.42857143      0.42857143      0.42857143</v>
  </varray>
  <varray name="weights" >
   <v>       0.00291545</v>
   <v>       0.00583090</v>
   <v>       0.00583090</v>
   <v>       0.00583090</v>
   <v>       0.01166181</v>
   <v>       0.02332362</v>
   <v>       0.02332362</v>
   <v>       0.02332362</v>
   <v>       0.01166181</v>
   <v>       0.02332362</v>
   <v>       0.02332362</v>
   <v>       0.02332362</v>
   <v>       0.01166181</v>
   <v>       0.02332362</v>
   <v>       0.02332362</v>
   <v>       0.02332362</v>
   <v>       0.01166181</v>
   <v>       0.02332362</v>
   <v>       0.02332362</v>
   <v>       0.02332362</v>
   <v>       0.02332362</v>
   <v>       0.04664723</v>
   <v>       0.04664723</v>
   <v>       0.04664723</v>
   <v>       0.02332362</v>
   <v>       0.04664723</v>
   <v>       0.04664723</v>
   <v>       0.04664723</v>
   <v>       0.01166181</v>
   <v>       0.02332362</v>
   <v>       0.02332362</v>
   <v>       0.02332362</v>
   <v>       0.02332362</v>
   <v>       0.04664723</v>
   <v>       0.04664723</v>
   <v>       0.04664723</v>
   <v>       0.01166181</v>
   <v>       0.02332362</v>
   <v>       0.02332362</v>
   <v>       0.02332362</v>
  </varray>
 </kpoints>
 <parameters>
  <separator name="general" >
   <i type="string" name="SYSTEM">unknown system</i>
   <i type="logical" name="LCOMPAT"> F  </i>
  </separator>
  <separator name="electronic" >
   <i type="string" name="PREC">accura</i>
   <i name="ENMAX">    500.00000000</i>
   <i name="ENAUG">    516.45600000</i>
   <i name="EDIFF">      0.00000001</i>
   <i type="int" name="IALGO">    38</i>
   <i type="int" name="IWAVPR">    11</i>
   <i type="int" name="NBANDS">   211</i>
   <i name="NELECT">    352.00000000</i>
   <separator name="electronic smearing" >
    <i type="int" name="ISMEAR">     0</i>
    <i name="SIGMA">      0.01000000</i>
   </separator>
   <separator name="electronic projectors" >
    <i type="logical" name="LREAL"> F  </i>
    <v name="ROPT">      0.00000000</v>
    <i type="int" name="LMAXPAW">  -100</i>
    <i type="int" name="LMAXMIX">     2</i>
   </separator>
   <separator name="electronic startup" >
    <i type="int" name="ISTART">     0</i>
    <i type="int" name="ICHARG">     2</i>
    <i type="int" name="INIWAV">     1</i>
   </separator>
   <separator name="electronic spin" >
    <i type="int" name="ISPIN">     1</i>
    <i type="logical" name="LNONCOLLINEAR"> F  </i>
    <v name="MAGMOM">      1.00000000      1.00000000      1.00000000      1.00000000      1.00000000      1.00000000      1.00000000      1.00000000      1.00000000      1.00000000      1.00000000      1.00000000      1.00000000      1.00000000      1.00000000      1.00000000      1.00000000      1.00000000      1.00000000      1.00000000
      1.00000000      1.00000000      1.00000000      1.00000000      1.00000000      1.00000000      1.00000000      1.00000000      1.00000000      1.00000000      1.00000000      1.00000000</v>
    <i name="NUPDOWN">     -1.00000000</i>
    <i type="logical" name="LSORBIT"> F  </i>
    <v name="SAXIS">      0.00000000      0.00000000      1.00000000</v>
    <i type="logical" name="LSPIRAL"> F  </i>
    <v name="QSPIRAL">      0.00000000      0.00000000      0.00000000</v>
    <i type="logical" name="LZEROZ"> F  </i>
   </separator>
   <separator name="electronic exchange-correlation" >
    <i type="string" name="GGA">--</i>
    <i type="int" name="VOSKOWN">     0</i>
    <i type="logical" name="LASPH"> F  </i>
    <i type="logical" name="LMETAGGA"> F  </i>
    <i type="string" name="GGA2">--</i>
   </separator>
   <separator name="electronic convergence" >
    <i type="int" name="NELM">    60</i>
    <i type="int" name="NELMDL">     0</i>
    <i type="int" name="NELMIN">     2</i>
    <i name="ENINI">    500.00000000</i>
    <separator name="electronic convergence detail" >
     <i type="logical" name="LDIAG"> T  </i>
     <i name="WEIMIN">      0.00100000</i>
     <i name="EBREAK">      0.00000000</i>
     <i name="DEPER">      0.30000000</i>
     <i type="int" name="NRMM">     4</i>
     <i name="TIME">      0.10000000</i>
    </separator>
   </separator>
   <separator name="electronic mixer" >
    <i name="AMIX">      0.40000000</i>
    <i name="BMIX">      1.00000000</i>
    <i name="AMIN">      0.10000000</i>
    <i name="AMIX_MAG">      1.60000000</i>
    <i name="BMIX_MAG">      1.00000000</i>
    <separator name="electronic mixer details" >
     <i type="int" name="IMIX">     4</i>
     <i type="int" name="MAXMIX">   -45</i>
     <i name="WC">    100.00000000</i>
     <i type="int" name="INIMIX">     1</i>
     <i type="int" name="MIXPRE">     1</i>
     <i type="int" name="MREMOVE">     5</i>
    </separator>
   </separator>
   <separator name="electronic dipolcorrection" >
    <i type="int" name="IDIPOL">     0</i>
    <i type="logical" name="LDIPOL"> F  </i>
    <v name="DIPOL">   -100.00000000</v>
    <i name="EFIELD">      0.00000000</i>
   </separator>
  </separator>
  <separator name="grids" >
   <i type="int" name="NGX">    54</i>
   <i type="int" name="NGY">    54</i>
   <i type="int" name="NGZ">    54</i>
   <i type="int" name="NGXF">   108</i>
   <i type="int" name="NGYF">   108</i>
   <i type="int" name="NGZF">   108</i>
   <i type="logical" name="ADDGRID"> T  </i>
  </separator>
  <separator name="ionic" >
   <i type="int" name="NSW">    60</i>
   <i type="int" name="IBRION">     2</i>
   <i type="int" name="ISIF">     3</i>
   <i name="PSTRESS">      0.00000000</i>
   <i name="EDIFFG">      0.00000010</i>
   <i type="int" name="NFREE">     1</i>
   <i name="POTIM">      0.50000000</i>
   <i name="SMASS">     -3.00000000</i>
  </separator>
  <separator name="ionic md" >
   <i name="TEBEG">      0.00010000</i>
   <i name="TEEND">      0.00010000</i>
   <i type="int" name="NBLOCK">     1</i>
   <i type="int" name="KBLOCK">    60</i>
   <i type="int" name="NPACO">   256</i>
   <i name="APACO">     16.00000000</i>
  </separator>
  <separator name="symmetry" >
   <i type="int" name="ISYM">     2</i>
   <i name="SYMPREC">      0.00001000</i>
  </separator>
  <separator name="dos" >
   <i type="logical" name="LORBIT"> F  </i>
   <v name="RWIGS">     -1.00000000</v>
   <i type="int" name="NEDOS">   301</i>
   <i name="EMIN">     10.00000000</i>
   <i name="EMAX">    -10.00000000</i>
  </separator>
  <separator name="writing" >
   <i type="int" name="NWRITE">     2</i>
   <i type="logical" name="LWAVE"> F  </i>
   <i type="logical" name="LCHARG"> F  </i>
   <i type="logical" name="LPARD"> F  </i>
   <i type="logical" name="LVTOT"> F  </i>
   <i type="logical" name="LELF"> F  </i>
   <i type="logical" name="LOPTICS"> F  </i>
   <i name="STM">      0.00000000</i>
  </separator>
  <separator name="performance" >
   <i type="int" name="NPAR">     8</i>
   <i type="int" name="NSIM">     4</i>
   <i type="int" name="NBLK">   256</i>
   <i type="logical" name="LPLANE"> T  </i>
   <i type="logical" name="LCRITICAL_MEM"> F  </i>
   <i type="logical" name="LSCALAPACK"> F  </i>
   <i type="logical" name="LSCALU"> F  </i>
   <i type="logical" name="LASYNC"> F  </i>
  </separator>
  <separator name="miscellaneous" >
   <i type="int" name="IDIOT">     3</i>
   <i type="logical" name="LMUSIC"> F  </i>
   <v name="POMASS">     63.54600000</v>
   <i type="logical" name="LCORR"> T  </i>
  </separator>
  <i type="logical" name="LREAL_COMPAT"> F  </i>
  <i type="logical" name="GGA_COMPAT"> T  </i>
  <i type="logical" name="LBERRY"> F  </i>
  <i type="int" name="ICORELEVEL">     0</i>
  <i type="logical" name="LDAU"> F  </i>
  <i type="int" name="I_CONSTRAINED_M">     0</i>
 </parameters>
 <atominfo>
  <atoms>      32</atoms>
  <types>       1</types>
  <array name="atoms" >
   <dimension dim="1">ion</dimension>
   <field type="string">element</field>
   <field type="int">atomtype</field>
   <set>
    <rc><c>Cu</c><c>   1</c></rc>
    <rc><c>Cu</c><c>   1</c></rc>
    <rc><c>Cu</c><c>   1</c></rc>
    <rc><c>Cu</c><c>   1</c></rc>
    <rc><c>Cu</c><c>   1</c></rc>
    <rc><c>Cu</c><c>   1</c></rc>
    <rc><c>Cu</c><c>   1</c></rc>
    <rc><c>Cu</c><c>   1</c></rc>
    <rc><c>Cu</c><c>   1</c></rc>
    <rc><c>Cu</c><c>   1</c></rc>
    <rc><c>Cu</c><c>   1</c></rc>
    <rc><c>Cu</c><c>   1</c></rc>
    <rc><c>Cu</c><c>   1</c></rc>
    <rc><c>Cu</c><c>   1</c></rc>
    <rc><c>Cu</c><c>   1</c></rc>
    <rc><c>Cu</c><c>   1</c></rc>
    <rc><c>Cu</c><c>   1</c></rc>
    <rc><c>Cu</c><c>   1</c></rc>
    <rc><c>Cu</c><c>   1</c></rc>
    <rc><c>Cu</c><c>   1</c></rc>
    <rc><c>Cu</c><c>   1</c></rc>
    <rc><c>Cu</c><c>   1</c></rc>
    <rc><c>Cu</c><c>   1</c></rc>
    <rc><c>Cu</c><c>   1</c></rc>
    <rc><c>Cu</c><c>   1</c></rc>
    <rc><c>Cu</c><c>   1</c></rc>
    <rc><c>Cu</c><c>   1</c></rc>
    <rc><c>Cu</c><c>   1</c></rc>
    <rc><c>Cu</c><c>   1</c></rc>
    <rc><c>Cu</c><c>   1</c></rc>
    <rc><c>Cu</c><c>   1</c></rc>
    <rc><c>Cu</c><c>   1</c></rc>
   </set>
  </array>
  <array name="atomtypes" >
   <dimension dim="1">type</dimension>
   <field type="int">atomspertype</field>
   <field type="string">element</field>
   <field>mass</field>
   <field>valence</field>
   <field type="string">pseudopotential</field>
   <set>
    <rc><c>  32</c><c>Cu</c><c>     63.54600000</c><c>     11.00000000</c><c> PAW_PBE Cu 05Jan2001                   </c></rc>
   </set>
  </array>
 </atominfo>
 <structure name="initialpos" >
  <crystal>
   <varray name="basis" >
    <v>       7.30000000      0.00000000      0.00000000</v>
    <v>       0.00000000      7.30000000      0.00000000</v>
    <v>       0.00000000      0.00000000      7.30000000</v>
   </varray>
   <i name="volume">    389.01700000</i>
   <varray name="rec_basis" >
    <v>       0.13698630      0.00000000      0.00000000</v>
    <v>       0.00000000      0.13698630      0.00000000</v>
    <v>       0.00000000      0.00000000      0.13698630</v>
   </varray>
  </crystal>
  <varray name="positions" >
   <v>       0.25123814      0.25000000      0.00000000</v>
   <v>       0.75000000      0.25000000      0.00000000</v>
   <v>       0.25000000      0.75000000      0.00000000</v>
   <v>       0.75000000      0.75000000      0.00000000</v>
   <v>       0.25000000      0.25000000      0.50000000</v>
   <v>       0.75000000      0.25000000      0.50000000</v>
   <v>       0.25000000      0.75000000      0.50000000</v>
   <v>       0.75000000      0.75000000      0.50000000</v>
   <v>       0.25000000      0.00000000      0.25000000</v>
   <v>       0.75000000      0.00000000      0.25000000</v>
   <v>       0.25000000      0.50000000      0.25000000</v>
   <v>       0.75000000      0.50000000      0.25000000</v>
   <v>       0.25000000      0.00000000      0.75000000</v>
   <v>       0.75000000      0.00000000      0.75000000</v>
   <v>       0.25000000      0.50000000      0.75000000</v>
   <v>       0.75000000      0.50000000      0.75000000</v>
   <v>       0.00000000      0.25000000      0.25000000</v>
   <v>       0.50000000      0.25000000      0.25000000</v>
   <v>       0.00000000      0.75000000      0.25000000</v>
   <v>       0.50000000      0.75000000      0.25000000</v>
   <v>       0.00000000      0.25000000      0.75000000</v>
   <v>       0.50000000      0.25000000      0.75000000</v>
   <v>       0.00000000      0.75000000      0.75000000</v>
   <v>       0.50000000      0.75000000      0.75000000</v>
   <v>       0.00000000      0.00000000      0.00000000</v>
   <v>       0.50000000      0.00000000      0.00000000</v>
   <v>       0.00000000      0.50000000      0.00000000</v>
   <v>       0.50000000      0.50000000      0.00000000</v>
   <v>       0.00000000      0.00000000      0.50000000</v>
   <v>       0.50000000      0.00000000      0.50000000</v>
   <v>       0.00000000      0.50000000      0.50000000</v>
   <v>       0.50000000      0.50000000      0.50000000</v>
  </varray>
 </structure>
 <calculation>
  <scstep>
   <time name="dav">   74.98   75.02</time>
   <time name="total">   75.35   75.39</time>
   <energy>
    <i name="alphaZ">   3363.06133336</i>
    <i name="ewald"> -35018.26248072</i>
    <i name="hartreedc"> -10617.21577455</i>
    <i name="XCdc">   1402.31244874</i>
    <i name="pawpsdc">  34625.67335558</i>
    <i name="pawaedc"> -39234.46421604</i>
    <i name="eentropy">     -0.00005761</i>
    <i name="bandstr">   4218.96333179</i>
    <i name="atom">  44511.25856501</i>
    <i name="e_fr_energy">   3251.32650557</i>
    <i name="e_wo_entrp">   3251.32656318</i>
    <i name="e_0_energy">   3251.32653437</i>
   </energy>
  </scstep>
  <scstep>
   <time name="dav">   75.00   74.99</time>
   <time name="total">   75.03   75.02</time>
   <energy>
    <i name="e_fr_energy">    309.34566043</i>
    <i name="e_wo_entrp">    309.34608860</i>
    <i name="e_0_energy">    309.34587451</i>
   </energy>
  </scstep>
  <scstep>
   <time name="dav">   74.69   74.72</time>
   <time name="total">   74.72   74.75</time>
   <energy>
    <i name="e_fr_energy">   -123.15105427</i>
    <i name="e_wo_entrp">   -123.14962597</i>
    <i name="e_0_energy">   -123.15034012</i>
   </energy>
  </scstep>
  <scstep>
   <time name="dav">   78.38   78.37</time>
   <time name="total">   78.41   78.40</time>
   <energy>
    <i name="e_fr_energy">   -146.36101696</i>
    <i name="e_wo_entrp">   -146.35981545</i>
    <i name="e_0_energy">   -146.36041620</i>
   </energy>
  </scstep>
  <scstep>
   <time name="dav">   78.56   78.59</time>
   <time name="total">   82.11   82.15</time>
   <energy>
    <i name="e_fr_energy">   -146.54584375</i>
    <i name="e_wo_entrp">   -146.54464166</i>
    <i name="e_0_energy">   -146.54524271</i>
   </energy>
  </scstep>
  <scstep>
   <time name="dav">   78.72   78.72</time>
   <time name="total">   82.50   82.49</time>
   <energy>
    <i name="e_fr_energy">   -129.45638648</i>
    <i name="e_wo_entrp">   -129.45572512</i>
    <i name="e_0_energy">   -129.45605580</i>
   </energy>
  </scstep>
  <scstep>
   <time name="dav">   80.43   80.46</time>
   <time name="total">   84.23   84.26</time>
   <energy>
    <i name="e_fr_energy">   -119.33902726</i>
    <i name="e_wo_entrp">   -119.33818785</i>
    <i name="e_0_energy">   -119.33860756</i>
   </energy>
  </scstep>
  <scstep>
   <time name="dav">   76.90   76.89</time>
   <time name="total">   80.62   80.61</time>
   <energy>
    <i name="e_fr_energy">   -119.10593473</i>
    <i name="e_wo_entrp">   -119.10515896</i>
    <i name="e_0_energy">   -119.10554684</i>
   </energy>
  </scstep>
  <scstep>
   <time name="dav">   79.34   79.36</time>
   <time name="total">   82.77   82.80</time>
   <energy>
    <i name="e_fr_energy">   -119.01944099</i>
    <i name="e_wo_entrp">   -119.01837833</i>
    <i name="e_0_energy">   -119.01890966</i>
   </energy>
  </scstep>
  <scstep>
   <time name="dav">   84.44   84.43</time>
   <time name="total">   88.14   88.13</time>
   <energy>
    <i name="e_fr_energy">   -119.01799328</i>
    <i name="e_wo_entrp">   -119.01689242</i>
    <i name="e_0_energy">   -119.01744285</i>
   </energy>
  </scstep>
  <scstep>
   <time name="dav">   77.24   77.23</time>
   <time name="total">   80.83   80.82</time>
   <energy>
    <i name="e_fr_energy">   -119.01815965</i>
    <i name="e_wo_entrp">   -119.01705948</i>
    <i name="e_0_energy">   -119.01760957</i>
   </energy>
  </scstep>
  <scstep>
   <time name="dav">   79.26   79.29</time>
   <time name="total">   82.87   82.90</time>
   <energy>
    <i name="e_fr_energy">   -119.01808870</i>
    <i name="e_wo_entrp">   -119.01698948</i>
    <i name="e_0_energy">   -119.01753909</i>
   </energy>
  </scstep>
  <scstep>
   <time name="dav">   78.39   78.38</time>
   <time name="total">   81.99   81.98</time>
   <energy>
    <i name="e_fr_energy">   -119.01808000</i>
    <i name="e_wo_entrp">   -119.01698143</i>
    <i name="e_0_energy">   -119.01753072</i>
   </energy>
  </scstep>
  <scstep>
   <time name="dav">   78.27   78.25</time>
   <time name="total">   82.04   82.02</time>
   <energy>
    <i name="e_fr_energy">   -119.01808699</i>
    <i name="e_wo_entrp">   -119.01698824</i>
    <i name="e_0_energy">   -119.01753762</i>
   </energy>
  </scstep>
  <scstep>
   <time name="dav">   77.32   77.35</time>
   <time name="total">   81.02   81.05</time>
   <energy>
    <i name="e_fr_energy">   -119.01808672</i>
    <i name="e_wo_entrp">   -119.01698798</i>
    <i name="e_0_energy">   -119.01753735</i>
   </energy>
  </scstep>
  <scstep>
   <time name="dav">   80.72   80.71</time>
   <time name="total">   84.35   84.34</time>
   <energy>
    <i name="e_fr_energy">   -119.01808413</i>
    <i name="e_wo_entrp">   -119.01698550</i>
    <i name="e_0_energy">   -119.01753481</i>
   </energy>
  </scstep>
  <scstep>
   <time name="dav">   82.07   82.09</time>
   <time name="total">   85.70   85.73</time>
   <energy>
    <i name="e_fr_energy">   -119.01808576</i>
    <i name="e_wo_entrp">   -119.01698718</i>
    <i name="e_0_energy">   -119.01753647</i>
   </energy>
  </scstep>
  <scstep>
   <time name="dav">   80.17   80.16</time>
   <time name="total">   83.79   83.78</time>
   <energy>
    <i name="e_fr_energy">   -119.01808638</i>
    <i name="e_wo_entrp">   -119.01698781</i>
    <i name="e_0_energy">   -119.01753709</i>
   </energy>
  </scstep>
  <scstep>
   <time name="dav">   71.87   71.86</time>
   <time name="total">   75.64   75.63</time>
   <energy>
    <i name="e_fr_energy">   -119.01808644</i>
    <i name="e_wo_entrp">   -119.01698789</i>
    <i name="e_0_energy">   -119.01753717</i>
   </energy>
  </scstep>
  <scstep>
   <time name="dav">   52.04   52.03</time>
   <time name="total">   52.40   52.40</time>
   <energy>
    <i name="alphaZ">   3363.06133336</i>
    <i name="ewald"> -35018.26248072</i>
    <i name="hartreedc">  -9917.59020085</i>
    <i name="XCdc">   1367.96839819</i>
    <i name="pawpsdc">  35010.10768152</i>
    <i name="pawaedc"> -39638.96836096</i>
    <i name="eentropy">     -0.00109855</i>
    <i name="bandstr">    203.40807655</i>
    <i name="atom">  44511.25856501</i>
    <i name="e_fr_energy">   -119.01808645</i>
    <i name="e_wo_entrp">   -119.01698790</i>
    <i name="e_0_energy">   -119.01753717</i>
   </energy>
  </scstep>
  <structure>
   <crystal>
    <varray name="basis" >
     <v>       7.30000000      0.00000000      0.00000000</v>
     <v>       0.00000000      7.30000000      0.00000000</v>
     <v>       0.00000000      0.00000000      7.30000000</v>
    </varray>
    <i name="volume">    389.01700000</i>
    <varray name="rec_basis" >
     <v>       0.13698630      0.00000000      0.00000000</v>
     <v>       0.00000000      0.13698630      0.00000000</v>
     <v>       0.00000000      0.00000000      0.13698630</v>
    </varray>
   </crystal>
   <varray name="positions" >
    <v>       0.25123814      0.25000000      0.00000000</v>
    <v>       0.75000000      0.25000000      0.00000000</v>
    <v>       0.25000000      0.75000000      0.00000000</v>
    <v>       0.75000000      0.75000000      0.00000000</v>
    <v>       0.25000000      0.25000000      0.50000000</v>
    <v>       0.75000000      0.25000000      0.50000000</v>
    <v>       0.25000000      0.75000000      0.50000000</v>
    <v>       0.75000000      0.75000000      0.50000000</v>
    <v>       0.25000000      0.00000000      0.25000000</v>
    <v>       0.75000000      0.00000000      0.25000000</v>
    <v>       0.25000000      0.50000000      0.25000000</v>
    <v>       0.75000000      0.50000000      0.25000000</v>
    <v>       0.25000000      0.00000000      0.75000000</v>
    <v>       0.75000000      0.00000000      0.75000000</v>
    <v>       0.25000000      0.50000000      0.75000000</v>
    <v>       0.75000000      0.50000000      0.75000000</v>
    <v>       0.00000000      0.25000000      0.25000000</v>
    <v>       0.50000000      0.25000000      0.25000000</v>
    <v>       0.00000000      0.75000000      0.25000000</v>
    <v>       0.50000000      0.75000000      0.25000000</v>
    <v>       0.00000000      0.25000000      0.75000000</v>
    <v>       0.50000000      0.25000000      0.75000000</v>
    <v>       0.00000000      0.75000000      0.75000000</v>
    <v>       0.50000000      0.75000000      0.75000000</v>
    <v>       0.00000000      0.00000000      0.00000000</v>
    <v>       0.50000000      0.00000000      0.00000000</v>
    <v>       0.00000000      0.50000000      0.00000000</v>
    <v>       0.50000000      0.50000000      0.00000000</v>
    <v>       0.00000000      0.00000000      0.50000000</v>
    <v>       0.50000000      0.00000000      0.50000000</v>
    <v>       0.00000000      0.50000000      0.50000000</v>
    <v>       0.50000000      0.50000000      0.50000000</v>
   </varray>
  </structure>
  <varray name="forces" >
   <v>      -0.05625485     -0.00000000      0.00000000</v>
   <v>       0.00101223     -0.00000000     -0.00000000</v>
   <v>      -0.00037634     -0.00000000     -0.00000000</v>
   <v>       0.00000206      0.00000000      0.00000000</v>
   <v>      -0.00037634     -0.00000000      0.00000000</v>
   <v>       0.00000206     -0.00000000      0.00000000</v>
   <v>       0.00002164     -0.00000000     -0.00000000</v>
   <v>      -0.00028871     -0.00000000      0.00000000</v>
   <v>      -0.00060849      0.00001789     -0.00001789</v>
   <v>       0.00057978      0.00000158     -0.00000158</v>
   <v>      -0.00060849     -0.00001789     -0.00001789</v>
   <v>       0.00057978     -0.00000158     -0.00000158</v>
   <v>      -0.00060849      0.00001789      0.00001789</v>
   <v>       0.00057978      0.00000158      0.00000158</v>
   <v>      -0.00060849     -0.00001789      0.00001789</v>
   <v>       0.00057978     -0.00000158      0.00000158</v>
   <v>       0.00669028     -0.00000000     -0.00762783</v>
   <v>       0.00688772      0.00000000      0.00789555</v>
   <v>       0.00025644      0.00000000     -0.00017575</v>
   <v>       0.00025883      0.00000000      0.00016854</v>
   <v>       0.00669028      0.00000000      0.00762783</v>
   <v>       0.00688772      0.00000000     -0.00789555</v>
   <v>       0.00025644      0.00000000      0.00017575</v>
   <v>       0.00025883      0.00000000     -0.00016854</v>
   <v>       0.00669028      0.00762783     -0.00000000</v>
   <v>       0.00688772     -0.00789555     -0.00000000</v>
   <v>       0.00669028     -0.00762783     -0.00000000</v>
   <v>       0.00688772      0.00789555     -0.00000000</v>
   <v>       0.00025644      0.00017575      0.00000000</v>
   <v>       0.00025883     -0.00016854     -0.00000000</v>
   <v>       0.00025644     -0.00017575      0.00000000</v>
   <v>       0.00025883      0.00016854     -0.00000000</v>
  </varray>
  <varray name="stress" >
   <v>     -15.27303820      0.00000000      0.00000000</v>
   <v>       0.00000000    -15.27147180      0.00000000</v>
   <v>       0.00000000      0.00000000    -15.27147180</v>
  </varray>
  <energy>
   <i name="e_fr_energy">   -119.01808645</i>
   <i name="e_wo_entrp">   -119.01753717</i>
   <i name="e_0_energy">     -0.00109855</i>
  </energy>
 </calculation>
 <calculation>
  <scstep>
   <time name="dav">   75.66   75.65</time>
   <time name="total">   79.37   79.36</time>
   <energy>
    <i name="alphaZ">   3420.09940595</i>
    <i name="ewald"> -35215.14105960</i>
    <i name="hartreedc">  -9973.32746145</i>
    <i name="XCdc">   1377.74624397</i>
    <i name="pawpsdc">  35010.10314526</i>
    <i name="pawaedc"> -39638.96176862</i>
    <i name="eentropy">     -0.00078869</i>
    <i name="bandstr">    387.26330192</i>
    <i name="atom">  44511.25856501</i>
    <i name="e_fr_energy">   -120.96041625</i>
    <i name="e_wo_entrp">   -120.95962756</i>
    <i name="e_0_energy">   -120.96002190</i>
   </energy>
  </scstep>
  <scstep>
   <time name="dav">   77.75   77.74</time>
   <time name="total">   81.52   81.52</time>
   <energy>
    <i name="e_fr_energy">   -119.65133770</i>
    <i name="e_wo_entrp">   -119.65057519</i>
    <i name="e_0_energy">   -119.65095644</i>
   </energy>
  </scstep>
  <scstep>
   <time name="dav">   77.01   77.00</time>
   <time name="total">   80.77   80.76</time>
   <energy>
    <i name="e_fr_energy">   -119.09798547</i>
    <i name="e_wo_entrp">   -119.09720036</i>
    <i name="e_0_energy">   -119.09759292</i>
   </energy>
  </scstep>
  <scstep>
   <time name="dav">   91.01   90.99</time>
   <time name="total">   94.53   94.51</time>
   <energy>
    <i name="e_fr_energy">   -119.03460017</i>
    <i name="e_wo_entrp">   -119.03364425</i>
    <i name="e_0_energy">   -119.03412221</i>
   </energy>
  </scstep>
  <scstep>
   <time name="dav">   90.43   90.41</time>
   <time name="total">   94.14   94.12</time>
   <energy>
    <i name="e_fr_energy">   -119.03415600</i>
    <i name="e_wo_entrp">   -119.03316213</i>
    <i name="e_0_energy">   -119.03365907</i>
   </energy>
  </scstep>
  <scstep>
   <time name="dav">   78.82   78.80</time>
   <time name="total">   82.63   82.62</time>
   <energy>
    <i name="e_fr_energy">   -119.03412121</i>
    <i name="e_wo_entrp">   -119.03311592</i>
    <i name="e_0_energy">   -119.03361857</i>
   </energy>
  </scstep>
  <scstep>
   <time name="dav">   76.76   76.74</time>
   <time name="total">   80.52   80.50</time>
   <energy>
    <i name="e_fr_energy">   -119.03410662</i>
    <i name="e_wo_entrp">   -119.03310277</i>
    <i name="e_0_energy">   -119.03360470</i>
   </energy>
  </scstep>
  <scstep>
   <time name="dav">   78.89   78.87</time>
   <time name="total">   82.48   82.47</time>
   <energy>
    <i name="e_fr_energy">   -119.03406526</i>
    <i name="e_wo_entrp">   -119.03306619</i>
    <i name="e_0_energy">   -119.03356572</i>
   </energy>
  </scstep>
  <scstep>
   <time name="dav">   84.09   84.07</time>
   <time name="total">   87.75   87.73</time>
   <energy>
    <i name="e_fr_energy">   -119.03406376</i>
    <i name="e_wo_entrp">   -119.03306772</i>
    <i name="e_0_energy">   -119.03356574</i>
   </energy>
  </scstep>
  <scstep>
   <time name="dav">   81.32   81.30</time>
   <time name="total">   84.98   84.96</time>
   <energy>
    <i name="e_fr_energy">   -119.03406666</i>
    <i name="e_wo_entrp">   -119.03307172</i>
    <i name="e_0_energy">   -119.03356919</i>
   </energy>
  </scstep>
  <scstep>
   <time name="dav">   76.87   76.85</time>
   <time name="total">   80.63   80.61</time>
   <energy>
    <i name="e_fr_energy">   -119.03406708</i>
    <i name="e_wo_entrp">   -119.03307226</i>
    <i name="e_0_energy">   -119.03356967</i>
   </energy>
  </scstep>
  <scstep>
   <time name="dav">   76.83   76.82</time>
   <time name="total">   80.51   80.50</time>
   <energy>
    <i name="e_fr_energy">   -119.03406759</i>
    <i name="e_wo_entrp">   -119.03307292</i>
    <i name="e_0_energy">   -119.03357025</i>
   </energy>
  </scstep>
  <scstep>
   <time name="dav">   83.64   83.62</time>
   <time name="total">   87.44   87.42</time>
   <energy>
    <i name="e_fr_energy">   -119.03406921</i>
    <i name="e_wo_entrp">   -119.03307505</i>
    <i name="e_0_energy">   -119.03357213</i>
   </energy>
  </scstep>
  <scstep>
   <time name="dav">   72.02   72.00</time>
   <time name="total">   75.60   75.59</time>
   <energy>
    <i name="e_fr_energy">   -119.03406944</i>
    <i name="e_wo_entrp">   -119.03307536</i>
    <i name="e_0_energy">   -119.03357240</i>
   </energy>
  </scstep>
  <scstep>
   <time name="dav">   50.06   50.05</time>
   <time name="total">   53.79   53.78</time>
   <energy>
    <i name="e_fr_energy">   -119.03406950</i>
    <i name="e_wo_entrp">   -119.03307549</i>
    <i name="e_0_energy">   -119.03357250</i>
   </energy>
  </scstep>
  <scstep>
   <time name="dav">   49.40   49.39</time>
   <time name="total">   53.02   53.01</time>
   <energy>
    <i name="e_fr_energy">   -119.03406953</i>
    <i name="e_wo_entrp">   -119.03307549</i>
    <i name="e_0_energy">   -119.03357251</i>
   </energy>
  </scstep>
  <scstep>
   <time name="dav">   49.26   49.24</time>
   <time name="total">   49.62   49.61</time>
   <energy>
    <i name="alphaZ">   3420.09940595</i>
    <i name="ewald"> -35215.14105960</i>
    <i name="hartreedc">  -9808.93994323</i>
    <i name="XCdc">   1369.11487972</i>
    <i name="pawpsdc">  35088.17859632</i>
    <i name="pawaedc"> -39719.50079893</i>
    <i name="eentropy">     -0.00099405</i>
    <i name="bandstr">    235.89727929</i>
    <i name="atom">  44511.25856501</i>
    <i name="e_fr_energy">   -119.03406953</i>
    <i name="e_wo_entrp">   -119.03307548</i>
    <i name="e_0_energy">   -119.03357251</i>
   </energy>
  </scstep>
  <structure>
   <crystal>
    <varray name="basis" >
     <v>       7.25918803      0.00000000      0.00000000</v>
     <v>       0.00000000      7.25919222      0.00000000</v>
     <v>       0.00000000      0.00000000      7.25919222</v>
    </varray>
    <i name="volume">    382.52924124</i>
    <varray name="rec_basis" >
     <v>       0.13775645     -0.00000000      0.00000000</v>
     <v>       0.00000000      0.13775637      0.00000000</v>
     <v>       0.00000000      0.00000000      0.13775637</v>
    </varray>
   </crystal>
   <varray name="positions" >
    <v>       0.25086638      0.25000000      0.00000000</v>
    <v>       0.75000669      0.25000000     -0.00000000</v>
    <v>       0.24999751      0.75000000     -0.00000000</v>
    <v>       0.75000001      0.75000000      0.00000000</v>
    <v>       0.24999751      0.25000000      0.50000000</v>
    <v>       0.75000001      0.25000000      0.50000000</v>
    <v>       0.25000014      0.75000000      0.50000000</v>
    <v>       0.74999809      0.75000000      0.50000000</v>
    <v>       0.24999598      0.00000012      0.24999988</v>
    <v>       0.75000383      0.00000001      0.24999999</v>
    <v>       0.24999598      0.49999988      0.24999988</v>
    <v>       0.75000383      0.49999999      0.24999999</v>
    <v>       0.24999598      0.00000012      0.75000012</v>
    <v>       0.75000383      0.00000001      0.75000001</v>
    <v>       0.24999598      0.49999988      0.75000012</v>
    <v>       0.75000383      0.49999999      0.75000001</v>
    <v>       0.00004421      0.25000000      0.24994959</v>
    <v>       0.50004552      0.25000000      0.25005218</v>
    <v>       0.00000169      0.75000000      0.24999884</v>
    <v>       0.50000171      0.75000000      0.25000111</v>
    <v>       0.00004421      0.25000000      0.75005041</v>
    <v>       0.50004552      0.25000000      0.74994782</v>
    <v>       0.00000169      0.75000000      0.75000116</v>
    <v>       0.50000171      0.75000000      0.74999889</v>
    <v>       0.00004421      0.00005041     -0.00000000</v>
    <v>       0.50004552     -0.00005218     -0.00000000</v>
    <v>       0.00004421      0.49994959     -0.00000000</v>
    <v>       0.50004552      0.50005218     -0.00000000</v>
    <v>       0.00000169      0.00000116      0.50000000</v>
    <v>       0.50000171     -0.00000111      0.50000000</v>
    <v>       0.00000169      0.49999884      0.50000000</v>
    <v>       0.50000171      0.50000111      0.50000000</v>
   </varray>
  </structure>
  <varray name="forces" >
   <v>      -0.03720897     -0.00000000     -0.00000000</v>
   <v>      -0.00025608      0.00000000     -0.00000000</v>
   <v>      -0.00032747      0.00000000      0.00000000</v>
   <v>       0.00250114      0.00000000      0.00000000</v>
   <v>      -0.00032747     -0.00000000     -0.00000000</v>
   <v>       0.00250114      0.00000000     -0.00000000</v>
   <v>       0.00007005      0.00000000      0.00000000</v>
   <v>       0.00015903     -0.00000000     -0.00000000</v>
   <v>       0.00083555      0.00001296     -0.00001296</v>
   <v>       0.00134731     -0.00000779      0.00000779</v>
   <v>       0.00083555     -0.00001296     -0.00001296</v>
   <v>       0.00134731      0.00000779      0.00000779</v>
   <v>       0.00083555      0.00001296      0.00001296</v>
   <v>       0.00134731     -0.00000779     -0.00000779</v>
   <v>       0.00083555     -0.00001296      0.00001296</v>
   <v>       0.00134731      0.00000779     -0.00000779</v>
   <v>       0.00297604     -0.00000000     -0.00267002</v>
   <v>       0.00298533     -0.00000000      0.00266947</v>
   <v>       0.00004272     -0.00000000     -0.00066868</v>
   <v>       0.00003522      0.00000000      0.00069520</v>
   <v>       0.00297604      0.00000000      0.00267002</v>
   <v>       0.00298533      0.00000000     -0.00266947</v>
   <v>       0.00004272     -0.00000000      0.00066868</v>
   <v>       0.00003522     -0.00000000     -0.00069520</v>
   <v>       0.00297604      0.00267002     -0.00000000</v>
   <v>       0.00298533     -0.00266947     -0.00000000</v>
   <v>       0.00297604     -0.00267002      0.00000000</v>
   <v>       0.00298533      0.00266947     -0.00000000</v>
   <v>       0.00004272      0.00066868     -0.00000000</v>
   <v>       0.00003522     -0.00069520     -0.00000000</v>
   <v>       0.00004272     -0.00066868     -0.00000000</v>
   <v>       0.00003522      0.00069520     -0.00000000</v>
  </varray>
  <varray name="stress" >
   <v>       7.81084546     -0.00000000      0.00000000</v>
   <v>      -0.00000000      7.81193379      0.00000000</v>
   <v>       0.00000000      0.00000000      7.81193379</v>
  </varray>
  <energy>
   <i name="e_fr_energy">   -119.03406953</i>
   <i name="e_wo_entrp">   -119.03357251</i>
   <i name="e_0_energy">     -0.00099405</i>
  </energy>
 </calculation>
 <calculation>
  <scstep>
   <time name="dav">   75.89   75.87</time>
   <time name="total">   79.50   79.48</time>
   <energy>
    <i name="alphaZ">   3401.25804187</i>
    <i name="ewald"> -35150.35099741</i>
    <i name="hartreedc">  -9790.89752233</i>
    <i name="XCdc">   1365.91651174</i>
    <i name="pawpsdc">  35088.17785047</i>
    <i name="pawaedc"> -39719.49958355</i>
    <i name="eentropy">     -0.00076321</i>
    <i name="bandstr">    174.89342182</i>
    <i name="atom">  44511.25856501</i>
    <i name="e_fr_energy">   -119.24447560</i>
    <i name="e_wo_entrp">   -119.24371238</i>
    <i name="e_0_energy">   -119.24409399</i>
   </energy>
  </scstep>
  <scstep>
   <time name="dav">   80.87   80.86</time>
   <time name="total">   84.72   84.71</time>
   <energy>
    <i name="e_fr_energy">   -119.09954068</i>
    <i name="e_wo_entrp">   -119.09875228</i>
    <i name="e_0_energy">   -119.09914648</i>
   </energy>
  </scstep>
  <scstep>
   <time name="dav">   77.27   77.26</time>
   <time name="total">   81.01   80.99</time>
   <energy>
    <i name="e_fr_energy">   -119.04641039</i>
    <i name="e_wo_entrp">   -119.04531376</i>
    <i name="e_0_energy">   -119.04586207</i>
   </energy>
  </scstep>
  <scstep>
   <time name="dav">   91.06   91.04</time>
   <time name="total">   94.46   94.44</time>
   <energy>
    <i name="e_fr_energy">   -119.03908928</i>
    <i name="e_wo_entrp">   -119.03804530</i>
    <i name="e_0_energy">   -119.03856729</i>
   </energy>
  </scstep>
  <scstep>
   <time name="dav">   92.12   92.12</time>
   <time name="total">   95.54   95.53</time>
   <energy>
    <i name="e_fr_energy">   -119.03911985</i>
    <i name="e_wo_entrp">   -119.03807873</i>
    <i name="e_0_energy">   -119.03859929</i>
   </energy>
  </scstep>
  <scstep>
   <time name="dav">   79.64   79.67</time>
   <time name="total">   83.43   83.46</time>
   <energy>
    <i name="e_fr_energy">   -119.03912517</i>
    <i name="e_wo_entrp">   -119.03808492</i>
    <i name="e_0_energy">   -119.03860504</i>
   </energy>
  </scstep>
  <scstep>
   <time name="dav">   81.01   81.00</time>
   <time name="total">   84.75   84.74</time>
   <energy>
    <i name="e_fr_energy">   -119.03914319</i>
    <i name="e_wo_entrp">   -119.03810175</i>
    <i name="e_0_energy">   -119.03862247</i>
   </energy>
  </scstep>
  <scstep>
   <time name="dav">   79.31   79.30</time>
   <time name="total">   83.12   83.11</time>
   <energy>
    <i name="e_fr_energy">   -119.03914500</i>
    <i name="e_wo_entrp">   -119.03810311</i>
    <i name="e_0_energy">   -119.03862405</i>
   </energy>
  </scstep>
  <scstep>
   <time name="dav">   80.80   80.78</time>
   <time name="total">   84.62   84.61</time>
   <energy>
    <i name="e_fr_energy">   -119.03914373</i>
    <i name="e_wo_entrp">   -119.03810151</i>
    <i name="e_0_energy">   -119.03862262</i>
   </energy>
  </scstep>
  <scstep>
   <time name="dav">   78.52   78.50</time>
   <time name="total">   82.33   82.32</time>
   <energy>
    <i name="e_fr_energy">   -119.03914345</i>
    <i name="e_wo_entrp">   -119.03810125</i>
    <i name="e_0_energy">   -119.03862235</i>
   </energy>
  </scstep>
  <scstep>
   <time name="dav">   52.68   52.67</time>
   <time name="total">   56.41   56.40</time>
   <energy>
    <i name="e_fr_energy">   -119.03914342</i>
    <i name="e_wo_entrp">   -119.03810122</i>
    <i name="e_0_energy">   -119.03862232</i>
   </energy>
  </scstep>
  <scstep>
   <time name="dav">   49.95   49.93</time>
   <time name="total">   53.79   53.78</time>
   <energy>
    <i name="e_fr_energy">   -119.03914340</i>
    <i name="e_wo_entrp">   -119.03810116</i>
    <i name="e_0_energy">   -119.03862228</i>
   </energy>
  </scstep>
  <scstep>
   <time name="dav">   49.51   49.50</time>
   <time name="total">   53.32   53.32</time>
   <energy>
    <i name="e_fr_energy">   -119.03914325</i>
    <i name="e_wo_entrp">   -119.03810100</i>
    <i name="e_0_energy">   -119.03862213</i>
   </energy>
  </scstep>
  <scstep>
   <time name="dav">   49.50   49.49</time>
   <time name="total">   49.85   49.85</time>
   <energy>
    <i name="alphaZ">   3401.25804187</i>
    <i name="ewald"> -35150.35099741</i>
    <i name="hartreedc">  -9844.59823725</i>
    <i name="XCdc">   1368.73460485</i>
    <i name="pawpsdc">  35062.11845910</i>
    <i name="pawaedc"> -39692.61404537</i>
    <i name="eentropy">     -0.00104225</i>
    <i name="bandstr">    225.15550820</i>
    <i name="atom">  44511.25856501</i>
    <i name="e_fr_energy">   -119.03914325</i>
    <i name="e_wo_entrp">   -119.03810101</i>
    <i name="e_0_energy">   -119.03862213</i>
   </energy>
  </scstep>
  <structure>
   <crystal>
    <varray name="basis" >
     <v>       7.27256844      0.00000000      0.00000000</v>
     <v>       0.00000000      7.27257125      0.00000000</v>
     <v>       0.00000000      0.00000000      7.27257125</v>
    </varray>
    <i name="volume">    384.64827267</i>
    <varray name="rec_basis" >
     <v>       0.13750300     -0.00000000      0.00000000</v>
     <v>       0.00000000      0.13750295      0.00000000</v>
     <v>       0.00000000      0.00000000      0.13750295</v>
    </varray>
   </crystal>
   <varray name="positions" >
    <v>       0.25098895      0.25000000      0.00000000</v>
    <v>       0.75000448      0.25000000     -0.00000000</v>
    <v>       0.24999833      0.75000000     -0.00000000</v>
    <v>       0.75000001      0.75000000      0.00000000</v>
    <v>       0.24999833      0.25000000      0.50000000</v>
    <v>       0.75000001      0.25000000      0.50000000</v>
    <v>       0.25000010      0.75000000      0.50000000</v>
    <v>       0.74999872      0.75000000      0.50000000</v>
    <v>       0.24999730      0.00000008      0.24999992</v>
    <v>       0.75000257      0.00000001      0.24999999</v>
    <v>       0.24999730      0.49999992      0.24999992</v>
    <v>       0.75000257      0.49999999      0.24999999</v>
    <v>       0.24999730      0.00000008      0.75000008</v>
    <v>       0.75000257      0.00000001      0.75000001</v>
    <v>       0.24999730      0.49999992      0.75000008</v>
    <v>       0.75000257      0.49999999      0.75000001</v>
    <v>       0.00002964      0.25000000      0.24996621</v>
    <v>       0.50003051      0.25000000      0.25003498</v>
    <v>       0.00000114      0.75000000      0.24999922</v>
    <v>       0.50000115      0.75000000      0.25000075</v>
    <v>       0.00002964      0.25000000      0.75003379</v>
    <v>       0.50003051      0.25000000      0.74996502</v>
    <v>       0.00000114      0.75000000      0.75000078</v>
    <v>       0.50000115      0.75000000      0.74999925</v>
    <v>       0.00002964      0.00003379     -0.00000000</v>
    <v>       0.50003051     -0.00003498     -0.00000000</v>
    <v>       0.00002964      0.49996621     -0.00000000</v>
    <v>       0.50003051      0.50003498     -0.00000000</v>
    <v>       0.00000114      0.00000078      0.50000000</v>
    <v>       0.50000115     -0.00000075      0.50000000</v>
    <v>       0.00000114      0.49999922      0.50000000</v>
    <v>       0.50000115      0.50000075      0.50000000</v>
   </varray>
  </structure>
  <varray name="forces" >
   <v>      -0.04382164     -0.00000000     -0.00000000</v>
   <v>       0.00017867     -0.00000000     -0.00000000</v>
   <v>      -0.00034109      0.00000000     -0.00000000</v>
   <v>       0.00164336      0.00000000     -0.00000000</v>
   <v>      -0.00034109     -0.00000000      0.00000000</v>
   <v>       0.00164336     -0.00000000     -0.00000000</v>
   <v>       0.00005053      0.00000000      0.00000000</v>
   <v>       0.00001584      0.00000000      0.00000000</v>
   <v>       0.00033040      0.00001301     -0.00001301</v>
   <v>       0.00108001     -0.00000637      0.00000637</v>
   <v>       0.00033040     -0.00001301     -0.00001301</v>
   <v>       0.00108001      0.00000637      0.00000637</v>
   <v>       0.00033040      0.00001301      0.00001301</v>
   <v>       0.00108001     -0.00000637     -0.00000637</v>
   <v>       0.00033040     -0.00001301      0.00001301</v>
   <v>       0.00108001      0.00000637     -0.00000637</v>
   <v>       0.00426838      0.00000000     -0.00438976</v>
   <v>       0.00433501     -0.00000000      0.00447458</v>
   <v>       0.00011635      0.00000000     -0.00049359</v>
   <v>       0.00011287      0.00000000      0.00051208</v>
   <v>       0.00426838      0.00000000      0.00438976</v>
   <v>       0.00433501     -0.00000000     -0.00447458</v>
   <v>       0.00011635      0.00000000      0.00049359</v>
   <v>       0.00011287      0.00000000     -0.00051208</v>
   <v>       0.00426838      0.00438976      0.00000000</v>
   <v>       0.00433501     -0.00447458     -0.00000000</v>
   <v>       0.00426838     -0.00438976     -0.00000000</v>
   <v>       0.00433501      0.00447458     -0.00000000</v>
   <v>       0.00011635      0.00049359     -0.00000000</v>
   <v>       0.00011287     -0.00051208     -0.00000000</v>
   <v>       0.00011635     -0.00049359     -0.00000000</v>
   <v>       0.00011287      0.00051208      0.00000000</v>
  </varray>
  <varray name="stress" >
   <v>       0.07720708      0.00000000      0.00000000</v>
   <v>      -0.00000000      0.07851369      0.00000000</v>
   <v>       0.00000000      0.00000000      0.07851369</v>
  </varray>
  <energy>
   <i name="e_fr_energy">   -119.03914325</i>
   <i name="e_wo_entrp">   -119.03862213</i>
   <i name="e_0_energy">     -0.00104225</i>
  </energy>
 </calculation>
 <calculation>
  <scstep>
   <time name="dav">   76.80   76.78</time>
   <time name="total">   80.87   80.86</time>
   <energy>
    <i name="alphaZ">   3401.15299681</i>
    <i name="ewald"> -35149.98910481</i>
    <i name="hartreedc">  -9844.49735310</i>
    <i name="XCdc">   1368.71673021</i>
    <i name="pawpsdc">  35062.11836553</i>
    <i name="pawaedc"> -39692.61470884</i>
    <i name="eentropy">     -0.00104611</i>
    <i name="bandstr">    224.81640413</i>
    <i name="atom">  44511.25856501</i>
    <i name="e_fr_energy">   -119.03915117</i>
    <i name="e_wo_entrp">   -119.03810506</i>
    <i name="e_0_energy">   -119.03862811</i>
   </energy>
  </scstep>
  <scstep>
   <time name="dav">   78.75   78.74</time>
   <time name="total">   82.59   82.57</time>
   <energy>
    <i name="e_fr_energy">   -119.03914413</i>
    <i name="e_wo_entrp">   -119.03810320</i>
    <i name="e_0_energy">   -119.03862366</i>
   </energy>
  </scstep>
  <scstep>
   <time name="dav">   77.74   77.73</time>
   <time name="total">   81.44   81.42</time>
   <energy>
    <i name="e_fr_energy">   -119.03914322</i>
    <i name="e_wo_entrp">   -119.03810030</i>
    <i name="e_0_energy">   -119.03862176</i>
   </energy>
  </scstep>
  <scstep>
   <time name="dav">   73.47   73.46</time>
   <time name="total">   76.85   76.84</time>
   <energy>
    <i name="e_fr_energy">   -119.03914276</i>
    <i name="e_wo_entrp">   -119.03810026</i>
    <i name="e_0_energy">   -119.03862151</i>
   </energy>
  </scstep>
  <scstep>
   <time name="dav">   58.31   58.30</time>
   <time name="total">   62.14   62.13</time>
   <energy>
    <i name="e_fr_energy">   -119.03914279</i>
    <i name="e_wo_entrp">   -119.03810031</i>
    <i name="e_0_energy">   -119.03862155</i>
   </energy>
  </scstep>
  <scstep>
   <time name="dav">   49.02   49.02</time>
   <time name="total">   52.74   52.73</time>
   <energy>
    <i name="e_fr_energy">   -119.03914286</i>
    <i name="e_wo_entrp">   -119.03810040</i>
    <i name="e_0_energy">   -119.03862163</i>
   </energy>
  </scstep>
  <scstep>
   <time name="dav">   49.22   49.21</time>
   <time name="total">   52.96   52.95</time>
   <energy>
    <i name="e_fr_energy">   -119.03914289</i>
    <i name="e_wo_entrp">   -119.03810043</i>
    <i name="e_0_energy">   -119.03862166</i>
   </energy>
  </scstep>
  <scstep>
   <time name="dav">   48.97   48.97</time>
   <time name="total">   52.81   52.80</time>
   <energy>
    <i name="e_fr_energy">   -119.03914297</i>
    <i name="e_wo_entrp">   -119.03810049</i>
    <i name="e_0_energy">   -119.03862173</i>
   </energy>
  </scstep>
  <scstep>
   <time name="dav">   48.68   48.67</time>
   <time name="total">   49.04   49.03</time>
   <energy>
    <i name="alphaZ">   3401.15299681</i>
    <i name="ewald"> -35149.98910481</i>
    <i name="hartreedc">  -9844.79797213</i>
    <i name="XCdc">   1368.73250486</i>
    <i name="pawpsdc">  35061.97349002</i>
    <i name="pawaedc"> -39692.46540641</i>
    <i name="eentropy">     -0.00104247</i>
    <i name="bandstr">    225.09682617</i>
    <i name="atom">  44511.25856501</i>
    <i name="e_fr_energy">   -119.03914297</i>
    <i name="e_wo_entrp">   -119.03810049</i>
    <i name="e_0_energy">   -119.03862173</i>
   </energy>
  </scstep>
  <structure>
   <crystal>
    <varray name="basis" >
     <v>       7.27264331      0.00000000      0.00000000</v>
     <v>       0.00000000      7.27264612      0.00000000</v>
     <v>       0.00000000      0.00000000      7.27264612</v>
    </varray>
    <i name="volume">    384.66015259</i>
    <varray name="rec_basis" >
     <v>       0.13750159     -0.00000000      0.00000000</v>
     <v>       0.00000000      0.13750153      0.00000000</v>
     <v>       0.00000000      0.00000000      0.13750153</v>
    </varray>
   </crystal>
   <varray name="positions" >
    <v>       0.25098963      0.25000000      0.00000000</v>
    <v>       0.75000447      0.25000000     -0.00000000</v>
    <v>       0.24999834      0.75000000     -0.00000000</v>
    <v>       0.75000001      0.75000000      0.00000000</v>
    <v>       0.24999834      0.25000000      0.50000000</v>
    <v>       0.75000001      0.25000000      0.50000000</v>
    <v>       0.25000010      0.75000000      0.50000000</v>
    <v>       0.74999872      0.75000000      0.50000000</v>
    <v>       0.24999731      0.00000008      0.24999992</v>
    <v>       0.75000256      0.00000001      0.24999999</v>
    <v>       0.24999731      0.49999992      0.24999992</v>
    <v>       0.75000256      0.49999999      0.24999999</v>
    <v>       0.24999731      0.00000008      0.75000008</v>
    <v>       0.75000256      0.00000001      0.75000001</v>
    <v>       0.24999731      0.49999992      0.75000008</v>
    <v>       0.75000256      0.49999999      0.75000001</v>
    <v>       0.00002955      0.25000000      0.24996630</v>
    <v>       0.50003043      0.25000000      0.25003488</v>
    <v>       0.00000113      0.75000000      0.24999922</v>
    <v>       0.50000114      0.75000000      0.25000074</v>
    <v>       0.00002955      0.25000000      0.75003370</v>
    <v>       0.50003043      0.25000000      0.74996512</v>
    <v>       0.00000113      0.75000000      0.75000078</v>
    <v>       0.50000114      0.75000000      0.74999926</v>
    <v>       0.00002955      0.00003370     -0.00000000</v>
    <v>       0.50003043     -0.00003488     -0.00000000</v>
    <v>       0.00002955      0.49996630     -0.00000000</v>
    <v>       0.50003043      0.50003488     -0.00000000</v>
    <v>       0.00000113      0.00000078      0.50000000</v>
    <v>       0.50000114     -0.00000074      0.50000000</v>
    <v>       0.00000113      0.49999922      0.50000000</v>
    <v>       0.50000114      0.50000074      0.50000000</v>
   </varray>
  </structure>
  <varray name="forces" >
   <v>      -0.04386676     -0.00000000      0.00000000</v>
   <v>       0.00018527      0.00000000      0.00000000</v>
   <v>      -0.00034372      0.00000000     -0.00000000</v>
   <v>       0.00164097     -0.00000000     -0.00000000</v>
   <v>      -0.00034372      0.00000000      0.00000000</v>
   <v>       0.00164097     -0.00000000      0.00000000</v>
   <v>       0.00004914     -0.00000000     -0.00000000</v>
   <v>       0.00001655      0.00000000      0.00000000</v>
   <v>       0.00032516      0.00001288     -0.00001288</v>
   <v>       0.00108092     -0.00000602      0.00000602</v>
   <v>       0.00032516     -0.00001288     -0.00001288</v>
   <v>       0.00108092      0.00000602      0.00000602</v>
   <v>       0.00032516      0.00001288      0.00001288</v>
   <v>       0.00108092     -0.00000602     -0.00000602</v>
   <v>       0.00032516     -0.00001288      0.00001288</v>
   <v>       0.00108092      0.00000602     -0.00000602</v>
   <v>       0.00427588     -0.00000000     -0.00440047</v>
   <v>       0.00434320      0.00000000      0.00448617</v>
   <v>       0.00011711      0.00000000     -0.00049348</v>
   <v>       0.00011305     -0.00000000      0.00051135</v>
   <v>       0.00427588     -0.00000000      0.00440047</v>
   <v>       0.00434320      0.00000000     -0.00448617</v>
   <v>       0.00011711      0.00000000      0.00049348</v>
   <v>       0.00011305      0.00000000     -0.00051135</v>
   <v>       0.00427588      0.00440047     -0.00000000</v>
   <v>       0.00434320     -0.00448617     -0.00000000</v>
   <v>       0.00427588     -0.00440047      0.00000000</v>
   <v>       0.00434320      0.00448617     -0.00000000</v>
   <v>       0.00011711      0.00049348      0.00000000</v>
   <v>       0.00011305     -0.00051135     -0.00000000</v>
   <v>       0.00011711     -0.00049348      0.00000000</v>
   <v>       0.00011305      0.00051135      0.00000000</v>
  </varray>
  <varray name="stress" >
   <v>       0.01041497     -0.00000000      0.00000000</v>
   <v>       0.00000000      0.01169256      0.00000000</v>
   <v>       0.00000000      0.00000000      0.01169256</v>
  </varray>
  <energy>
   <i name="e_fr_energy">   -119.03914297</i>
   <i name="e_wo_entrp">   -119.03862173</i>
   <i name="e_0_energy">     -0.00104247</i>
  </energy>
 </calculation>
 <calculation>
  <scstep>
   <time name="dav">   75.07   75.06</time>
   <time name="total">   78.94   78.92</time>
   <energy>
    <i name="alphaZ">   3401.12253275</i>
    <i name="ewald"> -35149.89171326</i>
    <i name="hartreedc">  -9844.76166411</i>
    <i name="XCdc">   1368.72728704</i>
    <i name="pawpsdc">  35061.97355382</i>
    <i name="pawaedc"> -39692.46557453</i>
    <i name="eentropy">     -0.00104368</i>
    <i name="bandstr">    224.99883820</i>
    <i name="atom">  44511.25856501</i>
    <i name="e_fr_energy">   -119.03921875</i>
    <i name="e_wo_entrp">   -119.03817507</i>
    <i name="e_0_energy">   -119.03869691</i>
   </energy>
  </scstep>
  <scstep>
   <time name="dav">   78.66   78.65</time>
   <time name="total">   82.63   82.62</time>
   <energy>
    <i name="e_fr_energy">   -119.03922508</i>
    <i name="e_wo_entrp">   -119.03818253</i>
    <i name="e_0_energy">   -119.03870380</i>
   </energy>
  </scstep>
  <scstep>
   <time name="dav">   79.51   79.53</time>
   <time name="total">   83.42   83.45</time>
   <energy>
    <i name="e_fr_energy">   -119.03922486</i>
    <i name="e_wo_entrp">   -119.03818208</i>
    <i name="e_0_energy">   -119.03870347</i>
   </energy>
  </scstep>
  <scstep>
   <time name="dav">   88.80   88.79</time>
   <time name="total">   92.65   92.64</time>
   <energy>
    <i name="e_fr_energy">   -119.03922379</i>
    <i name="e_wo_entrp">   -119.03818096</i>
    <i name="e_0_energy">   -119.03870238</i>
   </energy>
  </scstep>
  <scstep>
   <time name="dav">   97.88   97.86</time>
   <time name="total">  101.64  101.62</time>
   <energy>
    <i name="e_fr_energy">   -119.03922372</i>
    <i name="e_wo_entrp">   -119.03818108</i>
    <i name="e_0_energy">   -119.03870240</i>
   </energy>
  </scstep>
  <scstep>
   <time name="dav">   78.14   78.12</time>
   <time name="total">   81.82   81.80</time>
   <energy>
    <i name="e_fr_energy">   -119.03922373</i>
    <i name="e_wo_entrp">   -119.03818110</i>
    <i name="e_0_energy">   -119.03870242</i>
   </energy>
  </scstep>
  <scstep>
   <time name="dav">   51.57   51.56</time>
   <time name="total">   55.32   55.32</time>
   <energy>
    <i name="e_fr_energy">   -119.03922375</i>
    <i name="e_wo_entrp">   -119.03818114</i>
    <i name="e_0_energy">   -119.03870244</i>
   </energy>
  </scstep>
  <scstep>
   <time name="dav">   54.34   54.33</time>
   <time name="total">   58.03   58.02</time>
   <energy>
    <i name="e_fr_energy">   -119.03922381</i>
    <i name="e_wo_entrp">   -119.03818121</i>
    <i name="e_0_energy">   -119.03870251</i>
   </energy>
  </scstep>
  <scstep>
   <time name="dav">   49.90   49.89</time>
   <time name="total">   50.25   50.24</time>
   <energy>
    <i name="alphaZ">   3401.12253275</i>
    <i name="ewald"> -35149.89171326</i>
    <i name="hartreedc">  -9844.84917909</i>
    <i name="XCdc">   1368.73187759</i>
    <i name="pawpsdc">  35061.92939820</i>
    <i name="pawaedc"> -39692.41982308</i>
    <i name="eentropy">     -0.00104260</i>
    <i name="bandstr">    225.08016066</i>
    <i name="atom">  44511.25856501</i>
    <i name="e_fr_energy">   -119.03922380</i>
    <i name="e_wo_entrp">   -119.03818120</i>
    <i name="e_0_energy">   -119.03870250</i>
   </energy>
  </scstep>
  <structure>
   <crystal>
    <varray name="basis" >
     <v>       7.27266293     -0.00000000      0.00000000</v>
     <v>       0.00000000      7.27266888      0.00000000</v>
     <v>       0.00000000      0.00000000      7.27266888</v>
    </varray>
    <i name="volume">    384.66359801</i>
    <varray name="rec_basis" >
     <v>       0.13750122     -0.00000000      0.00000000</v>
     <v>       0.00000000      0.13750110      0.00000000</v>
     <v>       0.00000000      0.00000000      0.13750110</v>
    </varray>
   </crystal>
   <varray name="positions" >
    <v>       0.25071778      0.25000000      0.00000000</v>
    <v>       0.75000562      0.25000000      0.00000000</v>
    <v>       0.24999621      0.75000000     -0.00000000</v>
    <v>       0.75001018      0.75000000     -0.00000000</v>
    <v>       0.24999621      0.25000000      0.50000000</v>
    <v>       0.75001018      0.25000000      0.50000000</v>
    <v>       0.25000040      0.75000000      0.50000000</v>
    <v>       0.74999883      0.75000000      0.50000000</v>
    <v>       0.24999933      0.00000016      0.24999984</v>
    <v>       0.75000926     -0.00000003      0.25000003</v>
    <v>       0.24999933      0.49999984      0.24999984</v>
    <v>       0.75000926      0.50000003      0.25000003</v>
    <v>       0.24999933      0.00000016      0.75000016</v>
    <v>       0.75000926     -0.00000003      0.74999997</v>
    <v>       0.24999933      0.49999984      0.75000016</v>
    <v>       0.75000926      0.50000003      0.74999997</v>
    <v>       0.00005605      0.25000000      0.24993903</v>
    <v>       0.50005734      0.25000000      0.25006268</v>
    <v>       0.00000186      0.75000000      0.24999617</v>
    <v>       0.50000184      0.75000000      0.25000391</v>
    <v>       0.00005605      0.25000000      0.75006097</v>
    <v>       0.50005734      0.25000000      0.74993732</v>
    <v>       0.00000186      0.75000000      0.75000383</v>
    <v>       0.50000184      0.75000000      0.74999609</v>
    <v>       0.00005605      0.00006097     -0.00000000</v>
    <v>       0.50005734     -0.00006268     -0.00000000</v>
    <v>       0.00005605      0.49993903      0.00000000</v>
    <v>       0.50005734      0.50006268     -0.00000000</v>
    <v>       0.00000186      0.00000383      0.50000000</v>
    <v>       0.50000184     -0.00000391      0.50000000</v>
    <v>       0.00000186      0.49999617      0.50000000</v>
    <v>       0.50000184      0.50000391      0.50000000</v>
   </varray>
  </structure>
  <varray name="forces" >
   <v>      -0.02824959      0.00000000      0.00000000</v>
   <v>      -0.00036664      0.00000000     -0.00000000</v>
   <v>      -0.00012763      0.00000000     -0.00000000</v>
   <v>       0.00243928     -0.00000000      0.00000000</v>
   <v>      -0.00012763      0.00000000     -0.00000000</v>
   <v>       0.00243928     -0.00000000     -0.00000000</v>
   <v>      -0.00009032      0.00000000      0.00000000</v>
   <v>       0.00032480     -0.00000000      0.00000000</v>
   <v>       0.00105681      0.00000762     -0.00000762</v>
   <v>       0.00128360     -0.00000646      0.00000646</v>
   <v>       0.00105681     -0.00000762     -0.00000762</v>
   <v>       0.00128360      0.00000646      0.00000646</v>
   <v>       0.00105681      0.00000762      0.00000762</v>
   <v>       0.00128360     -0.00000646     -0.00000646</v>
   <v>       0.00105681     -0.00000762      0.00000762</v>
   <v>       0.00128360      0.00000646     -0.00000646</v>
   <v>       0.00165129     -0.00000000     -0.00109684</v>
   <v>       0.00163284     -0.00000000      0.00106078</v>
   <v>       0.00016143     -0.00000000     -0.00052595</v>
   <v>       0.00015364     -0.00000000      0.00054608</v>
   <v>       0.00165129     -0.00000000      0.00109684</v>
   <v>       0.00163284     -0.00000000     -0.00106078</v>
   <v>       0.00016143     -0.00000000      0.00052595</v>
   <v>       0.00015364     -0.00000000     -0.00054608</v>
   <v>       0.00165129      0.00109684      0.00000000</v>
   <v>       0.00163284     -0.00106078     -0.00000000</v>
   <v>       0.00165129     -0.00109684     -0.00000000</v>
   <v>       0.00163284      0.00106078     -0.00000000</v>
   <v>       0.00016143      0.00052595     -0.00000000</v>
   <v>       0.00015364     -0.00054608      0.00000000</v>
   <v>       0.00016143     -0.00052595     -0.00000000</v>
   <v>       0.00015364      0.00054608     -0.00000000</v>
  </varray>
  <varray name="stress" >
   <v>      -0.01025484      0.00000000      0.00000000</v>
   <v>      -0.00000000     -0.00886983      0.00000000</v>
   <v>       0.00000000      0.00000000     -0.00886983</v>
  </varray>
  <energy>
   <i name="e_fr_energy">   -119.03922380</i>
   <i name="e_wo_entrp">   -119.03870250</i>
   <i name="e_0_energy">     -0.00104260</i>
  </energy>
 </calculation>
 <calculation>
  <scstep>
   <time name="dav">   75.20   75.19</time>
   <time name="total">   78.91   78.90</time>
   <energy>
    <i name="alphaZ">   3401.07290869</i>
    <i name="ewald"> -35149.72426842</i>
    <i name="hartreedc">  -9844.79825660</i>
    <i name="XCdc">   1368.72341765</i>
    <i name="pawpsdc">  35061.92924739</i>
    <i name="pawaedc"> -39692.41954189</i>
    <i name="eentropy">     -0.00104451</i>
    <i name="bandstr">    224.91971752</i>
    <i name="atom">  44511.25856501</i>
    <i name="e_fr_energy">   -119.03925517</i>
    <i name="e_wo_entrp">   -119.03821066</i>
    <i name="e_0_energy">   -119.03873291</i>
   </energy>
  </scstep>
  <scstep>
   <time name="dav">   78.17   78.16</time>
   <time name="total">   82.02   82.01</time>
   <energy>
    <i name="e_fr_energy">   -119.03927272</i>
    <i name="e_wo_entrp">   -119.03823004</i>
    <i name="e_0_energy">   -119.03875138</i>
   </energy>
  </scstep>
  <scstep>
   <time name="dav">   79.36   79.35</time>
   <time name="total">   83.14   83.13</time>
   <energy>
    <i name="e_fr_energy">   -119.03927205</i>
    <i name="e_wo_entrp">   -119.03822900</i>
    <i name="e_0_energy">   -119.03875052</i>
   </energy>
  </scstep>
  <scstep>
   <time name="dav">   91.41   91.40</time>
   <time name="total">   95.22   95.20</time>
   <energy>
    <i name="e_fr_energy">   -119.03926920</i>
    <i name="e_wo_entrp">   -119.03822605</i>
    <i name="e_0_energy">   -119.03874762</i>
   </energy>
  </scstep>
  <scstep>
   <time name="dav">   97.55   97.53</time>
   <time name="total">  101.06  101.04</time>
   <energy>
    <i name="e_fr_energy">   -119.03926910</i>
    <i name="e_wo_entrp">   -119.03822625</i>
    <i name="e_0_energy">   -119.03874768</i>
   </energy>
  </scstep>
  <scstep>
   <time name="dav">   78.20   78.18</time>
   <time name="total">   81.93   81.91</time>
   <energy>
    <i name="e_fr_energy">   -119.03926911</i>
    <i name="e_wo_entrp">   -119.03822629</i>
    <i name="e_0_energy">   -119.03874770</i>
   </energy>
  </scstep>
  <scstep>
   <time name="dav">   77.20   77.21</time>
   <time name="total">   80.88   80.90</time>
   <energy>
    <i name="e_fr_energy">   -119.03926913</i>
    <i name="e_wo_entrp">   -119.03822634</i>
    <i name="e_0_energy">   -119.03874774</i>
   </energy>
  </scstep>
  <scstep>
   <time name="dav">   66.90   66.90</time>
   <time name="total">   70.54   70.55</time>
   <energy>
    <i name="e_fr_energy">   -119.03926921</i>
    <i name="e_wo_entrp">   -119.03822645</i>
    <i name="e_0_energy">   -119.03874783</i>
   </energy>
  </scstep>
  <scstep>
   <time name="dav">   50.04   50.03</time>
   <time name="total">   50.40   50.40</time>
   <energy>
    <i name="alphaZ">   3401.07290869</i>
    <i name="ewald"> -35149.72426842</i>
    <i name="hartreedc">  -9844.94036596</i>
    <i name="XCdc">   1368.73087199</i>
    <i name="pawpsdc">  35061.85965014</i>
    <i name="pawaedc"> -39692.34775633</i>
    <i name="eentropy">     -0.00104277</i>
    <i name="bandstr">    225.05216843</i>
    <i name="atom">  44511.25856501</i>
    <i name="e_fr_energy">   -119.03926922</i>
    <i name="e_wo_entrp">   -119.03822644</i>
    <i name="e_0_energy">   -119.03874783</i>
   </energy>
  </scstep>
  <structure>
   <crystal>
    <varray name="basis" >
     <v>       7.27269489     -0.00000000      0.00000000</v>
     <v>       0.00000000      7.27270596      0.00000000</v>
     <v>       0.00000000      0.00000000      7.27270596</v>
    </varray>
    <i name="volume">    384.66921052</i>
    <varray name="rec_basis" >
     <v>       0.13750061     -0.00000000      0.00000000</v>
     <v>       0.00000000      0.13750040      0.00000000</v>
     <v>       0.00000000      0.00000000      0.13750040</v>
    </varray>
   </crystal>
   <varray name="positions" >
    <v>       0.25027494      0.25000000      0.00000000</v>
    <v>       0.75000749      0.25000000      0.00000000</v>
    <v>       0.24999274      0.75000000     -0.00000000</v>
    <v>       0.75002674      0.75000000     -0.00000000</v>
    <v>       0.24999274      0.25000000      0.50000000</v>
    <v>       0.75002674      0.25000000      0.50000000</v>
    <v>       0.25000090      0.75000000      0.50000000</v>
    <v>       0.74999899      0.75000000      0.50000000</v>
    <v>       0.25000261      0.00000029      0.24999971</v>
    <v>       0.75002017     -0.00000009      0.25000009</v>
    <v>       0.25000261      0.49999971      0.24999971</v>
    <v>       0.75002017      0.50000009      0.25000009</v>
    <v>       0.25000261      0.00000029      0.75000029</v>
    <v>       0.75002017     -0.00000009      0.74999991</v>
    <v>       0.25000261      0.49999971      0.75000029</v>
    <v>       0.75002017      0.50000009      0.74999991</v>
    <v>       0.00009922      0.25000000      0.24989460</v>
    <v>       0.50010119      0.25000000      0.25010798</v>
    <v>       0.00000304      0.75000000      0.24999118</v>
    <v>       0.50000299      0.75000000      0.25000907</v>
    <v>       0.00009922      0.25000000      0.75010540</v>
    <v>       0.50010119      0.25000000      0.74989202</v>
    <v>       0.00000304      0.75000000      0.75000882</v>
    <v>       0.50000299      0.75000000      0.74999093</v>
    <v>       0.00009922      0.00010540     -0.00000000</v>
    <v>       0.50010119     -0.00010798     -0.00000000</v>
    <v>       0.00009922      0.49989460      0.00000000</v>
    <v>       0.50010119      0.50010798     -0.00000000</v>
    <v>       0.00000304      0.00000882      0.50000000</v>
    <v>       0.50000299     -0.00000907      0.50000000</v>
    <v>       0.00000304      0.49999118      0.50000000</v>
    <v>       0.50000299      0.50000907      0.50000000</v>
   </varray>
  </structure>
  <varray name="forces" >
   <v>      -0.00277565      0.00000000     -0.00000000</v>
   <v>      -0.00120896      0.00000000      0.00000000</v>
   <v>       0.00023618     -0.00000000      0.00000000</v>
   <v>       0.00368281     -0.00000000     -0.00000000</v>
   <v>       0.00023618     -0.00000000     -0.00000000</v>
   <v>       0.00368281     -0.00000000     -0.00000000</v>
   <v>      -0.00029447      0.00000000     -0.00000000</v>
   <v>       0.00083069     -0.00000000     -0.00000000</v>
   <v>       0.00224899      0.00000150     -0.00000150</v>
   <v>       0.00157570     -0.00000755      0.00000755</v>
   <v>       0.00224899     -0.00000150     -0.00000150</v>
   <v>       0.00157570      0.00000755      0.00000755</v>
   <v>       0.00224899      0.00000150      0.00000150</v>
   <v>       0.00157570     -0.00000755     -0.00000755</v>
   <v>       0.00224899     -0.00000150      0.00000150</v>
   <v>       0.00157570      0.00000755     -0.00000755</v>
   <v>      -0.00265642      0.00000000      0.00432898</v>
   <v>      -0.00275256      0.00000000     -0.00447645</v>
   <v>       0.00025048     -0.00000000     -0.00058213</v>
   <v>       0.00023640     -0.00000000      0.00060665</v>
   <v>      -0.00265642      0.00000000     -0.00432898</v>
   <v>      -0.00275256      0.00000000      0.00447645</v>
   <v>       0.00025048     -0.00000000      0.00058213</v>
   <v>       0.00023640     -0.00000000     -0.00060665</v>
   <v>      -0.00265642     -0.00432898      0.00000000</v>
   <v>      -0.00275256      0.00447645     -0.00000000</v>
   <v>      -0.00265642      0.00432898      0.00000000</v>
   <v>      -0.00275256     -0.00447645     -0.00000000</v>
   <v>       0.00025048      0.00058213      0.00000000</v>
   <v>       0.00023640     -0.00060665     -0.00000000</v>
   <v>       0.00025048     -0.00058213     -0.00000000</v>
   <v>       0.00023640      0.00060665     -0.00000000</v>
  </varray>
  <varray name="stress" >
   <v>      -0.03296707      0.00000000      0.00000000</v>
   <v>       0.00000000     -0.03131870      0.00000000</v>
   <v>       0.00000000      0.00000000     -0.03131870</v>
  </varray>
  <energy>
   <i name="e_fr_energy">   -119.03926922</i>
   <i name="e_wo_entrp">   -119.03874783</i>
   <i name="e_0_energy">     -0.00104277</i>
  </energy>
 </calculation>
 <calculation>
  <scstep>
   <time name="dav">   75.43   75.41</time>
   <time name="total">   78.99   78.97</time>
   <energy>
    <i name="alphaZ">   3401.07650344</i>
    <i name="ewald"> -35149.73676445</i>
    <i name="hartreedc">  -9844.94330464</i>
    <i name="XCdc">   1368.73146295</i>
    <i name="pawpsdc">  35061.85882894</i>
    <i name="pawaedc"> -39692.34670234</i>
    <i name="eentropy">     -0.00104264</i>
    <i name="bandstr">    225.06318436</i>
    <i name="atom">  44511.25856501</i>
    <i name="e_fr_energy">   -119.03926939</i>
    <i name="e_wo_entrp">   -119.03822674</i>
    <i name="e_0_energy">   -119.03874806</i>
   </energy>
  </scstep>
  <scstep>
   <time name="dav">   80.39   80.38</time>
   <time name="total">   84.18   84.17</time>
   <energy>
    <i name="e_fr_energy">   -119.03926956</i>
    <i name="e_wo_entrp">   -119.03822679</i>
    <i name="e_0_energy">   -119.03874818</i>
   </energy>
  </scstep>
  <scstep>
   <time name="dav">   79.28   79.26</time>
   <time name="total">   82.97   82.95</time>
   <energy>
    <i name="e_fr_energy">   -119.03926955</i>
    <i name="e_wo_entrp">   -119.03822680</i>
    <i name="e_0_energy">   -119.03874817</i>
   </energy>
  </scstep>
  <scstep>
   <time name="dav">   56.89   56.88</time>
   <time name="total">   60.64   60.63</time>
   <energy>
    <i name="e_fr_energy">   -119.03926953</i>
    <i name="e_wo_entrp">   -119.03822679</i>
    <i name="e_0_energy">   -119.03874816</i>
   </energy>
  </scstep>
  <scstep>
   <time name="dav">   50.23   50.22</time>
   <time name="total">   50.58   50.57</time>
   <energy>
    <i name="alphaZ">   3401.07650344</i>
    <i name="ewald"> -35149.73676445</i>
    <i name="hartreedc">  -9844.93266856</i>
    <i name="XCdc">   1368.73091221</i>
    <i name="pawpsdc">  35061.86076276</i>
    <i name="pawaedc"> -39692.34986679</i>
    <i name="eentropy">     -0.00104276</i>
    <i name="bandstr">    225.05432960</i>
    <i name="atom">  44511.25856501</i>
    <i name="e_fr_energy">   -119.03926954</i>
    <i name="e_wo_entrp">   -119.03822678</i>
    <i name="e_0_energy">   -119.03874816</i>
   </energy>
  </scstep>
  <structure>
   <crystal>
    <varray name="basis" >
     <v>       7.27269258     -0.00000000      0.00000000</v>
     <v>       0.00000000      7.27270327      0.00000000</v>
     <v>       0.00000000      0.00000000      7.27270327</v>
    </varray>
    <i name="volume">    384.66880395</i>
    <varray name="rec_basis" >
     <v>       0.13750066     -0.00000000      0.00000000</v>
     <v>       0.00000000      0.13750045      0.00000000</v>
     <v>       0.00000000      0.00000000      0.13750045</v>
    </varray>
   </crystal>
   <varray name="positions" >
    <v>       0.25030701      0.25000000      0.00000000</v>
    <v>       0.75000736      0.25000000      0.00000000</v>
    <v>       0.24999299      0.75000000     -0.00000000</v>
    <v>       0.75002554      0.75000000     -0.00000000</v>
    <v>       0.24999299      0.25000000      0.50000000</v>
    <v>       0.75002554      0.25000000      0.50000000</v>
    <v>       0.25000086      0.75000000      0.50000000</v>
    <v>       0.74999898      0.75000000      0.50000000</v>
    <v>       0.25000237      0.00000028      0.24999972</v>
    <v>       0.75001938     -0.00000009      0.25000009</v>
    <v>       0.25000237      0.49999972      0.24999972</v>
    <v>       0.75001938      0.50000009      0.25000009</v>
    <v>       0.25000237      0.00000028      0.75000028</v>
    <v>       0.75001938     -0.00000009      0.74999991</v>
    <v>       0.25000237      0.49999972      0.75000028</v>
    <v>       0.75001938      0.50000009      0.74999991</v>
    <v>       0.00009610      0.25000000      0.24989782</v>
    <v>       0.50009802      0.25000000      0.25010469</v>
    <v>       0.00000296      0.75000000      0.24999155</v>
    <v>       0.50000290      0.75000000      0.25000870</v>
    <v>       0.00009610      0.25000000      0.75010218</v>
    <v>       0.50009802      0.25000000      0.74989531</v>
    <v>       0.00000296      0.75000000      0.75000845</v>
    <v>       0.50000290      0.75000000      0.74999130</v>
    <v>       0.00009610      0.00010218     -0.00000000</v>
    <v>       0.50009802     -0.00010469     -0.00000000</v>
    <v>       0.00009610      0.49989782      0.00000000</v>
    <v>       0.50009802      0.50010469     -0.00000000</v>
    <v>       0.00000296      0.00000845      0.50000000</v>
    <v>       0.50000290     -0.00000870      0.50000000</v>
    <v>       0.00000296      0.49999155      0.50000000</v>
    <v>       0.50000290      0.50000870      0.50000000</v>
   </varray>
  </structure>
  <varray name="forces" >
   <v>      -0.00463646      0.00000000     -0.00000000</v>
   <v>      -0.00114149      0.00000000     -0.00000000</v>
   <v>       0.00019876     -0.00000000     -0.00000000</v>
   <v>       0.00360470     -0.00000000      0.00000000</v>
   <v>       0.00019876     -0.00000000      0.00000000</v>
   <v>       0.00360470     -0.00000000     -0.00000000</v>
   <v>      -0.00028532      0.00000000     -0.00000000</v>
   <v>       0.00079469     -0.00000000      0.00000000</v>
   <v>       0.00216986      0.00000227     -0.00000227</v>
   <v>       0.00156624     -0.00000676      0.00000676</v>
   <v>       0.00216986     -0.00000227     -0.00000227</v>
   <v>       0.00156624      0.00000676      0.00000676</v>
   <v>       0.00216986      0.00000227      0.00000227</v>
   <v>       0.00156624     -0.00000676     -0.00000676</v>
   <v>       0.00216986     -0.00000227      0.00000227</v>
   <v>       0.00156624      0.00000676     -0.00000676</v>
   <v>      -0.00235390      0.00000000      0.00394633</v>
   <v>      -0.00244432      0.00000000     -0.00408830</v>
   <v>       0.00024496     -0.00000000     -0.00058465</v>
   <v>       0.00023258     -0.00000000      0.00060717</v>
   <v>      -0.00235390      0.00000000     -0.00394633</v>
   <v>      -0.00244432      0.00000000      0.00408830</v>
   <v>       0.00024496     -0.00000000      0.00058465</v>
   <v>       0.00023258     -0.00000000     -0.00060717</v>
   <v>      -0.00235390     -0.00394633      0.00000000</v>
   <v>      -0.00244432      0.00408830     -0.00000000</v>
   <v>      -0.00235390      0.00394633      0.00000000</v>
   <v>      -0.00244432     -0.00408830     -0.00000000</v>
   <v>       0.00024496      0.00058465     -0.00000000</v>
   <v>       0.00023258     -0.00060717      0.00000000</v>
   <v>       0.00024496     -0.00058465     -0.00000000</v>
   <v>       0.00023258      0.00060717      0.00000000</v>
  </varray>
  <varray name="stress" >
   <v>      -0.03608366     -0.00000000      0.00000000</v>
   <v>      -0.00000000     -0.03445361      0.00000000</v>
   <v>       0.00000000      0.00000000     -0.03445361</v>
  </varray>
  <energy>
   <i name="e_fr_energy">   -119.03926954</i>
   <i name="e_wo_entrp">   -119.03874816</i>
   <i name="e_0_energy">     -0.00104276</i>
  </energy>
 </calculation>
 <calculation>
  <scstep>
   <time name="dav">   75.59   75.58</time>
   <time name="total">   79.33   79.31</time>
   <energy>
    <i name="alphaZ">   3401.22905121</i>
    <i name="ewald"> -35150.26306671</i>
    <i name="hartreedc">  -9845.07913526</i>
    <i name="XCdc">   1368.75690175</i>
    <i name="pawpsdc">  35061.86074191</i>
    <i name="pawaedc"> -39692.34972959</i>
    <i name="eentropy">     -0.00103698</i>
    <i name="bandstr">    225.54841753</i>
    <i name="atom">  44511.25856501</i>
    <i name="e_fr_energy">   -119.03929113</i>
    <i name="e_wo_entrp">   -119.03825416</i>
    <i name="e_0_energy">   -119.03877264</i>
   </energy>
  </scstep>
  <scstep>
   <time name="dav">   80.23   80.22</time>
   <time name="total">   83.87   83.86</time>
   <energy>
    <i name="e_fr_energy">   -119.03928676</i>
    <i name="e_wo_entrp">   -119.03824234</i>
    <i name="e_0_energy">   -119.03876455</i>
   </energy>
  </scstep>
  <scstep>
   <time name="dav">   77.87   77.85</time>
   <time name="total">   81.48   81.47</time>
   <energy>
    <i name="e_fr_energy">   -119.03928222</i>
    <i name="e_wo_entrp">   -119.03824048</i>
    <i name="e_0_energy">   -119.03876135</i>
   </energy>
  </scstep>
  <scstep>
   <time name="dav">   79.29   79.27</time>
   <time name="total">   83.26   83.24</time>
   <energy>
    <i name="e_fr_energy">   -119.03928215</i>
    <i name="e_wo_entrp">   -119.03824026</i>
    <i name="e_0_energy">   -119.03876121</i>
[...]
       <r>   1.0704  1.0000</r>
       <r>   1.0711  1.0000</r>
       <r>   1.1034  1.0000</r>
       <r>   1.1034  1.0000</r>
       <r>   1.1116  1.0000</r>
       <r>   1.1116  1.0000</r>
       <r>   1.2155  1.0000</r>
       <r>   1.2155  1.0000</r>
       <r>   1.2586  1.0000</r>
       <r>   1.2801  1.0000</r>
       <r>   1.2801  1.0000</r>
       <r>   1.3144  1.0000</r>
       <r>   1.4512  1.0000</r>
       <r>   1.5201  1.0000</r>
       <r>   1.5201  1.0000</r>
       <r>   1.5298  1.0000</r>
       <r>   1.5387  1.0000</r>
       <r>   1.5387  1.0000</r>
       <r>   1.5816  1.0000</r>
       <r>   1.5816  1.0000</r>
       <r>   1.6063  1.0000</r>
       <r>   1.6063  1.0000</r>
       <r>   1.6091  1.0000</r>
       <r>   1.6091  1.0000</r>
       <r>   1.6316  1.0000</r>
       <r>   1.6591  1.0000</r>
       <r>   1.6591  1.0000</r>
       <r>   1.6625  1.0000</r>
       <r>   1.6901  1.0000</r>
       <r>   1.6901  1.0000</r>
       <r>   1.7072  1.0000</r>
       <r>   1.7758  1.0000</r>
       <r>   1.8239  1.0000</r>
       <r>   1.8365  1.0000</r>
       <r>   1.8686  1.0000</r>
       <r>   1.8686  1.0000</r>
       <r>   1.9074  1.0000</r>
       <r>   1.9074  1.0000</r>
       <r>   1.9124  1.0000</r>
       <r>   1.9124  1.0000</r>
       <r>   1.9129  1.0000</r>
       <r>   1.9270  1.0000</r>
       <r>   1.9270  1.0000</r>
       <r>   1.9382  1.0000</r>
       <r>   1.9382  1.0000</r>
       <r>   1.9421  1.0000</r>
       <r>   1.9421  1.0000</r>
       <r>   1.9460  1.0000</r>
       <r>   1.9547  1.0000</r>
       <r>   1.9547  1.0000</r>
       <r>   1.9597  1.0000</r>
       <r>   1.9597  1.0000</r>
       <r>   1.9672  1.0000</r>
       <r>   1.9672  1.0000</r>
       <r>   1.9722  1.0000</r>
       <r>   1.9722  1.0000</r>
       <r>   1.9855  1.0000</r>
       <r>   1.9873  1.0000</r>
       <r>   1.9873  1.0000</r>
       <r>   2.0079  1.0000</r>
       <r>   2.3609  1.0000</r>
       <r>   2.5991  1.0000</r>
       <r>   2.5991  1.0000</r>
       <r>   2.7258  1.0000</r>
       <r>   3.2665  1.0000</r>
       <r>   3.2665  1.0000</r>
       <r>   3.7460  0.0000</r>
       <r>   3.7460  0.0000</r>
       <r>   4.1094  0.0000</r>
       <r>   4.1094  0.0000</r>
       <r>   4.6517  0.0000</r>
       <r>   4.6517  0.0000</r>
       <r>   5.0262  0.0000</r>
       <r>   5.0262  0.0000</r>
       <r>   5.0326  0.0000</r>
       <r>   5.0326  0.0000</r>
       <r>   5.8502  0.0000</r>
       <r>   5.8502  0.0000</r>
       <r>   6.0791  0.0000</r>
       <r>   6.0791  0.0000</r>
       <r>   6.8022  0.0000</r>
       <r>   7.3672  0.0000</r>
       <r>   7.3672  0.0000</r>
       <r>   7.7309  0.0000</r>
       <r>   7.8471  0.0000</r>
       <r>   7.8471  0.0000</r>
       <r>   7.9128  0.0000</r>
       <r>   7.9128  0.0000</r>
       <r>   8.3612  0.0000</r>
       <r>   8.3612  0.0000</r>
       <r>   8.5373  0.0000</r>
       <r>   8.7280  0.0000</r>
       <r>   8.7280  0.0000</r>
       <r>   9.4859  0.0000</r>
       <r>   9.4859  0.0000</r>
       <r>  10.5782  0.0000</r>
       <r>  10.6707  0.0000</r>
       <r>  11.7875  0.0000</r>
       <r>  11.7875  0.0000</r>
       <r>  11.7927  0.0000</r>
       <r>  12.0434  0.0000</r>
       <r>  12.0434  0.0000</r>
       <r>  12.2790  0.0000</r>
       <r>  12.3264  0.0000</r>
       <r>  12.6157  0.0000</r>
       <r>  12.6157  0.0000</r>
       <r>  12.9205  0.0000</r>
       <r>  13.0885  0.0000</r>
      </set>
      <set comment="kpoint 39">
       <r>  -4.2715  1.0000</r>
       <r>  -3.8807  1.0000</r>
       <r>  -3.8807  1.0000</r>
       <r>  -3.5057  1.0000</r>
       <r>  -3.1526  1.0000</r>
       <r>  -2.8270  1.0000</r>
       <r>  -2.8270  1.0000</r>
       <r>  -2.5422  1.0000</r>
       <r>  -1.1352  1.0000</r>
       <r>  -1.0290  1.0000</r>
       <r>  -1.0290  1.0000</r>
       <r>  -1.0058  1.0000</r>
       <r>  -0.9586  1.0000</r>
       <r>  -0.9586  1.0000</r>
       <r>  -0.8419  1.0000</r>
       <r>  -0.8419  1.0000</r>
       <r>  -0.8012  1.0000</r>
       <r>  -0.8012  1.0000</r>
       <r>  -0.7688  1.0000</r>
       <r>  -0.7688  1.0000</r>
       <r>  -0.7109  1.0000</r>
       <r>  -0.7026  1.0000</r>
       <r>  -0.7026  1.0000</r>
       <r>  -0.6886  1.0000</r>
       <r>  -0.6886  1.0000</r>
       <r>  -0.5924  1.0000</r>
       <r>  -0.5924  1.0000</r>
       <r>  -0.5890  1.0000</r>
       <r>  -0.5890  1.0000</r>
       <r>  -0.5470  1.0000</r>
       <r>  -0.5470  1.0000</r>
       <r>  -0.5178  1.0000</r>
       <r>  -0.3832  1.0000</r>
       <r>  -0.3797  1.0000</r>
       <r>  -0.3797  1.0000</r>
       <r>  -0.2952  1.0000</r>
       <r>  -0.2952  1.0000</r>
       <r>  -0.2853  1.0000</r>
       <r>  -0.2853  1.0000</r>
       <r>  -0.2812  1.0000</r>
       <r>  -0.2812  1.0000</r>
       <r>  -0.2133  1.0000</r>
       <r>  -0.1849  1.0000</r>
       <r>  -0.1849  1.0000</r>
       <r>  -0.1143  1.0000</r>
       <r>  -0.1143  1.0000</r>
       <r>  -0.0858  1.0000</r>
       <r>  -0.0144  1.0000</r>
       <r>  -0.0144  1.0000</r>
       <r>   0.0160  1.0000</r>
       <r>   0.0160  1.0000</r>
       <r>   0.0376  1.0000</r>
       <r>   0.0376  1.0000</r>
       <r>   0.1248  1.0000</r>
       <r>   0.1248  1.0000</r>
       <r>   0.1719  1.0000</r>
       <r>   0.3264  1.0000</r>
       <r>   0.3453  1.0000</r>
       <r>   0.3694  1.0000</r>
       <r>   0.3694  1.0000</r>
       <r>   0.3777  1.0000</r>
       <r>   0.3777  1.0000</r>
       <r>   0.4281  1.0000</r>
       <r>   0.4912  1.0000</r>
       <r>   0.5368  1.0000</r>
       <r>   0.5368  1.0000</r>
       <r>   0.5553  1.0000</r>
       <r>   0.5553  1.0000</r>
       <r>   0.5604  1.0000</r>
       <r>   0.5604  1.0000</r>
       <r>   0.5955  1.0000</r>
       <r>   0.5955  1.0000</r>
       <r>   0.6023  1.0000</r>
       <r>   0.6104  1.0000</r>
       <r>   0.6104  1.0000</r>
       <r>   0.6106  1.0000</r>
       <r>   0.6466  1.0000</r>
       <r>   0.6466  1.0000</r>
       <r>   0.6855  1.0000</r>
       <r>   0.7227  1.0000</r>
       <r>   0.7227  1.0000</r>
       <r>   0.7396  1.0000</r>
       <r>   0.7555  1.0000</r>
       <r>   0.7555  1.0000</r>
       <r>   0.7658  1.0000</r>
       <r>   0.7796  1.0000</r>
       <r>   0.7842  1.0000</r>
       <r>   0.7842  1.0000</r>
       <r>   0.7912  1.0000</r>
       <r>   0.7912  1.0000</r>
       <r>   0.7966  1.0000</r>
       <r>   0.8013  1.0000</r>
       <r>   0.8086  1.0000</r>
       <r>   0.8130  1.0000</r>
       <r>   0.8130  1.0000</r>
       <r>   0.8140  1.0000</r>
       <r>   0.8140  1.0000</r>
       <r>   0.8445  1.0000</r>
       <r>   0.8445  1.0000</r>
       <r>   0.8458  1.0000</r>
       <r>   0.8574  1.0000</r>
       <r>   0.9689  1.0000</r>
       <r>   0.9689  1.0000</r>
       <r>   0.9778  1.0000</r>
       <r>   1.0035  1.0000</r>
       <r>   1.0412  1.0000</r>
       <r>   1.0412  1.0000</r>
       <r>   1.1056  1.0000</r>
       <r>   1.1056  1.0000</r>
       <r>   1.1571  1.0000</r>
       <r>   1.1571  1.0000</r>
       <r>   1.1614  1.0000</r>
       <r>   1.1614  1.0000</r>
       <r>   1.1826  1.0000</r>
       <r>   1.2728  1.0000</r>
       <r>   1.2728  1.0000</r>
       <r>   1.3541  1.0000</r>
       <r>   1.3626  1.0000</r>
       <r>   1.3626  1.0000</r>
       <r>   1.3629  1.0000</r>
       <r>   1.3629  1.0000</r>
       <r>   1.3644  1.0000</r>
       <r>   1.3770  1.0000</r>
       <r>   1.4227  1.0000</r>
       <r>   1.4227  1.0000</r>
       <r>   1.4537  1.0000</r>
       <r>   1.4537  1.0000</r>
       <r>   1.4752  1.0000</r>
       <r>   1.4752  1.0000</r>
       <r>   1.5005  1.0000</r>
       <r>   1.5053  1.0000</r>
       <r>   1.5343  1.0000</r>
       <r>   1.5343  1.0000</r>
       <r>   1.5422  1.0000</r>
       <r>   1.5439  1.0000</r>
       <r>   1.5439  1.0000</r>
       <r>   1.5814  1.0000</r>
       <r>   1.5814  1.0000</r>
       <r>   1.6525  1.0000</r>
       <r>   1.6732  1.0000</r>
       <r>   1.6763  1.0000</r>
       <r>   1.7310  1.0000</r>
       <r>   1.7579  1.0000</r>
       <r>   1.7579  1.0000</r>
       <r>   1.9630  1.0000</r>
       <r>   1.9675  1.0000</r>
       <r>   1.9675  1.0000</r>
       <r>   1.9717  1.0000</r>
       <r>   1.9717  1.0000</r>
       <r>   1.9807  1.0000</r>
       <r>   1.9807  1.0000</r>
       <r>   1.9855  1.0000</r>
       <r>   1.9855  1.0000</r>
       <r>   1.9906  1.0000</r>
       <r>   1.9906  1.0000</r>
       <r>   2.0016  1.0000</r>
       <r>   2.0016  1.0000</r>
       <r>   2.0017  1.0000</r>
       <r>   2.0017  1.0000</r>
       <r>   2.0033  1.0000</r>
       <r>   2.0065  1.0000</r>
       <r>   2.0065  1.0000</r>
       <r>   2.0068  1.0000</r>
       <r>   2.0068  1.0000</r>
       <r>   2.0208  1.0000</r>
       <r>   2.0333  1.0000</r>
       <r>   2.0394  1.0000</r>
       <r>   2.0394  1.0000</r>
       <r>   2.9518  1.0000</r>
       <r>   3.2534  1.0000</r>
       <r>   3.2534  1.0000</r>
       <r>   3.4469  1.0000</r>
       <r>   3.4469  1.0000</r>
       <r>   3.4710  1.0000</r>
       <r>   3.8828  0.0000</r>
       <r>   3.8828  0.0000</r>
       <r>   4.3417  0.0000</r>
       <r>   4.3417  0.0000</r>
       <r>   4.5425  0.0000</r>
       <r>   4.5425  0.0000</r>
       <r>   4.7226  0.0000</r>
       <r>   4.7226  0.0000</r>
       <r>   4.8382  0.0000</r>
       <r>   4.8382  0.0000</r>
       <r>   5.6046  0.0000</r>
       <r>   5.6046  0.0000</r>
       <r>   5.7643  0.0000</r>
       <r>   5.7757  0.0000</r>
       <r>   5.7757  0.0000</r>
       <r>   6.2524  0.0000</r>
       <r>   6.2524  0.0000</r>
       <r>   6.6226  0.0000</r>
       <r>   8.2116  0.0000</r>
       <r>   8.2116  0.0000</r>
       <r>   8.5657  0.0000</r>
       <r>   8.5657  0.0000</r>
       <r>   8.7109  0.0000</r>
       <r>   9.1240  0.0000</r>
       <r>   9.1240  0.0000</r>
       <r>   9.5637  0.0000</r>
       <r>   9.5637  0.0000</r>
       <r>   9.7354  0.0000</r>
       <r>   9.7354  0.0000</r>
       <r>  10.0174  0.0000</r>
       <r>  10.8324  0.0000</r>
       <r>  11.1164  0.0000</r>
       <r>  11.1164  0.0000</r>
       <r>  11.2983  0.0000</r>
       <r>  11.2983  0.0000</r>
       <r>  11.7665  0.0000</r>
       <r>  11.7665  0.0000</r>
       <r>  12.2385  0.0000</r>
       <r>  12.4077  0.0000</r>
       <r>  12.4077  0.0000</r>
       <r>  12.8837  0.0000</r>
       <r>  12.8837  0.0000</r>
      </set>
      <set comment="kpoint 40">
       <r>  -3.9941  1.0000</r>
       <r>  -3.6165  1.0000</r>
       <r>  -3.6165  1.0000</r>
       <r>  -3.6165  1.0000</r>
       <r>  -3.2599  1.0000</r>
       <r>  -3.2599  1.0000</r>
       <r>  -3.2598  1.0000</r>
       <r>  -2.9322  1.0000</r>
       <r>  -0.8721  1.0000</r>
       <r>  -0.8721  1.0000</r>
       <r>  -0.8720  1.0000</r>
       <r>  -0.7816  1.0000</r>
       <r>  -0.7816  1.0000</r>
       <r>  -0.7816  1.0000</r>
       <r>  -0.7816  1.0000</r>
       <r>  -0.7815  1.0000</r>
       <r>  -0.7815  1.0000</r>
       <r>  -0.7711  1.0000</r>
       <r>  -0.7711  1.0000</r>
       <r>  -0.7711  1.0000</r>
       <r>  -0.7489  1.0000</r>
       <r>  -0.7489  1.0000</r>
       <r>  -0.7489  1.0000</r>
       <r>  -0.6453  1.0000</r>
       <r>  -0.6453  1.0000</r>
       <r>  -0.6453  1.0000</r>
       <r>  -0.6453  1.0000</r>
       <r>  -0.6453  1.0000</r>
       <r>  -0.6453  1.0000</r>
       <r>  -0.6117  1.0000</r>
       <r>  -0.6117  1.0000</r>
       <r>  -0.6117  1.0000</r>
       <r>  -0.3089  1.0000</r>
       <r>  -0.3089  1.0000</r>
       <r>  -0.3089  1.0000</r>
       <r>  -0.2125  1.0000</r>
       <r>  -0.2125  1.0000</r>
       <r>  -0.2124  1.0000</r>
       <r>  -0.2124  1.0000</r>
       <r>  -0.2124  1.0000</r>
       <r>  -0.2124  1.0000</r>
       <r>  -0.2059  1.0000</r>
       <r>  -0.2059  1.0000</r>
       <r>  -0.2059  1.0000</r>
       <r>  -0.1148  1.0000</r>
       <r>  -0.1148  1.0000</r>
       <r>  -0.1148  1.0000</r>
       <r>  -0.0963  1.0000</r>
       <r>  -0.0963  1.0000</r>
       <r>  -0.0963  1.0000</r>
       <r>  -0.0963  1.0000</r>
       <r>  -0.0963  1.0000</r>
       <r>  -0.0963  1.0000</r>
       <r>   0.0183  1.0000</r>
       <r>   0.0183  1.0000</r>
       <r>   0.0183  1.0000</r>
       <r>   0.3839  1.0000</r>
       <r>   0.3839  1.0000</r>
       <r>   0.3839  1.0000</r>
       <r>   0.3902  1.0000</r>
       <r>   0.3902  1.0000</r>
       <r>   0.3902  1.0000</r>
       <r>   0.4167  1.0000</r>
       <r>   0.4444  1.0000</r>
       <r>   0.6051  1.0000</r>
       <r>   0.6051  1.0000</r>
       <r>   0.6051  1.0000</r>
       <r>   0.6052  1.0000</r>
       <r>   0.6052  1.0000</r>
       <r>   0.6052  1.0000</r>
       <r>   0.6181  1.0000</r>
       <r>   0.6181  1.0000</r>
       <r>   0.6182  1.0000</r>
       <r>   0.6485  1.0000</r>
       <r>   0.6485  1.0000</r>
       <r>   0.6486  1.0000</r>
       <r>   0.6917  1.0000</r>
       <r>   0.6917  1.0000</r>
       <r>   0.6917  1.0000</r>
       <r>   0.6917  1.0000</r>
       <r>   0.6918  1.0000</r>
       <r>   0.6918  1.0000</r>
       <r>   0.7035  1.0000</r>
       <r>   0.7035  1.0000</r>
       <r>   0.7036  1.0000</r>
       <r>   0.7722  1.0000</r>
       <r>   0.7722  1.0000</r>
       <r>   0.7881  1.0000</r>
       <r>   0.7881  1.0000</r>
       <r>   0.7881  1.0000</r>
       <r>   0.8038  1.0000</r>
       <r>   0.8038  1.0000</r>
       <r>   0.8041  1.0000</r>
       <r>   0.8041  1.0000</r>
       <r>   0.8041  1.0000</r>
       <r>   0.8042  1.0000</r>
       <r>   0.8042  1.0000</r>
       <r>   0.8042  1.0000</r>
       <r>   0.8145  1.0000</r>
       <r>   0.8146  1.0000</r>
       <r>   0.8146  1.0000</r>
       <r>   0.8432  1.0000</r>
       <r>   0.8432  1.0000</r>
       <r>   0.8433  1.0000</r>
       <r>   1.1152  1.0000</r>
       <r>   1.1152  1.0000</r>
       <r>   1.1152  1.0000</r>
       <r>   1.2227  1.0000</r>
       <r>   1.2227  1.0000</r>
       <r>   1.2227  1.0000</r>
       <r>   1.2227  1.0000</r>
       <r>   1.2227  1.0000</r>
       <r>   1.2227  1.0000</r>
       <r>   1.2358  1.0000</r>
       <r>   1.2358  1.0000</r>
       <r>   1.2358  1.0000</r>
       <r>   1.3040  1.0000</r>
       <r>   1.3040  1.0000</r>
       <r>   1.3040  1.0000</r>
       <r>   1.3427  1.0000</r>
       <r>   1.3427  1.0000</r>
       <r>   1.3427  1.0000</r>
       <r>   1.3427  1.0000</r>
       <r>   1.3427  1.0000</r>
       <r>   1.3427  1.0000</r>
       <r>   1.4274  1.0000</r>
       <r>   1.4274  1.0000</r>
       <r>   1.4274  1.0000</r>
       <r>   1.4522  1.0000</r>
       <r>   1.4522  1.0000</r>
       <r>   1.4522  1.0000</r>
       <r>   1.4653  1.0000</r>
       <r>   1.4653  1.0000</r>
       <r>   1.4872  1.0000</r>
       <r>   1.4872  1.0000</r>
       <r>   1.4872  1.0000</r>
       <r>   1.5672  1.0000</r>
       <r>   1.5672  1.0000</r>
       <r>   1.5672  1.0000</r>
       <r>   1.6123  1.0000</r>
       <r>   1.6123  1.0000</r>
       <r>   1.6364  1.0000</r>
       <r>   1.6364  1.0000</r>
       <r>   1.6364  1.0000</r>
       <r>   2.0061  1.0000</r>
       <r>   2.0061  1.0000</r>
       <r>   2.0061  1.0000</r>
       <r>   2.0206  1.0000</r>
       <r>   2.0206  1.0000</r>
       <r>   2.0206  1.0000</r>
       <r>   2.0206  1.0000</r>
       <r>   2.0206  1.0000</r>
       <r>   2.0206  1.0000</r>
       <r>   2.0221  1.0000</r>
       <r>   2.0221  1.0000</r>
       <r>   2.0221  1.0000</r>
       <r>   2.0221  1.0000</r>
       <r>   2.0221  1.0000</r>
       <r>   2.0221  1.0000</r>
       <r>   2.0272  1.0000</r>
       <r>   2.0273  1.0000</r>
       <r>   2.0273  1.0000</r>
       <r>   2.0372  1.0000</r>
       <r>   2.0372  1.0000</r>
       <r>   2.0372  1.0000</r>
       <r>   2.0464  1.0000</r>
       <r>   2.0464  1.0000</r>
       <r>   2.0464  1.0000</r>
       <r>   3.7330  0.0000</r>
       <r>   3.7330  0.0000</r>
       <r>   3.7330  0.0000</r>
       <r>   4.1037  0.0000</r>
       <r>   4.1037  0.0000</r>
       <r>   4.1038  0.0000</r>
       <r>   4.1038  0.0000</r>
       <r>   4.1038  0.0000</r>
       <r>   4.1038  0.0000</r>
       <r>   4.3934  0.0000</r>
       <r>   4.3934  0.0000</r>
       <r>   4.3935  0.0000</r>
       <r>   4.6902  0.0000</r>
       <r>   4.6902  0.0000</r>
       <r>   4.6903  0.0000</r>
       <r>   5.1214  0.0000</r>
       <r>   5.1214  0.0000</r>
       <r>   5.1215  0.0000</r>
       <r>   5.1215  0.0000</r>
       <r>   5.1216  0.0000</r>
       <r>   5.1216  0.0000</r>
       <r>   5.4616  0.0000</r>
       <r>   5.4616  0.0000</r>
       <r>   5.4618  0.0000</r>
       <r>   9.0294  0.0000</r>
       <r>   9.0295  0.0000</r>
       <r>   9.0295  0.0000</r>
       <r>   9.4682  0.0000</r>
       <r>   9.4684  0.0000</r>
       <r>   9.4684  0.0000</r>
       <r>  10.0860  0.0000</r>
       <r>  10.0860  0.0000</r>
       <r>  10.0861  0.0000</r>
       <r>  10.0861  0.0000</r>
       <r>  10.0862  0.0000</r>
       <r>  10.0862  0.0000</r>
       <r>  10.5475  0.0000</r>
       <r>  10.5475  0.0000</r>
       <r>  10.5476  0.0000</r>
       <r>  10.5476  0.0000</r>
       <r>  10.5477  0.0000</r>
       <r>  10.5477  0.0000</r>
       <r>  11.1887  0.0000</r>
       <r>  11.1889  0.0000</r>
       <r>  11.1889  0.0000</r>
       <r>  11.6590  0.0000</r>
       <r>  11.6592  0.0000</r>
       <r>  11.6592  0.0000</r>
      </set>
     </set>
    </set>
   </array>
  </eigenvalues>
 </calculation>
 <structure name="finalpos" >
  <crystal>
   <varray name="basis" >
    <v>       7.27259508     -0.00000000      0.00000000</v>
    <v>      -0.00000000      7.27269658      0.00000000</v>
    <v>       0.00000000      0.00000000      7.27269658</v>
   </varray>
   <i name="volume">    384.66293963</i>
   <varray name="rec_basis" >
    <v>       0.13750250      0.00000000      0.00000000</v>
    <v>       0.00000000      0.13750058      0.00000000</v>
    <v>       0.00000000      0.00000000      0.13750058</v>
   </varray>
  </crystal>
  <varray name="positions" >
   <v>       0.25005583      0.25000000      0.00000000</v>
   <v>       0.75002714      0.25000000      0.00000000</v>
   <v>       0.25003117      0.75000000     -0.00000000</v>
   <v>       0.75004765      0.75000000      0.00000000</v>
   <v>       0.25003117      0.25000000      0.50000000</v>
   <v>       0.75004765      0.25000000      0.50000000</v>
   <v>       0.25003226      0.75000000      0.50000000</v>
   <v>       0.75003470      0.75000000      0.50000000</v>
   <v>       0.25003967      0.00000006      0.24999994</v>
   <v>       0.75003910     -0.00000005      0.25000005</v>
   <v>       0.25003967      0.49999994      0.24999994</v>
   <v>       0.75003910      0.50000005      0.25000005</v>
   <v>       0.25003967      0.00000006      0.75000006</v>
   <v>       0.75003910     -0.00000005      0.74999995</v>
   <v>       0.25003967      0.49999994      0.75000006</v>
   <v>       0.75003910      0.50000005      0.74999995</v>
   <v>       0.00004182      0.25000000      0.24999177</v>
   <v>       0.50004194      0.25000000      0.25000827</v>
   <v>       0.00003511      0.75000000      0.24999644</v>
   <v>       0.50003500      0.75000000      0.25000355</v>
   <v>       0.00004182      0.25000000      0.75000823</v>
   <v>       0.50004194      0.25000000      0.74999173</v>
   <v>       0.00003511      0.75000000      0.75000356</v>
   <v>       0.50003500      0.75000000      0.74999645</v>
   <v>       0.00004182      0.00000823      0.00000000</v>
   <v>       0.50004194     -0.00000827     -0.00000000</v>
   <v>       0.00004182      0.49999177      0.00000000</v>
   <v>       0.50004194      0.50000827     -0.00000000</v>
   <v>       0.00003511      0.00000356      0.50000000</v>
   <v>       0.50003500     -0.00000355      0.50000000</v>
   <v>       0.00003511      0.49999644      0.50000000</v>
   <v>       0.50003500      0.50000355      0.50000000</v>
  </varray>
 </structure>
</modeling>
