   4   4   0   0
  0.1352261E+02  0.3781872E-09  0.3781872E-09  0.3781872E-09  0.5000000E-15
  1.000000000000000E-004
  CAR 
 unknown system                          
     23.85207497     -7.06123120  301      2.68976472      1.00000000
     -7.061  0.0000E+00  0.0000E+00
     -6.958  0.0000E+00  0.0000E+00
     -6.855  0.0000E+00  0.0000E+00
     -6.752  0.0000E+00  0.0000E+00
     -6.649  0.0000E+00  0.0000E+00
     -6.546  0.0000E+00  0.0000E+00
     -6.443  0.0000E+00  0.0000E+00
     -6.340  0.0000E+00  0.0000E+00
     -6.237  0.0000E+00  0.0000E+00
     -6.134  0.0000E+00  0.0000E+00
     -6.031  0.0000E+00  0.0000E+00
     -5.928  0.0000E+00  0.0000E+00
     -5.825  0.0000E+00  0.0000E+00
     -5.722  0.0000E+00  0.0000E+00
     -5.619  0.8837E-02  0.9106E-03
     -5.516  0.1507E+00  0.1644E-01
     -5.413  0.7112E-01  0.2463E-01
     -5.309  0.2118E+00  0.5186E-01
     -5.206  0.2120E+00  0.7374E-01
     -5.103  0.1060E+00  0.8466E-01
     -5.000  0.4620E+00  0.1323E+00
     -4.897  0.2159E+00  0.1561E+00
     -4.794  0.2120E+00  0.1848E+00
     -4.691  0.4240E+00  0.2285E+00
     -4.588  0.6111E-01  0.2348E+00
     -4.485  0.3180E+00  0.3104E+00
     -4.382  0.3760E+00  0.3492E+00
     -4.279  0.4569E+00  0.4012E+00
     -4.176  0.2096E-04  0.4197E+00
     -4.073  0.4672E+00  0.4678E+00
     -3.970  0.7615E+00  0.5473E+00
     -3.867  0.6113E-01  0.5698E+00
     -3.764  0.4240E+00  0.6727E+00
     -3.661  0.1046E+00  0.6835E+00
     -3.558  0.7835E+00  0.7644E+00
     -3.455  0.6431E+00  0.8373E+00
     -3.352  0.4673E+00  0.8902E+00
     -3.249  0.7698E-03  0.9295E+00
     -3.146  0.8506E+00  0.1039E+01
     -3.043  0.2134E+00  0.1104E+01
     -2.939  0.6362E+00  0.1192E+01
     -2.836  0.4945E+00  0.1243E+01
     -2.733  0.9749E+00  0.1343E+01
     -2.630  0.5303E+00  0.1412E+01
     -2.527  0.1420E+01  0.1580E+01
     -2.424  0.4268E+00  0.1653E+01
     -2.321  0.2401E+00  0.1721E+01
     -2.218  0.1388E+00  0.1819E+01
     -2.115  0.1232E+01  0.1998E+01
     -2.012  0.1251E+01  0.2158E+01
     -1.909  0.1272E+01  0.2342E+01
     -1.806  0.8485E+00  0.2430E+01
     -1.703  0.2080E+01  0.2666E+01
     -1.600  0.1950E+01  0.3026E+01
     -1.497  0.2398E+01  0.3378E+01
     -1.394  0.3442E+01  0.3862E+01
     -1.291  0.4059E+01  0.4442E+01
     -1.188  0.5631E+01  0.5096E+01
     -1.085  0.2650E+01  0.5509E+01
     -0.982  0.7255E+01  0.6484E+01
     -0.879  0.7788E+01  0.7451E+01
     -0.776  0.9536E+01  0.8696E+01
     -0.672  0.6333E+01  0.9606E+01
     -0.569  0.7102E+01  0.1074E+02
     -0.466  0.6611E+01  0.1172E+02
     -0.363  0.7219E+01  0.1286E+02
     -0.260  0.1096E+02  0.1420E+02
     -0.157  0.1160E+02  0.1571E+02
     -0.054  0.1192E+02  0.1734E+02
      0.049  0.1659E+02  0.1950E+02
      0.152  0.1485E+02  0.2140E+02
      0.255  0.1675E+02  0.2370E+02
      0.358  0.1043E+02  0.2523E+02
      0.461  0.8314E+01  0.2648E+02
      0.564  0.1087E+02  0.2794E+02
      0.667  0.1408E+02  0.2992E+02
      0.770  0.1401E+02  0.3181E+02
      0.873  0.1291E+02  0.3351E+02
      0.976  0.1226E+02  0.3509E+02
      1.079  0.1257E+02  0.3690E+02
      1.182  0.2358E+02  0.4002E+02
      1.285  0.9002E+01  0.4165E+02
      1.388  0.3363E+01  0.4209E+02
      1.491  0.6133E+00  0.4219E+02
      1.594  0.1769E+01  0.4238E+02
      1.698  0.1032E+01  0.4259E+02
      1.801  0.8814E+00  0.4268E+02
      1.904  0.1023E+01  0.4281E+02
      2.007  0.6648E+00  0.4303E+02
      2.110  0.8468E+00  0.4320E+02
      2.213  0.6323E+00  0.4327E+02
      2.316  0.1130E+01  0.4343E+02
      2.419  0.1696E+01  0.4366E+02
      2.522  0.1060E+01  0.4379E+02
      2.625  0.8564E+00  0.4388E+02
      2.728  0.1060E+01  0.4403E+02
      2.831  0.5480E+00  0.4409E+02
      2.934  0.1088E+01  0.4423E+02
      3.037  0.1711E+01  0.4444E+02
      3.140  0.4240E+00  0.4459E+02
      3.243  0.8481E+00  0.4468E+02
      3.346  0.1060E+01  0.4479E+02
      3.449  0.4668E+00  0.4484E+02
      3.552  0.2521E+00  0.4493E+02
      3.655  0.1970E+01  0.4521E+02
      3.758  0.3024E+00  0.4528E+02
      3.861  0.5437E+00  0.4537E+02
      3.965  0.8647E+00  0.4552E+02
      4.068  0.1036E+01  0.4565E+02
      4.171  0.7376E+00  0.4572E+02
      4.274  0.2103E+00  0.4576E+02
      4.377  0.1089E+01  0.4587E+02
      4.480  0.1145E+01  0.4600E+02
      4.583  0.1947E+01  0.4622E+02
      4.686  0.5304E+00  0.4632E+02
      4.789  0.8297E-01  0.4635E+02
      4.892  0.1099E+01  0.4647E+02
      4.995  0.1060E+01  0.4659E+02
      5.098  0.6350E+00  0.4666E+02
      5.201  0.4213E+00  0.4670E+02
      5.304  0.1048E+01  0.4681E+02
      5.407  0.1164E+01  0.4693E+02
      5.510  0.7390E+00  0.4701E+02
      5.613  0.1182E+01  0.4713E+02
      5.716  0.6500E+00  0.4720E+02
      5.819  0.2621E-01  0.4725E+02
      5.922  0.2146E+00  0.4729E+02
      6.025  0.1475E+01  0.4749E+02
      6.128  0.8964E+00  0.4758E+02
      6.231  0.5094E+00  0.4765E+02
      6.335  0.1114E+01  0.4777E+02
      6.438  0.2260E+01  0.4801E+02
      6.541  0.4241E+00  0.4814E+02
      6.644  0.6293E+00  0.4820E+02
      6.747  0.1694E+01  0.4838E+02
      6.850  0.7853E+00  0.4846E+02
      6.953  0.1028E+01  0.4862E+02
      7.056  0.2808E+00  0.4867E+02
      7.159  0.1044E+01  0.4880E+02
      7.262  0.2741E+01  0.4909E+02
      7.365  0.2120E+00  0.4911E+02
      7.468  0.8481E+00  0.4920E+02
      7.571  0.1167E+01  0.4932E+02
      7.674  0.5749E+00  0.4941E+02
      7.777  0.5497E+00  0.4954E+02
      7.880  0.6250E+00  0.4971E+02
      7.983  0.9471E+00  0.4981E+02
      8.086  0.1272E+01  0.4994E+02
      8.189  0.1060E+01  0.5005E+02
      8.292  0.4441E+00  0.5010E+02
      8.395  0.8278E+00  0.5022E+02
      8.498  0.4241E+00  0.5031E+02
      8.602  0.6012E+00  0.5037E+02
      8.705  0.8481E+00  0.5051E+02
      8.808  0.1065E+01  0.5062E+02
      8.911  0.8521E+00  0.5072E+02
      9.014  0.9637E+00  0.5087E+02
      9.117  0.7421E+00  0.5101E+02
      9.220  0.6377E+00  0.5108E+02
      9.323  0.1449E+01  0.5132E+02
      9.426  0.5373E+00  0.5138E+02
      9.529  0.3352E+00  0.5148E+02
      9.632  0.8332E+00  0.5157E+02
      9.735  0.1944E+01  0.5177E+02
      9.838  0.8599E+00  0.5191E+02
      9.941  0.1052E+01  0.5215E+02
     10.044  0.1098E+01  0.5227E+02
     10.147  0.1764E+01  0.5246E+02
     10.250  0.1034E+01  0.5264E+02
     10.353  0.1484E+01  0.5280E+02
     10.456  0.9414E+00  0.5289E+02
     10.559  0.8213E+00  0.5299E+02
     10.662  0.3017E+00  0.5313E+02
     10.765  0.1433E+01  0.5333E+02
     10.868  0.2825E+00  0.5339E+02
     10.972  0.1513E+01  0.5358E+02
     11.075  0.7442E+00  0.5373E+02
     11.178  0.1809E+01  0.5397E+02
     11.281  0.8501E+00  0.5412E+02
     11.384  0.1741E+01  0.5431E+02
     11.487  0.7834E+00  0.5441E+02
     11.590  0.1555E+01  0.5462E+02
     11.693  0.1318E+01  0.5476E+02
     11.796  0.1477E+01  0.5495E+02
     11.899  0.1809E+01  0.5516E+02
     12.002  0.9570E+00  0.5528E+02
     12.105  0.1819E+00  0.5531E+02
     12.208  0.1034E+01  0.5549E+02
     12.311  0.1685E+01  0.5567E+02
     12.414  0.2015E+00  0.5586E+02
     12.517  0.9457E+00  0.5600E+02
     12.620  0.1531E+01  0.5618E+02
     12.723  0.1398E+01  0.5639E+02
     12.826  0.7222E+00  0.5649E+02
     12.929  0.1764E+01  0.5669E+02
     13.032  0.1789E+01  0.5690E+02
     13.135  0.1273E+01  0.5704E+02
     13.239  0.1271E+01  0.5720E+02
     13.342  0.1299E+01  0.5735E+02
     13.445  0.1350E+01  0.5752E+02
     13.548  0.1812E+01  0.5781E+02
     13.651  0.9641E+00  0.5798E+02
     13.754  0.6293E+00  0.5810E+02
     13.857  0.9616E+00  0.5820E+02
     13.960  0.8085E+00  0.5837E+02
     14.063  0.9826E+00  0.5852E+02
     14.166  0.2999E+01  0.5886E+02
     14.269  0.3682E-01  0.5890E+02
     14.372  0.1900E+01  0.5914E+02
     14.475  0.9729E+00  0.5929E+02
     14.578  0.7948E+00  0.5944E+02
     14.681  0.1864E+01  0.5965E+02
     14.784  0.1479E+01  0.5983E+02
     14.887  0.2023E+01  0.6009E+02
     14.990  0.7293E+00  0.6024E+02
     15.093  0.8477E+00  0.6038E+02
     15.196  0.1675E+01  0.6062E+02
     15.299  0.1065E+01  0.6078E+02
     15.402  0.1118E+01  0.6096E+02
     15.505  0.1433E+01  0.6119E+02
     15.609  0.5831E+00  0.6130E+02
     15.712  0.1961E+01  0.6153E+02
     15.815  0.4236E+00  0.6159E+02
     15.918  0.1435E+01  0.6174E+02
     16.021  0.2120E+00  0.6185E+02
     16.124  0.1664E+01  0.6202E+02
     16.227  0.4241E+00  0.6206E+02
     16.330  0.4771E+00  0.6211E+02
     16.433  0.1524E+01  0.6227E+02
     16.536  0.4241E+00  0.6235E+02
     16.639  0.1036E+01  0.6246E+02
     16.742  0.7025E+00  0.6261E+02
     16.845  0.2097E-06  0.6264E+02
     16.948  0.6749E+00  0.6271E+02
     17.051  0.2629E+00  0.6276E+02
     17.154  0.4491E+00  0.6280E+02
     17.257  0.4079E+00  0.6287E+02
     17.360  0.1272E+01  0.6301E+02
     17.463  0.6338E+00  0.6307E+02
     17.566  0.4625E-02  0.6307E+02
     17.669  0.4240E+00  0.6314E+02
     17.772  0.0000E+00  0.6314E+02
     17.876  0.4240E+00  0.6318E+02
     17.979  0.5301E+00  0.6324E+02
     18.082  0.8451E+00  0.6332E+02
     18.185  0.4240E+00  0.6337E+02
     18.288  0.1244E-02  0.6337E+02
     18.391  0.7117E-05  0.6339E+02
     18.494  0.4240E+00  0.6343E+02
     18.597  0.4240E+00  0.6348E+02
     18.700  0.2120E+00  0.6350E+02
     18.803  0.4947E+00  0.6355E+02
     18.906  0.4931E-02  0.6355E+02
     19.009  0.0000E+00  0.6359E+02
     19.112  0.0000E+00  0.6359E+02
     19.215  0.4241E+00  0.6364E+02
     19.318  0.4240E+00  0.6368E+02
     19.421  0.4240E+00  0.6372E+02
     19.524  0.0000E+00  0.6372E+02
     19.627  0.0000E+00  0.6372E+02
     19.730  0.0000E+00  0.6372E+02
     19.833  0.4235E+00  0.6377E+02
     19.936  0.6355E+00  0.6383E+02
     20.039  0.0000E+00  0.6383E+02
     20.142  0.0000E+00  0.6383E+02
     20.246  0.0000E+00  0.6383E+02
     20.349  0.6552E-10  0.6383E+02
     20.452  0.4862E+00  0.6388E+02
     20.555  0.0000E+00  0.6390E+02
     20.658  0.7067E-01  0.6391E+02
     20.761  0.0000E+00  0.6391E+02
     20.864  0.0000E+00  0.6391E+02
     20.967  0.0000E+00  0.6391E+02
     21.070  0.4240E+00  0.6395E+02
     21.173  0.0000E+00  0.6395E+02
     21.276  0.0000E+00  0.6395E+02
     21.379  0.0000E+00  0.6395E+02
     21.482  0.0000E+00  0.6395E+02
     21.585  0.0000E+00  0.6395E+02
     21.688  0.2162E-02  0.6395E+02
     21.791  0.0000E+00  0.6397E+02
     21.894  0.0000E+00  0.6397E+02
     21.997  0.0000E+00  0.6397E+02
     22.100  0.0000E+00  0.6397E+02
     22.203  0.2111E+00  0.6399E+02
     22.306  0.0000E+00  0.6399E+02
     22.409  0.4111E-08  0.6399E+02
     22.512  0.7067E-01  0.6400E+02
     22.616  0.0000E+00  0.6400E+02
     22.719  0.0000E+00  0.6400E+02
     22.822  0.0000E+00  0.6400E+02
     22.925  0.0000E+00  0.6400E+02
     23.028  0.0000E+00  0.6400E+02
     23.131  0.0000E+00  0.6400E+02
     23.234  0.0000E+00  0.6400E+02
     23.337  0.0000E+00  0.6400E+02
     23.440  0.0000E+00  0.6400E+02
     23.543  0.0000E+00  0.6400E+02
     23.646  0.0000E+00  0.6400E+02
     23.749  0.0000E+00  0.6400E+02
     23.852  0.0000E+00  0.6400E+02
