    4    4    1    1
  0.1352261E+02  0.3781872E-09  0.3781872E-09  0.3781872E-09  0.5000000E-15
  1.000000000000000E-004
  CAR 
 unknown system                          
   44   84   32
 
  0.0000000E+00  0.0000000E+00  0.0000000E+00  0.4551661E-03
   1       -5.6561
   2       -1.4517
   3       -1.4517
   4       -1.4517
   5       -1.0801
   6       -1.0801
   7       -1.0801
   8        0.0449
   9        0.0449
  10        0.0449
  11        0.7156
  12        0.7156
  13        1.1622
  14        1.1622
  15        1.1622
  16        1.2871
  17        1.2871
  18        1.2871
  19        1.2871
  20        1.2871
  21        1.2871
  22        4.3191
  23        4.3191
  24        4.3191
  25        8.9274
  26        8.9274
  27        8.9274
  28       14.8436
  29       14.8436
  30       14.8436
  31       14.8436
  32       14.8436
 
  0.7692308E-01  0.0000000E+00  0.0000000E+00  0.2730997E-02
   1       -5.5907
   2       -1.4539
   3       -1.4232
   4       -1.4232
   5       -1.0644
   6       -1.0635
   7       -1.0635
   8        0.0279
   9        0.0589
  10        0.0589
  11        0.7002
  12        0.7219
  13        1.1423
  14        1.1423
  15        1.1556
  16        1.1917
  17        1.1917
  18        1.2635
  19        1.2635
  20        1.2872
  21        1.2872
  22        3.8615
  23        4.4746
  24        4.4746
  25        8.9552
  26        8.9552
  27        9.5205
  28       14.3812
  29       14.3812
  30       14.5247
  31       14.5247
  32       14.9368
 
  0.1538462E+00  0.0000000E+00  0.0000000E+00  0.2730997E-02
   1       -5.3956
   2       -1.4717
   3       -1.3410
   4       -1.3410
   5       -1.0181
   6       -1.0134
   7       -1.0134
   8       -0.0220
   9        0.1006
  10        0.1006
  11        0.6554
  12        0.7407
  13        0.9522
  14        0.9522
  15        1.0841
  16        1.0841
  17        1.1362
  18        1.1953
  19        1.1953
  20        1.2873
  21        1.2873
  22        2.9019
  23        4.8939
  24        4.8939
  25        9.0409
  26        9.0409
  27       10.8958
  28       13.3837
  29       13.3837
  30       13.7778
  31       13.7778
  32       15.2132
 
  0.2307692E+00  0.0000000E+00  0.0000000E+00  0.2730997E-02
   1       -5.0741
   2       -1.5436
   3       -1.2160
   4       -1.2160
   5       -0.9436
   6       -0.9290
   7       -0.9290
   8       -0.1015
   9        0.1690
  10        0.1690
  11        0.5862
  12        0.6486
  13        0.6486
  14        0.7709
  15        0.9930
  16        0.9930
  17        1.0899
  18        1.0899
  19        1.1051
  20        1.2874
  21        1.2874
  22        1.8993
  23        5.4960
  24        5.4960
  25        9.1904
  26        9.1904
  27       12.2456
  28       12.2456
  29       12.6281
  30       12.9015
  31       12.9015
  32       15.6642
 
  0.3076923E+00  0.0000000E+00  0.0000000E+00  0.2730997E-02
   1       -4.6328
   2       -1.7491
   3       -1.0679
   4       -1.0679
   5       -0.8448
   6       -0.8092
   7       -0.8092
   8       -0.2058
   9        0.2624
  10        0.2624
  11        0.3349
  12        0.3349
  13        0.5014
  14        0.8107
  15        0.8809
  16        0.8809
  17        0.9578
  18        0.9578
  19        1.0644
  20        1.0819
  21        1.2875
  22        1.2875
  23        6.2257
  24        6.2257
  25        9.4136
  26        9.4136
  27       11.1017
  28       11.1017
  29       12.0522
  30       12.0522
  31       14.5595
  32       16.2774
 
  0.3846154E+00  0.0000000E+00  0.0000000E+00  0.2730997E-02
   1       -4.0839
   2       -2.1726
   3       -0.9279
   4       -0.9279
   5       -0.7270
   6       -0.6529
   7       -0.6529
   8       -0.3281
   9        0.0384
  10        0.0384
  11        0.3781
  12        0.3781
  13        0.4167
  14        0.5818
  15        0.7709
  16        0.7709
  17        0.8104
  18        0.8104
  19        0.8579
  20        1.0163
  21        1.2877
  22        1.2877
  23        7.0535
  24        7.0535
  25        9.7227
  26        9.7227
  27        9.9963
  28        9.9963
  29       11.2954
  30       11.2954
  31       16.6269
  32       17.0387
 
  0.4615385E+00  0.0000000E+00  0.0000000E+00  0.2730997E-02
   1       -3.4508
   2       -2.7819
   3       -0.8389
   4       -0.8389
   5       -0.5966
   6       -0.4610
   7       -0.4592
   8       -0.4592
   9       -0.2281
  10       -0.2281
  11        0.3596
  12        0.3822
  13        0.5121
  14        0.5121
  15        0.6588
  16        0.6588
  17        0.6988
  18        0.6988
  19        0.9100
  20        0.9638
  21        1.2877
  22        1.2877
  23        7.9638
  24        7.9638
  25        8.9472
  26        8.9472
  27       10.1308
  28       10.1308
  29       10.6554
  30       10.6554
  31       17.9337
  32       17.9337
 
  0.7692308E-01  0.7692308E-01  0.0000000E+00  0.5461994E-02
   1       -5.5256
   2       -1.4248
   3       -1.4248
   4       -1.3953
   5       -1.0481
   6       -1.0481
   7       -1.0473
   8        0.0186
   9        0.0655
  10        0.0717
  11        0.6960
  12        0.7183
  13        1.1196
  14        1.1200
  15        1.1200
  16        1.1231
  17        1.1798
  18        1.1798
  19        1.2635
  20        1.2635
  21        1.2719
  22        4.0128
  23        4.0128
  24        4.6221
  25        8.9836
  26        9.5564
  27        9.5564
  28       13.4132
  29       14.4693
  30       14.4693
  31       14.6134
  32       14.6134
 
  0.1538462E+00  0.7692308E-01  0.0000000E+00  0.1092399E-01
   1       -5.3311
   2       -1.4405
   3       -1.3407
   4       -1.3150
   5       -1.0025
   6       -0.9987
   7       -0.9985
   8       -0.0264
   9        0.1032
  10        0.1096
  11        0.6570
  12        0.7351
  13        0.9046
  14        0.9048
  15        1.0450
  16        1.0670
  17        1.0921
  18        1.1518
  19        1.1951
  20        1.2634
  21        1.2637
  22        3.0590
  23        4.4126
  24        5.0251
  25        9.0707
  26        9.6668
  27       10.9410
  28       12.2531
  29       13.4660
  30       13.8584
  31       14.7299
  32       14.8085
 
  0.2307692E+00  0.7692308E-01  0.0000000E+00  0.1092399E-01
   1       -5.0107
   2       -1.5088
   3       -1.2126
   4       -1.1928
   5       -0.9293
   6       -0.9168
   7       -0.9157
   8       -0.1035
   9        0.1704
  10        0.1706
  11        0.5923
  12        0.6020
  13        0.6191
  14        0.7681
  15        0.9081
  16        0.9789
  17        0.9995
  18        1.0896
  19        1.1112
  20        1.2618
  21        1.2633
  22        2.0919
  23        4.9727
  24        5.6119
  25        9.2224
  26        9.8585
  27       11.1054
  28       12.3255
  29       12.6779
  30       12.9746
  31       14.0877
  32       15.1533
 
  0.3076923E+00  0.7692308E-01  0.0000000E+00  0.1092399E-01
   1       -4.5711
   2       -1.7092
   3       -1.0601
   4       -1.0468
   5       -0.8322
   6       -0.8026
   7       -0.7980
   8       -0.2053
   9        0.2472
  10        0.2632
  11        0.2918
  12        0.3183
  13        0.5198
  14        0.6887
  15        0.8125
  16        0.8704
  17        0.8873
  18        0.9574
  19        1.0490
  20        1.2615
  21        1.2631
  22        1.3794
  23        5.6375
  24        6.3297
  25        9.4469
  26       10.0196
  27       10.1421
  28       11.1814
  29       12.1189
  30       13.2318
  31       14.6112
  32       15.7253
 
  0.3846154E+00  0.7692308E-01  0.0000000E+00  0.1092399E-01
   1       -4.0246
   2       -2.1268
   3       -0.9146
   4       -0.9063
   5       -0.7165
   6       -0.6569
   7       -0.6445
   8       -0.3251
   9        0.0012
  10        0.0311
  11        0.3034
  12        0.3784
  13        0.4320
  14        0.4889
  15        0.7643
  16        0.7763
  17        0.8100
  18        0.8656
  19        0.9063
  20        1.0802
  21        1.2616
  22        1.2628
  23        6.3798
  24        7.1487
  25        8.9999
  26        9.7658
  27       10.0776
  28       10.5285
  29       11.3578
  30       12.4026
  31       16.4288
  32       16.5782
 
  0.4615385E+00  0.7692308E-01  0.0000000E+00  0.1092399E-01
   1       -3.3949
   2       -2.7306
   3       -0.8197
   4       -0.8163
   5       -0.5885
   6       -0.4770
   7       -0.4554
   8       -0.4546
   9       -0.2572
  10       -0.2286
  11        0.2904
  12        0.3008
  13        0.5121
  14        0.5720
  15        0.6585
  16        0.6967
  17        0.7013
  18        0.7202
  19        0.9253
  20        0.9910
  21        1.2620
  22        1.2624
  23        7.1882
  24        8.0526
  25        8.0606
  26        9.0315
  27       10.1778
  28       10.6973
  29       11.0462
  30       11.6638
  31       17.2456
  32       17.4447
 
  0.1538462E+00  0.1538462E+00  0.0000000E+00  0.5461994E-02
   1       -5.1386
   2       -1.3504
   3       -1.3504
   4       -1.2405
   5       -0.9556
   6       -0.9556
   7       -0.9539
   8       -0.0538
   9        0.1257
  10        0.1361
  11        0.6427
  12        0.7386
  13        0.7553
  14        0.7857
  15        0.7857
  16        1.0166
  17        1.0908
  18        1.0908
  19        1.1947
  20        1.1947
  21        1.2266
  22        3.4480
  23        3.4480
  24        5.3926
  25        9.1618
  26       10.9799
  27       11.0782
  28       11.0782
  29       13.7095
  30       13.7095
  31       14.0974
  32       14.0974
 
  0.2307692E+00  0.1538462E+00  0.0000000E+00  0.1092399E-01
   1       -4.8217
   2       -1.4081
   3       -1.2124
   4       -1.1268
   5       -0.8862
   6       -0.8797
   7       -0.8767
   8       -0.1164
   9        0.1766
  10        0.1824
  11        0.4790
  12        0.5266
  13        0.5955
  14        0.6104
  15        0.7745
  16        0.9369
  17        1.0026
  18        1.0625
  19        1.0887
  20        1.1939
  21        1.2051
  22        2.4913
  23        3.9639
  24        5.9428
  25        9.3143
  26        9.7875
  27       11.3116
  28       12.5619
  29       12.8279
  30       13.1919
  31       14.1048
  32       14.4871
 
  0.3076923E+00  0.1538462E+00  0.0000000E+00  0.1092399E-01
   1       -4.3874
   2       -1.5934
   3       -1.0462
   4       -0.9885
   5       -0.7944
   6       -0.7803
   7       -0.7650
   8       -0.2074
   9        0.1780
  10        0.2179
  11        0.2665
  12        0.2697
  13        0.3972
  14        0.5447
  15        0.8329
  16        0.8383
  17        0.8933
  18        0.9563
  19        1.0005
  20        1.1930
  21        1.1957
  22        1.7614
  23        4.5605
  24        6.6305
  25        8.6688
  26        9.5673
  27       11.4174
  28       11.6440
  29       12.3210
  30       14.6385
  31       14.7670
  32       14.8384
 
  0.3846154E+00  0.1538462E+00  0.0000000E+00  0.1092399E-01
   1       -3.8485
   2       -1.9935
   3       -0.8831
   4       -0.8463
   5       -0.6851
   6       -0.6658
   7       -0.6199
   8       -0.3179
   9       -0.0969
  10        0.0081
  11        0.2255
  12        0.2259
  13        0.3818
  14        0.5423
  15        0.7429
  16        0.7822
  17        0.8092
  18        0.8944
  19        0.9068
  20        1.1919
  21        1.1920
  22        1.3312
  23        5.2246
  24        7.4266
  25        7.6711
  26        9.8911
  27       10.3179
  28       11.5206
  29       12.1089
  30       14.0665
  31       15.2956
  32       15.6740
 
  0.4615385E+00  0.1538462E+00  0.0000000E+00  0.1092399E-01
   1       -3.2296
   2       -2.5798
   3       -0.7679
   4       -0.7509
   5       -0.5645
   6       -0.5281
   7       -0.4414
   8       -0.4395
   9       -0.3361
  10       -0.2307
  11        0.1667
  12        0.1897
  13        0.5133
  14        0.6205
  15        0.6583
  16        0.6868
  17        0.7017
  18        0.7520
  19        0.9970
  20        1.1183
  21        1.1909
  22        1.1912
  23        5.9582
  24        6.7700
  25        8.3134
  26        9.2800
  27       10.3197
  28       10.8623
  29       12.6598
  30       13.3210
  31       16.0616
  32       16.4484
 
  0.2307692E+00  0.2307692E+00  0.0000000E+00  0.5461994E-02
   1       -4.5110
   2       -1.2528
   3       -1.2528
   4       -1.0278
   5       -0.8173
   6       -0.8140
   7       -0.8140
   8       -0.1543
   9        0.1870
  10        0.2208
  11        0.3084
  12        0.3084
  13        0.3724
  14        0.5707
  15        0.8184
  16        0.8693
  17        0.9810
  18        0.9810
  19        1.0874
  20        1.0874
  21        1.1523
  22        2.9720
  23        2.9720
  24        6.4518
  25        8.5409
  26        9.5046
  27       12.9459
  28       12.9459
  29       13.0776
  30       13.0776
  31       13.5497
  32       13.5497
 
  0.3076923E+00  0.2307692E+00  0.0000000E+00  0.1092399E-01
   1       -4.0862
   2       -1.4143
   3       -1.0632
   4       -0.9077
   5       -0.7361
   6       -0.7313
   7       -0.7123
   8       -0.2217
   9        0.0302
  10        0.1369
  11        0.1767
  12        0.1921
  13        0.2929
  14        0.5346
  15        0.7846
  16        0.8773
  17        0.8992
  18        0.9234
  19        0.9551
  20        1.0861
  21        1.1178
  22        2.1799
  23        3.5115
  24        7.1026
  25        7.4298
  26        9.7569
  27       11.8006
  28       12.6329
  29       13.4474
  30       13.4651
  31       14.0321
  32       15.0289
 
  0.3846154E+00  0.2307692E+00  0.0000000E+00  0.1092399E-01
   1       -3.5613
   2       -1.7853
   3       -0.8705
   4       -0.7722
   5       -0.6615
   6       -0.6334
   7       -0.5812
   8       -0.3122
   9       -0.2164
  10       -0.0334
  11        0.0407
  12        0.1666
  13        0.3947
  14        0.5349
  15        0.7030
  16        0.7688
  17        0.8090
  18        0.8269
  19        1.0066
  20        1.0854
  21        1.0990
  22        1.6497
  23        4.1134
  24        6.4366
  25        7.8685
  26       10.1052
  27       10.7072
  28       11.8235
  29       13.9135
  30       14.1063
  31       14.6425
  32       15.8422
 
  0.4615385E+00  0.2307692E+00  0.0000000E+00  0.1092399E-01
   1       -2.9626
   2       -2.3400
   3       -0.7173
   4       -0.6519
   5       -0.6058
   6       -0.5262
   7       -0.4296
   8       -0.4218
   9       -0.4166
  10       -0.2370
  11        0.0450
  12        0.1049
  13        0.5197
  14        0.5981
  15        0.6601
  16        0.6606
  17        0.6850
  18        0.7069
  19        1.0861
  20        1.0897
  21        1.1435
  22        1.3359
  23        4.7908
  24        5.5602
  25        8.7319
  26        9.6811
  27       10.5597
  28       11.1307
  29       14.4849
  30       14.8572
  31       15.1441
  32       15.3681
 
  0.3076923E+00  0.3076923E+00  0.0000000E+00  0.5461994E-02
   1       -3.6764
   2       -1.1944
   3       -1.1944
   4       -0.8257
   5       -0.6660
   6       -0.6434
   7       -0.6434
   8       -0.2573
   9       -0.0887
  10       -0.0887
  11        0.0519
  12        0.1674
  13        0.3439
  14        0.5006
  15        0.7142
  16        0.8252
  17        0.8252
  18        0.9546
  19        0.9546
  20        1.0103
  21        1.0515
  22        2.6436
  23        2.6436
  24        6.3161
  25        7.7175
  26       10.0365
  27       12.3188
  28       12.3188
  29       13.0863
  30       13.0863
  31       15.3974
  32       15.3974
 
  0.3846154E+00  0.3076923E+00  0.0000000E+00  0.1092399E-01
   1       -3.1743
   2       -1.5263
   3       -0.9696
   4       -0.7547
   5       -0.5883
   6       -0.5629
   7       -0.5318
   8       -0.3158
   9       -0.2772
  10       -0.1121
  11       -0.0959
  12        0.1218
  13        0.4268
  14        0.4894
  15        0.6446
  16        0.7215
  17        0.7360
  18        0.8115
  19        0.9565
  20        1.0055
  21        1.1556
  22        2.0147
  23        3.1689
  24        5.3377
  25        8.4524
  26       10.4150
  27       11.2326
  28       12.2384
  29       12.9591
  30       13.6563
  31       15.5122
  32       15.8711
 
  0.4615385E+00  0.3076923E+00  0.0000000E+00  0.1092399E-01
   1       -2.6087
   2       -2.0313
   3       -0.7915
   4       -0.7198
   5       -0.5215
   6       -0.4766
   7       -0.4244
   8       -0.3991
   9       -0.3916
  10       -0.2508
  11       -0.0513
  12        0.0412
  13        0.5348
  14        0.5376
  15        0.6099
  16        0.6277
  17        0.6388
  18        0.6689
  19        0.9631
  20        0.9778
  21        1.3425
  22        1.6060
  23        3.7781
  24        4.4949
  25        9.2905
  26       10.2203
  27       10.9028
  28       11.5091
  29       13.7102
  30       14.3421
  31       14.5633
  32       15.1412
 
  0.3846154E+00  0.3846154E+00  0.0000000E+00  0.5461994E-02
   1       -2.7073
   2       -1.2549
   3       -1.2549
   4       -0.7882
   5       -0.4808
   6       -0.4762
   7       -0.4762
   8       -0.3350
   9       -0.2291
  10       -0.2291
  11       -0.1787
  12        0.0712
  13        0.4530
  14        0.4859
  15        0.5801
  16        0.6394
  17        0.6394
  18        0.8199
  19        0.8199
  20        0.9280
  21        1.3450
  22        2.4419
  23        2.4419
  24        4.3908
  25        9.1588
  26       10.8286
  27       11.8809
  28       11.8809
  29       12.7694
  30       12.7694
  31       14.4614
  32       15.0600
 
  0.4615385E+00  0.3846154E+00  0.0000000E+00  0.1092399E-01
   1       -2.1939
   2       -1.6868
   3       -1.0218
   4       -0.8675
   5       -0.4204
   6       -0.3890
   7       -0.3781
   8       -0.3712
   9       -0.3146
  10       -0.2758
  11       -0.1231
  12       -0.0118
  13        0.4696
  14        0.5424
  15        0.5428
  16        0.5642
  17        0.5746
  18        0.6888
  19        0.8385
  20        0.8728
  21        1.5896
  22        1.9331
  23        2.9598
  24        3.6012
  25        9.9727
  26       10.8828
  27       11.3549
  28       12.0008
  29       12.6405
  30       13.4168
  31       13.5028
  32       14.1806
 
  0.4615385E+00  0.4615385E+00  0.0000000E+00  0.5461994E-02
   1       -1.7582
   2       -1.3528
   3       -1.3528
   4       -1.0740
   5       -0.3640
   6       -0.3640
   7       -0.3611
   8       -0.3141
   9       -0.2720
  10       -0.1871
  11       -0.1871
  12       -0.0812
  13        0.4453
  14        0.4853
  15        0.4853
  16        0.4873
  17        0.6370
  18        0.7265
  19        0.7265
  20        0.7873
  21        1.9084
  22        2.3466
  23        2.3466
  24        2.8899
  25       10.7647
  26       11.6565
  27       11.6565
  28       11.9219
  29       12.5321
  30       12.6086
  31       12.6086
  32       13.3351
 
  0.7692308E-01  0.7692308E-01  0.7692308E-01  0.3641329E-02
   1       -5.4606
   2       -1.3963
   3       -1.3963
   4       -1.3963
   5       -1.0321
   6       -1.0321
   7       -1.0321
   8        0.0099
   9        0.0776
  10        0.0776
  11        0.7038
  12        0.7038
  13        1.0879
  14        1.0879
  15        1.0879
  16        1.1069
  17        1.1069
  18        1.1069
  19        1.2593
  20        1.2593
  21        1.2593
  22        4.1546
  23        4.1546
  24        4.1546
  25        9.5930
  26        9.5930
  27        9.5930
  28       13.4959
  29       13.4959
  30       13.4959
  31       15.1173
  32       15.1173
 
  0.1538462E+00  0.7692308E-01  0.7692308E-01  0.1092399E-01
   1       -5.2668
   2       -1.4103
   3       -1.3145
   4       -1.3145
   5       -0.9873
   6       -0.9840
   7       -0.9840
   8       -0.0311
   9        0.1102
  10        0.1135
  11        0.6623
  12        0.7268
  13        0.8632
  14        0.8632
  15        0.9919
  16        1.0565
  17        1.0565
  18        1.0569
  19        1.2254
  20        1.2522
  21        1.2522
  22        3.1998
  23        4.5355
  24        4.5355
  25        9.7051
  26        9.7051
  27       10.9866
  28       12.3321
  29       12.3321
  30       13.7406
  31       14.8941
  32       14.8941
 
  0.2307692E+00  0.7692308E-01  0.7692308E-01  0.1092399E-01
   1       -4.9477
   2       -1.4755
   3       -1.1896
   4       -1.1896
   5       -0.9151
   6       -0.9036
   7       -0.9036
   8       -0.1050
   9        0.1699
  10        0.1728
  11        0.5755
  12        0.5755
  13        0.6013
  14        0.7637
  15        0.8256
  16        0.9732
  17        0.9748
  18        0.9748
  19        1.1784
  20        1.2466
  21        1.2466
  22        2.2415
  23        5.0782
  24        5.0782
  25        9.8996
  26        9.8996
  27       11.1823
  28       11.1823
  29       12.7277
  30       14.1383
  31       14.1648
  32       14.1648
 
  0.3076923E+00  0.7692308E-01  0.7692308E-01  0.1092399E-01
   1       -4.5098
   2       -1.6711
   3       -1.0399
   4       -1.0399
   5       -0.8194
   6       -0.7914
   7       -0.7914
   8       -0.2041
   9        0.2408
  10        0.2542
  11        0.2782
  12        0.2782
  13        0.5410
  14        0.5866
  15        0.8122
  16        0.8622
  17        0.8702
  18        0.8702
  19        1.1233
  20        1.2434
  21        1.2434
  22        1.5164
  23        5.7293
  24        5.7293
  25       10.0944
  26       10.0944
  27       10.1871
  28       10.1871
  29       13.3023
  30       13.3023
  31       14.6620
  32       14.6771
 
  0.3846154E+00  0.7692308E-01  0.7692308E-01  0.1092399E-01
   1       -3.9659
   2       -2.0829
   3       -0.8939
   4       -0.8939
   5       -0.7054
   6       -0.6506
   7       -0.6506
   8       -0.3212
   9       -0.0013
  10       -0.0013
  11        0.2768
  12        0.3554
  13        0.3561
  14        0.5399
  15        0.7347
  16        0.7651
  17        0.7651
  18        0.8695
  19        1.0624
  20        1.0856
  21        1.2417
  22        1.2417
  23        6.4599
  24        6.4599
  25        9.0834
  26        9.0834
  27       10.5791
  28       10.5791
  29       12.4682
  30       12.4682
  31       15.3386
  32       16.7348
 
  0.4615385E+00  0.7692308E-01  0.7692308E-01  0.1092399E-01
   1       -3.3400
   2       -2.6806
   3       -0.7970
   4       -0.7970
   5       -0.5796
   6       -0.4852
   7       -0.4852
   8       -0.4489
   9       -0.2432
  10       -0.2432
  11        0.2521
  12        0.2533
  13        0.4731
  14        0.6019
  15        0.6466
  16        0.6953
  17        0.6953
  18        0.8262
  19        0.9326
  20        0.9979
  21        1.2410
  22        1.2410
  23        7.2492
  24        7.2492
  25        8.1576
  26        8.1576
  27       11.0834
  28       11.0834
  29       11.7282
  30       11.7282
  31       16.1132
  32       16.9874
 
  0.1538462E+00  0.1538462E+00  0.7692308E-01  0.1092399E-01
   1       -5.0752
   2       -1.3232
   3       -1.3232
   4       -1.2391
   5       -0.9412
   6       -0.9412
   7       -0.9398
   8       -0.0570
   9        0.1311
  10        0.1373
  11        0.6558
  12        0.7180
  13        0.7264
  14        0.7482
  15        0.7482
  16        0.9879
  17        1.0130
  18        1.0130
  19        1.2222
  20        1.2222
  21        1.2300
  22        3.5617
  23        3.5617
  24        4.8757
  25        9.8222
  26       11.0573
  27       11.1248
  28       11.1248
  29       12.5661
  30       12.5661
  31       15.1481
  32       15.1481
 
  0.2307692E+00  0.1538462E+00  0.7692308E-01  0.2184797E-01
   1       -4.7597
   2       -1.3793
   3       -1.1902
   4       -1.1245
   5       -0.8722
   6       -0.8664
   7       -0.8642
   8       -0.1164
   9        0.1755
  10        0.1808
  11        0.4577
  12        0.4899
  13        0.5713
  14        0.6127
  15        0.7659
  16        0.9117
  17        0.9291
  18        0.9485
  19        1.1791
  20        1.2069
  21        1.2091
  22        2.5948
  23        4.0564
  24        5.3768
  25        9.8569
  26       10.0270
  27       11.3451
  28       11.4259
  29       12.8678
  30       12.9562
  31       14.3938
  32       15.5540
 
  0.3076923E+00  0.1538462E+00  0.7692308E-01  0.2184797E-01
   1       -4.3275
   2       -1.5613
   3       -1.0298
   4       -0.9851
   5       -0.7807
   6       -0.7689
   7       -0.7577
   8       -0.2041
   9        0.1717
  10        0.2149
  11        0.2348
  12        0.2535
  13        0.3596
  14        0.5743
  15        0.8164
  16        0.8216
  17        0.8271
  18        0.8572
  19        1.1201
  20        1.1942
  21        1.1942
  22        1.8374
  23        4.6382
  24        5.9908
  25        8.7611
  26       10.3184
  27       10.3240
  28       11.7015
  29       13.4594
  30       13.5127
  31       14.8193
  32       14.9101
 
  0.3846154E+00  0.1538462E+00  0.7692308E-01  0.2184797E-01
   1       -3.7919
   2       -1.9554
   3       -0.8682
   4       -0.8389
   5       -0.6721
   6       -0.6629
   7       -0.6299
   8       -0.3114
   9       -0.0855
  10       -0.0110
  11        0.1977
  12        0.2173
  13        0.3428
  14        0.5994
  15        0.6906
  16        0.7310
  17        0.7578
  18        0.9016
  19        1.0328
  20        1.1858
  21        1.1864
  22        1.3527
  23        5.2907
  24        6.6730
  25        7.7880
  26        9.3092
  27       10.7296
  28       12.1438
  29       12.6686
  30       14.0966
  31       14.1323
  32       16.6432
 
  0.4615385E+00  0.1538462E+00  0.7692308E-01  0.2184797E-01
   1       -3.1777
   2       -2.5343
   3       -0.7468
   4       -0.7311
   5       -0.5596
   6       -0.5529
   7       -0.5152
   8       -0.4303
   9       -0.2726
  10       -0.2176
  11        0.1479
  12        0.1762
  13        0.4471
  14        0.5647
  15        0.6745
  16        0.6848
  17        0.7142
  18        0.8846
  19        0.9886
  20        1.1067
  21        1.1823
  22        1.1826
  23        6.0111
  24        6.7747
  25        7.5714
  26        8.3840
  27       11.2521
  28       11.8930
  29       12.7203
  30       13.3826
  31       14.8448
  32       15.6957
 
  0.2307692E+00  0.2307692E+00  0.7692308E-01  0.1092399E-01
   1       -4.4508
   2       -1.2323
   3       -1.2323
   4       -1.0280
   5       -0.8034
   6       -0.8002
   7       -0.8002
   8       -0.1510
   9        0.1854
  10        0.2109
  11        0.2923
  12        0.2923
  13        0.3432
  14        0.5969
  15        0.8083
  16        0.8333
  17        0.8819
  18        0.8819
  19        1.1524
  20        1.1524
  21        1.1685
  22        3.0498
  23        3.0498
  24        5.8275
  25        8.6373
  26       10.2420
  27       11.7772
  28       11.7772
  29       13.1348
  30       13.1348
  31       14.7682
  32       14.7682
 
  0.3076923E+00  0.2307692E+00  0.7692308E-01  0.2184797E-01
   1       -4.0289
   2       -1.3936
   3       -1.0550
   4       -0.9131
   5       -0.7218
   6       -0.7153
   7       -0.7006
   8       -0.2143
   9        0.0335
  10        0.1269
  11        0.1578
  12        0.1899
  13        0.2665
  14        0.5758
  15        0.7512
  16        0.7787
  17        0.8106
  18        0.8893
  19        1.0818
  20        1.1246
  21        1.1345
  22        2.2329
  23        3.5742
  24        6.3701
  25        7.5622
  26       10.5583
  27       10.6820
  28       12.2788
  29       13.4922
  30       13.8606
  31       15.0813
  32       15.2793
 
  0.3846154E+00  0.2307692E+00  0.7692308E-01  0.2184797E-01
   1       -3.5085
   2       -1.7585
   3       -0.8752
   4       -0.7865
   5       -0.6496
   6       -0.6158
   7       -0.5863
   8       -0.3006
   9       -0.1842
  10       -0.0329
  11        0.0355
  12        0.1637
  13        0.3399
  14        0.6061
  15        0.6577
  16        0.6751
  17        0.7241
  18        0.9835
  19        0.9956
  20        1.1063
  21        1.1115
  22        1.6680
  23        4.1659
  24        6.3939
  25        7.2240
  26        9.6717
  27       10.9850
  28       12.9009
  29       12.9782
  30       13.9694
  31       15.4130
  32       15.9081
 
  0.4615385E+00  0.2307692E+00  0.7692308E-01  0.2184797E-01
   1       -2.9163
   2       -2.3029
   3       -0.7248
   4       -0.6600
   5       -0.6286
   6       -0.5368
   7       -0.5089
   8       -0.4014
   9       -0.2900
  10       -0.1980
  11        0.0415
  12        0.1016
  13        0.4296
  14        0.5372
  15        0.6329
  16        0.6524
  17        0.7085
  18        0.8505
  19        1.0983
  20        1.0999
  21        1.1309
  22        1.3290
  23        4.8343
  24        5.5890
  25        7.9171
  26        8.7493
  27       11.5303
  28       12.1972
  29       13.6347
  30       14.4734
  31       14.5425
  32       15.2048
 
  0.3076923E+00  0.3076923E+00  0.7692308E-01  0.1092399E-01
   1       -3.6234
   2       -1.1931
   3       -1.1931
   4       -0.8462
   5       -0.6466
   6       -0.6233
   7       -0.6233
   8       -0.2440
   9       -0.0779
  10       -0.0779
  11        0.0507
  12        0.1664
  13        0.2962
  14        0.5613
  15        0.6736
  16        0.7250
  17        0.7250
  18        0.9988
  19        1.0396
  20        1.0396
  21        1.0783
  22        2.6849
  23        2.6849
  24        6.2554
  25        7.1082
  26       10.8979
  27       11.1752
  28       11.1752
  29       14.3311
  30       14.3311
  31       15.3148
  32       15.4507
 
  0.3846154E+00  0.3076923E+00  0.7692308E-01  0.2184797E-01
   1       -3.1277
   2       -1.5184
   3       -0.9962
   4       -0.7955
   5       -0.5657
   6       -0.5359
   7       -0.5131
   8       -0.2963
   9       -0.2381
  10       -0.1024
  11       -0.0712