       N       E                     dE             d eps       ncg     rms          rms(c)
DAV:   1     0.276401904668E+03    0.27640E+03   -0.20199E+04  5472   0.200E+03
DAV:   2    -0.118155187193E+00   -0.27652E+03   -0.26277E+03  5392   0.347E+02
DAV:   3    -0.176699103624E+02   -0.17552E+02   -0.17186E+02  6168   0.111E+02
DAV:   4    -0.178592928885E+02   -0.18938E+00   -0.18929E+00  5728   0.129E+01
DAV:   5    -0.178596476798E+02   -0.35479E-03   -0.35479E-03  6264   0.499E-01    0.135E+01
DAV:   6    -0.162566067725E+02    0.16030E+01   -0.26169E+01  5872   0.794E+01    0.745E+00
DAV:   7    -0.146588775953E+02    0.15977E+01   -0.54504E+00  6064   0.353E+01    0.888E-01
DAV:   8    -0.146390491848E+02    0.19828E-01   -0.63445E-02  5960   0.253E+00    0.780E-01
DAV:   9    -0.146273053877E+02    0.11744E-01   -0.28049E-02  6152   0.256E+00    0.559E-02
DAV:  10    -0.146273419494E+02   -0.36562E-04   -0.72582E-04  6008   0.307E-01    0.103E-02
DAV:  11    -0.146273423446E+02   -0.39519E-06   -0.85076E-06  6032   0.274E-02    0.396E-03
DAV:  12    -0.146273460685E+02   -0.37239E-05   -0.30645E-07  6288   0.446E-03    0.102E-03
DAV:  13    -0.146273468453E+02   -0.77681E-06   -0.59233E-08  5736   0.322E-03    0.164E-04
DAV:  14    -0.146273468798E+02   -0.34457E-07   -0.30956E-09  3976   0.611E-04    0.874E-06
DAV:  15    -0.146273468713E+02    0.84656E-08   -0.30726E-10  3304   0.158E-04
   1 F= -.14627347E+02 E0= -.14627237E+02  d E =-.220742E-03
