 vasp.4.6.28 25Jul05 complex 
 executed on             LinuxIFC date 2016.07.06  18:27:59
 running on    8 nodes
 distr:  one band on    1 nodes,    8 groups


--------------------------------------------------------------------------------------------------------


 INCAR:
 POTCAR:   PAW_PBE Cu 05Jan2001                   
 POTCAR:   PAW_PBE Cu 05Jan2001                   
   VRHFIN =Cu: d10 p1                                                           
   LEXCH  = PE                                                                  
   EATOM  =  1390.9800 eV,  102.2341 Ry                                         
                                                                                
   TITEL  = PAW_PBE Cu 05Jan2001                                                
   LULTRA =        F    use ultrasoft PP ?                                      
   IUNSCR =        1    unscreen: 0-lin 1-nonlin 2-no                           
   RPACOR =    2.000    partial core radius                                     
   POMASS =   63.546; ZVAL   =   11.000    mass and valenz                      
   RCORE  =    2.300    outmost cutoff radius                                   
   RWIGS  =    2.480; RWIGS  =    1.312    wigner-seitz radius (au A)           
   ENMAX  =  273.214; ENMIN  =  204.910 eV                                      
   RCLOC  =    1.712    cutoff for local pot                                    
   LCOR   =        T    correct aug charges                                     
   LPAW   =        T    paw PP                                                  
   EAUG   =  516.456                                                            
   DEXC   =    -.008                                                            
   RMAX   =    2.789    core radius for proj-oper                               
   RAUG   =    1.300    factor for augmentation sphere                          
   RDEP   =    2.302    radius for radial grids                                 
   QCUT   =   -4.481; QGAM   =    8.962    optimization parameters              
                                                                                
   Description                                                                  
     l     E      TYP  RCUT    TYP  RCUT                                        
     2   .000     23  2.300                                                     
     2   .000     23  2.300                                                     
     0   .000     23  2.300                                                     
     0   .000     23  2.300                                                     
     1  -.200     23  2.300                                                     
     1   .000     23  2.300                                                     
     3   .000      7   .000                                                     
  local pseudopotential read in
  partial core-charges read in
  atomic valenz-charges read in
  non local Contribution for L=           2  read in
    real space projection operators read in
  non local Contribution for L=           2  read in
    real space projection operators read in
  non local Contribution for L=           0  read in
    real space projection operators read in
  non local Contribution for L=           0  read in
    real space projection operators read in
  non local Contribution for L=           1  read in
    real space projection operators read in
  non local Contribution for L=           1  read in
    real space projection operators read in
    PAW grid and wavefunctions read in
 
   number of l-projection  operators is LMAX  =           6
   number of lm-projection operators is LMMAX =          18
 
 PAW_PBE Cu 05Jan2001                   :
 energy of atom  1       EATOM=-1390.9800
 kinetic energy error for atom=    0.0032 (will be added to EATOM!!)
 
 EXHCAR: internal setup
 exchange correlation table for  LEXCH =        8
   RHO(1)=    0.500       N(1)  =     2000
   RHO(2)=  100.500       N(2)  =     4000
 
 POSCAR: Cu                                      
  positions in direct lattice
  velocities in cartesian coordinates
 


--------------------------------------------------------------------------------------------------------


 ion  position               nearest neighbor table
   1  0.000  0.000  0.000-   2 2.67   3 2.67   4 2.67   3 2.67   4 2.67   2 2.67   4 2.67   4 2.67
                             2 2.67   3 2.67   3 2.67   2 2.67
   2  0.500  0.500  0.000-   1 2.67   3 2.67   4 2.67   3 2.67   4 2.67   1 2.67   3 2.67   3 2.67
                             1 2.67   4 2.67   4 2.67   1 2.67
   3  0.500  0.000  0.500-   1 2.67   2 2.67   4 2.67   1 2.67   2 2.67   2 2.67   4 2.67   2 2.67
                             1 2.67   4 2.67   1 2.67   4 2.67
   4  0.000  0.500  0.500-   1 2.67   2 2.67   3 2.67   1 2.67   2 2.67   1 2.67   3 2.67   1 2.67
                             2 2.67   3 2.67   2 2.67   3 2.67
 
  LATTYP: Found a simple cubic cell.
 ALAT       =     3.7818724442
  
  Lattice vectors:
  
 A1 = (   3.7818724442,   0.0000000000,   0.0000000000)
 A2 = (   0.0000000000,   3.7818724442,   0.0000000000)
 A3 = (   0.0000000000,   0.0000000000,   3.7818724442)
 Subroutine PRICEL returns following result:
 
  LATTYP: Found a face centered cubic cell.
 ALAT       =     3.7818724442
  
  Lattice vectors:
  
 A1 = (   1.8909362221,   1.8909362221,   0.0000000000)
 A2 = (   1.8909362221,   0.0000000000,  -1.8909362221)
 A3 = (   0.0000000000,   1.8909362221,  -1.8909362221)
 
   4 primitive cells build up your supercell.
 

Analysis of symmetry for initial positions (statically):

 Routine SETGRP: Setting up the symmetry group for a 
 simple cubic supercell.


 Subroutine GETGRP returns: Found 48 space group operations
 (whereof 48 operations were pure point group operations)
 out of a pool of 48 trial point group operations.


The static configuration has the point symmetry O_h .

Analysis of symmetry for dynamics (positions and initial velocities):

 Subroutine DYNSYM returns: Found 48 space group operations
 (whereof 48 operations were pure point group operations)
 out of a pool of 48 trial space group operations
 (whereof 48 operations were pure point group operations)
 and found also     4 'primitive' translations


The dynamic configuration has the point symmetry O_h .
 
 
 KPOINTS: Automatic mesh                          

Automatic generation of k-mesh.
 generate k-points for:  13  13  13
 
 Subroutine IBZKPT returns following result:
 ===========================================
 
 Found     84 irreducible k-points:
 
 Following reciprocal coordinates:
            Coordinates               Weight
  0.000000  0.000000  0.000000      1.000000
  0.076923  0.000000  0.000000      6.000000
  0.153846  0.000000  0.000000      6.000000
  0.230769  0.000000  0.000000      6.000000
  0.307692  0.000000  0.000000      6.000000
  0.384615  0.000000  0.000000      6.000000
  0.461538  0.000000  0.000000      6.000000
  0.076923  0.076923  0.000000     12.000000
  0.153846  0.076923  0.000000     24.000000
  0.230769  0.076923  0.000000     24.000000
  0.307692  0.076923  0.000000     24.000000
  0.384615  0.076923  0.000000     24.000000
  0.461538  0.076923  0.000000     24.000000
  0.153846  0.153846  0.000000     12.000000
  0.230769  0.153846  0.000000     24.000000
  0.307692  0.153846  0.000000     24.000000
  0.384615  0.153846  0.000000     24.000000
  0.461538  0.153846  0.000000     24.000000
  0.230769  0.230769  0.000000     12.000000
  0.307692  0.230769  0.000000     24.000000
  0.384615  0.230769  0.000000     24.000000
  0.461538  0.230769  0.000000     24.000000
  0.307692  0.307692  0.000000     12.000000
  0.384615  0.307692  0.000000     24.000000
  0.461538  0.307692  0.000000     24.000000
  0.384615  0.384615  0.000000     12.000000
  0.461538  0.384615  0.000000     24.000000
  0.461538  0.461538  0.000000     12.000000
  0.076923  0.076923  0.076923      8.000000
  0.153846  0.076923  0.076923     24.000000
  0.230769  0.076923  0.076923     24.000000
  0.307692  0.076923  0.076923     24.000000
  0.384615  0.076923  0.076923     24.000000
  0.461538  0.076923  0.076923     24.000000
  0.153846  0.153846  0.076923     24.000000
  0.230769  0.153846  0.076923     48.000000
  0.307692  0.153846  0.076923     48.000000
  0.384615  0.153846  0.076923     48.000000
  0.461538  0.153846  0.076923     48.000000
  0.230769  0.230769  0.076923     24.000000
  0.307692  0.230769  0.076923     48.000000
  0.384615  0.230769  0.076923     48.000000
  0.461538  0.230769  0.076923     48.000000
  0.307692  0.307692  0.076923     24.000000
  0.384615  0.307692  0.076923     48.000000
  0.461538  0.307692  0.076923     48.000000
  0.384615  0.384615  0.076923     24.000000
  0.461538  0.384615  0.076923     48.000000
  0.461538  0.461538  0.076923     24.000000
  0.153846  0.153846  0.153846      8.000000
  0.230769  0.153846  0.153846     24.000000
  0.307692  0.153846  0.153846     24.000000
  0.384615  0.153846  0.153846     24.000000
  0.461538  0.153846  0.153846     24.000000
  0.230769  0.230769  0.153846     24.000000
  0.307692  0.230769  0.153846     48.000000
  0.384615  0.230769  0.153846     48.000000
  0.461538  0.230769  0.153846     48.000000
  0.307692  0.307692  0.153846     24.000000
  0.384615  0.307692  0.153846     48.000000
  0.461538  0.307692  0.153846     48.000000
  0.384615  0.384615  0.153846     24.000000
  0.461538  0.384615  0.153846     48.000000
  0.461538  0.461538  0.153846     24.000000
  0.230769  0.230769  0.230769      8.000000
  0.307692  0.230769  0.230769     24.000000
  0.384615  0.230769  0.230769     24.000000
  0.461538  0.230769  0.230769     24.000000
  0.307692  0.307692  0.230769     24.000000
  0.384615  0.307692  0.230769     48.000000
  0.461538  0.307692  0.230769     48.000000
  0.384615  0.384615  0.230769     24.000000
  0.461538  0.384615  0.230769     48.000000
  0.461538  0.461538  0.230769     24.000000
  0.307692  0.307692  0.307692      8.000000
  0.384615  0.307692  0.307692     24.000000
  0.461538  0.307692  0.307692     24.000000
  0.384615  0.384615  0.307692     24.000000
  0.461538  0.384615  0.307692     48.000000
  0.461538  0.461538  0.307692     24.000000
  0.384615  0.384615  0.384615      8.000000
  0.461538  0.384615  0.384615     24.000000
  0.461538  0.461538  0.384615     24.000000
  0.461538  0.461538  0.461538      8.000000
 
 Following cartesian coordinates:
            Coordinates               Weight
  0.000000  0.000000  0.000000      1.000000
  0.021154  0.000000  0.000000      6.000000
  0.042307  0.000000  0.000000      6.000000
  0.063461  0.000000  0.000000      6.000000
  0.084614  0.000000  0.000000      6.000000
  0.105768  0.000000  0.000000      6.000000
  0.126921  0.000000  0.000000      6.000000
  0.021154  0.021154  0.000000     12.000000
  0.042307  0.021154  0.000000     24.000000
  0.063461  0.021154  0.000000     24.000000
  0.084614  0.021154  0.000000     24.000000
  0.105768  0.021154  0.000000     24.000000
  0.126921  0.021154  0.000000     24.000000
  0.042307  0.042307  0.000000     12.000000
  0.063461  0.042307  0.000000     24.000000
  0.084614  0.042307  0.000000     24.000000
  0.105768  0.042307  0.000000     24.000000
  0.126921  0.042307  0.000000     24.000000
  0.063461  0.063461  0.000000     12.000000
  0.084614  0.063461  0.000000     24.000000
  0.105768  0.063461  0.000000     24.000000
  0.126921  0.063461  0.000000     24.000000
  0.084614  0.084614  0.000000     12.000000
  0.105768  0.084614  0.000000     24.000000
  0.126921  0.084614  0.000000     24.000000
  0.105768  0.105768  0.000000     12.000000
  0.126921  0.105768  0.000000     24.000000
  0.126921  0.126921  0.000000     12.000000
  0.021154  0.021154  0.021154      8.000000
  0.042307  0.021154  0.021154     24.000000
  0.063461  0.021154  0.021154     24.000000
  0.084614  0.021154  0.021154     24.000000
  0.105768  0.021154  0.021154     24.000000
  0.126921  0.021154  0.021154     24.000000
  0.042307  0.042307  0.021154     24.000000
  0.063461  0.042307  0.021154     48.000000
  0.084614  0.042307  0.021154     48.000000
  0.105768  0.042307  0.021154     48.000000
  0.126921  0.042307  0.021154     48.000000
  0.063461  0.063461  0.021154     24.000000
  0.084614  0.063461  0.021154     48.000000
  0.105768  0.063461  0.021154     48.000000
  0.126921  0.063461  0.021154     48.000000
  0.084614  0.084614  0.021154     24.000000
  0.105768  0.084614  0.021154     48.000000
  0.126921  0.084614  0.021154     48.000000
  0.105768  0.105768  0.021154     24.000000
  0.126921  0.105768  0.021154     48.000000
  0.126921  0.126921  0.021154     24.000000
  0.042307  0.042307  0.042307      8.000000
  0.063461  0.042307  0.042307     24.000000
  0.084614  0.042307  0.042307     24.000000
  0.105768  0.042307  0.042307     24.000000
  0.126921  0.042307  0.042307     24.000000
  0.063461  0.063461  0.042307     24.000000
  0.084614  0.063461  0.042307     48.000000
  0.105768  0.063461  0.042307     48.000000
  0.126921  0.063461  0.042307     48.000000
  0.084614  0.084614  0.042307     24.000000
  0.105768  0.084614  0.042307     48.000000
  0.126921  0.084614  0.042307     48.000000
  0.105768  0.105768  0.042307     24.000000
  0.126921  0.105768  0.042307     48.000000
  0.126921  0.126921  0.042307     24.000000
  0.063461  0.063461  0.063461      8.000000
  0.084614  0.063461  0.063461     24.000000
  0.105768  0.063461  0.063461     24.000000
  0.126921  0.063461  0.063461     24.000000
  0.084614  0.084614  0.063461     24.000000
  0.105768  0.084614  0.063461     48.000000
  0.126921  0.084614  0.063461     48.000000
  0.105768  0.105768  0.063461     24.000000
  0.126921  0.105768  0.063461     48.000000
  0.126921  0.126921  0.063461     24.000000
  0.084614  0.084614  0.084614      8.000000
  0.105768  0.084614  0.084614     24.000000
  0.126921  0.084614  0.084614     24.000000
  0.105768  0.105768  0.084614     24.000000
  0.126921  0.105768  0.084614     48.000000
  0.126921  0.126921  0.084614     24.000000
  0.105768  0.105768  0.105768      8.000000
  0.126921  0.105768  0.105768     24.000000
  0.126921  0.126921  0.105768     24.000000
  0.126921  0.126921  0.126921      8.000000
 


--------------------------------------------------------------------------------------------------------




 Dimension of arrays:
   k-Points           NKPTS =     84   number of bands    NBANDS=     32
   number of dos      NEDOS =    301   number of ions     NIONS =      4
   non local maximal  LDIM  =      6   non local SUM 2l+1 LMDIM =     18
   total plane-waves  NPLWV =  21952
   max r-space proj   IRMAX =      1   max aug-charges    IRDMAX= 114136
   dimension x,y,z NGX =    28 NGY =   28 NGZ =   28
   dimension x,y,z NGXF=    56 NGYF=   56 NGZF=   56
   support grid    NGXF=   112 NGYF=  112 NGZF=  112
   ions per type =               4
 NGX,Y,Z   is equivalent  to a cutoff of  12.31, 12.31, 12.31 a.u.
 NGXF,Y,Z  is equivalent  to a cutoff of  24.62, 24.62, 24.62 a.u.


 I would recommend the setting:
   dimension x,y,z NGX =    28 NGY =   28 NGZ =   28
 SYSTEM =  unknown system                          
 POSCAR =  Cu                                      

 Startparameter for this run:
   NWRITE =      2    write-flag & timer
   PREC   = accura    medium, high low
   ISTART =      0    job   : 0-new  1-cont  2-samecut
   ICHARG =      2    charge: 1-file 2-atom 10-const
   ISPIN  =      1    spin polarized calculation?
   LNONCOLLINEAR =      F non collinear calculations
   LSORBIT =      F    spin-orbit coupling
   INIWAV =      1    electr: 0-lowe 1-rand  2-diag
   LASPH  =      F    aspherical Exc in radial PAW
   METAGGA=      F    non-selfconsistent MetaGGA calc.

 Electronic Relaxation 1
   ENCUT  =  500.0 eV  36.75 Ry    6.06 a.u.   6.90  6.90  6.90*2*pi/ulx,y,z
   ENINI  =  500.0     initial cutoff
   ENAUG  =  516.5 eV  augmentation charge cutoff
   NELM   =     60;   NELMIN=  2; NELMDL=  0     # of ELM steps 
   EDIFF  = 0.1E-07   stopping-criterion for ELM
   LREAL  =      F    real-space projection
   LCOMPAT=      F    compatible to vasp.4.4
   LREAL_COMPAT= F    compatible to vasp.4.5.1-3
   GGA_COMPAT  = T    GGA compatible to vasp.4.4-vasp.4.6
   LMAXPAW     = -100 max onsite density
   LMAXMIX     =    2 max onsite mixed and CHGCAR
   VOSKOWN=      0    Vosko Wilk Nusair interpolation
   ROPT   =    0.00000
 Ionic relaxation
   EDIFFG = 0.1E-06   stopping-criterion for IOM
   NSW    =      0    number of steps for IOM
   NBLOCK =      1;   KBLOCK =      1    inner block; outer block 
   IBRION =     -1    ionic relax: 0-MD 1-quasi-New 2-CG
   NFREE  =      0    steps in history (QN), initial steepest desc. (CG)
   ISIF   =      2    stress and relaxation
   IWAVPR =     10    prediction:  0-non 1-charg 2-wave 3-comb
   ISYM   =      2    0-nonsym 1-usesym 2-fastsym
   LCORR  =      T    Harris-Foulkes like correction to forces

   POTIM  =   0.50    time-step for ionic-motion
   TEIN   =    0.0    initial temperature
   TEBEG  =    0.0;   TEEND  =   0.0 temperature during run
   SMASS  =  -3.00    Nose mass-parameter (am)
   estimated Nose-frequenzy (Omega)   =  0.10E-29 period in steps =****** mass=  -0.327E-27a.u.
   NPACO  =    256;   APACO  = 16.0  distance and # of slots for P.C.
   PSTRESS=    0.0 pullay stress

  Mass of Ions in am
   POMASS =  63.55
  Ionic Valenz
   ZVAL   =  11.00
  Atomic Wigner-Seitz radii
   RWIGS  =  -1.00
   NELECT =      44.0000    total number of electrons
   NUPDOWN=      -1.0000    fix difference up-down

 DOS related values:
   EMIN   =  10.00;   EMAX   =-10.00  energy-range for DOS
   ISMEAR =     0;   SIGMA  =   0.01  broadening in eV -4-tet -1-fermi 0-gaus

 Electronic relaxation 2 (details)
   IALGO  =     38    algorithm
   LDIAG  =      T    sub-space diagonalisation
   IMIX   =      4    mixing-type and parameters
     AMIX     =   0.40;   BMIX     =  1.00
     AMIX_MAG =   1.60;   BMIX_MAG =  1.00
     AMIN     =   0.10
     WC   =   100.;   INIMIX=   1;  MIXPRE=   1

 Intra band minimization:
   WEIMIN = 0.0000     energy-eigenvalue tresh-hold
   EBREAK =  0.96E-10  absolut break condition
   DEPER  =   0.30     relativ break condition  

   TIME   =   0.10     timestep for ELM

  volume/ion in A,a.u.               =      13.52        91.26
  Fermi-wavevector in a.u.,eV,Ry     =   1.528219 31.775759  2.335452

 Second variation
   LSECVAR=     F    do a second variation
 
 Write flags
   LWAVE  =      F    write WAVECAR
   LCHARG =      F    write CHGCAR
   LVTOT  =      F    write LOCPOT, local potential
   LELF   =      F    write electronic localiz. function (ELF)
   LORBIT =      0    0 simple, 1 ext, 2 COOP (PROOUT)


 Dipole corrections
   IDIPOL =      0    1-x, 2-y, 3-z
   LDIPOL =      F    correct potential



--------------------------------------------------------------------------------------------------------


 Static calculation
 charge density will be updated during run
 non-spin polarized calculation
 Variant of blocked Davidson
 Davidson routine will perform the subspace rotation
 performe sub-space diagonalisation
    after iterative eigenvector-optimisation
 modified Broyden-mixing scheme, WC =      100.0
 initial mixing is a Kerker type mixing with AMIX =  0.4000 and BMIX =      1.0000
 Hartree-type preconditioning will be used
 using additional bands           10
 reciprocal scheme for non local part
 use partial core corrections
 calculate Harris-corrections to forces 
   (improved forces if not selfconsistent)
 use gradient corrections 
 use of overlap-Matrix (Vanderbilt PP)
 Gauss-broadening in eV      SIGMA  =   0.01


--------------------------------------------------------------------------------------------------------


  energy-cutoff  :      500.00
  volume of cell :       54.09
      direct lattice vectors                 reciprocal lattice vectors
     3.781872444  0.000000000  0.000000000     0.264419283  0.000000000  0.000000000
     0.000000000  3.781872444  0.000000000     0.000000000  0.264419283  0.000000000
     0.000000000  0.000000000  3.781872444     0.000000000  0.000000000  0.264419283

  length of vectors
     3.781872444  3.781872444  3.781872444     0.264419283  0.264419283  0.264419283


 
 k-points in units of 2pi/SCALE and weight: Automatic mesh                          
   0.00000000  0.00000000  0.00000000       0.000
   0.02115354  0.00000000  0.00000000       0.003
   0.04230709  0.00000000  0.00000000       0.003
   0.06346063  0.00000000  0.00000000       0.003
   0.08461417  0.00000000  0.00000000       0.003
   0.10576771  0.00000000  0.00000000       0.003
   0.12692126  0.00000000  0.00000000       0.003
   0.02115354  0.02115354  0.00000000       0.005
   0.04230709  0.02115354  0.00000000       0.011
   0.06346063  0.02115354  0.00000000       0.011
   0.08461417  0.02115354  0.00000000       0.011
   0.10576771  0.02115354  0.00000000       0.011
   0.12692126  0.02115354  0.00000000       0.011
   0.04230709  0.04230709  0.00000000       0.005
   0.06346063  0.04230709  0.00000000       0.011
   0.08461417  0.04230709  0.00000000       0.011
   0.10576771  0.04230709  0.00000000       0.011
   0.12692126  0.04230709  0.00000000       0.011
   0.06346063  0.06346063  0.00000000       0.005
   0.08461417  0.06346063  0.00000000       0.011
   0.10576771  0.06346063  0.00000000       0.011
   0.12692126  0.06346063  0.00000000       0.011
   0.08461417  0.08461417  0.00000000       0.005
   0.10576771  0.08461417  0.00000000       0.011
   0.12692126  0.08461417  0.00000000       0.011
   0.10576771  0.10576771  0.00000000       0.005
   0.12692126  0.10576771  0.00000000       0.011
   0.12692126  0.12692126  0.00000000       0.005
   0.02115354  0.02115354  0.02115354       0.004
   0.04230709  0.02115354  0.02115354       0.011
   0.06346063  0.02115354  0.02115354       0.011
   0.08461417  0.02115354  0.02115354       0.011
   0.10576771  0.02115354  0.02115354       0.011
   0.12692126  0.02115354  0.02115354       0.011
   0.04230709  0.04230709  0.02115354       0.011
   0.06346063  0.04230709  0.02115354       0.022
   0.08461417  0.04230709  0.02115354       0.022
   0.10576771  0.04230709  0.02115354       0.022
   0.12692126  0.04230709  0.02115354       0.022
   0.06346063  0.06346063  0.02115354       0.011
   0.08461417  0.06346063  0.02115354       0.022
   0.10576771  0.06346063  0.02115354       0.022
   0.12692126  0.06346063  0.02115354       0.022
   0.08461417  0.08461417  0.02115354       0.011
   0.10576771  0.08461417  0.02115354       0.022
   0.12692126  0.08461417  0.02115354       0.022
   0.10576771  0.10576771  0.02115354       0.011
   0.12692126  0.10576771  0.02115354       0.022
   0.12692126  0.12692126  0.02115354       0.011
   0.04230709  0.04230709  0.04230709       0.004
   0.06346063  0.04230709  0.04230709       0.011
   0.08461417  0.04230709  0.04230709       0.011
   0.10576771  0.04230709  0.04230709       0.011
   0.12692126  0.04230709  0.04230709       0.011
   0.06346063  0.06346063  0.04230709       0.011
   0.08461417  0.06346063  0.04230709       0.022
   0.10576771  0.06346063  0.04230709       0.022
   0.12692126  0.06346063  0.04230709       0.022
   0.08461417  0.08461417  0.04230709       0.011
   0.10576771  0.08461417  0.04230709       0.022
   0.12692126  0.08461417  0.04230709       0.022
   0.10576771  0.10576771  0.04230709       0.011
   0.12692126  0.10576771  0.04230709       0.022
   0.12692126  0.12692126  0.04230709       0.011
   0.06346063  0.06346063  0.06346063       0.004
   0.08461417  0.06346063  0.06346063       0.011
   0.10576771  0.06346063  0.06346063       0.011
   0.12692126  0.06346063  0.06346063       0.011
   0.08461417  0.08461417  0.06346063       0.011
   0.10576771  0.08461417  0.06346063       0.022
   0.12692126  0.08461417  0.06346063       0.022
   0.10576771  0.10576771  0.06346063       0.011
   0.12692126  0.10576771  0.06346063       0.022
   0.12692126  0.12692126  0.06346063       0.011
   0.08461417  0.08461417  0.08461417       0.004
   0.10576771  0.08461417  0.08461417       0.011
   0.12692126  0.08461417  0.08461417       0.011
   0.10576771  0.10576771  0.08461417       0.011
   0.12692126  0.10576771  0.08461417       0.022
   0.12692126  0.12692126  0.08461417       0.011
   0.10576771  0.10576771  0.10576771       0.004
   0.12692126  0.10576771  0.10576771       0.011
   0.12692126  0.12692126  0.10576771       0.011
   0.12692126  0.12692126  0.12692126       0.004
 
 k-points in reciprocal lattice and weights: Automatic mesh                          
   0.00000000  0.00000000  0.00000000       0.000
   0.07692308  0.00000000  0.00000000       0.003
   0.15384615  0.00000000  0.00000000       0.003
   0.23076923  0.00000000  0.00000000       0.003
   0.30769231  0.00000000  0.00000000       0.003
   0.38461538  0.00000000  0.00000000       0.003
   0.46153846  0.00000000  0.00000000       0.003
   0.07692308  0.07692308  0.00000000       0.005
   0.15384615  0.07692308  0.00000000       0.011
   0.23076923  0.07692308  0.00000000       0.011
   0.30769231  0.07692308  0.00000000       0.011
   0.38461538  0.07692308  0.00000000       0.011
   0.46153846  0.07692308  0.00000000       0.011
   0.15384615  0.15384615  0.00000000       0.005
   0.23076923  0.15384615  0.00000000       0.011
   0.30769231  0.15384615  0.00000000       0.011
   0.38461538  0.15384615  0.00000000       0.011
   0.46153846  0.15384615  0.00000000       0.011
   0.23076923  0.23076923  0.00000000       0.005
   0.30769231  0.23076923  0.00000000       0.011
   0.38461538  0.23076923  0.00000000       0.011
   0.46153846  0.23076923  0.00000000       0.011
   0.30769231  0.30769231  0.00000000       0.005
   0.38461538  0.30769231  0.00000000       0.011
   0.46153846  0.30769231  0.00000000       0.011
   0.38461538  0.38461538  0.00000000       0.005
   0.46153846  0.38461538  0.00000000       0.011
   0.46153846  0.46153846  0.00000000       0.005
   0.07692308  0.07692308  0.07692308       0.004
   0.15384615  0.07692308  0.07692308       0.011
   0.23076923  0.07692308  0.07692308       0.011
   0.30769231  0.07692308  0.07692308       0.011
   0.38461538  0.07692308  0.07692308       0.011
   0.46153846  0.07692308  0.07692308       0.011
   0.15384615  0.15384615  0.07692308       0.011
   0.23076923  0.15384615  0.07692308       0.022
   0.30769231  0.15384615  0.07692308       0.022
   0.38461538  0.15384615  0.07692308       0.022
   0.46153846  0.15384615  0.07692308       0.022
   0.23076923  0.23076923  0.07692308       0.011
   0.30769231  0.23076923  0.07692308       0.022
   0.38461538  0.23076923  0.07692308       0.022
   0.46153846  0.23076923  0.07692308       0.022
   0.30769231  0.30769231  0.07692308       0.011
   0.38461538  0.30769231  0.07692308       0.022
   0.46153846  0.30769231  0.07692308       0.022
   0.38461538  0.38461538  0.07692308       0.011
   0.46153846  0.38461538  0.07692308       0.022
   0.46153846  0.46153846  0.07692308       0.011
   0.15384615  0.15384615  0.15384615       0.004
   0.23076923  0.15384615  0.15384615       0.011
   0.30769231  0.15384615  0.15384615       0.011
   0.38461538  0.15384615  0.15384615       0.011
   0.46153846  0.15384615  0.15384615       0.011
   0.23076923  0.23076923  0.15384615       0.011
   0.30769231  0.23076923  0.15384615       0.022
   0.38461538  0.23076923  0.15384615       0.022
   0.46153846  0.23076923  0.15384615       0.022
   0.30769231  0.30769231  0.15384615       0.011
   0.38461538  0.30769231  0.15384615       0.022
   0.46153846  0.30769231  0.15384615       0.022
   0.38461538  0.38461538  0.15384615       0.011
   0.46153846  0.38461538  0.15384615       0.022
   0.46153846  0.46153846  0.15384615       0.011
   0.23076923  0.23076923  0.23076923       0.004
   0.30769231  0.23076923  0.23076923       0.011
   0.38461538  0.23076923  0.23076923       0.011
   0.46153846  0.23076923  0.23076923       0.011
   0.30769231  0.30769231  0.23076923       0.011
   0.38461538  0.30769231  0.23076923       0.022
   0.46153846  0.30769231  0.23076923       0.022
   0.38461538  0.38461538  0.23076923       0.011
   0.46153846  0.38461538  0.23076923       0.022
   0.46153846  0.46153846  0.23076923       0.011
   0.30769231  0.30769231  0.30769231       0.004
   0.38461538  0.30769231  0.30769231       0.011
   0.46153846  0.30769231  0.30769231       0.011
   0.38461538  0.38461538  0.30769231       0.011
   0.46153846  0.38461538  0.30769231       0.022
   0.46153846  0.46153846  0.30769231       0.011
   0.38461538  0.38461538  0.38461538       0.004
   0.46153846  0.38461538  0.38461538       0.011
   0.46153846  0.46153846  0.38461538       0.011
   0.46153846  0.46153846  0.46153846       0.004
 
 position of ions in fractional coordinates (direct lattice) 
   0.00000000  0.00000000  0.00000000
   0.50000000  0.50000000  0.00000000
   0.50000000  0.00000000  0.50000000
   0.00000000  0.50000000  0.50000000
 
 position of ions in cartesian coordinates  (Angst):
   0.00000000  0.00000000  0.00000000
   1.89093622  1.89093622  0.00000000
   1.89093622  0.00000000  1.89093622
   0.00000000  1.89093622  1.89093622
 


--------------------------------------------------------------------------------------------------------


 k-point  1 :  0.00000.00000.0000  plane waves:   1357
 k-point  2 :  0.07690.00000.0000  plane waves:   1361
 k-point  3 :  0.15380.00000.0000  plane waves:   1362
 k-point  4 :  0.23080.00000.0000  plane waves:   1362
 k-point  5 :  0.30770.00000.0000  plane waves:   1358
 k-point  6 :  0.38460.00000.0000  plane waves:   1378
 k-point  7 :  0.46150.00000.0000  plane waves:   1390
 k-point  8 :  0.07690.07690.0000  plane waves:   1359
 k-point  9 :  0.15380.07690.0000  plane waves:   1364
 k-point 10 :  0.23080.07690.0000  plane waves:   1366
 k-point 11 :  0.30770.07690.0000  plane waves:   1368
 k-point 12 :  0.38460.07690.0000  plane waves:   1381
 k-point 13 :  0.46150.07690.0000  plane waves:   1383
 k-point 14 :  0.15380.15380.0000  plane waves:   1360
 k-point 15 :  0.23080.15380.0000  plane waves:   1377
 k-point 16 :  0.30770.15380.0000  plane waves:   1367
 k-point 17 :  0.38460.15380.0000  plane waves:   1367
 k-point 18 :  0.46150.15380.0000  plane waves:   1379
 k-point 19 :  0.23080.23080.0000  plane waves:   1368
 k-point 20 :  0.30770.23080.0000  plane waves:   1370
 k-point 21 :  0.38460.23080.0000  plane waves:   1363
 k-point 22 :  0.46150.23080.0000  plane waves:   1376
 k-point 23 :  0.30770.30770.0000  plane waves:   1376
 k-point 24 :  0.38460.30770.0000  plane waves:   1366
 k-point 25 :  0.46150.30770.0000  plane waves:   1379
 k-point 26 :  0.38460.38460.0000  plane waves:   1370
 k-point 27 :  0.46150.38460.0000  plane waves:   1369
 k-point 28 :  0.46150.46150.0000  plane waves:   1364
 k-point 29 :  0.07690.07690.0769  plane waves:   1361
 k-point 30 :  0.15380.07690.0769  plane waves:   1363
 k-point 31 :  0.23080.07690.0769  plane waves:   1367
 k-point 32 :  0.30770.07690.0769  plane waves:   1369
 k-point 33 :  0.38460.07690.0769  plane waves:   1373
 k-point 34 :  0.46150.07690.0769  plane waves:   1379
 k-point 35 :  0.15380.15380.0769  plane waves:   1360
 k-point 36 :  0.23080.15380.0769  plane waves:   1367
 k-point 37 :  0.30770.15380.0769  plane waves:   1369
 k-point 38 :  0.38460.15380.0769  plane waves:   1373
 k-point 39 :  0.46150.15380.0769  plane waves:   1372
 k-point 40 :  0.23080.23080.0769  plane waves:   1370
 k-point 41 :  0.30770.23080.0769  plane waves:   1374
 k-point 42 :  0.38460.23080.0769  plane waves:   1371
 k-point 43 :  0.46150.23080.0769  plane waves:   1367
 k-point 44 :  0.30770.30770.0769  plane waves:   1360
 k-point 45 :  0.38460.30770.0769  plane waves:   1368
 k-point 46 :  0.46150.30770.0769  plane waves:   1369
 k-point 47 :  0.38460.38460.0769  plane waves:   1373
 k-point 48 :  0.46150.38460.0769  plane waves:   1374
 k-point 49 :  0.46150.46150.0769  plane waves:   1371
 k-point 50 :  0.15380.15380.1538  plane waves:   1367
 k-point 51 :  0.23080.15380.1538  plane waves:   1367
 k-point 52 :  0.30770.15380.1538  plane waves:   1367
 k-point 53 :  0.38460.15380.1538  plane waves:   1368
 k-point 54 :  0.46150.15380.1538  plane waves:   1376
 k-point 55 :  0.23080.23080.1538  plane waves:   1370
 k-point 56 :  0.30770.23080.1538  plane waves:   1372
 k-point 57 :  0.38460.23080.1538  plane waves:   1377
 k-point 58 :  0.46150.23080.1538  plane waves:   1374
 k-point 59 :  0.30770.30770.1538  plane waves:   1374
 k-point 60 :  0.38460.30770.1538  plane waves:   1376
 k-point 61 :  0.46150.30770.1538  plane waves:   1374
 k-point 62 :  0.38460.38460.1538  plane waves:   1372
 k-point 63 :  0.46150.38460.1538  plane waves:   1387
 k-point 64 :  0.46150.46150.1538  plane waves:   1385
 k-point 65 :  0.23080.23080.2308  plane waves:   1376
 k-point 66 :  0.30770.23080.2308  plane waves:   1376
 k-point 67 :  0.38460.23080.2308  plane waves:   1381
 k-point 68 :  0.46150.23080.2308  plane waves:   1368
 k-point 69 :  0.30770.30770.2308  plane waves:   1376
 k-point 70 :  0.38460.30770.2308  plane waves:   1382
 k-point 71 :  0.46150.30770.2308  plane waves:   1376
 k-point 72 :  0.38460.38460.2308  plane waves:   1377
 k-point 73 :  0.46150.38460.2308  plane waves:   1381
 k-point 74 :  0.46150.46150.2308  plane waves:   1380
 k-point 75 :  0.30770.30770.3077  plane waves:   1385
 k-point 76 :  0.38460.30770.3077  plane waves:   1386
 k-point 77 :  0.46150.30770.3077  plane waves:   1382
 k-point 78 :  0.38460.38460.3077  plane waves:   1377
 k-point 79 :  0.46150.38460.3077  plane waves:   1384
 k-point 80 :  0.46150.46150.3077  plane waves:   1383
 k-point 81 :  0.38460.38460.3846  plane waves:   1382
 k-point 82 :  0.46150.38460.3846  plane waves:   1379
 k-point 83 :  0.46150.46150.3846  plane waves:   1379
 k-point 84 :  0.46150.46150.4615  plane waves:   1373

 maximum and minimum number of plane-waves per node :   1390  1357

 maximum number of plane-waves:   1390
 maximal index in each direction: 
   IXMAX=  6   IYMAX=  6   IZMAX=  6
   IXMIN= -7   IYMIN= -7   IZMIN= -7

 NGX is ok and might be reduce to  28
 NGY is ok and might be reduce to  28
 NGZ is ok and might be reduce to  28

 parallel 3dFFT wavefunction:
    minimum data exchange during FFTs selected (reduces bandwidth)
 parallel 3dFFT charge:
    minimum data exchange during FFTs selected (reduces bandwidth)

 For storing wavefunctions   59.02 MBYTES are necessary
 For predicting wavefunctions    1.77 MBYTES are necessary
Broyden mixing: mesh for mixing (old mesh)
   NGX = 13   NGY = 13   NGZ = 13
  (NGX  = 56   NGY  = 56   NGZ  = 56)
 gives a total of   2197 points
 initial charge density was supplied:
 charge density of overlapping atoms calculated
 number of electron   44.0000000 magnetization 
 keeping initial charge density in first step


--------------------------------------------------------------------------------------------------------


 Maximum index for augmentation-charges        13903 (set IRDMAX)


--------------------------------------------------------------------------------------------------------


 First call to EWALD:  gamma=   0.469
 Maximum number of real-space cells 3x 3x 3
 Maximum number of reciprocal cells 3x 3x 3

    FEWALD:  VPU time    0.00: CPU time    0.00


----------------------------------------- Iteration    1(   1)  ---------------------------------------


    POTLOK:  VPU time    0.02: CPU time    0.02
    SETDIJ:  VPU time    0.02: CPU time    0.02
    EDDAV :  VPU time    1.35: CPU time    1.38
    DOS   :  VPU time    0.00: CPU time   -0.00
    ------------------------------------------
      LOOP:  VPU time    1.39: CPU time    1.43

 eigenvalue-minimisations  :  5472
 total energy-change (2. order) : 0.2764019E+03  (-0.2019946E+04)
 number of electron   44.0000000 magnetization 
 augmentation part    44.0000000 magnetization 

 Free energy of the ion-electron system (eV)
  ---------------------------------------------------
  alpha Z        PSCENC =       377.92251302
  Ewald energy   TEWEN  =     -4224.65104653
  -1/2 Hartree   DENC   =     -1409.90126104
  -V(xc)+E(xc)   XCENC  =       174.19240231
  PAW double counting   =      4328.20916945    -4904.30802700
  entropy T*S    EENTRO =        -0.00009786
  eigenvalues    EBANDS =       371.03093169
  atomic energy  EATOM  =      5563.90732063
  ---------------------------------------------------
  free energy    TOTEN  =       276.40190467 eV

  energy without entropy =      276.40200253  energy(sigma->0) =      276.40195360


--------------------------------------------------------------------------------------------------------




----------------------------------------- Iteration    1(   2)  ---------------------------------------


    EDDAV :  VPU time    1.31: CPU time    1.31
    DOS   :  VPU time    0.00: CPU time   -0.00
    ------------------------------------------
      LOOP:  VPU time    1.31: CPU time    1.31

 eigenvalue-minimisations  :  5392
 total energy-change (2. order) :-0.2765201E+03  (-0.2627664E+03)
 number of electron   44.0000000 magnetization 
 augmentation part    44.0000000 magnetization 

 Free energy of the ion-electron system (eV)
  ---------------------------------------------------
  alpha Z        PSCENC =       377.92251302
  Ewald energy   TEWEN  =     -4224.65104653
  -1/2 Hartree   DENC   =     -1409.90126104
  -V(xc)+E(xc)   XCENC  =       174.19240231
  PAW double counting   =      4328.20916945    -4904.30802700
  entropy T*S    EENTRO =        -0.00006799
  eigenvalues    EBANDS =        94.51084197
  atomic energy  EATOM  =      5563.90732063
  ---------------------------------------------------
  free energy    TOTEN  =        -0.11815519 eV

  energy without entropy =       -0.11808720  energy(sigma->0) =       -0.11812119


--------------------------------------------------------------------------------------------------------




----------------------------------------- Iteration    1(   3)  ---------------------------------------


    EDDAV :  VPU time    1.45: CPU time    1.45
    DOS   :  VPU time    0.00: CPU time   -0.00
    ------------------------------------------
      LOOP:  VPU time    1.45: CPU time    1.46

 eigenvalue-minimisations  :  6168
 total energy-change (2. order) :-0.1755176E+02  (-0.1718632E+02)
 number of electron   44.0000000 magnetization 
 augmentation part    44.0000000 magnetization 

 Free energy of the ion-electron system (eV)
  ---------------------------------------------------
  alpha Z        PSCENC =       377.92251302
  Ewald energy   TEWEN  =     -4224.65104653
  -1/2 Hartree   DENC   =     -1409.90126104
  -V(xc)+E(xc)   XCENC  =       174.19240231
  PAW double counting   =      4328.20916945    -4904.30802700
  entropy T*S    EENTRO =        -0.00016277
  eigenvalues    EBANDS =        76.95918157
  atomic energy  EATOM  =      5563.90732063
  ---------------------------------------------------
  free energy    TOTEN  =       -17.66991036 eV

  energy without entropy =      -17.66974759  energy(sigma->0) =      -17.66982898


--------------------------------------------------------------------------------------------------------




----------------------------------------- Iteration    1(   4)  ---------------------------------------


    EDDAV :  VPU time    1.37: CPU time    1.37
    DOS   :  VPU time    0.00: CPU time   -0.00
    ------------------------------------------
      LOOP:  VPU time    1.38: CPU time    1.38

 eigenvalue-minimisations  :  5728
 total energy-change (2. order) :-0.1893825E+00  (-0.1892879E+00)
 number of electron   44.0000000 magnetization 
 augmentation part    44.0000000 magnetization 

 Free energy of the ion-electron system (eV)
  ---------------------------------------------------
  alpha Z        PSCENC =       377.92251302
  Ewald energy   TEWEN  =     -4224.65104653
  -1/2 Hartree   DENC   =     -1409.90126104
  -V(xc)+E(xc)   XCENC  =       174.19240231
  PAW double counting   =      4328.20916945    -4904.30802700
  entropy T*S    EENTRO =        -0.00015750
  eigenvalues    EBANDS =        76.76979377
  atomic energy  EATOM  =      5563.90732063
  ---------------------------------------------------
  free energy    TOTEN  =       -17.85929289 eV

  energy without entropy =      -17.85913539  energy(sigma->0) =      -17.85921414


--------------------------------------------------------------------------------------------------------




----------------------------------------- Iteration    1(   5)  ---------------------------------------


    EDDAV :  VPU time    1.47: CPU time    1.47
    DOS   :  VPU time    0.00: CPU time   -0.00
    CHARGE:  VPU time    0.08: CPU time    0.09
    MIXING:  VPU time    0.00: CPU time    0.00
    ------------------------------------------
      LOOP:  VPU time    1.56: CPU time    1.56

 eigenvalue-minimisations  :  6264
 total energy-change (2. order) :-0.3547914E-03  (-0.3547872E-03)
 number of electron   43.9999999 magnetization 
 augmentation part    26.8597158 magnetization 

 Broyden mixing:
  rms(total) = 0.13542E+01    rms(broyden)= 0.13541E+01
  rms(prec ) = 0.32007E+01
  weight for this iteration     100.00

 Free energy of the ion-electron system (eV)
  ---------------------------------------------------
  alpha Z        PSCENC =       377.92251302
  Ewald energy   TEWEN  =     -4224.65104653
  -1/2 Hartree   DENC   =     -1409.90126104
  -V(xc)+E(xc)   XCENC  =       174.19240231
  PAW double counting   =      4328.20916945    -4904.30802700
  entropy T*S    EENTRO =        -0.00015748
  eigenvalues    EBANDS =        76.76943897
  atomic energy  EATOM  =      5563.90732063
  ---------------------------------------------------
  free energy    TOTEN  =       -17.85964768 eV

  energy without entropy =      -17.85949020  energy(sigma->0) =      -17.85956894


--------------------------------------------------------------------------------------------------------




----------------------------------------- Iteration    1(   6)  ---------------------------------------


    POTLOK:  VPU time    0.01: CPU time    0.01
    SETDIJ:  VPU time    0.01: CPU time    0.02
    EDDAV :  VPU time    1.39: CPU time    1.39
    DOS   :  VPU time    0.00: CPU time   -0.00
    CHARGE:  VPU time    0.08: CPU time    0.08
    MIXING:  VPU time    0.00: CPU time    0.00
    ------------------------------------------
      LOOP:  VPU time    1.50: CPU time    1.51

 eigenvalue-minimisations  :  5872
 total energy-change (2. order) : 0.1603041E+01  (-0.2616893E+01)
 number of electron   43.9999999 magnetization 
 augmentation part    30.1104414 magnetization 

 Broyden mixing:
  rms(total) = 0.74528E+00    rms(broyden)= 0.74522E+00
  rms(prec ) = 0.16031E+01
  weight for this iteration     100.00

 eigenvalues of (default mixing * dielectric matrix)
  average eigenvalue GAMMA=   0.6457
  0.6457

 Free energy of the ion-electron system (eV)
  ---------------------------------------------------
  alpha Z        PSCENC =       377.92251302
  Ewald energy   TEWEN  =     -4224.65104653
  -1/2 Hartree   DENC   =     -1307.99331657
  -V(xc)+E(xc)   XCENC  =       169.11369852
  PAW double counting   =      4196.68841968    -4739.26202787
  entropy T*S    EENTRO =        -0.00025843
  eigenvalues    EBANDS =       -51.98190923
  atomic energy  EATOM  =      5563.90732063
  ---------------------------------------------------
  free energy    TOTEN  =       -16.25660677 eV

  energy without entropy =      -16.25634834  energy(sigma->0) =      -16.25647756


--------------------------------------------------------------------------------------------------------




----------------------------------------- Iteration    1(   7)  ---------------------------------------


    POTLOK:  VPU time    0.01: CPU time    0.01
    SETDIJ:  VPU time    0.01: CPU time    0.02
    EDDAV :  VPU time    1.42: CPU time    1.42
    DOS   :  VPU time    0.00: CPU time   -0.00
    CHARGE:  VPU time    0.08: CPU time    0.08
    MIXING:  VPU time    0.00: CPU time    0.00
    ------------------------------------------
      LOOP:  VPU time    1.53: CPU time    1.53

 eigenvalue-minimisations  :  6064
 total energy-change (2. order) : 0.1597729E+01  (-0.5450401E+00)
 number of electron   43.9999999 magnetization 
 augmentation part    28.8452258 magnetization 

 Broyden mixing:
  rms(total) = 0.88838E-01    rms(broyden)= 0.88795E-01
  rms(prec ) = 0.22115E+00
  weight for this iteration     100.00

 eigenvalues of (default mixing * dielectric matrix)
  average eigenvalue GAMMA=   1.2615
  1.8945  0.6286

 Free energy of the ion-electron system (eV)
  ---------------------------------------------------
  alpha Z        PSCENC =       377.92251302
  Ewald energy   TEWEN  =     -4224.65104653
  -1/2 Hartree   DENC   =     -1340.57708580
  -V(xc)+E(xc)   XCENC  =       170.80952077
  PAW double counting   =      4278.35277547    -4845.34475912
  entropy T*S    EENTRO =        -0.00022156
  eigenvalues    EBANDS =         4.92210553
  atomic energy  EATOM  =      5563.90732063
  ---------------------------------------------------
  free energy    TOTEN  =       -14.65887760 eV

  energy without entropy =      -14.65865604  energy(sigma->0) =      -14.65876682


--------------------------------------------------------------------------------------------------------




----------------------------------------- Iteration    1(   8)  ---------------------------------------


    POTLOK:  VPU time    0.01: CPU time    0.01
    SETDIJ:  VPU time    0.01: CPU time    0.02
    EDDAV :  VPU time    1.40: CPU time    1.40
    DOS   :  VPU time    0.00: CPU time   -0.00
    CHARGE:  VPU time    0.08: CPU time    0.08
    MIXING:  VPU time    0.00: CPU time    0.00
    ------------------------------------------
      LOOP:  VPU time    1.51: CPU time    1.52

 eigenvalue-minimisations  :  5960
 total energy-change (2. order) : 0.1982841E-01  (-0.6344483E-02)
 number of electron   43.9999999 magnetization 
 augmentation part    28.7744322 magnetization 

 Broyden mixing:
  rms(total) = 0.77962E-01    rms(broyden)= 0.77957E-01
  rms(prec ) = 0.18772E+00
  weight for this iteration     100.00

 eigenvalues of (default mixing * dielectric matrix)
  average eigenvalue GAMMA=   1.4214
  0.6550  1.0083  2.6009

 Free energy of the ion-electron system (eV)
  ---------------------------------------------------
  alpha Z        PSCENC =       377.92251302
  Ewald energy   TEWEN  =     -4224.65104653
  -1/2 Hartree   DENC   =     -1332.42464167
  -V(xc)+E(xc)   XCENC  =       170.46564892
  PAW double counting   =      4315.45698665    -4891.55280475
  entropy T*S    EENTRO =        -0.00018810
  eigenvalues    EBANDS =         6.23716265
  atomic energy  EATOM  =      5563.90732063
  ---------------------------------------------------
  free energy    TOTEN  =       -14.63904918 eV

  energy without entropy =      -14.63886108  energy(sigma->0) =      -14.63895513


--------------------------------------------------------------------------------------------------------




----------------------------------------- Iteration    1(   9)  ---------------------------------------


    POTLOK:  VPU time    0.01: CPU time    0.01
    SETDIJ:  VPU time    0.01: CPU time    0.01
    EDDAV :  VPU time    1.44: CPU time    1.43
    DOS   :  VPU time    0.00: CPU time   -0.00
    CHARGE:  VPU time    0.08: CPU time    0.08
    MIXING:  VPU time    0.00: CPU time    0.00
    ------------------------------------------
      LOOP:  VPU time    1.55: CPU time    1.55

 eigenvalue-minimisations  :  6152
 total energy-change (2. order) : 0.1174380E-01  (-0.2804871E-02)
 number of electron   43.9999999 magnetization 
 augmentation part    28.8879513 magnetization 

 Broyden mixing:
  rms(total) = 0.55948E-02    rms(broyden)= 0.55915E-02
  rms(prec ) = 0.12576E-01
  weight for this iteration     100.00

 eigenvalues of (default mixing * dielectric matrix)
  average eigenvalue GAMMA=   1.6124
  0.6605  0.9222  2.5932  2.2736

 Free energy of the ion-electron system (eV)
  ---------------------------------------------------
  alpha Z        PSCENC =       377.92251302
  Ewald energy   TEWEN  =     -4224.65104653
  -1/2 Hartree   DENC   =     -1325.98913129
  -V(xc)+E(xc)   XCENC  =       170.16315621
  PAW double counting   =      4322.44695291    -4899.68515602
  entropy T*S    EENTRO =        -0.00021585
  eigenvalues    EBANDS =         1.25830154
  atomic energy  EATOM  =      5563.90732063
  ---------------------------------------------------
  free energy    TOTEN  =       -14.62730539 eV

  energy without entropy =      -14.62708953  energy(sigma->0) =      -14.62719746


--------------------------------------------------------------------------------------------------------




----------------------------------------- Iteration    1(  10)  ---------------------------------------


    POTLOK:  VPU time    0.01: CPU time    0.01
    SETDIJ:  VPU time    0.01: CPU time    0.02
    EDDAV :  VPU time    1.41: CPU time    1.41
    DOS   :  VPU time    0.00: CPU time   -0.00
    CHARGE:  VPU time    0.08: CPU time    0.08
    MIXING:  VPU time    0.00: CPU time    0.00
    ------------------------------------------
      LOOP:  VPU time    1.53: CPU time    1.53

 eigenvalue-minimisations  :  6008
 total energy-change (2. order) :-0.3656167E-04  (-0.7258178E-04)
 number of electron   43.9999999 magnetization 
 augmentation part    28.8806198 magnetization 

 Broyden mixing:
  rms(total) = 0.10252E-02    rms(broyden)= 0.10251E-02
  rms(prec ) = 0.13801E-02
  weight for this iteration     100.00

 eigenvalues of (default mixing * dielectric matrix)
  average eigenvalue GAMMA=   1.5076
  2.5198  2.5198  0.6598  0.9193  0.9193

 Free energy of the ion-electron system (eV)
  ---------------------------------------------------
  alpha Z        PSCENC =       377.92251302
  Ewald energy   TEWEN  =     -4224.65104653
  -1/2 Hartree   DENC   =     -1326.44090569
  -V(xc)+E(xc)   XCENC  =       170.18476071
  PAW double counting   =      4323.56021614    -4900.69446186
  entropy T*S    EENTRO =        -0.00022123
  eigenvalues    EBANDS =         1.58448286
  atomic energy  EATOM  =      5563.90732063
  ---------------------------------------------------
  free energy    TOTEN  =       -14.62734195 eV

  energy without entropy =      -14.62712072  energy(sigma->0) =      -14.62723134


--------------------------------------------------------------------------------------------------------




----------------------------------------- Iteration    1(  11)  ---------------------------------------


    POTLOK:  VPU time    0.01: CPU time    0.01
    SETDIJ:  VPU time    0.02: CPU time    0.02
    EDDAV :  VPU time    1.42: CPU time    1.42
    DOS   :  VPU time    0.00: CPU time   -0.00
    CHARGE:  VPU time    0.08: CPU time    0.08
    MIXING:  VPU time    0.00: CPU time    0.00
    ------------------------------------------
      LOOP:  VPU time    1.53: CPU time    1.53

 eigenvalue-minimisations  :  6032
 total energy-change (2. order) :-0.3951909E-06  (-0.8507553E-06)
 number of electron   43.9999999 magnetization 
 augmentation part    28.8810808 magnetization 

 Broyden mixing:
  rms(total) = 0.39632E-03    rms(broyden)= 0.39629E-03
  rms(prec ) = 0.94808E-03
  weight for this iteration     100.00

 eigenvalues of (default mixing * dielectric matrix)
  average eigenvalue GAMMA=   1.5049
  2.5412  2.5412  0.6601  0.9467  1.0692  1.2713

 Free energy of the ion-electron system (eV)
  ---------------------------------------------------
  alpha Z        PSCENC =       377.92251302
  Ewald energy   TEWEN  =     -4224.65104653
  -1/2 Hartree   DENC   =     -1326.52155848
  -V(xc)+E(xc)   XCENC  =       170.18821933
  PAW double counting   =      4324.64282159    -4901.68064016
  entropy T*S    EENTRO =        -0.00022096
  eigenvalues    EBANDS =         1.56524923
  atomic energy  EATOM  =      5563.90732063
  ---------------------------------------------------
  free energy    TOTEN  =       -14.62734234 eV

  energy without entropy =      -14.62712138  energy(sigma->0) =      -14.62723186


--------------------------------------------------------------------------------------------------------




----------------------------------------- Iteration    1(  12)  ---------------------------------------


    POTLOK:  VPU time    0.01: CPU time    0.01
    SETDIJ:  VPU time    0.01: CPU time    0.02
    EDDAV :  VPU time    1.46: CPU time    1.46
    DOS   :  VPU time    0.00: CPU time   -0.00
    CHARGE:  VPU time    0.08: CPU time    0.08
    MIXING:  VPU time    0.00: CPU time    0.00
    ------------------------------------------
      LOOP:  VPU time    1.58: CPU time    1.58

 eigenvalue-minimisations  :  6288
 total energy-change (2. order) :-0.3723909E-05  (-0.3064548E-07)
 number of electron   43.9999999 magnetization 
 augmentation part    28.8812104 magnetization 

 Broyden mixing:
  rms(total) = 0.10163E-03    rms(broyden)= 0.10162E-03
  rms(prec ) = 0.19222E-03
  weight for this iteration     100.00

 eigenvalues of (default mixing * dielectric matrix)
  average eigenvalue GAMMA=   1.5972
  2.7076  2.4474  2.4474  0.6601  0.9362  0.9907  0.9907

 Free energy of the ion-electron system (eV)
  ---------------------------------------------------
  alpha Z        PSCENC =       377.92251302
  Ewald energy   TEWEN  =     -4224.65104653
  -1/2 Hartree   DENC   =     -1326.46843736
  -V(xc)+E(xc)   XCENC  =       170.18580847
  PAW double counting   =      4324.85901757    -4901.93634260
  entropy T*S    EENTRO =        -0.00022081
  eigenvalues    EBANDS =         1.55404154
  atomic energy  EATOM  =      5563.90732063
  ---------------------------------------------------
  free energy    TOTEN  =       -14.62734607 eV

  energy without entropy =      -14.62712526  energy(sigma->0) =      -14.62723566


--------------------------------------------------------------------------------------------------------




----------------------------------------- Iteration    1(  13)  ---------------------------------------


    POTLOK:  VPU time    0.01: CPU time    0.01
    SETDIJ:  VPU time    0.01: CPU time    0.02
    EDDAV :  VPU time    1.37: CPU time    1.38
    DOS   :  VPU time    0.00: CPU time   -0.00
    CHARGE:  VPU time    0.08: CPU time    0.08
    MIXING:  VPU time    0.00: CPU time    0.00
    ------------------------------------------
      LOOP:  VPU time    1.48: CPU time    1.49

 eigenvalue-minimisations  :  5736
 total energy-change (2. order) :-0.7768067E-06  (-0.5923328E-08)
 number of electron   43.9999999 magnetization 
 augmentation part    28.8813461 magnetization 

 Broyden mixing:
  rms(total) = 0.16363E-04    rms(broyden)= 0.16353E-04
  rms(prec ) = 0.42036E-04
  weight for this iteration     100.00

 eigenvalues of (default mixing * dielectric matrix)
  average eigenvalue GAMMA=   1.5729
  2.6425  2.6425  2.5198  0.6601  1.1863  0.9334  0.9992  0.9992

 Free energy of the ion-electron system (eV)
  ---------------------------------------------------
  alpha Z        PSCENC =       377.92251302
  Ewald energy   TEWEN  =     -4224.65104653
  -1/2 Hartree   DENC   =     -1326.46417922
  -V(xc)+E(xc)   XCENC  =       170.18552948
  PAW double counting   =      4324.87809160    -4901.95475278
  entropy T*S    EENTRO =        -0.00022073
  eigenvalues    EBANDS =         1.54939768
  atomic energy  EATOM  =      5563.90732063
  ---------------------------------------------------
  free energy    TOTEN  =       -14.62734685 eV

  energy without entropy =      -14.62712612  energy(sigma->0) =      -14.62723648


--------------------------------------------------------------------------------------------------------




----------------------------------------- Iteration    1(  14)  ---------------------------------------


    POTLOK:  VPU time    0.01: CPU time    0.01
    SETDIJ:  VPU time    0.01: CPU time    0.02
    EDDAV :  VPU time    1.08: CPU time    1.08
    DOS   :  VPU time    0.00: CPU time   -0.00
    CHARGE:  VPU time    0.08: CPU time    0.08
    MIXING:  VPU time    0.00: CPU time    0.00
    ------------------------------------------
      LOOP:  VPU time    1.19: CPU time    1.19

 eigenvalue-minimisations  :  3976
 total energy-change (2. order) :-0.3445712E-07  (-0.3095616E-09)
 number of electron   43.9999999 magnetization 
 augmentation part    28.8813255 magnetization 

 Broyden mixing:
  rms(total) = 0.87448E-06    rms(broyden)= 0.87077E-06
  rms(prec ) = 0.13313E-05
  weight for this iteration     100.00

 eigenvalues of (default mixing * dielectric matrix)
  average eigenvalue GAMMA=   1.6389
  2.6558  2.6558  2.4226  2.4226  0.6601  1.0201  1.0201  0.9658  0.9270

 Free energy of the ion-electron system (eV)
  ---------------------------------------------------
  alpha Z        PSCENC =       377.92251302
  Ewald energy   TEWEN  =     -4224.65104653
  -1/2 Hartree   DENC   =     -1326.46568993
  -V(xc)+E(xc)   XCENC  =       170.18558897
  PAW double counting   =      4324.87612897    -4901.95241915
  entropy T*S    EENTRO =        -0.00022074
  eigenvalues    EBANDS =         1.55047789
  atomic energy  EATOM  =      5563.90732063
  ---------------------------------------------------
  free energy    TOTEN  =       -14.62734688 eV

  energy without entropy =      -14.62712614  energy(sigma->0) =      -14.62723651


--------------------------------------------------------------------------------------------------------




----------------------------------------- Iteration    1(  15)  ---------------------------------------


    POTLOK:  VPU time    0.01: CPU time    0.01
    SETDIJ:  VPU time    0.01: CPU time    0.02
    EDDAV :  VPU time    0.97: CPU time    0.97
    DOS   :  VPU time    0.00: CPU time   -0.00
    ------------------------------------------
      LOOP:  VPU time    1.00: CPU time    1.00

 eigenvalue-minimisations  :  3304
 total energy-change (2. order) : 0.8465577E-08  (-0.3072628E-10)
 number of electron   43.9999999 magnetization 
 augmentation part    28.8813255 magnetization 

 Free energy of the ion-electron system (eV)
  ---------------------------------------------------
  alpha Z        PSCENC =       377.92251302
  Ewald energy   TEWEN  =     -4224.65104653
  -1/2 Hartree   DENC   =     -1326.46565412
  -V(xc)+E(xc)   XCENC  =       170.18558667
  PAW double counting   =      4324.87642981    -4901.95263968
  entropy T*S    EENTRO =        -0.00022074
  eigenvalues    EBANDS =         1.55036406
  atomic energy  EATOM  =      5563.90732063
  ---------------------------------------------------
  free energy    TOTEN  =       -14.62734687 eV

  energy without entropy =      -14.62712613  energy(sigma->0) =      -14.62723650


--------------------------------------------------------------------------------------------------------




 average (electrostatic) potential at core
  the test charge radii are     1.0053
  (the norm of the test charge is              1.0000)
       1 -40.7213       2 -40.7213       3 -40.7213       4 -40.7213
 
 
 
 E-fermi :   2.6898     XC(G=0): -12.0267     alpha+bet : -8.4113
   add alpha+bet to get absolut eigen values

 k-point   1 :       0.0000    0.0000    0.0000
  band No.  band energies     occupation 
      1      -5.6561      2.00000
      2      -1.4517      2.00000
      3      -1.4517      2.00000
      4      -1.4517      2.00000
      5      -1.0801      2.00000
      6      -1.0801      2.00000
      7      -1.0801      2.00000
      8       0.0449      2.00000
      9       0.0449      2.00000
     10       0.0449      2.00000
     11       0.7156      2.00000
     12       0.7156      2.00000
     13       1.1622      2.00000
     14       1.1622      2.00000
     15       1.1622      2.00000
     16       1.2871      2.00000
     17       1.2871      2.00000
     18       1.2871      2.00000
     19       1.2871      2.00000
     20       1.2871      2.00000
     21       1.2871      2.00000
     22       4.3191      0.00000
     23       4.3191      0.00000
     24       4.3191      0.00000
     25       8.9274      0.00000
     26       8.9274      0.00000
     27       8.9274      0.00000
     28      14.8436      0.00000
     29      14.8436      0.00000
     30      14.8436      0.00000
     31      14.8436      0.00000
     32      14.8436      0.00000

 k-point   2 :       0.0769    0.0000    0.0000
  band No.  band energies     occupation 
      1      -5.5907      2.00000
      2      -1.4539      2.00000
      3      -1.4232      2.00000
      4      -1.4232      2.00000
      5      -1.0644      2.00000
      6      -1.0635      2.00000
      7      -1.0635      2.00000
      8       0.0279      2.00000
      9       0.0589      2.00000
     10       0.0589      2.00000
     11       0.7002      2.00000
     12       0.7219      2.00000
     13       1.1423      2.00000
     14       1.1423      2.00000
     15       1.1556      2.00000
     16       1.1917      2.00000
     17       1.1917      2.00000
     18       1.2635      2.00000
     19       1.2635      2.00000
     20       1.2872      2.00000
     21       1.2872      2.00000
     22       3.8615      0.00000
     23       4.4746      0.00000
     24       4.4746      0.00000
     25       8.9552      0.00000
     26       8.9552      0.00000
     27       9.5205      0.00000
     28      14.3812      0.00000
     29      14.3812      0.00000
     30      14.5247      0.00000
     31      14.5247      0.00000
     32      14.9368      0.00000

 k-point   3 :       0.1538    0.0000    0.0000
  band No.  band energies     occupation 
      1      -5.3956      2.00000
      2      -1.4717      2.00000
      3      -1.3410      2.00000
      4      -1.3410      2.00000
      5      -1.0181      2.00000
      6      -1.0134      2.00000
      7      -1.0134      2.00000
      8      -0.0220      2.00000
      9       0.1006      2.00000
     10       0.1006      2.00000
     11       0.6554      2.00000
     12       0.7407      2.00000
     13       0.9522      2.00000
     14       0.9522      2.00000
     15       1.0841      2.00000
     16       1.0841      2.00000
     17       1.1362      2.00000
     18       1.1953      2.00000
     19       1.1953      2.00000
     20       1.2873      2.00000
     21       1.2873      2.00000
     22       2.9019      0.00000
     23       4.8939      0.00000
     24       4.8939      0.00000
     25       9.0409      0.00000
     26       9.0409      0.00000
     27      10.8958      0.00000
     28      13.3837      0.00000
     29      13.3837      0.00000
     30      13.7778      0.00000
     31      13.7778      0.00000
     32      15.2132      0.00000

 k-point   4 :       0.2308    0.0000    0.0000
  band No.  band energies     occupation 
      1      -5.0741      2.00000
      2      -1.5436      2.00000
      3      -1.2160      2.00000
      4      -1.2160      2.00000
      5      -0.9436      2.00000
      6      -0.9290      2.00000
      7      -0.9290      2.00000
      8      -0.1015      2.00000
      9       0.1690      2.00000
     10       0.1690      2.00000
     11       0.5862      2.00000
     12       0.6486      2.00000
     13       0.6486      2.00000
     14       0.7709      2.00000
     15       0.9930      2.00000
     16       0.9930      2.00000
     17       1.0899      2.00000
     18       1.0899      2.00000
     19       1.1051      2.00000
     20       1.2874      2.00000
     21       1.2874      2.00000
     22       1.8993      2.00000
     23       5.4960      0.00000
     24       5.4960      0.00000
     25       9.1904      0.00000
     26       9.1904      0.00000
     27      12.2456      0.00000
     28      12.2456      0.00000
     29      12.6281      0.00000
     30      12.9015      0.00000
     31      12.9015      0.00000
     32      15.6642      0.00000

 k-point   5 :       0.3077    0.0000    0.0000
  band No.  band energies     occupation 
      1      -4.6328      2.00000
      2      -1.7491      2.00000
      3      -1.0679      2.00000
      4      -1.0679      2.00000
      5      -0.8448      2.00000
      6      -0.8092      2.00000
      7      -0.8092      2.00000
      8      -0.2058      2.00000
      9       0.2624      2.00000
     10       0.2624      2.00000
     11       0.3349      2.00000
     12       0.3349      2.00000
     13       0.5014      2.00000
     14       0.8107      2.00000
     15       0.8809      2.00000
     16       0.8809      2.00000
     17       0.9578      2.00000
     18       0.9578      2.00000
     19       1.0644      2.00000
     20       1.0819      2.00000
     21       1.2875      2.00000
     22       1.2875      2.00000
     23       6.2257      0.00000
     24       6.2257      0.00000
     25       9.4136      0.00000
     26       9.4136      0.00000
     27      11.1017      0.00000
     28      11.1017      0.00000
     29      12.0522      0.00000
     30      12.0522      0.00000
     31      14.5595      0.00000
     32      16.2774      0.00000

 k-point   6 :       0.3846    0.0000    0.0000
  band No.  band energies     occupation 
      1      -4.0839      2.00000
      2      -2.1726      2.00000
      3      -0.9279      2.00000
      4      -0.9279      2.00000
      5      -0.7270      2.00000
      6      -0.6529      2.00000
      7      -0.6529      2.00000
      8      -0.3281      2.00000
      9       0.0384      2.00000
     10       0.0384      2.00000
     11       0.3781      2.00000
     12       0.3781      2.00000
     13       0.4167      2.00000
     14       0.5818      2.00000
     15       0.7709      2.00000
     16       0.7709      2.00000
     17       0.8104      2.00000
     18       0.8104      2.00000
     19       0.8579      2.00000
     20       1.0163      2.00000
     21       1.2877      2.00000
     22       1.2877      2.00000
     23       7.0535      0.00000
     24       7.0535      0.00000
     25       9.7227      0.00000
     26       9.7227      0.00000
     27       9.9963      0.00000
     28       9.9963      0.00000
     29      11.2954      0.00000
     30      11.2954      0.00000
     31      16.6269      0.00000
     32      17.0387      0.00000

 k-point   7 :       0.4615    0.0000    0.0000
  band No.  band energies     occupation 
      1      -3.4508      2.00000
      2      -2.7819      2.00000
      3      -0.8389      2.00000
      4      -0.8389      2.00000
      5      -0.5966      2.00000
      6      -0.4610      2.00000
      7      -0.4592      2.00000
      8      -0.4592      2.00000
      9      -0.2281      2.00000
     10      -0.2281      2.00000
     11       0.3596      2.00000
     12       0.3822      2.00000
     13       0.5121      2.00000
     14       0.5121      2.00000
     15       0.6588      2.00000
     16       0.6588      2.00000
     17       0.6988      2.00000
     18       0.6988      2.00000
     19       0.9100      2.00000
     20       0.9638      2.00000
     21       1.2877      2.00000
     22       1.2877      2.00000
     23       7.9638      0.00000
     24       7.9638      0.00000
     25       8.9472      0.00000
     26       8.9472      0.00000
     27      10.1308      0.00000
     28      10.1308      0.00000
     29      10.6554      0.00000
     30      10.6554      0.00000
     31      17.9337      0.00000
     32      17.9337      0.00000

 k-point   8 :       0.0769    0.0769    0.0000
  band No.  band energies     occupation 
      1      -5.5256      2.00000
      2      -1.4248      2.00000
      3      -1.4248      2.00000
      4      -1.3953      2.00000
      5      -1.0481      2.00000
      6      -1.0481      2.00000
      7      -1.0473      2.00000
      8       0.0186      2.00000
      9       0.0655      2.00000
     10       0.0717      2.00000
     11       0.6960      2.00000
     12       0.7183      2.00000
     13       1.1196      2.00000
     14       1.1200      2.00000
     15       1.1200      2.00000
     16       1.1231      2.00000
     17       1.1798      2.00000
     18       1.1798      2.00000
     19       1.2635      2.00000
     20       1.2635      2.00000
     21       1.2719      2.00000
     22       4.0128      0.00000
     23       4.0128      0.00000
     24       4.6221      0.00000
     25       8.9836      0.00000
     26       9.5564      0.00000
     27       9.5564      0.00000
     28      13.4132      0.00000
     29      14.4693      0.00000
     30      14.4693      0.00000
     31      14.6134      0.00000
     32      14.6134      0.00000

 k-point   9 :       0.1538    0.0769    0.0000
  band No.  band energies     occupation 
      1      -5.3311      2.00000
      2      -1.4405      2.00000
      3      -1.3407      2.00000
      4      -1.3150      2.00000
      5      -1.0025      2.00000
      6      -0.9987      2.00000
      7      -0.9985      2.00000
      8      -0.0264      2.00000
      9       0.1032      2.00000
     10       0.1096      2.00000
     11       0.6570      2.00000
     12       0.7351      2.00000
     13       0.9046      2.00000
     14       0.9048      2.00000
     15       1.0450      2.00000
     16       1.0670      2.00000
     17       1.0921      2.00000
     18       1.1518      2.00000
     19       1.1951      2.00000
     20       1.2634      2.00000
     21       1.2637      2.00000
     22       3.0590      0.00000
     23       4.4126      0.00000
     24       5.0251      0.00000
     25       9.0707      0.00000
     26       9.6668      0.00000
     27      10.9410      0.00000
     28      12.2531      0.00000
     29      13.4660      0.00000
     30      13.8584      0.00000
     31      14.7299      0.00000
     32      14.8085      0.00000

 k-point  10 :       0.2308    0.0769    0.0000
  band No.  band energies     occupation 
      1      -5.0107      2.00000
      2      -1.5088      2.00000
      3      -1.2126      2.00000
      4      -1.1928      2.00000
      5      -0.9293      2.00000
      6      -0.9168      2.00000
      7      -0.9157      2.00000
      8      -0.1035      2.00000
      9       0.1704      2.00000
     10       0.1706      2.00000
     11       0.5923      2.00000
     12       0.6020      2.00000
     13       0.6191      2.00000
     14       0.7681      2.00000
     15       0.9081      2.00000
     16       0.9789      2.00000
     17       0.9995      2.00000
     18       1.0896      2.00000
     19       1.1112      2.00000
     20       1.2618      2.00000
     21       1.2633      2.00000
     22       2.0919      2.00000
     23       4.9727      0.00000
     24       5.6119      0.00000
     25       9.2224      0.00000
     26       9.8585      0.00000
     27      11.1054      0.00000
     28      12.3255      0.00000
     29      12.6779      0.00000
     30      12.9746      0.00000
     31      14.0877      0.00000
     32      15.1533      0.00000

 k-point  11 :       0.3077    0.0769    0.0000
  band No.  band energies     occupation 
      1      -4.5711      2.00000
      2      -1.7092      2.00000
      3      -1.0601      2.00000
      4      -1.0468      2.00000
      5      -0.8322      2.00000
      6      -0.8026      2.00000
      7      -0.7980      2.00000
      8      -0.2053      2.00000
      9       0.2472      2.00000
     10       0.2632      2.00000
     11       0.2918      2.00000
     12       0.3183      2.00000
     13       0.5198      2.00000
     14       0.6887      2.00000
     15       0.8125      2.00000
     16       0.8704      2.00000
     17       0.8873      2.00000
     18       0.9574      2.00000
     19       1.0490      2.00000
     20       1.2615      2.00000
     21       1.2631      2.00000
     22       1.3794      2.00000
     23       5.6375      0.00000
     24       6.3297      0.00000
     25       9.4469      0.00000
     26      10.0196      0.00000
     27      10.1421      0.00000
     28      11.1814      0.00000
     29      12.1189      0.00000
     30      13.2318      0.00000
     31      14.6112      0.00000
     32      15.7253      0.00000

 k-point  12 :       0.3846    0.0769    0.0000
  band No.  band energies     occupation 
      1      -4.0246      2.00000
      2      -2.1268      2.00000
      3      -0.9146      2.00000
      4      -0.9063      2.00000
      5      -0.7165      2.00000
      6      -0.6569      2.00000
      7      -0.6445      2.00000
      8      -0.3251      2.00000
      9       0.0012      2.00000
     10       0.0311      2.00000
     11       0.3034      2.00000
     12       0.3784      2.00000
     13       0.4320      2.00000
     14       0.4889      2.00000
     15       0.7643      2.00000
     16       0.7763      2.00000
     17       0.8100      2.00000
     18       0.8656      2.00000
     19       0.9063      2.00000
     20       1.0802      2.00000
     21       1.2616      2.00000
     22       1.2628      2.00000
     23       6.3798      0.00000
     24       7.1487      0.00000
     25       8.9999      0.00000
     26       9.7658      0.00000
     27      10.0776      0.00000
     28      10.5285      0.00000
     29      11.3578      0.00000
     30      12.4026      0.00000
     31      16.4288      0.00000
     32      16.5782      0.00000

 k-point  13 :       0.4615    0.0769    0.0000
  band No.  band energies     occupation 
      1      -3.3949      2.00000
      2      -2.7306      2.00000
      3      -0.8197      2.00000
      4      -0.8163      2.00000
      5      -0.5885      2.00000
      6      -0.4770      2.00000
      7      -0.4554      2.00000
      8      -0.4546      2.00000
      9      -0.2572      2.00000
     10      -0.2286      2.00000
     11       0.2904      2.00000
     12       0.3008      2.00000
     13       0.5121      2.00000
     14       0.5720      2.00000
     15       0.6585      2.00000
     16       0.6967      2.00000
     17       0.7013      2.00000
     18       0.7202      2.00000
     19       0.9253      2.00000
     20       0.9910      2.00000
     21       1.2620      2.00000
     22       1.2624      2.00000
     23       7.1882      0.00000
     24       8.0526      0.00000
     25       8.0606      0.00000
     26       9.0315      0.00000
     27      10.1778      0.00000
     28      10.6973      0.00000
     29      11.0462      0.00000
     30      11.6638      0.00000
     31      17.2456      0.00000
     32      17.4447      0.00000

 k-point  14 :       0.1538    0.1538    0.0000
  band No.  band energies     occupation 
      1      -5.1386      2.00000
      2      -1.3504      2.00000
      3      -1.3504      2.00000
      4      -1.2405      2.00000
      5      -0.9556      2.00000
      6      -0.9556      2.00000
      7      -0.9539      2.00000
      8      -0.0538      2.00000
      9       0.1257      2.00000
     10       0.1361      2.00000
     11       0.6427      2.00000
     12       0.7386      2.00000
     13       0.7553      2.00000
     14       0.7857      2.00000
     15       0.7857      2.00000
     16       1.0166      2.00000
     17       1.0908      2.00000
     18       1.0908      2.00000
     19       1.1947      2.00000
     20       1.1947      2.00000
     21       1.2266      2.00000
     22       3.4480      0.00000
     23       3.4480      0.00000
     24       5.3926      0.00000
     25       9.1618      0.00000
     26      10.9799      0.00000
     27      11.0782      0.00000
     28      11.0782      0.00000
     29      13.7095      0.00000
     30      13.7095      0.00000
     31      14.0974      0.00000
     32      14.0974      0.00000

 k-point  15 :       0.2308    0.1538    0.0000
  band No.  band energies     occupation 
      1      -4.8217      2.00000
      2      -1.4081      2.00000
      3      -1.2124      2.00000
      4      -1.1268      2.00000
      5      -0.8862      2.00000
      6      -0.8797      2.00000
      7      -0.8767      2.00000
      8      -0.1164      2.00000
      9       0.1766      2.00000
     10       0.1824      2.00000
     11       0.4790      2.00000
     12       0.5266      2.00000
     13       0.5955      2.00000
     14       0.6104      2.00000
     15       0.7745      2.00000
     16       0.9369      2.00000
     17       1.0026      2.00000
     18       1.0625      2.00000
     19       1.0887      2.00000
     20       1.1939      2.00000
     21       1.2051      2.00000
     22       2.4913      2.00000
     23       3.9639      0.00000
     24       5.9428      0.00000
     25       9.3143      0.00000
     26       9.7875      0.00000
     27      11.3116      0.00000
     28      12.5619      0.00000
     29      12.8279      0.00000
     30      13.1919      0.00000
     31      14.1048      0.00000
     32      14.4871      0.00000

 k-point  16 :       0.3077    0.1538    0.0000
  band No.  band energies     occupation 
      1      -4.3874      2.00000
      2      -1.5934      2.00000
      3      -1.0462      2.00000
      4      -0.9885      2.00000
      5      -0.7944      2.00000
      6      -0.7803      2.00000
      7      -0.7650      2.00000
      8      -0.2074      2.00000
      9       0.1780      2.00000
     10       0.2179      2.00000
     11       0.2665      2.00000
     12       0.2697      2.00000
     13       0.3972      2.00000
     14       0.5447      2.00000
     15       0.8329      2.00000
     16       0.8383      2.00000
     17       0.8933      2.00000
     18       0.9563      2.00000
     19       1.0005      2.00000
     20       1.1930      2.00000
     21       1.1957      2.00000
     22       1.7614      2.00000
     23       4.5605      0.00000
     24       6.6305      0.00000
     25       8.6688      0.00000
     26       9.5673      0.00000
     27      11.4174      0.00000
     28      11.6440      0.00000
     29      12.3210      0.00000
     30      14.6385      0.00000
     31      14.7670      0.00000
     32      14.8384      0.00000

 k-point  17 :       0.3846    0.1538    0.0000
  band No.  band energies     occupation 
      1      -3.8485      2.00000
      2      -1.9935      2.00000
      3      -0.8831      2.00000
      4      -0.8463      2.00000
      5      -0.6851      2.00000
      6      -0.6658      2.00000
      7      -0.6199      2.00000
      8      -0.3179      2.00000
      9      -0.0969      2.00000
     10       0.0081      2.00000
     11       0.2255      2.00000
     12       0.2259      2.00000
     13       0.3818      2.00000
     14       0.5423      2.00000
     15       0.7429      2.00000
     16       0.7822      2.00000
     17       0.8092      2.00000
     18       0.8944      2.00000
     19       0.9068      2.00000
     20       1.1919      2.00000
     21       1.1920      2.00000
     22       1.3312      2.00000
     23       5.2246      0.00000
     24       7.4266      0.00000
     25       7.6711      0.00000
     26       9.8911      0.00000
     27      10.3179      0.00000
     28      11.5206      0.00000
     29      12.1089      0.00000
     30      14.0665      0.00000
     31      15.2956      0.00000
     32      15.6740      0.00000

 k-point  18 :       0.4615    0.1538    0.0000
  band No.  band energies     occupation 
      1      -3.2296      2.00000
      2      -2.5798      2.00000
      3      -0.7679      2.00000
      4      -0.7509      2.00000
      5      -0.5645      2.00000
      6      -0.5281      2.00000
      7      -0.4414      2.00000
      8      -0.4395      2.00000
      9      -0.3361      2.00000
     10      -0.2307      2.00000
[...]
     24       3.2964      0.00000
     25       7.5663      0.00000
     26       7.5663      0.00000
     27       7.5663      0.00000
     28      11.5626      0.00000
     29      16.2588      0.00000
     30      16.2588      0.00000
     31      16.2588      0.00000
     32      18.7566      0.00000

 k-point  76 :       0.3846    0.3077    0.3077
  band No.  band energies     occupation 
      1      -2.5128      2.00000
      2      -1.4608      2.00000
      3      -1.2352      2.00000
      4      -1.2352      2.00000
      5      -0.2754      2.00000
      6      -0.2754      2.00000
      7      -0.2095      2.00000
      8       0.0487      2.00000
      9       0.0773      2.00000
     10       0.1039      2.00000
     11       0.1318      2.00000
     12       0.1442      2.00000
     13       0.1442      2.00000
     14       0.2758      2.00000
     15       0.3095      2.00000
     16       0.3095      2.00000
     17       0.9627      2.00000
     18       1.0043      2.00000
     19       1.1714      2.00000
     20       1.1714      2.00000
     21       1.1873      2.00000
     22       2.3954      2.00000
     23       3.6139      0.00000
     24       3.6139      0.00000
     25       6.7166      0.00000
     26       6.7166      0.00000
     27       8.1354      0.00000
     28      10.5351      0.00000
     29      16.7472      0.00000
     30      16.7472      0.00000
     31      18.3055      0.00000
     32      18.6652      0.00000

 k-point  77 :       0.4615    0.3077    0.3077
  band No.  band energies     occupation 
      1      -2.1250      2.00000
      2      -1.7654      2.00000
      3      -1.2449      2.00000
      4      -1.2449      2.00000
      5      -0.2417      2.00000
      6      -0.2417      2.00000
      7      -0.0717      2.00000
      8       0.0371      2.00000
      9       0.0919      2.00000
     10       0.0921      2.00000
     11       0.1538      2.00000
     12       0.2027      2.00000
     13       0.2157      2.00000
     14       0.2157      2.00000
     15       0.2767      2.00000
     16       0.2767      2.00000
     17       1.0894      2.00000
     18       1.1456      2.00000
     19       1.1456      2.00000
     20       1.1517      2.00000
     21       1.2085      2.00000
     22       1.6897      2.00000
     23       3.8682      0.00000
     24       3.8682      0.00000
     25       6.1911      0.00000
     26       6.1911      0.00000
     27       8.8215      0.00000
     28       9.6215      0.00000
     29      17.3376      0.00000
     30      17.3376      0.00000
     31      18.0169      0.00000
     32      18.0169      0.00000

 k-point  78 :       0.3846    0.3846    0.3077
  band No.  band energies     occupation 
      1      -2.2209      2.00000
      2      -1.4404      2.00000
      3      -1.4404      2.00000
      4      -1.3098      2.00000
      5      -0.2003      2.00000
      6      -0.1499      2.00000
      7      -0.1499      2.00000
      8       0.0858      2.00000
      9       0.1031      2.00000
     10       0.2022      2.00000
     11       0.2022      2.00000
     12       0.2349      2.00000
     13       0.2449      2.00000
     14       0.2486      2.00000
     15       0.2486      2.00000
     16       0.2879      2.00000
     17       0.9674      2.00000
     18       1.1290      2.00000
     19       1.1600      2.00000
     20       1.1699      2.00000
     21       1.1699      2.00000
     22       2.6894      1.03607
     23       2.6894      1.03607
     24       3.6576      0.00000
     25       6.1337      0.00000
     26       7.2172      0.00000
     27       7.2172      0.00000
     28       9.5213      0.00000
     29      17.2435      0.00000
     30      18.7699      0.00000
     31      18.7699      0.00000
     32      19.2487      0.00000

 k-point  79 :       0.4615    0.3846    0.3077
  band No.  band energies     occupation 
      1      -1.9343      2.00000
      2      -1.6725      2.00000
      3      -1.4115      2.00000
      4      -1.3688      2.00000
      5      -0.1535      2.00000
      6      -0.1365      2.00000
      7      -0.0419      2.00000
      8       0.0369      2.00000
      9       0.1128      2.00000
     10       0.1512      2.00000
     11       0.1885      2.00000
     12       0.1948      2.00000
     13       0.3128      2.00000
     14       0.3447      2.00000
     15       0.3617      2.00000
     16       0.3784      2.00000
     17       1.0495      2.00000
     18       1.1318      2.00000
     19       1.1373      2.00000
     20       1.1396      2.00000
     21       1.3891      2.00000
     22       1.9225      2.00000
     23       3.0649      0.00000
     24       3.4463      0.00000
     25       6.0848      0.00000
     26       6.5035      0.00000
     27       7.8598      0.00000
     28       8.6291      0.00000
     29      17.8460      0.00000
     30      18.5333      0.00000
     31      19.3534      0.00000
     32      19.9150      0.00000

 k-point  80 :       0.4615    0.4615    0.3077
  band No.  band energies     occupation 
      1      -1.7517      2.00000
      2      -1.5790      2.00000
      3      -1.5790      2.00000
      4      -1.4795      2.00000
      5      -0.0862      2.00000
      6      -0.0491      2.00000
      7      -0.0491      2.00000
      8       0.0111      2.00000
      9       0.1012      2.00000
     10       0.1297      2.00000
     11       0.1297      2.00000
     12       0.1440      2.00000
     13       0.4794      2.00000
     14       0.4794      2.00000
     15       0.4904      2.00000
     16       0.5075      2.00000
     17       1.0388      2.00000
     18       1.0958      2.00000
     19       1.0958      2.00000
     20       1.1058      2.00000
     21       1.7396      2.00000
     22       2.3129      2.00000
     23       2.3129      2.00000
     24       2.8519      0.00000
     25       6.4378      0.00000
     26       7.0558      0.00000
     27       7.0558      0.00000
     28       7.7713      0.00000
     29      18.4621      0.00000
     30      19.1724      0.00000
     31      19.1724      0.00000
     32      19.9084      0.00000

 k-point  81 :       0.3846    0.3846    0.3846
  band No.  band energies     occupation 
      1      -2.0260      2.00000
      2      -1.4828      2.00000
      3      -1.4828      2.00000
      4      -1.4828      2.00000
      5      -0.1003      2.00000
      6      -0.1003      2.00000
      7      -0.1003      2.00000
      8       0.0723      2.00000
      9       0.0723      2.00000
     10       0.1550      2.00000
     11       0.1550      2.00000
     12       0.1550      2.00000
     13       0.4482      2.00000
     14       0.4482      2.00000
     15       0.4482      2.00000
     16       0.6069      2.00000
     17       1.0616      2.00000
     18       1.0616      2.00000
     19       1.1817      2.00000
     20       1.1817      2.00000
     21       1.1817      2.00000
     22       2.8295      0.00000
     23       2.8295      0.00000
     24       2.8295      0.00000
     25       6.4322      0.00000
     26       6.4322      0.00000
     27       6.4322      0.00000
     28       8.5317      0.00000
     29      19.2493      0.00000
     30      19.2493      0.00000
     31      19.2493      0.00000
     32      20.6223      0.00000

 k-point  82 :       0.4615    0.3846    0.3846
  band No.  band energies     occupation 
      1      -1.8373      2.00000
      2      -1.6574      2.00000
      3      -1.5053      2.00000
      4      -1.5053      2.00000
      5      -0.0742      2.00000
      6      -0.0742      2.00000
      7      -0.0188      2.00000
      8       0.0386      2.00000
      9       0.0711      2.00000
     10       0.0992      2.00000
     11       0.1204      2.00000
     12       0.1204      2.00000
     13       0.5966      2.00000
     14       0.5966      2.00000
     15       0.6069      2.00000
     16       0.7327      2.00000
     17       1.1313      2.00000
     18       1.1652      2.00000
     19       1.1652      2.00000
     20       1.1721      2.00000
     21       1.3550      2.00000
     22       2.0245      2.00000
     23       2.9402      0.00000
     24       2.9402      0.00000
     25       5.9843      0.00000
     26       5.9843      0.00000
     27       6.9721      0.00000
     28       7.6792      0.00000
     29      19.8119      0.00000
     30      19.8119      0.00000
     31      20.4490      0.00000
     32      20.4490      0.00000

 k-point  83 :       0.4615    0.4615    0.3846
  band No.  band energies     occupation 
      1      -1.7366      2.00000
      2      -1.6273      2.00000
      3      -1.6273      2.00000
      4      -1.5774      2.00000
      5      -0.0297      2.00000
      6      -0.0115      2.00000
      7      -0.0115      2.00000
      8       0.0292      2.00000
      9       0.0511      2.00000
     10       0.0711      2.00000
     11       0.0711      2.00000
     12       0.0781      2.00000
     13       0.7776      2.00000
     14       0.7995      2.00000
     15       0.7995      2.00000
     16       0.9308      2.00000
     17       1.1142      2.00000
     18       1.1557      2.00000
     19       1.1557      2.00000
     20       1.1560      2.00000
     21       1.6683      2.00000
     22       2.2773      2.00000
     23       2.2773      2.00000
     24       2.6378      2.00000
     25       5.9387      0.00000
     26       6.3067      0.00000
     27       6.3067      0.00000
     28       6.8952      0.00000
     29      20.3923      0.00000
     30      21.0270      0.00000
     31      21.0270      0.00000
     32      21.7045      0.00000

 k-point  84 :       0.4615    0.4615    0.4615
  band No.  band energies     occupation 
      1      -1.7051      2.00000
      2      -1.6528      2.00000
      3      -1.6528      2.00000
      4      -1.6528      2.00000
      5       0.0104      2.00000
      6       0.0104      2.00000
      7       0.0104      2.00000
      8       0.0301      2.00000
      9       0.0301      2.00000
     10       0.0393      2.00000
     11       0.0393      2.00000
     12       0.0393      2.00000
     13       1.0291      2.00000
     14       1.0291      2.00000
     15       1.0291      2.00000
     16       1.1606      2.00000
     17       1.1606      2.00000
     18       1.1748      2.00000
     19       1.1748      2.00000
     20       1.1748      2.00000
     21       1.8022      2.00000
     22       2.2396      2.00000
     23       2.2396      2.00000
     24       2.2396      2.00000
     25       5.8942      0.00000
     26       5.8942      0.00000
     27       5.8942      0.00000
     28       6.2464      0.00000
     29      22.1848      0.00000
     30      22.1848      0.00000
     31      22.1849      0.00000
     32      22.4469      0.00000


--------------------------------------------------------------------------------------------------------


 soft charge-density along one line, spin component           1
         0         1         2         3         4         5         6         7         8         9
 total charge-density along one line
 
 pseudopotential strength for first ion, spin component:           1
 -7.007   0.000  -0.000   0.000  -0.000  -0.000  -0.000   0.000
  0.000  -7.007  -0.000   0.000  -0.000  -0.000  -0.000   0.000
 -0.000  -0.000  -6.991  -0.000  -0.000   0.000   0.000  -0.007
  0.000   0.000  -0.000  -7.007   0.000  -0.000  -0.000   0.000
 -0.000  -0.000  -0.000   0.000  -6.991   0.000   0.000   0.000
 -0.000  -0.000   0.000  -0.000   0.000   1.568   0.000  -0.000
 -0.000  -0.000   0.000  -0.000   0.000   0.000   1.568  -0.000
  0.000   0.000  -0.007   0.000   0.000  -0.000  -0.000   1.572
 -0.000  -0.000   0.000  -0.000  -0.000   0.000   0.000  -0.000
  0.000   0.000   0.000  -0.000  -0.007  -0.000  -0.000  -0.000
 -0.000  -0.000  -0.000  -0.000  -0.000  -0.000  -0.000  -0.000
  0.000   0.000   0.000   0.000   0.000  -0.000  -0.000  -0.000
  0.000   0.000  -0.000   0.000  -0.000  -0.000  -0.000   0.000
  0.000   0.000   0.000   0.000   0.000   0.000  -0.000  -0.000
  0.000   0.000  -0.000   0.000   0.000  -0.000   0.000   0.000
 -0.000  -0.000   0.000  -0.000   0.000   0.000   0.000  -0.000
 -0.000  -0.000  -0.000  -0.000  -0.000   0.000   0.000   0.000
 -0.000  -0.000   0.000  -0.000  -0.000   0.000   0.000  -0.000
 total augmentation occupancy for first ion, spin component:           1
  1.856  -0.008  -0.012  -0.003  -0.011  -0.011   0.005  -0.003  -0.001   0.010   0.029  -0.006   0.000   0.000   0.000  -0.000
 -0.008   1.926  -0.001  -0.007  -0.005   0.005  -0.064   0.002   0.008  -0.002   0.048   0.005  -0.000  -0.000  -0.000  -0.000
 -0.012  -0.001   1.895   0.004  -0.015  -0.003   0.002  -0.039  -0.003   0.026  -0.011  -0.045   0.000  -0.000  -0.000  -0.000
 -0.003  -0.007   0.004   1.914   0.002  -0.001   0.008  -0.003  -0.037   0.004   0.025   0.000  -0.000   0.000  -0.000  -0.000
 -0.011  -0.005  -0.015   0.002   1.926   0.010  -0.002   0.026   0.004  -0.102   0.058   0.030  -0.000   0.000  -0.000  -0.000
 -0.011   0.005  -0.003  -0.001   0.010   0.071  -0.002   0.016   0.001  -0.007   0.022   0.014  -0.000   0.000   0.000   0.000
  0.005  -0.064   0.002   0.008  -0.002  -0.002   0.055  -0.003  -0.005   0.007  -0.014   0.009  -0.000  -0.000  -0.000  -0.000
 -0.003   0.002  -0.039  -0.003   0.026   0.016  -0.003   0.057   0.000  -0.004   0.098  -0.011   0.000   0.000  -0.000  -0.000
 -0.001   0.008  -0.003  -0.037   0.004   0.001  -0.005   0.000   0.043  -0.008   0.001   0.007  -0.000   0.000   0.000  -0.000
  0.010  -0.002   0.026   0.004  -0.102  -0.007   0.007  -0.004  -0.008   0.048  -0.071   0.013   0.000   0.000  -0.000  -0.000
  0.029   0.048  -0.011   0.025   0.058   0.022  -0.014   0.098   0.001  -0.071   1.116  -0.294   0.000  -0.000   0.000   0.000
 -0.006   0.005  -0.045   0.000   0.030   0.014   0.009  -0.011   0.007   0.013  -0.294   0.114   0.000  -0.000   0.000   0.000
  0.000  -0.000   0.000  -0.000  -0.000  -0.000  -0.000   0.000  -0.000   0.000   0.000   0.000   0.140   0.016  -0.015  -0.009
  0.000  -0.000  -0.000   0.000   0.000   0.000  -0.000   0.000   0.000   0.000  -0.000  -0.000   0.016   0.096  -0.002  -0.001
  0.000  -0.000  -0.000  -0.000  -0.000   0.000  -0.000  -0.000   0.000  -0.000   0.000   0.000  -0.015  -0.002   0.215  -0.000
 -0.000  -0.000  -0.000  -0.000  -0.000   0.000  -0.000  -0.000  -0.000  -0.000   0.000   0.000  -0.009  -0.001  -0.000   0.001
  0.000  -0.000  -0.000   0.000   0.000   0.000  -0.000   0.000   0.000   0.000  -0.000   0.000  -0.001  -0.006  -0.001   0.000
 -0.000  -0.000  -0.000  -0.000  -0.000  -0.000  -0.000  -0.000  -0.000  -0.000   0.000  -0.000  -0.000  -0.001  -0.015   0.000


------------------------ aborting loop because EDIFF is reached ----------------------------------------




--------------------------------------------------------------------------------------------------------


    CHARGE:  VPU time    0.08: CPU time    0.08
    FORLOC:  VPU time    0.00: CPU time    0.00
    FORNL :  VPU time    0.25: CPU time    0.25
    STRESS:  VPU time    0.63: CPU time    0.63
    FORCOR:  VPU time    0.01: CPU time    0.01
    FORHAR:  VPU time    0.00: CPU time    0.00
    MIXING:  VPU time    0.00: CPU time    0.00


--------------------------------------------------------------------------------------------------------



  FREE ENERGIE OF THE ION-ELECTRON SYSTEM (eV)
  ---------------------------------------------------
  free  energy   TOTEN  =       -14.627347 eV

  energy  without entropy=      -14.627126  energy(sigma->0) =      -14.627237
 

  FORCE on cell =-STRESS in cart. coord.  units (eV/reduce length):
  Direction    X        Y        Z        XY       YZ       ZX
  --------------------------------------------------------------------------------------
  Alpha Z    377.92    377.92    377.92
  Ewald    -1408.22  -1408.22  -1408.22      0.00      0.00      0.00
  Hartree    442.16    442.16    442.16     -0.00     -0.00     -0.00
  E(xc)     -249.73   -249.73   -249.73      0.00      0.00     -0.00
  Local      447.94    447.94    447.94      0.00      0.00      0.00
  n-local   -146.81   -152.39   -153.50      0.19      1.80      0.68
  augment    225.41    225.41    225.41     -0.00     -0.00     -0.00
  Kinetic    318.76    310.49    304.93     -3.18      0.19     -1.23
  -------------------------------------------------------------------------------------
  Total       -4.03     -4.03     -4.03      0.00     -0.00      0.00
  in kB     -119.33   -119.33   -119.33      0.00     -0.00      0.00
  external pressure =     -119.33 kB  Pullay stress =        0.00 kB


 VOLUME and BASIS-vectors are now :
 -----------------------------------------------------------------------------
  energy-cutoff  :      500.00
  volume of cell :       54.09
      direct lattice vectors                 reciprocal lattice vectors
     3.781872444  0.000000000  0.000000000     0.264419283  0.000000000  0.000000000
     0.000000000  3.781872444  0.000000000     0.000000000  0.264419283  0.000000000
     0.000000000  0.000000000  3.781872444     0.000000000  0.000000000  0.264419283

  length of vectors
     3.781872444  3.781872444  3.781872444     0.264419283  0.264419283  0.264419283


 FORCES acting on ions
    electron-ion (+dipol)            ewald-force                    non-local-force                 convergence-correction
 -----------------------------------------------------------------------------------------------
   -.465E-13 -.495E-13 -.476E-13   -.726E-14 -.110E-13 -.755E-14   0.105E-25 0.177E-25 -.192E-25   -.124E-13 -.469E-14 -.133E-14
   0.539E-12 0.367E-11 0.228E-11   -.859E-15 0.919E-14 -.744E-14   0.352E-25 0.624E-26 -.567E-25   -.264E-13 -.388E-14 0.109E-13
   0.540E-12 -.520E-13 0.773E-11   0.100E-13 -.878E-14 0.849E-14   0.366E-25 -.557E-25 0.411E-25   -.129E-13 0.256E-14 -.923E-13
   -.467E-13 0.523E-12 0.524E-12   -.415E-14 0.114E-13 0.861E-14   -.437E-25 -.819E-26 0.186E-25   0.111E-14 -.377E-14 -.970E-13
 -----------------------------------------------------------------------------------------------
   0.986E-12 0.410E-11 0.105E-10   -.223E-14 0.832E-15 0.211E-14   0.386E-25 -.399E-25 -.162E-25   -.506E-13 -.979E-14 -.180E-12
 
 
 POSITION                                       TOTAL-FORCE (eV/Angst)
 -----------------------------------------------------------------------------------
      0.00000      0.00000      0.00000         0.000000     -0.000000      0.000000
      1.89094      1.89094      0.00000         0.000000      0.000000      0.000000
      1.89094      0.00000      1.89094        -0.000000      0.000000     -0.000000
      0.00000      1.89094      1.89094        -0.000000     -0.000000      0.000000
 -----------------------------------------------------------------------------------
    total drift:                                0.000000      0.000000      0.000000


--------------------------------------------------------------------------------------------------------



 mean value of Nose-termostat <S>:     1.000 mean value of <T> :     0.000
 mean temperature <T/S>/<1/S>  :     0.000

     LOOP+:  VPU time   22.48: CPU time   22.55
  
  
 General timing and accounting informations for this job:
 ========================================================
  
                  Total CPU time used (sec):       23.400
                            User time (sec):       15.758
                          System time (sec):        7.643
                         Elapsed time (sec):       23.475
  
                   Maximum memory used (kb):      324864.
                   Average memory used (kb):           0.
  
                          Minor page faults:        45111
                          Major page faults:            0
                 Voluntary context switches:          892
