<?xml version="1.0" encoding="ISO-8859-1"?>
<modeling>
 <generator>
  <i name="program" type="string">vasp</i>
  <i name="version" type="string">4.6.28 </i>
  <i name="subversion" type="string">25Jul05 complex  parallel</i>
  <i name="platform" type="string">LinuxIFC</i>
  <i name="date" type="string">2016 07 06</i>
  <i name="time" type="string">18:27:59</i>
 </generator>
 <incar>
  <i type="string" name="PREC">accurate</i>
  <i type="int" name="IALGO">    38</i>
  <i type="logical" name="ADDGRID"> T  </i>
  <i name="EDIFF">      0.00000001</i>
  <i type="int" name="IBRION">    -1</i>
  <i name="ENCUT">    500.00000000</i>
  <i type="logical" name="LREAL"> F  </i>
  <i type="int" name="ISMEAR">     0</i>
  <i name="SIGMA">      0.01000000</i>
  <i type="logical" name="LWAVE"> F  </i>
  <i type="logical" name="LCHARG"> F  </i>
 </incar>
 <kpoints>
  <generation param="Auto">
   <i name="subdivisionlength">     50.00000000</i>
   <v type="int" name="divisions">      13      13      13</v>
   <v name="usershift">      0.00000000      0.00000000      0.00000000</v>
   <v name="genvec1">      0.07692308      0.00000000      0.00000000</v>
   <v name="genvec2">      0.00000000      0.07692308      0.00000000</v>
   <v name="genvec3">      0.00000000      0.00000000      0.07692308</v>
   <v name="shift">      0.00000000      0.00000000      0.00000000</v>
  </generation>
  <varray name="kpointlist" >
   <v>       0.00000000      0.00000000      0.00000000</v>
   <v>       0.07692308      0.00000000      0.00000000</v>
   <v>       0.15384615      0.00000000      0.00000000</v>
   <v>       0.23076923      0.00000000      0.00000000</v>
   <v>       0.30769231      0.00000000      0.00000000</v>
   <v>       0.38461538      0.00000000      0.00000000</v>
   <v>       0.46153846      0.00000000      0.00000000</v>
   <v>       0.07692308      0.07692308      0.00000000</v>
   <v>       0.15384615      0.07692308      0.00000000</v>
   <v>       0.23076923      0.07692308      0.00000000</v>
   <v>       0.30769231      0.07692308      0.00000000</v>
   <v>       0.38461538      0.07692308      0.00000000</v>
   <v>       0.46153846      0.07692308      0.00000000</v>
   <v>       0.15384615      0.15384615      0.00000000</v>
   <v>       0.23076923      0.15384615      0.00000000</v>
   <v>       0.30769231      0.15384615      0.00000000</v>
   <v>       0.38461538      0.15384615      0.00000000</v>
   <v>       0.46153846      0.15384615      0.00000000</v>
   <v>       0.23076923      0.23076923      0.00000000</v>
   <v>       0.30769231      0.23076923      0.00000000</v>
   <v>       0.38461538      0.23076923      0.00000000</v>
   <v>       0.46153846      0.23076923      0.00000000</v>
   <v>       0.30769231      0.30769231      0.00000000</v>
   <v>       0.38461538      0.30769231      0.00000000</v>
   <v>       0.46153846      0.30769231      0.00000000</v>
   <v>       0.38461538      0.38461538      0.00000000</v>
   <v>       0.46153846      0.38461538      0.00000000</v>
   <v>       0.46153846      0.46153846      0.00000000</v>
   <v>       0.07692308      0.07692308      0.07692308</v>
   <v>       0.15384615      0.07692308      0.07692308</v>
   <v>       0.23076923      0.07692308      0.07692308</v>
   <v>       0.30769231      0.07692308      0.07692308</v>
   <v>       0.38461538      0.07692308      0.07692308</v>
   <v>       0.46153846      0.07692308      0.07692308</v>
   <v>       0.15384615      0.15384615      0.07692308</v>
   <v>       0.23076923      0.15384615      0.07692308</v>
   <v>       0.30769231      0.15384615      0.07692308</v>
   <v>       0.38461538      0.15384615      0.07692308</v>
   <v>       0.46153846      0.15384615      0.07692308</v>
   <v>       0.23076923      0.23076923      0.07692308</v>
   <v>       0.30769231      0.23076923      0.07692308</v>
   <v>       0.38461538      0.23076923      0.07692308</v>
   <v>       0.46153846      0.23076923      0.07692308</v>
   <v>       0.30769231      0.30769231      0.07692308</v>
   <v>       0.38461538      0.30769231      0.07692308</v>
   <v>       0.46153846      0.30769231      0.07692308</v>
   <v>       0.38461538      0.38461538      0.07692308</v>
   <v>       0.46153846      0.38461538      0.07692308</v>
   <v>       0.46153846      0.46153846      0.07692308</v>
   <v>       0.15384615      0.15384615      0.15384615</v>
   <v>       0.23076923      0.15384615      0.15384615</v>
   <v>       0.30769231      0.15384615      0.15384615</v>
   <v>       0.38461538      0.15384615      0.15384615</v>
   <v>       0.46153846      0.15384615      0.15384615</v>
   <v>       0.23076923      0.23076923      0.15384615</v>
   <v>       0.30769231      0.23076923      0.15384615</v>
   <v>       0.38461538      0.23076923      0.15384615</v>
   <v>       0.46153846      0.23076923      0.15384615</v>
   <v>       0.30769231      0.30769231      0.15384615</v>
   <v>       0.38461538      0.30769231      0.15384615</v>
   <v>       0.46153846      0.30769231      0.15384615</v>
   <v>       0.38461538      0.38461538      0.15384615</v>
   <v>       0.46153846      0.38461538      0.15384615</v>
   <v>       0.46153846      0.46153846      0.15384615</v>
   <v>       0.23076923      0.23076923      0.23076923</v>
   <v>       0.30769231      0.23076923      0.23076923</v>
   <v>       0.38461538      0.23076923      0.23076923</v>
   <v>       0.46153846      0.23076923      0.23076923</v>
   <v>       0.30769231      0.30769231      0.23076923</v>
   <v>       0.38461538      0.30769231      0.23076923</v>
   <v>       0.46153846      0.30769231      0.23076923</v>
   <v>       0.38461538      0.38461538      0.23076923</v>
   <v>       0.46153846      0.38461538      0.23076923</v>
   <v>       0.46153846      0.46153846      0.23076923</v>
   <v>       0.30769231      0.30769231      0.30769231</v>
   <v>       0.38461538      0.30769231      0.30769231</v>
   <v>       0.46153846      0.30769231      0.30769231</v>
   <v>       0.38461538      0.38461538      0.30769231</v>
   <v>       0.46153846      0.38461538      0.30769231</v>
   <v>       0.46153846      0.46153846      0.30769231</v>
   <v>       0.38461538      0.38461538      0.38461538</v>
   <v>       0.46153846      0.38461538      0.38461538</v>
   <v>       0.46153846      0.46153846      0.38461538</v>
   <v>       0.46153846      0.46153846      0.46153846</v>
  </varray>
  <varray name="weights" >
   <v>       0.00045517</v>
   <v>       0.00273100</v>
   <v>       0.00273100</v>
   <v>       0.00273100</v>
   <v>       0.00273100</v>
   <v>       0.00273100</v>
   <v>       0.00273100</v>
   <v>       0.00546199</v>
   <v>       0.01092399</v>
   <v>       0.01092399</v>
   <v>       0.01092399</v>
   <v>       0.01092399</v>
   <v>       0.01092399</v>
   <v>       0.00546199</v>
   <v>       0.01092399</v>
   <v>       0.01092399</v>
   <v>       0.01092399</v>
   <v>       0.01092399</v>
   <v>       0.00546199</v>
   <v>       0.01092399</v>
   <v>       0.01092399</v>
   <v>       0.01092399</v>
   <v>       0.00546199</v>
   <v>       0.01092399</v>
   <v>       0.01092399</v>
   <v>       0.00546199</v>
   <v>       0.01092399</v>
   <v>       0.00546199</v>
   <v>       0.00364133</v>
   <v>       0.01092399</v>
   <v>       0.01092399</v>
   <v>       0.01092399</v>
   <v>       0.01092399</v>
   <v>       0.01092399</v>
   <v>       0.01092399</v>
   <v>       0.02184797</v>
   <v>       0.02184797</v>
   <v>       0.02184797</v>
   <v>       0.02184797</v>
   <v>       0.01092399</v>
   <v>       0.02184797</v>
   <v>       0.02184797</v>
   <v>       0.02184797</v>
   <v>       0.01092399</v>
   <v>       0.02184797</v>
   <v>       0.02184797</v>
   <v>       0.01092399</v>
   <v>       0.02184797</v>
   <v>       0.01092399</v>
   <v>       0.00364133</v>
   <v>       0.01092399</v>
   <v>       0.01092399</v>
   <v>       0.01092399</v>
   <v>       0.01092399</v>
   <v>       0.01092399</v>
   <v>       0.02184797</v>
   <v>       0.02184797</v>
   <v>       0.02184797</v>
   <v>       0.01092399</v>
   <v>       0.02184797</v>
   <v>       0.02184797</v>
   <v>       0.01092399</v>
   <v>       0.02184797</v>
   <v>       0.01092399</v>
   <v>       0.00364133</v>
   <v>       0.01092399</v>
   <v>       0.01092399</v>
   <v>       0.01092399</v>
   <v>       0.01092399</v>
   <v>       0.02184797</v>
   <v>       0.02184797</v>
   <v>       0.01092399</v>
   <v>       0.02184797</v>
   <v>       0.01092399</v>
   <v>       0.00364133</v>
   <v>       0.01092399</v>
   <v>       0.01092399</v>
   <v>       0.01092399</v>
   <v>       0.02184797</v>
   <v>       0.01092399</v>
   <v>       0.00364133</v>
   <v>       0.01092399</v>
   <v>       0.01092399</v>
   <v>       0.00364133</v>
  </varray>
 </kpoints>
 <parameters>
  <separator name="general" >
   <i type="string" name="SYSTEM">unknown system</i>
   <i type="logical" name="LCOMPAT"> F  </i>
  </separator>
  <separator name="electronic" >
   <i type="string" name="PREC">accura</i>
   <i name="ENMAX">    500.00000000</i>
   <i name="ENAUG">    516.45600000</i>
   <i name="EDIFF">      0.00000001</i>
   <i type="int" name="IALGO">    38</i>
   <i type="int" name="IWAVPR">    10</i>
   <i type="int" name="NBANDS">    26</i>
   <i name="NELECT">     44.00000000</i>
   <separator name="electronic smearing" >
    <i type="int" name="ISMEAR">     0</i>
    <i name="SIGMA">      0.01000000</i>
   </separator>
   <separator name="electronic projectors" >
    <i type="logical" name="LREAL"> F  </i>
    <v name="ROPT">      0.00000000</v>
    <i type="int" name="LMAXPAW">  -100</i>
    <i type="int" name="LMAXMIX">     2</i>
   </separator>
   <separator name="electronic startup" >
    <i type="int" name="ISTART">     0</i>
    <i type="int" name="ICHARG">     2</i>
    <i type="int" name="INIWAV">     1</i>
   </separator>
   <separator name="electronic spin" >
    <i type="int" name="ISPIN">     1</i>
    <i type="logical" name="LNONCOLLINEAR"> F  </i>
    <v name="MAGMOM">      1.00000000      1.00000000      1.00000000      1.00000000</v>
    <i name="NUPDOWN">     -1.00000000</i>
    <i type="logical" name="LSORBIT"> F  </i>
    <v name="SAXIS">      0.00000000      0.00000000      1.00000000</v>
    <i type="logical" name="LSPIRAL"> F  </i>
    <v name="QSPIRAL">      0.00000000      0.00000000      0.00000000</v>
    <i type="logical" name="LZEROZ"> F  </i>
   </separator>
   <separator name="electronic exchange-correlation" >
    <i type="string" name="GGA">--</i>
    <i type="int" name="VOSKOWN">     0</i>
    <i type="logical" name="LASPH"> F  </i>
    <i type="logical" name="LMETAGGA"> F  </i>
    <i type="string" name="GGA2">--</i>
   </separator>
   <separator name="electronic convergence" >
    <i type="int" name="NELM">    60</i>
    <i type="int" name="NELMDL">     0</i>
    <i type="int" name="NELMIN">     2</i>
    <i name="ENINI">    500.00000000</i>
    <separator name="electronic convergence detail" >
     <i type="logical" name="LDIAG"> T  </i>
     <i name="WEIMIN">      0.00000000</i>
     <i name="EBREAK">      0.00000000</i>
     <i name="DEPER">      0.30000000</i>
     <i type="int" name="NRMM">     4</i>
     <i name="TIME">      0.10000000</i>
    </separator>
   </separator>
   <separator name="electronic mixer" >
    <i name="AMIX">      0.40000000</i>
    <i name="BMIX">      1.00000000</i>
    <i name="AMIN">      0.10000000</i>
    <i name="AMIX_MAG">      1.60000000</i>
    <i name="BMIX_MAG">      1.00000000</i>
    <separator name="electronic mixer details" >
     <i type="int" name="IMIX">     4</i>
     <i type="int" name="MAXMIX">   -45</i>
     <i name="WC">    100.00000000</i>
     <i type="int" name="INIMIX">     1</i>
     <i type="int" name="MIXPRE">     1</i>
     <i type="int" name="MREMOVE">     5</i>
    </separator>
   </separator>
   <separator name="electronic dipolcorrection" >
    <i type="int" name="IDIPOL">     0</i>
    <i type="logical" name="LDIPOL"> F  </i>
    <v name="DIPOL">   -100.00000000</v>
    <i name="EFIELD">      0.00000000</i>
   </separator>
  </separator>
  <separator name="grids" >
   <i type="int" name="NGX">    28</i>
   <i type="int" name="NGY">    28</i>
   <i type="int" name="NGZ">    28</i>
   <i type="int" name="NGXF">    56</i>
   <i type="int" name="NGYF">    56</i>
   <i type="int" name="NGZF">    56</i>
   <i type="logical" name="ADDGRID"> T  </i>
  </separator>
  <separator name="ionic" >
   <i type="int" name="NSW">     0</i>
   <i type="int" name="IBRION">    -1</i>
   <i type="int" name="ISIF">     2</i>
   <i name="PSTRESS">      0.00000000</i>
   <i name="EDIFFG">      0.00000010</i>
   <i type="int" name="NFREE">     0</i>
   <i name="POTIM">      0.50000000</i>
   <i name="SMASS">     -3.00000000</i>
  </separator>
  <separator name="ionic md" >
   <i name="TEBEG">      0.00010000</i>
   <i name="TEEND">      0.00010000</i>
   <i type="int" name="NBLOCK">     1</i>
   <i type="int" name="KBLOCK">     1</i>
   <i type="int" name="NPACO">   256</i>
   <i name="APACO">     16.00000000</i>
  </separator>
  <separator name="symmetry" >
   <i type="int" name="ISYM">     2</i>
   <i name="SYMPREC">      0.00001000</i>
  </separator>
  <separator name="dos" >
   <i type="logical" name="LORBIT"> F  </i>
   <v name="RWIGS">     -1.00000000</v>
   <i type="int" name="NEDOS">   301</i>
   <i name="EMIN">     10.00000000</i>
   <i name="EMAX">    -10.00000000</i>
  </separator>
  <separator name="writing" >
   <i type="int" name="NWRITE">     2</i>
   <i type="logical" name="LWAVE"> F  </i>
   <i type="logical" name="LCHARG"> F  </i>
   <i type="logical" name="LPARD"> F  </i>
   <i type="logical" name="LVTOT"> F  </i>
   <i type="logical" name="LELF"> F  </i>
   <i type="logical" name="LOPTICS"> F  </i>
   <i name="STM">      0.00000000</i>
  </separator>
  <separator name="performance" >
   <i type="int" name="NPAR">     8</i>
   <i type="int" name="NSIM">     4</i>
   <i type="int" name="NBLK">   128</i>
   <i type="logical" name="LPLANE"> T  </i>
   <i type="logical" name="LCRITICAL_MEM"> F  </i>
   <i type="logical" name="LSCALAPACK"> F  </i>
   <i type="logical" name="LSCALU"> F  </i>
   <i type="logical" name="LASYNC"> F  </i>
  </separator>
  <separator name="miscellaneous" >
   <i type="int" name="IDIOT">     3</i>
   <i type="logical" name="LMUSIC"> F  </i>
   <v name="POMASS">     63.54600000</v>
   <i type="logical" name="LCORR"> T  </i>
  </separator>
  <i type="logical" name="LREAL_COMPAT"> F  </i>
  <i type="logical" name="GGA_COMPAT"> T  </i>
  <i type="logical" name="LBERRY"> F  </i>
  <i type="int" name="ICORELEVEL">     0</i>
  <i type="logical" name="LDAU"> F  </i>
  <i type="int" name="I_CONSTRAINED_M">     0</i>
 </parameters>
 <atominfo>
  <atoms>       4</atoms>
  <types>       1</types>
  <array name="atoms" >
   <dimension dim="1">ion</dimension>
   <field type="string">element</field>
   <field type="int">atomtype</field>
   <set>
    <rc><c>Cu</c><c>   1</c></rc>
    <rc><c>Cu</c><c>   1</c></rc>
    <rc><c>Cu</c><c>   1</c></rc>
    <rc><c>Cu</c><c>   1</c></rc>
   </set>
  </array>
  <array name="atomtypes" >
   <dimension dim="1">type</dimension>
   <field type="int">atomspertype</field>
   <field type="string">element</field>
   <field>mass</field>
   <field>valence</field>
   <field type="string">pseudopotential</field>
   <set>
    <rc><c>   4</c><c>Cu</c><c>     63.54600000</c><c>     11.00000000</c><c> PAW_PBE Cu 05Jan2001                   </c></rc>
   </set>
  </array>
 </atominfo>
 <structure name="initialpos" >
  <crystal>
   <varray name="basis" >
    <v>       3.78187244      0.00000000      0.00000000</v>
    <v>       0.00000000      3.78187244      0.00000000</v>
    <v>       0.00000000      0.00000000      3.78187244</v>
   </varray>
   <i name="volume">     54.09045446</i>
   <varray name="rec_basis" >
    <v>       0.26441928      0.00000000      0.00000000</v>
    <v>       0.00000000      0.26441928      0.00000000</v>
    <v>       0.00000000      0.00000000      0.26441928</v>
   </varray>
  </crystal>
  <varray name="positions" >
   <v>       0.00000000      0.00000000      0.00000000</v>
   <v>       0.50000000      0.50000000      0.00000000</v>
   <v>       0.50000000      0.00000000      0.50000000</v>
   <v>       0.00000000      0.50000000      0.50000000</v>
  </varray>
 </structure>
 <calculation>
  <scstep>
   <time name="dav">    1.35    1.38</time>
   <time name="total">    1.39    1.43</time>
   <energy>
    <i name="alphaZ">    377.92251302</i>
    <i name="ewald">  -4224.65104653</i>
    <i name="hartreedc">  -1409.90126104</i>
    <i name="XCdc">    174.19240231</i>
    <i name="pawpsdc">   4328.20916945</i>
    <i name="pawaedc">  -4904.30802700</i>
    <i name="eentropy">     -0.00009786</i>
    <i name="bandstr">    371.03093169</i>
    <i name="atom">   5563.90732063</i>
    <i name="e_fr_energy">    276.40190467</i>
    <i name="e_wo_entrp">    276.40200253</i>
    <i name="e_0_energy">    276.40195360</i>
   </energy>
  </scstep>
  <scstep>
   <time name="dav">    1.31    1.31</time>
   <time name="total">    1.31    1.31</time>
   <energy>
    <i name="e_fr_energy">     -0.11815519</i>
    <i name="e_wo_entrp">     -0.11808720</i>
    <i name="e_0_energy">     -0.11812119</i>
   </energy>
  </scstep>
  <scstep>
   <time name="dav">    1.45    1.45</time>
   <time name="total">    1.45    1.46</time>
   <energy>
    <i name="e_fr_energy">    -17.66991036</i>
    <i name="e_wo_entrp">    -17.66974759</i>
    <i name="e_0_energy">    -17.66982898</i>
   </energy>
  </scstep>
  <scstep>
   <time name="dav">    1.37    1.37</time>
   <time name="total">    1.38    1.38</time>
   <energy>
    <i name="e_fr_energy">    -17.85929289</i>
    <i name="e_wo_entrp">    -17.85913539</i>
    <i name="e_0_energy">    -17.85921414</i>
   </energy>
  </scstep>
  <scstep>
   <time name="dav">    1.47    1.47</time>
   <time name="total">    1.56    1.56</time>
   <energy>
    <i name="e_fr_energy">    -17.85964768</i>
    <i name="e_wo_entrp">    -17.85949020</i>
    <i name="e_0_energy">    -17.85956894</i>
   </energy>
  </scstep>
  <scstep>
   <time name="dav">    1.39    1.39</time>
   <time name="total">    1.50    1.51</time>
   <energy>
    <i name="e_fr_energy">    -16.25660677</i>
    <i name="e_wo_entrp">    -16.25634834</i>
    <i name="e_0_energy">    -16.25647756</i>
   </energy>
  </scstep>
  <scstep>
   <time name="dav">    1.42    1.42</time>
   <time name="total">    1.53    1.53</time>
   <energy>
    <i name="e_fr_energy">    -14.65887760</i>
    <i name="e_wo_entrp">    -14.65865604</i>
    <i name="e_0_energy">    -14.65876682</i>
   </energy>
  </scstep>
  <scstep>
   <time name="dav">    1.40    1.40</time>
   <time name="total">    1.51    1.52</time>
   <energy>
    <i name="e_fr_energy">    -14.63904918</i>
    <i name="e_wo_entrp">    -14.63886108</i>
    <i name="e_0_energy">    -14.63895513</i>
   </energy>
  </scstep>
  <scstep>
   <time name="dav">    1.44    1.43</time>
   <time name="total">    1.55    1.55</time>
   <energy>
    <i name="e_fr_energy">    -14.62730539</i>
    <i name="e_wo_entrp">    -14.62708953</i>
    <i name="e_0_energy">    -14.62719746</i>
   </energy>
  </scstep>
  <scstep>
   <time name="dav">    1.41    1.41</time>
   <time name="total">    1.53    1.53</time>
   <energy>
    <i name="e_fr_energy">    -14.62734195</i>
    <i name="e_wo_entrp">    -14.62712072</i>
    <i name="e_0_energy">    -14.62723134</i>
   </energy>
  </scstep>
  <scstep>
   <time name="dav">    1.42    1.42</time>
   <time name="total">    1.53    1.53</time>
   <energy>
    <i name="e_fr_energy">    -14.62734234</i>
    <i name="e_wo_entrp">    -14.62712138</i>
    <i name="e_0_energy">    -14.62723186</i>
   </energy>
  </scstep>
  <scstep>
   <time name="dav">    1.46    1.46</time>
   <time name="total">    1.58    1.58</time>
   <energy>
    <i name="e_fr_energy">    -14.62734607</i>
    <i name="e_wo_entrp">    -14.62712526</i>
    <i name="e_0_energy">    -14.62723566</i>
   </energy>
  </scstep>
  <scstep>
   <time name="dav">    1.37    1.38</time>
   <time name="total">    1.48    1.49</time>
   <energy>
    <i name="e_fr_energy">    -14.62734685</i>
    <i name="e_wo_entrp">    -14.62712612</i>
    <i name="e_0_energy">    -14.62723648</i>
   </energy>
  </scstep>
  <scstep>
   <time name="dav">    1.08    1.08</time>
   <time name="total">    1.19    1.19</time>
   <energy>
    <i name="e_fr_energy">    -14.62734688</i>
    <i name="e_wo_entrp">    -14.62712614</i>
    <i name="e_0_energy">    -14.62723651</i>
   </energy>
  </scstep>
  <scstep>
   <time name="dav">    0.97    0.97</time>
   <time name="total">    1.00    1.00</time>
   <energy>
    <i name="alphaZ">    377.92251302</i>
    <i name="ewald">  -4224.65104653</i>
    <i name="hartreedc">  -1326.46565412</i>
    <i name="XCdc">    170.18558667</i>
    <i name="pawpsdc">   4324.87642981</i>
    <i name="pawaedc">  -4901.95263968</i>
    <i name="eentropy">     -0.00022074</i>
    <i name="bandstr">      1.55036406</i>
    <i name="atom">   5563.90732063</i>
    <i name="e_fr_energy">    -14.62734687</i>
    <i name="e_wo_entrp">    -14.62712613</i>
    <i name="e_0_energy">    -14.62723650</i>
   </energy>
  </scstep>
  <structure>
   <crystal>
    <varray name="basis" >
     <v>       3.78187244      0.00000000      0.00000000</v>
     <v>       0.00000000      3.78187244      0.00000000</v>
     <v>       0.00000000      0.00000000      3.78187244</v>
    </varray>
    <i name="volume">     54.09045446</i>
    <varray name="rec_basis" >
     <v>       0.26441928      0.00000000      0.00000000</v>
     <v>       0.00000000      0.26441928      0.00000000</v>
     <v>       0.00000000      0.00000000      0.26441928</v>
    </varray>
   </crystal>
   <varray name="positions" >
    <v>       0.00000000      0.00000000      0.00000000</v>
    <v>       0.50000000      0.50000000      0.00000000</v>
    <v>       0.50000000      0.00000000      0.50000000</v>
    <v>       0.00000000      0.50000000      0.50000000</v>
   </varray>
  </structure>
  <varray name="forces" >
   <v>       0.00000000     -0.00000000      0.00000000</v>
   <v>       0.00000000      0.00000000      0.00000000</v>
   <v>      -0.00000000      0.00000000     -0.00000000</v>
   <v>      -0.00000000     -0.00000000      0.00000000</v>
  </varray>
  <varray name="stress" >
   <v>    -119.32543927      0.00000000      0.00000000</v>
   <v>       0.00000000   -119.32543927     -0.00000000</v>
   <v>       0.00000000     -0.00000000   -119.32543927</v>
  </varray>
  <energy>
   <i name="e_fr_energy">    -14.62734687</i>
   <i name="e_wo_entrp">    -14.62723650</i>
   <i name="e_0_energy">     -0.00022074</i>
  </energy>
  <eigenvalues>
   <array>
    <dimension dim="1">band</dimension>
    <dimension dim="2">kpoint</dimension>
    <dimension dim="3">spin</dimension>
    <field>eigene</field>
    <field>occ</field>
    <set>
     <set comment="spin 1">
      <set comment="kpoint 1">
       <r>  -5.6561  1.0000</r>
       <r>  -1.4517  1.0000</r>
       <r>  -1.4517  1.0000</r>
       <r>  -1.4517  1.0000</r>
       <r>  -1.0801  1.0000</r>
       <r>  -1.0801  1.0000</r>
       <r>  -1.0801  1.0000</r>
       <r>   0.0449  1.0000</r>
       <r>   0.0449  1.0000</r>
       <r>   0.0449  1.0000</r>
       <r>   0.7156  1.0000</r>
       <r>   0.7156  1.0000</r>
       <r>   1.1622  1.0000</r>
       <r>   1.1622  1.0000</r>
       <r>   1.1622  1.0000</r>
       <r>   1.2871  1.0000</r>
       <r>   1.2871  1.0000</r>
       <r>   1.2871  1.0000</r>
       <r>   1.2871  1.0000</r>
       <r>   1.2871  1.0000</r>
       <r>   1.2871  1.0000</r>
       <r>   4.3191  0.0000</r>
       <r>   4.3191  0.0000</r>
       <r>   4.3191  0.0000</r>
       <r>   8.9274  0.0000</r>
       <r>   8.9274  0.0000</r>
       <r>   8.9274  0.0000</r>
       <r>  14.8436  0.0000</r>
       <r>  14.8436  0.0000</r>
       <r>  14.8436  0.0000</r>
       <r>  14.8436  0.0000</r>
       <r>  14.8436  0.0000</r>
      </set>
      <set comment="kpoint 2">
       <r>  -5.5907  1.0000</r>
       <r>  -1.4539  1.0000</r>
       <r>  -1.4232  1.0000</r>
       <r>  -1.4232  1.0000</r>
       <r>  -1.0644  1.0000</r>
       <r>  -1.0635  1.0000</r>
       <r>  -1.0635  1.0000</r>
       <r>   0.0279  1.0000</r>
       <r>   0.0589  1.0000</r>
       <r>   0.0589  1.0000</r>
       <r>   0.7002  1.0000</r>
       <r>   0.7219  1.0000</r>
       <r>   1.1423  1.0000</r>
       <r>   1.1423  1.0000</r>
       <r>   1.1556  1.0000</r>
       <r>   1.1917  1.0000</r>
       <r>   1.1917  1.0000</r>
       <r>   1.2635  1.0000</r>
       <r>   1.2635  1.0000</r>
       <r>   1.2872  1.0000</r>
       <r>   1.2872  1.0000</r>
       <r>   3.8615  0.0000</r>
       <r>   4.4746  0.0000</r>
       <r>   4.4746  0.0000</r>
       <r>   8.9552  0.0000</r>
       <r>   8.9552  0.0000</r>
       <r>   9.5205  0.0000</r>
       <r>  14.3812  0.0000</r>
       <r>  14.3812  0.0000</r>
       <r>  14.5247  0.0000</r>
       <r>  14.5247  0.0000</r>
       <r>  14.9368  0.0000</r>
      </set>
      <set comment="kpoint 3">
       <r>  -5.3956  1.0000</r>
       <r>  -1.4717  1.0000</r>
       <r>  -1.3410  1.0000</r>
       <r>  -1.3410  1.0000</r>
       <r>  -1.0181  1.0000</r>
       <r>  -1.0134  1.0000</r>
       <r>  -1.0134  1.0000</r>
       <r>  -0.0220  1.0000</r>
       <r>   0.1006  1.0000</r>
       <r>   0.1006  1.0000</r>
       <r>   0.6554  1.0000</r>
       <r>   0.7407  1.0000</r>
       <r>   0.9522  1.0000</r>
       <r>   0.9522  1.0000</r>
       <r>   1.0841  1.0000</r>
       <r>   1.0841  1.0000</r>
       <r>   1.1362  1.0000</r>
       <r>   1.1953  1.0000</r>
       <r>   1.1953  1.0000</r>
       <r>   1.2873  1.0000</r>
       <r>   1.2873  1.0000</r>
       <r>   2.9019  0.0000</r>
       <r>   4.8939  0.0000</r>
       <r>   4.8939  0.0000</r>
       <r>   9.0409  0.0000</r>
       <r>   9.0409  0.0000</r>
       <r>  10.8958  0.0000</r>
       <r>  13.3837  0.0000</r>
       <r>  13.3837  0.0000</r>
       <r>  13.7778  0.0000</r>
       <r>  13.7778  0.0000</r>
       <r>  15.2132  0.0000</r>
      </set>
      <set comment="kpoint 4">
       <r>  -5.0741  1.0000</r>
       <r>  -1.5436  1.0000</r>
       <r>  -1.2160  1.0000</r>
       <r>  -1.2160  1.0000</r>
       <r>  -0.9436  1.0000</r>
       <r>  -0.9290  1.0000</r>
       <r>  -0.9290  1.0000</r>
       <r>  -0.1015  1.0000</r>
       <r>   0.1690  1.0000</r>
       <r>   0.1690  1.0000</r>
       <r>   0.5862  1.0000</r>
       <r>   0.6486  1.0000</r>
       <r>   0.6486  1.0000</r>
       <r>   0.7709  1.0000</r>
       <r>   0.9930  1.0000</r>
       <r>   0.9930  1.0000</r>
       <r>   1.0899  1.0000</r>
       <r>   1.0899  1.0000</r>
       <r>   1.1051  1.0000</r>
       <r>   1.2874  1.0000</r>
       <r>   1.2874  1.0000</r>
       <r>   1.8993  1.0000</r>
       <r>   5.4960  0.0000</r>
       <r>   5.4960  0.0000</r>
       <r>   9.1904  0.0000</r>
       <r>   9.1904  0.0000</r>
       <r>  12.2456  0.0000</r>
       <r>  12.2456  0.0000</r>
       <r>  12.6281  0.0000</r>
       <r>  12.9015  0.0000</r>
       <r>  12.9015  0.0000</r>
       <r>  15.6642  0.0000</r>
      </set>
      <set comment="kpoint 5">
       <r>  -4.6328  1.0000</r>
       <r>  -1.7491  1.0000</r>
       <r>  -1.0679  1.0000</r>
       <r>  -1.0679  1.0000</r>
       <r>  -0.8448  1.0000</r>
       <r>  -0.8092  1.0000</r>
       <r>  -0.8092  1.0000</r>
       <r>  -0.2058  1.0000</r>
       <r>   0.2624  1.0000</r>
       <r>   0.2624  1.0000</r>
       <r>   0.3349  1.0000</r>
       <r>   0.3349  1.0000</r>
       <r>   0.5014  1.0000</r>
       <r>   0.8107  1.0000</r>
       <r>   0.8809  1.0000</r>
       <r>   0.8809  1.0000</r>
       <r>   0.9578  1.0000</r>
       <r>   0.9578  1.0000</r>
       <r>   1.0644  1.0000</r>
       <r>   1.0819  1.0000</r>
       <r>   1.2875  1.0000</r>
       <r>   1.2875  1.0000</r>
       <r>   6.2257  0.0000</r>
       <r>   6.2257  0.0000</r>
       <r>   9.4136  0.0000</r>
       <r>   9.4136  0.0000</r>
       <r>  11.1017  0.0000</r>
       <r>  11.1017  0.0000</r>
       <r>  12.0522  0.0000</r>
       <r>  12.0522  0.0000</r>
       <r>  14.5595  0.0000</r>
       <r>  16.2774  0.0000</r>
      </set>
      <set comment="kpoint 6">
       <r>  -4.0839  1.0000</r>
       <r>  -2.1726  1.0000</r>
       <r>  -0.9279  1.0000</r>
       <r>  -0.9279  1.0000</r>
       <r>  -0.7270  1.0000</r>
       <r>  -0.6529  1.0000</r>
       <r>  -0.6529  1.0000</r>
       <r>  -0.3281  1.0000</r>
       <r>   0.0384  1.0000</r>
       <r>   0.0384  1.0000</r>
       <r>   0.3781  1.0000</r>
       <r>   0.3781  1.0000</r>
       <r>   0.4167  1.0000</r>
       <r>   0.5818  1.0000</r>
       <r>   0.7709  1.0000</r>
       <r>   0.7709  1.0000</r>
       <r>   0.8104  1.0000</r>
       <r>   0.8104  1.0000</r>
       <r>   0.8579  1.0000</r>
       <r>   1.0163  1.0000</r>
       <r>   1.2877  1.0000</r>
       <r>   1.2877  1.0000</r>
       <r>   7.0535  0.0000</r>
       <r>   7.0535  0.0000</r>
       <r>   9.7227  0.0000</r>
       <r>   9.7227  0.0000</r>
       <r>   9.9963  0.0000</r>
       <r>   9.9963  0.0000</r>
       <r>  11.2954  0.0000</r>
       <r>  11.2954  0.0000</r>
       <r>  16.6269  0.0000</r>
       <r>  17.0387  0.0000</r>
      </set>
      <set comment="kpoint 7">
       <r>  -3.4508  1.0000</r>
       <r>  -2.7819  1.0000</r>
       <r>  -0.8389  1.0000</r>
       <r>  -0.8389  1.0000</r>
       <r>  -0.5966  1.0000</r>
       <r>  -0.4610  1.0000</r>
       <r>  -0.4592  1.0000</r>
       <r>  -0.4592  1.0000</r>
       <r>  -0.2281  1.0000</r>
       <r>  -0.2281  1.0000</r>
       <r>   0.3596  1.0000</r>
       <r>   0.3822  1.0000</r>
       <r>   0.5121  1.0000</r>
       <r>   0.5121  1.0000</r>
       <r>   0.6588  1.0000</r>
       <r>   0.6588  1.0000</r>
       <r>   0.6988  1.0000</r>
       <r>   0.6988  1.0000</r>
       <r>   0.9100  1.0000</r>
       <r>   0.9638  1.0000</r>
       <r>   1.2877  1.0000</r>
       <r>   1.2877  1.0000</r>
       <r>   7.9638  0.0000</r>
       <r>   7.9638  0.0000</r>
       <r>   8.9472  0.0000</r>
       <r>   8.9472  0.0000</r>
       <r>  10.1308  0.0000</r>
       <r>  10.1308  0.0000</r>
       <r>  10.6554  0.0000</r>
       <r>  10.6554  0.0000</r>
       <r>  17.9337  0.0000</r>
       <r>  17.9337  0.0000</r>
      </set>
      <set comment="kpoint 8">
       <r>  -5.5256  1.0000</r>
       <r>  -1.4248  1.0000</r>
       <r>  -1.4248  1.0000</r>
       <r>  -1.3953  1.0000</r>
       <r>  -1.0481  1.0000</r>
       <r>  -1.0481  1.0000</r>
       <r>  -1.0473  1.0000</r>
       <r>   0.0186  1.0000</r>
       <r>   0.0655  1.0000</r>
       <r>   0.0717  1.0000</r>
       <r>   0.6960  1.0000</r>
       <r>   0.7183  1.0000</r>
       <r>   1.1196  1.0000</r>
       <r>   1.1200  1.0000</r>
       <r>   1.1200  1.0000</r>
       <r>   1.1231  1.0000</r>
       <r>   1.1798  1.0000</r>
       <r>   1.1798  1.0000</r>
       <r>   1.2635  1.0000</r>
       <r>   1.2635  1.0000</r>
       <r>   1.2719  1.0000</r>
       <r>   4.0128  0.0000</r>
       <r>   4.0128  0.0000</r>
       <r>   4.6221  0.0000</r>
       <r>   8.9836  0.0000</r>
       <r>   9.5564  0.0000</r>
       <r>   9.5564  0.0000</r>
       <r>  13.4132  0.0000</r>
       <r>  14.4693  0.0000</r>
       <r>  14.4693  0.0000</r>
       <r>  14.6134  0.0000</r>
       <r>  14.6134  0.0000</r>
      </set>
      <set comment="kpoint 9">
       <r>  -5.3311  1.0000</r>
       <r>  -1.4405  1.0000</r>
       <r>  -1.3407  1.0000</r>
       <r>  -1.3150  1.0000</r>
       <r>  -1.0025  1.0000</r>
       <r>  -0.9987  1.0000</r>
       <r>  -0.9985  1.0000</r>
       <r>  -0.0264  1.0000</r>
       <r>   0.1032  1.0000</r>
       <r>   0.1096  1.0000</r>
       <r>   0.6570  1.0000</r>
       <r>   0.7351  1.0000</r>
       <r>   0.9046  1.0000</r>
       <r>   0.9048  1.0000</r>
       <r>   1.0450  1.0000</r>
       <r>   1.0670  1.0000</r>
       <r>   1.0921  1.0000</r>
       <r>   1.1518  1.0000</r>
       <r>   1.1951  1.0000</r>
       <r>   1.2634  1.0000</r>
       <r>   1.2637  1.0000</r>
       <r>   3.0590  0.0000</r>
       <r>   4.4126  0.0000</r>
       <r>   5.0251  0.0000</r>
       <r>   9.0707  0.0000</r>
       <r>   9.6668  0.0000</r>
       <r>  10.9410  0.0000</r>
       <r>  12.2531  0.0000</r>
       <r>  13.4660  0.0000</r>
       <r>  13.8584  0.0000</r>
       <r>  14.7299  0.0000</r>
       <r>  14.8085  0.0000</r>
      </set>
      <set comment="kpoint 10">
       <r>  -5.0107  1.0000</r>
       <r>  -1.5088  1.0000</r>
       <r>  -1.2126  1.0000</r>
       <r>  -1.1928  1.0000</r>
       <r>  -0.9293  1.0000</r>
       <r>  -0.9168  1.0000</r>
       <r>  -0.9157  1.0000</r>
       <r>  -0.1035  1.0000</r>
       <r>   0.1704  1.0000</r>
       <r>   0.1706  1.0000</r>
       <r>   0.5923  1.0000</r>
       <r>   0.6020  1.0000</r>
       <r>   0.6191  1.0000</r>
       <r>   0.7681  1.0000</r>
       <r>   0.9081  1.0000</r>
       <r>   0.9789  1.0000</r>
       <r>   0.9995  1.0000</r>
       <r>   1.0896  1.0000</r>
       <r>   1.1112  1.0000</r>
       <r>   1.2618  1.0000</r>
       <r>   1.2633  1.0000</r>
       <r>   2.0919  1.0000</r>
       <r>   4.9727  0.0000</r>
       <r>   5.6119  0.0000</r>
       <r>   9.2224  0.0000</r>
       <r>   9.8585  0.0000</r>
       <r>  11.1054  0.0000</r>
       <r>  12.3255  0.0000</r>
       <r>  12.6779  0.0000</r>
       <r>  12.9746  0.0000</r>
       <r>  14.0877  0.0000</r>
       <r>  15.1533  0.0000</r>
      </set>
      <set comment="kpoint 11">
       <r>  -4.5711  1.0000</r>
       <r>  -1.7092  1.0000</r>
       <r>  -1.0601  1.0000</r>
       <r>  -1.0468  1.0000</r>
       <r>  -0.8322  1.0000</r>
       <r>  -0.8026  1.0000</r>
       <r>  -0.7980  1.0000</r>
       <r>  -0.2053  1.0000</r>
       <r>   0.2472  1.0000</r>
       <r>   0.2632  1.0000</r>
       <r>   0.2918  1.0000</r>
       <r>   0.3183  1.0000</r>
       <r>   0.5198  1.0000</r>
       <r>   0.6887  1.0000</r>
       <r>   0.8125  1.0000</r>
       <r>   0.8704  1.0000</r>
       <r>   0.8873  1.0000</r>
       <r>   0.9574  1.0000</r>
       <r>   1.0490  1.0000</r>
       <r>   1.2615  1.0000</r>
       <r>   1.2631  1.0000</r>
       <r>   1.3794  1.0000</r>
       <r>   5.6375  0.0000</r>
       <r>   6.3297  0.0000</r>
       <r>   9.4469  0.0000</r>
       <r>  10.0196  0.0000</r>
       <r>  10.1421  0.0000</r>
       <r>  11.1814  0.0000</r>
       <r>  12.1189  0.0000</r>
       <r>  13.2318  0.0000</r>
       <r>  14.6112  0.0000</r>
       <r>  15.7253  0.0000</r>
      </set>
      <set comment="kpoint 12">
       <r>  -4.0246  1.0000</r>
       <r>  -2.1268  1.0000</r>
       <r>  -0.9146  1.0000</r>
       <r>  -0.9063  1.0000</r>
       <r>  -0.7165  1.0000</r>
       <r>  -0.6569  1.0000</r>
       <r>  -0.6445  1.0000</r>
       <r>  -0.3251  1.0000</r>
       <r>   0.0012  1.0000</r>
       <r>   0.0311  1.0000</r>
       <r>   0.3034  1.0000</r>
       <r>   0.3784  1.0000</r>
       <r>   0.4320  1.0000</r>
       <r>   0.4889  1.0000</r>
       <r>   0.7643  1.0000</r>
       <r>   0.7763  1.0000</r>
       <r>   0.8100  1.0000</r>
       <r>   0.8656  1.0000</r>
       <r>   0.9063  1.0000</r>
       <r>   1.0802  1.0000</r>
       <r>   1.2616  1.0000</r>
       <r>   1.2628  1.0000</r>
       <r>   6.3798  0.0000</r>
       <r>   7.1487  0.0000</r>
       <r>   8.9999  0.0000</r>
       <r>   9.7658  0.0000</r>
       <r>  10.0776  0.0000</r>
       <r>  10.5285  0.0000</r>
       <r>  11.3578  0.0000</r>
       <r>  12.4026  0.0000</r>
       <r>  16.4288  0.0000</r>
       <r>  16.5782  0.0000</r>
      </set>
      <set comment="kpoint 13">
       <r>  -3.3949  1.0000</r>
       <r>  -2.7306  1.0000</r>
       <r>  -0.8197  1.0000</r>
       <r>  -0.8163  1.0000</r>
       <r>  -0.5885  1.0000</r>
       <r>  -0.4770  1.0000</r>
       <r>  -0.4554  1.0000</r>
       <r>  -0.4546  1.0000</r>
       <r>  -0.2572  1.0000</r>
       <r>  -0.2286  1.0000</r>
       <r>   0.2904  1.0000</r>
       <r>   0.3008  1.0000</r>
       <r>   0.5121  1.0000</r>
       <r>   0.5720  1.0000</r>
       <r>   0.6585  1.0000</r>
       <r>   0.6967  1.0000</r>
       <r>   0.7013  1.0000</r>
       <r>   0.7202  1.0000</r>
       <r>   0.9253  1.0000</r>
       <r>   0.9910  1.0000</r>
       <r>   1.2620  1.0000</r>
       <r>   1.2624  1.0000</r>
       <r>   7.1882  0.0000</r>
       <r>   8.0526  0.0000</r>
       <r>   8.0606  0.0000</r>
       <r>   9.0315  0.0000</r>
       <r>  10.1778  0.0000</r>
       <r>  10.6973  0.0000</r>
       <r>  11.0462  0.0000</r>
       <r>  11.6638  0.0000</r>
       <r>  17.2456  0.0000</r>
       <r>  17.4447  0.0000</r>
      </set>
      <set comment="kpoint 14">
       <r>  -5.1386  1.0000</r>
       <r>  -1.3504  1.0000</r>
       <r>  -1.3504  1.0000</r>
       <r>  -1.2405  1.0000</r>
       <r>  -0.9556  1.0000</r>
       <r>  -0.9556  1.0000</r>
       <r>  -0.9539  1.0000</r>
       <r>  -0.0538  1.0000</r>
       <r>   0.1257  1.0000</r>
       <r>   0.1361  1.0000</r>
       <r>   0.6427  1.0000</r>
       <r>   0.7386  1.0000</r>
       <r>   0.7553  1.0000</r>
       <r>   0.7857  1.0000</r>
       <r>   0.7857  1.0000</r>
       <r>   1.0166  1.0000</r>
       <r>   1.0908  1.0000</r>
       <r>   1.0908  1.0000</r>
       <r>   1.1947  1.0000</r>
       <r>   1.1947  1.0000</r>
       <r>   1.2266  1.0000</r>
       <r>   3.4480  0.0000</r>
       <r>   3.4480  0.0000</r>
       <r>   5.3926  0.0000</r>
       <r>   9.1618  0.0000</r>
       <r>  10.9799  0.0000</r>
       <r>  11.0782  0.0000</r>
       <r>  11.0782  0.0000</r>
       <r>  13.7095  0.0000</r>
       <r>  13.7095  0.0000</r>
       <r>  14.0974  0.0000</r>
       <r>  14.0974  0.0000</r>
      </set>
      <set comment="kpoint 15">
       <r>  -4.8217  1.0000</r>
       <r>  -1.4081  1.0000</r>
       <r>  -1.2124  1.0000</r>
       <r>  -1.1268  1.0000</r>
       <r>  -0.8862  1.0000</r>
       <r>  -0.8797  1.0000</r>
       <r>  -0.8767  1.0000</r>
       <r>  -0.1164  1.0000</r>
       <r>   0.1766  1.0000</r>
       <r>   0.1824  1.0000</r>
       <r>   0.4790  1.0000</r>
       <r>   0.5266  1.0000</r>
       <r>   0.5955  1.0000</r>
       <r>   0.6104  1.0000</r>
       <r>   0.7745  1.0000</r>
       <r>   0.9369  1.0000</r>
       <r>   1.0026  1.0000</r>
       <r>   1.0625  1.0000</r>
       <r>   1.0887  1.0000</r>
       <r>   1.1939  1.0000</r>
       <r>   1.2051  1.0000</r>
       <r>   2.4913  1.0000</r>
       <r>   3.9639  0.0000</r>
       <r>   5.9428  0.0000</r>
       <r>   9.3143  0.0000</r>
       <r>   9.7875  0.0000</r>
       <r>  11.3116  0.0000</r>
       <r>  12.5619  0.0000</r>
       <r>  12.8279  0.0000</r>
       <r>  13.1919  0.0000</r>
       <r>  14.1048  0.0000</r>
       <r>  14.4871  0.0000</r>
      </set>
      <set comment="kpoint 16">
       <r>  -4.3874  1.0000</r>
       <r>  -1.5934  1.0000</r>
       <r>  -1.0462  1.0000</r>
       <r>  -0.9885  1.0000</r>
       <r>  -0.7944  1.0000</r>
       <r>  -0.7803  1.0000</r>
       <r>  -0.7650  1.0000</r>
       <r>  -0.2074  1.0000</r>
       <r>   0.1780  1.0000</r>
       <r>   0.2179  1.0000</r>
       <r>   0.2665  1.0000</r>
       <r>   0.2697  1.0000</r>
       <r>   0.3972  1.0000</r>
       <r>   0.5447  1.0000</r>
       <r>   0.8329  1.0000</r>
       <r>   0.8383  1.0000</r>
       <r>   0.8933  1.0000</r>
       <r>   0.9563  1.0000</r>
       <r>   1.0005  1.0000</r>
       <r>   1.1930  1.0000</r>
       <r>   1.1957  1.0000</r>
       <r>   1.7614  1.0000</r>
       <r>   4.5605  0.0000</r>
       <r>   6.6305  0.0000</r>
       <r>   8.6688  0.0000</r>
       <r>   9.5673  0.0000</r>
       <r>  11.4174  0.0000</r>
       <r>  11.6440  0.0000</r>
       <r>  12.3210  0.0000</r>
       <r>  14.6385  0.0000</r>
       <r>  14.7670  0.0000</r>
       <r>  14.8384  0.0000</r>
      </set>
      <set comment="kpoint 17">
       <r>  -3.8485  1.0000</r>
       <r>  -1.9935  1.0000</r>
       <r>  -0.8831  1.0000</r>
       <r>  -0.8463  1.0000</r>
       <r>  -0.6851  1.0000</r>
       <r>  -0.6658  1.0000</r>
       <r>  -0.6199  1.0000</r>
       <r>  -0.3179  1.0000</r>
       <r>  -0.0969  1.0000</r>
       <r>   0.0081  1.0000</r>
       <r>   0.2255  1.0000</r>
       <r>   0.2259  1.0000</r>
       <r>   0.3818  1.0000</r>
       <r>   0.5423  1.0000</r>
       <r>   0.7429  1.0000</r>
       <r>   0.7822  1.0000</r>
       <r>   0.8092  1.0000</r>
       <r>   0.8944  1.0000</r>
       <r>   0.9068  1.0000</r>
       <r>   1.1919  1.0000</r>
       <r>   1.1920  1.0000</r>
       <r>   1.3312  1.0000</r>
       <r>   5.2246  0.0000</r>
       <r>   7.4266  0.0000</r>
       <r>   7.6711  0.0000</r>
       <r>   9.8911  0.0000</r>
       <r>  10.3179  0.0000</r>
       <r>  11.5206  0.0000</r>
       <r>  12.1089  0.0000</r>
       <r>  14.0665  0.0000</r>
       <r>  15.2956  0.0000</r>
       <r>  15.6740  0.0000</r>
      </set>
      <set comment="kpoint 18">
       <r>  -3.2296  1.0000</r>
       <r>  -2.5798  1.0000</r>
       <r>  -0.7679  1.0000</r>
       <r>  -0.7509  1.0000</r>
       <r>  -0.5645  1.0000</r>
       <r>  -0.5281  1.0000</r>
       <r>  -0.4414  1.0000</r>
       <r>  -0.4395  1.0000</r>
       <r>  -0.3361  1.0000</r>
       <r>  -0.2307  1.0000</r>
       <r>   0.1667  1.0000</r>
       <r>   0.1897  1.0000</r>
       <r>   0.5133  1.0000</r>
       <r>   0.6205  1.0000</r>
       <r>   0.6583  1.0000</r>
       <r>   0.6868  1.0000</r>
       <r>   0.7017  1.0000</r>
       <r>   0.7520  1.0000</r>
       <r>   0.9970  1.0000</r>
       <r>   1.1183  1.0000</r>
       <r>   1.1909  1.0000</r>
       <r>   1.1912  1.0000</r>
       <r>   5.9582  0.0000</r>
       <r>   6.7700  0.0000</r>
       <r>   8.3134  0.0000</r>
       <r>   9.2800  0.0000</r>
       <r>  10.3197  0.0000</r>
       <r>  10.8623  0.0000</r>
       <r>  12.6598  0.0000</r>
       <r>  13.3210  0.0000</r>
       <r>  16.0616  0.0000</r>
       <r>  16.4484  0.0000</r>
      </set>
      <set comment="kpoint 19">
       <r>  -4.5110  1.0000</r>
       <r>  -1.2528  1.0000</r>
       <r>  -1.2528  1.0000</r>
       <r>  -1.0278  1.0000</r>
       <r>  -0.8173  1.0000</r>
       <r>  -0.8140  1.0000</r>
       <r>  -0.8140  1.0000</r>
       <r>  -0.1543  1.0000</r>
       <r>   0.1870  1.0000</r>
       <r>   0.2208  1.0000</r>
       <r>   0.3084  1.0000</r>
       <r>   0.3084  1.0000</r>
       <r>   0.3724  1.0000</r>
       <r>   0.5707  1.0000</r>
       <r>   0.8184  1.0000</r>
       <r>   0.8693  1.0000</r>
       <r>   0.9810  1.0000</r>
       <r>   0.9810  1.0000</r>
       <r>   1.0874  1.0000</r>
       <r>   1.0874  1.0000</r>
       <r>   1.1523  1.0000</r>
       <r>   2.9720  0.0000</r>
       <r>   2.9720  0.0000</r>
       <r>   6.4518  0.0000</r>
       <r>   8.5409  0.0000</r>
       <r>   9.5046  0.0000</r>
       <r>  12.9459  0.0000</r>
       <r>  12.9459  0.0000</r>
       <r>  13.0776  0.0000</r>
       <r>  13.0776  0.0000</r>
       <r>  13.5497  0.0000</r>
       <r>  13.5497  0.0000</r>
      </set>
      <set comment="kpoint 20">
       <r>  -4.0862  1.0000</r>
       <r>  -1.4143  1.0000</r>
       <r>  -1.0632  1.0000</r>
       <r>  -0.9077  1.0000</r>
       <r>  -0.7361  1.0000</r>
       <r>  -0.7313  1.0000</r>
       <r>  -0.7123  1.0000</r>
       <r>  -0.2217  1.0000</r>
       <r>   0.0302  1.0000</r>
       <r>   0.1369  1.0000</r>
       <r>   0.1767  1.0000</r>
       <r>   0.1921  1.0000</r>
       <r>   0.2929  1.0000</r>
       <r>   0.5346  1.0000</r>
       <r>   0.7846  1.0000</r>
       <r>   0.8773  1.0000</r>
       <r>   0.8992  1.0000</r>
       <r>   0.9234  1.0000</r>
       <r>   0.9551  1.0000</r>
       <r>   1.0861  1.0000</r>
       <r>   1.1178  1.0000</r>
       <r>   2.1799  1.0000</r>
       <r>   3.5115  0.0000</r>
       <r>   7.1026  0.0000</r>
       <r>   7.4298  0.0000</r>
       <r>   9.7569  0.0000</r>
       <r>  11.8006  0.0000</r>
       <r>  12.6329  0.0000</r>
       <r>  13.4474  0.0000</r>
       <r>  13.4651  0.0000</r>
       <r>  14.0321  0.0000</r>
       <r>  15.0289  0.0000</r>
      </set>
      <set comment="kpoint 21">
       <r>  -3.5613  1.0000</r>
       <r>  -1.7853  1.0000</r>
       <r>  -0.8705  1.0000</r>
       <r>  -0.7722  1.0000</r>
       <r>  -0.6615  1.0000</r>
       <r>  -0.6334  1.0000</r>
       <r>  -0.5812  1.0000</r>
       <r>  -0.3122  1.0000</r>
       <r>  -0.2164  1.0000</r>
       <r>  -0.0334  1.0000</r>
       <r>   0.0407  1.0000</r>
       <r>   0.1666  1.0000</r>
       <r>   0.3947  1.0000</r>
       <r>   0.5349  1.0000</r>
       <r>   0.7030  1.0000</r>
       <r>   0.7688  1.0000</r>
       <r>   0.8090  1.0000</r>
       <r>   0.8269  1.0000</r>
       <r>   1.0066  1.0000</r>
       <r>   1.0854  1.0000</r>
       <r>   1.0990  1.0000</r>
       <r>   1.6497  1.0000</r>
       <r>   4.1134  0.0000</r>
       <r>   6.4366  0.0000</r>
       <r>   7.8685  0.0000</r>
       <r>  10.1052  0.0000</r>
       <r>  10.7072  0.0000</r>
       <r>  11.8235  0.0000</r>
       <r>  13.9135  0.0000</r>
       <r>  14.1063  0.0000</r>
       <r>  14.6425  0.0000</r>
       <r>  15.8422  0.0000</r>
      </set>
      <set comment="kpoint 22">
       <r>  -2.9626  1.0000</r>
       <r>  -2.3400  1.0000</r>
       <r>  -0.7173  1.0000</r>
       <r>  -0.6519  1.0000</r>
       <r>  -0.6058  1.0000</r>
       <r>  -0.5262  1.0000</r>
       <r>  -0.4296  1.0000</r>
       <r>  -0.4218  1.0000</r>
       <r>  -0.4166  1.0000</r>
       <r>  -0.2370  1.0000</r>
       <r>   0.0450  1.0000</r>
       <r>   0.1049  1.0000</r>
       <r>   0.5197  1.0000</r>
       <r>   0.5981  1.0000</r>
       <r>   0.6601  1.0000</r>
       <r>   0.6606  1.0000</r>
       <r>   0.6850  1.0000</r>
       <r>   0.7069  1.0000</r>
       <r>   1.0861  1.0000</r>
       <r>   1.0897  1.0000</r>
       <r>   1.1435  1.0000</r>
       <r>   1.3359  1.0000</r>
       <r>   4.7908  0.0000</r>
       <r>   5.5602  0.0000</r>
       <r>   8.7319  0.0000</r>
       <r>   9.6811  0.0000</r>
       <r>  10.5597  0.0000</r>
       <r>  11.1307  0.0000</r>
       <r>  14.4849  0.0000</r>
       <r>  14.8572  0.0000</r>
       <r>  15.1441  0.0000</r>
       <r>  15.3681  0.0000</r>
      </set>
      <set comment="kpoint 23">
       <r>  -3.6764  1.0000</r>
       <r>  -1.1944  1.0000</r>
       <r>  -1.1944  1.0000</r>
       <r>  -0.8257  1.0000</r>
       <r>  -0.6660  1.0000</r>
       <r>  -0.6434  1.0000</r>
       <r>  -0.6434  1.0000</r>
       <r>  -0.2573  1.0000</r>
       <r>  -0.0887  1.0000</r>
       <r>  -0.0887  1.0000</r>
       <r>   0.0519  1.0000</r>
       <r>   0.1674  1.0000</r>
       <r>   0.3439  1.0000</r>
       <r>   0.5006  1.0000</r>
       <r>   0.7142  1.0000</r>
       <r>   0.8252  1.0000</r>
       <r>   0.8252  1.0000</r>
       <r>   0.9546  1.0000</r>
       <r>   0.9546  1.0000</r>
       <r>   1.0103  1.0000</r>
       <r>   1.0515  1.0000</r>
       <r>   2.6436  1.0000</r>
       <r>   2.6436  1.0000</r>
       <r>   6.3161  0.0000</r>
       <r>   7.7175  0.0000</r>
       <r>  10.0365  0.0000</r>
       <r>  12.3188  0.0000</r>
       <r>  12.3188  0.0000</r>
       <r>  13.0863  0.0000</r>
       <r>  13.0863  0.0000</r>
       <r>  15.3974  0.0000</r>
       <r>  15.3974  0.0000</r>
      </set>
      <set comment="kpoint 24">
       <r>  -3.1743  1.0000</r>
       <r>  -1.5263  1.0000</r>
       <r>  -0.9696  1.0000</r>
       <r>  -0.7547  1.0000</r>
       <r>  -0.5883  1.0000</r>
       <r>  -0.5629  1.0000</r>
       <r>  -0.5318  1.0000</r>
       <r>  -0.3158  1.0000</r>
       <r>  -0.2772  1.0000</r>
       <r>  -0.1121  1.0000</r>
       <r>  -0.0959  1.0000</r>
       <r>   0.1218  1.0000</r>
       <r>   0.4268  1.0000</r>
       <r>   0.4894  1.0000</r>
       <r>   0.6446  1.0000</r>
       <r>   0.7215  1.0000</r>
       <r>   0.7360  1.0000</r>
       <r>   0.8115  1.0000</r>
       <r>   0.9565  1.0000</r>
       <r>   1.0055  1.0000</r>
       <r>   1.1556  1.0000</r>
       <r>   2.0147  1.0000</r>
       <r>   3.1689  0.0000</r>
       <r>   5.3377  0.0000</r>
       <r>   8.4524  0.0000</r>
       <r>  10.4150  0.0000</r>
       <r>  11.2326  0.0000</r>
       <r>  12.2384  0.0000</r>
       <r>  12.9591  0.0000</r>
       <r>  13.6563  0.0000</r>
       <r>  15.5122  0.0000</r>
       <r>  15.8711  0.0000</r>
      </set>
      <set comment="kpoint 25">
       <r>  -2.6087  1.0000</r>
       <r>  -2.0313  1.0000</r>
       <r>  -0.7915  1.0000</r>
       <r>  -0.7198  1.0000</r>
       <r>  -0.5215  1.0000</r>
       <r>  -0.4766  1.0000</r>
       <r>  -0.4244  1.0000</r>
       <r>  -0.3991  1.0000</r>
       <r>  -0.3916  1.0000</r>
       <r>  -0.2508  1.0000</r>
       <r>  -0.0513  1.0000</r>
       <r>   0.0412  1.0000</r>
       <r>   0.5348  1.0000</r>
       <r>   0.5376  1.0000</r>
       <r>   0.6099  1.0000</r>
       <r>   0.6277  1.0000</r>
       <r>   0.6388  1.0000</r>
       <r>   0.6689  1.0000</r>
       <r>   0.9631  1.0000</r>
       <r>   0.9778  1.0000</r>
       <r>   1.3425  1.0000</r>
       <r>   1.6060  1.0000</r>
       <r>   3.7781  0.0000</r>
       <r>   4.4949  0.0000</r>
       <r>   9.2905  0.0000</r>
       <r>  10.2203  0.0000</r>
       <r>  10.9028  0.0000</r>
       <r>  11.5091  0.0000</r>
       <r>  13.7102  0.0000</r>
       <r>  14.3421  0.0000</r>
       <r>  14.5633  0.0000</r>
       <r>  15.1412  0.0000</r>
      </set>
      <set comment="kpoint 26">
       <r>  -2.7073  1.0000</r>
       <r>  -1.2549  1.0000</r>
       <r>  -1.2549  1.0000</r>
       <r>  -0.7882  1.0000</r>
       <r>  -0.4808  1.0000</r>
       <r>  -0.4762  1.0000</r>
       <r>  -0.4762  1.0000</r>
       <r>  -0.3350  1.0000</r>
       <r>  -0.2291  1.0000</r>
       <r>  -0.2291  1.0000</r>
       <r>  -0.1787  1.0000</r>
       <r>   0.0712  1.0000</r>
       <r>   0.4530  1.0000</r>
       <r>   0.4859  1.0000</r>
       <r>   0.5801  1.0000</r>
       <r>   0.6394  1.0000</r>
       <r>   0.6394  1.0000</r>
       <r>   0.8199  1.0000</r>
       <r>   0.8199  1.0000</r>
       <r>   0.9280  1.0000</r>
       <r>   1.3450  1.0000</r>
       <r>   2.4419  1.0000</r>
       <r>   2.4419  1.0000</r>
       <r>   4.3908  0.0000</r>
       <r>   9.1588  0.0000</r>
       <r>  10.8286  0.0000</r>
       <r>  11.8809  0.0000</r>
       <r>  11.8809  0.0000</r>
       <r>  12.7694  0.0000</r>
       <r>  12.7694  0.0000</r>
       <r>  14.4614  0.0000</r>
       <r>  15.0600  0.0000</r>
      </set>
      <set comment="kpoint 27">
       <r>  -2.1939  1.0000</r>
       <r>  -1.6868  1.0000</r>
       <r>  -1.0218  1.0000</r>
       <r>  -0.8675  1.0000</r>
       <r>  -0.4204  1.0000</r>
       <r>  -0.3890  1.0000</r>
       <r>  -0.3781  1.0000</r>
       <r>  -0.3712  1.0000</r>
       <r>  -0.3146  1.0000</r>
       <r>  -0.2758  1.0000</r>
       <r>  -0.1231  1.0000</r>
       <r>  -0.0118  1.0000</r>
       <r>   0.4696  1.0000</r>
       <r>   0.5424  1.0000</r>
       <r>   0.5428  1.0000</r>
       <r>   0.5642  1.0000</r>
       <r>   0.5746  1.0000</r>
       <r>   0.6888  1.0000</r>
       <r>   0.8385  1.0000</r>
       <r>   0.8728  1.0000</r>
       <r>   1.5896  1.0000</r>
       <r>   1.9331  1.0000</r>
       <r>   2.9598  0.0000</r>
       <r>   3.6012  0.0000</r>
       <r>   9.9727  0.0000</r>
       <r>  10.8828  0.0000</r>
       <r>  11.3549  0.0000</r>
       <r>  12.0008  0.0000</r>
       <r>  12.6405  0.0000</r>
       <r>  13.4168  0.0000</r>
       <r>  13.5028  0.0000</r>
       <r>  14.1806  0.0000</r>
      </set>
      <set comment="kpoint 28">
       <r>  -1.7582  1.0000</r>
       <r>  -1.3528  1.0000</r>
       <r>  -1.3528  1.0000</r>
       <r>  -1.0740  1.0000</r>
       <r>  -0.3640  1.0000</r>
       <r>  -0.3640  1.0000</r>
       <r>  -0.3611  1.0000</r>
       <r>  -0.3141  1.0000</r>
       <r>  -0.2720  1.0000</r>
       <r>  -0.1871  1.0000</r>
       <r>  -0.1871  1.0000</r>
       <r>  -0.0812  1.0000</r>
       <r>   0.4453  1.0000</r>
       <r>   0.4853  1.0000</r>
       <r>   0.4853  1.0000</r>
       <r>   0.4873  1.0000</r>
       <r>   0.6370  1.0000</r>
       <r>   0.7265  1.0000</r>
       <r>   0.7265  1.0000</r>
       <r>   0.7873  1.0000</r>
       <r>   1.9084  1.0000</r>
       <r>   2.3466  1.0000</r>
       <r>   2.3466  1.0000</r>
       <r>   2.8899  0.0000</r>
       <r>  10.7647  0.0000</r>
       <r>  11.6565  0.0000</r>
       <r>  11.6565  0.0000</r>
       <r>  11.9219  0.0000</r>
       <r>  12.5321  0.0000</r>
       <r>  12.6086  0.0000</r>
       <r>  12.6086  0.0000</r>
       <r>  13.3351  0.0000</r>
      </set>
      <set comment="kpoint 29">
       <r>  -5.4606  1.0000</r>
       <r>  -1.3963  1.0000</r>
       <r>  -1.3963  1.0000</r>
       <r>  -1.3963  1.0000</r>
       <r>  -1.0321  1.0000</r>
       <r>  -1.0321  1.0000</r>
       <r>  -1.0321  1.0000</r>
       <r>   0.0099  1.0000</r>
       <r>   0.0776  1.0000</r>
       <r>   0.0776  1.0000</r>
       <r>   0.7038  1.0000</r>
       <r>   0.7038  1.0000</r>
       <r>   1.0879  1.0000</r>
       <r>   1.0879  1.0000</r>
       <r>   1.0879  1.0000</r>
       <r>   1.1069  1.0000</r>
       <r>   1.1069  1.0000</r>
       <r>   1.1069  1.0000</r>
       <r>   1.2593  1.0000</r>
       <r>   1.2593  1.0000</r>
       <r>   1.2593  1.0000</r>
       <r>   4.1546  0.0000</r>
       <r>   4.1546  0.0000</r>
       <r>   4.1546  0.0000</r>
       <r>   9.5930  0.0000</r>
       <r>   9.5930  0.0000</r>
       <r>   9.5930  0.0000</r>
       <r>  13.4959  0.0000</r>
       <r>  13.4959  0.0000</r>
       <r>  13.4959  0.0000</r>
       <r>  15.1173  0.0000</r>
       <r>  15.1173  0.0000</r>
      </set>
      <set comment="kpoint 30">
       <r>  -5.2668  1.0000</r>
       <r>  -1.4103  1.0000</r>
       <r>  -1.3145  1.0000</r>
       <r>  -1.3145  1.0000</r>
       <r>  -0.9873  1.0000</r>
       <r>  -0.9840  1.0000</r>
       <r>  -0.9840  1.0000</r>
       <r>  -0.0311  1.0000</r>
       <r>   0.1102  1.0000</r>
       <r>   0.1135  1.0000</r>
       <r>   0.6623  1.0000</r>
       <r>   0.7268  1.0000</r>
       <r>   0.8632  1.0000</r>
       <r>   0.8632  1.0000</r>
       <r>   0.9919  1.0000</r>
       <r>   1.0565  1.0000</r>
       <r>   1.0565  1.0000</r>
       <r>   1.0569  1.0000</r>
       <r>   1.2254  1.0000</r>
       <r>   1.2522  1.0000</r>
       <r>   1.2522  1.0000</r>
       <r>   3.1998  0.0000</r>
       <r>   4.5355  0.0000</r>
       <r>   4.5355  0.0000</r>
       <r>   9.7051  0.0000</r>
       <r>   9.7051  0.0000</r>
       <r>  10.9866  0.0000</r>
       <r>  12.3321  0.0000</r>
       <r>  12.3321  0.0000</r>
       <r>  13.7406  0.0000</r>
       <r>  14.8941  0.0000</r>
       <r>  14.8941  0.0000</r>
      </set>
      <set comment="kpoint 31">
       <r>  -4.9477  1.0000</r>
       <r>  -1.4755  1.0000</r>
       <r>  -1.1896  1.0000</r>
       <r>  -1.1896  1.0000</r>
       <r>  -0.9151  1.0000</r>
       <r>  -0.9036  1.0000</r>
       <r>  -0.9036  1.0000</r>
       <r>  -0.1050  1.0000</r>
       <r>   0.1699  1.0000</r>
       <r>   0.1728  1.0000</r>
       <r>   0.5755  1.0000</r>
       <r>   0.5755  1.0000</r>
       <r>   0.6013  1.0000</r>
       <r>   0.7637  1.0000</r>
       <r>   0.8256  1.0000</r>
       <r>   0.9732  1.0000</r>
       <r>   0.9748  1.0000</r>
       <r>   0.9748  1.0000</r>
       <r>   1.1784  1.0000</r>
       <r>   1.2466  1.0000</r>
       <r>   1.2466  1.0000</r>
       <r>   2.2415  1.0000</r>
       <r>   5.0782  0.0000</r>
       <r>   5.0782  0.0000</r>
       <r>   9.8996  0.0000</r>
       <r>   9.8996  0.0000</r>
       <r>  11.1823  0.0000</r>
       <r>  11.1823  0.0000</r>
       <r>  12.7277  0.0000</r>
       <r>  14.1383  0.0000</r>
       <r>  14.1648  0.0000</r>
       <r>  14.1648  0.0000</r>
      </set>
      <set comment="kpoint 32">
       <r>  -4.5098  1.0000</r>
       <r>  -1.6711  1.0000</r>
       <r>  -1.0399  1.0000</r>
       <r>  -1.0399  1.0000</r>
       <r>  -0.8194  1.0000</r>
       <r>  -0.7914  1.0000</r>
       <r>  -0.7914  1.0000</r>
       <r>  -0.2041  1.0000</r>
       <r>   0.2408  1.0000</r>
       <r>   0.2542  1.0000</r>
       <r>   0.2782  1.0000</r>
       <r>   0.2782  1.0000</r>
       <r>   0.5410  1.0000</r>
       <r>   0.5866  1.0000</r>
       <r>   0.8122  1.0000</r>
       <r>   0.8622  1.0000</r>
       <r>   0.8702  1.0000</r>
       <r>   0.8702  1.0000</r>
       <r>   1.1233  1.0000</r>
       <r>   1.2434  1.0000</r>
       <r>   1.2434  1.0000</r>
       <r>   1.5164  1.0000</r>
       <r>   5.7293  0.0000</r>
       <r>   5.7293  0.0000</r>
       <r>  10.0944  0.0000</r>
       <r>  10.0944  0.0000</r>
       <r>  10.1871  0.0000</r>
       <r>  10.1871  0.0000</r>
       <r>  13.3023  0.0000</r>
       <r>  13.3023  0.0000</r>
       <r>  14.6620  0.0000</r>
       <r>  14.6771  0.0000</r>
      </set>
      <set comment="kpoint 33">
       <r>  -3.9659  1.0000</r>
       <r>  -2.0829  1.0000</r>
       <r>  -0.8939  1.0000</r>
       <r>  -0.8939  1.0000</r>
       <r>  -0.7054  1.0000</r>
       <r>  -0.6506  1.0000</r>
       <r>  -0.6506  1.0000</r>
       <r>  -0.3212  1.0000</r>
       <r>  -0.0013  1.0000</r>
       <r>  -0.0013  1.0000</r>
       <r>   0.2768  1.0000</r>
       <r>   0.3554  1.0000</r>
       <r>   0.3561  1.0000</r>
       <r>   0.5399  1.0000</r>
       <r>   0.7347  1.0000</r>
       <r>   0.7651  1.0000</r>
       <r>   0.7651  1.0000</r>
       <r>   0.8695  1.0000</r>
       <r>   1.0624  1.0000</r>
       <r>   1.0856  1.0000</r>
       <r>   1.2417  1.0000</r>
       <r>   1.2417  1.0000</r>
       <r>   6.4599  0.0000</r>
       <r>   6.4599  0.0000</r>
       <r>   9.0834  0.0000</r>
       <r>   9.0834  0.0000</r>
       <r>  10.5791  0.0000</r>
       <r>  10.5791  0.0000</r>
       <r>  12.4682  0.0000</r>
       <r>  12.4682  0.0000</r>
       <r>  15.3386  0.0000</r>
       <r>  16.7348  0.0000</r>
      </set>
      <set comment="kpoint 34">
       <r>  -3.3400  1.0000</r>
       <r>  -2.6806  1.0000</r>
       <r>  -0.7970  1.0000</r>
       <r>  -0.7970  1.0000</r>
       <r>  -0.5796  1.0000</r>
       <r>  -0.4852  1.0000</r>
       <r>  -0.4852  1.0000</r>
       <r>  -0.4489  1.0000</r>
       <r>  -0.2432  1.0000</r>
       <r>  -0.2432  1.0000</r>
       <r>   0.2521  1.0000</r>
       <r>   0.2533  1.0000</r>
       <r>   0.4731  1.0000</r>
       <r>   0.6019  1.0000</r>
       <r>   0.6466  1.0000</r>
       <r>   0.6953  1.0000</r>
       <r>   0.6953  1.0000</r>
       <r>   0.8262  1.0000</r>
       <r>   0.9326  1.0000</r>
       <r>   0.9979  1.0000</r>
       <r>   1.2410  1.0000</r>
       <r>   1.2410  1.0000</r>
       <r>   7.2492  0.0000</r>
       <r>   7.2492  0.0000</r>
       <r>   8.1576  0.0000</r>
       <r>   8.1576  0.0000</r>
       <r>  11.0834  0.0000</r>
       <r>  11.0834  0.0000</r>
       <r>  11.7282  0.0000</r>
       <r>  11.7282  0.0000</r>
       <r>  16.1132  0.0000</r>
       <r>  16.9874  0.0000</r>
      </set>
      <set comment="kpoint 35">
       <r>  -5.0752  1.0000</r>
       <r>  -1.3232  1.0000</r>
       <r>  -1.3232  1.0000</r>
       <r>  -1.2391  1.0000</r>
       <r>  -0.9412  1.0000</r>
       <r>  -0.9412  1.0000</r>
       <r>  -0.9398  1.0000</r>
       <r>  -0.0570  1.0000</r>
       <r>   0.1311  1.0000</r>
       <r>   0.1373  1.0000</r>
       <r>   0.6558  1.0000</r>
       <r>   0.7180  1.0000</r>
       <r>   0.7264  1.0000</r>
       <r>   0.7482  1.0000</r>
       <r>   0.7482  1.0000</r>
       <r>   0.9879  1.0000</r>
       <r>   1.0130  1.0000</r>
       <r>   1.0130  1.0000</r>
       <r>   1.2222  1.0000</r>
       <r>   1.2222  1.0000</r>
       <r>   1.2300  1.0000</r>
       <r>   3.5617  0.0000</r>
       <r>   3.5617  0.0000</r>
       <r>   4.8757  0.0000</r>
       <r>   9.8222  0.0000</r>
       <r>  11.0573  0.0000</r>
       <r>  11.1248  0.0000</r>
       <r>  11.1248  0.0000</r>
       <r>  12.5661  0.0000</r>
       <r>  12.5661  0.0000</r>
       <r>  15.1481  0.0000</r>
       <r>  15.1481  0.0000</r>
      </set>
      <set comment="kpoint 36">
       <r>  -4.7597  1.0000</r>
       <r>  -1.3793  1.0000</r>
       <r>  -1.1902  1.0000</r>
       <r>  -1.1245  1.0000</r>
       <r>  -0.8722  1.0000</r>
       <r>  -0.8664  1.0000</r>
       <r>  -0.8642  1.0000</r>
       <r>  -0.1164  1.0000</r>
       <r>   0.1755  1.0000</r>
       <r>   0.1808  1.0000</r>
       <r>   0.4577  1.0000</r>
       <r>   0.4899  1.0000</r>
       <r>   0.5713  1.0000</r>
       <r>   0.6127  1.0000</r>
       <r>   0.7659  1.0000</r>
       <r>   0.9117  1.0000</r>
       <r>   0.9291  1.0000</r>
       <r>   0.9485  1.0000</r>
       <r>   1.1791  1.0000</r>
       <r>   1.2069  1.0000</r>
       <r>   1.2091  1.0000</r>
       <r>   2.5948  1.0000</r>
       <r>   4.0564  0.0000</r>
       <r>   5.3768  0.0000</r>
       <r>   9.8569  0.0000</r>
       <r>  10.0270  0.0000</r>
       <r>  11.3451  0.0000</r>
       <r>  11.4259  0.0000</r>
       <r>  12.8678  0.0000</r>
       <r>  12.9562  0.0000</r>
       <r>  14.3938  0.0000</r>
       <r>  15.5540  0.0000</r>
      </set>
      <set comment="kpoint 37">
       <r>  -4.3275  1.0000</r>
       <r>  -1.5613  1.0000</r>
       <r>  -1.0298  1.0000</r>
       <r>  -0.9851  1.0000</r>
       <r>  -0.7807  1.0000</r>
       <r>  -0.7689  1.0000</r>
       <r>  -0.7577  1.0000</r>
       <r>  -0.2041  1.0000</r>
       <r>   0.1717  1.0000</r>
       <r>   0.2149  1.0000</r>
       <r>   0.2348  1.0000</r>
       <r>   0.2535  1.0000</r>
       <r>   0.3596  1.0000</r>
       <r>   0.5743  1.0000</r>
       <r>   0.8164  1.0000</r>
       <r>   0.8216  1.0000</r>
       <r>   0.8271  1.0000</r>
       <r>   0.8572  1.0000</r>
       <r>   1.1201  1.0000</r>
       <r>   1.1942  1.0000</r>
       <r>   1.1942  1.0000</r>
       <r>   1.8374  1.0000</r>
       <r>   4.6382  0.0000</r>
       <r>   5.9908  0.0000</r>
       <r>   8.7611  0.0000</r>
       <r>  10.3184  0.0000</r>
       <r>  10.3240  0.0000</r>
       <r>  11.7015  0.0000</r>
       <r>  13.4594  0.0000</r>
       <r>  13.5127  0.0000</r>
       <r>  14.8193  0.0000</r>
       <r>  14.9101  0.0000</r>
      </set>
      <set comment="kpoint 38">
       <r>  -3.7919  1.0000</r>
       <r>  -1.9554  1.0000</r>
       <r>  -0.8682  1.0000</r>
       <r>  -0.8389  1.0000</r>
       <r>  -0.6721  1.0000</r>
       <r>  -0.6629  1.0000</r>
       <r>  -0.6299  1.0000</r>
       <r>  -0.3114  1.0000</r>
       <r>  -0.0855  1.0000</r>
       <r>  -0.0110  1.0000</r>
       <r>   0.1977  1.0000</r>
       <r>   0.2173  1.0000</r>
       <r>   0.3428  1.0000</r>
       <r>   0.5994  1.0000</r>
       <r>   0.6906  1.0000</r>
       <r>   0.7310  1.0000</r>
       <r>   0.7578  1.0000</r>
       <r>   0.9016  1.0000</r>
       <r>   1.0328  1.0000</r>
       <r>   1.1858  1.0000</r>
       <r>   1.1864  1.0000</r>
       <r>   1.3527  1.0000</r>
       <r>   5.2907  0.0000</r>
       <r>   6.6730  0.0000</r>
       <r>   7.7880  0.0000</r>
       <r>   9.3092  0.0000</r>
       <r>  10.7296  0.0000</r>
       <r>  12.1438  0.0000</r>
       <r>  12.6686  0.0000</r>
       <r>  14.0966  0.0000</r>
       <r>  14.1323  0.0000</r>
       <r>  16.6432  0.0000</r>
      </set>
      <set comment="kpoint 39">
       <r>  -3.1777  1.0000</r>
       <r>  -2.5343  1.0000</r>
       <r>  -0.7468  1.0000</r>
       <r>  -0.7311  1.0000</r>
       <r>  -0.5596  1.0000</r>
       <r>  -0.5529  1.0000</r>
       <r>  -0.5152  1.0000</r>
       <r>  -0.4303  1.0000</r>
       <r>  -0.2726  1.0000</r>
       <r>  -0.2176  1.0000</r>
       <r>   0.1479  1.0000</r>
       <r>   0.1762  1.0000</r>
       <r>   0.4471  1.0000</r>
       <r>   0.5647  1.0000</r>
       <r>   0.6745  1.0000</r>
       <r>   0.6848  1.0000</r>
       <r>   0.7142  1.0000</r>
       <r>   0.8846  1.0000</r>
       <r>   0.9886  1.0000</r>
       <r>   1.1067  1.0000</r>
       <r>   1.1823  1.0000</r>
       <r>   1.1826  1.0000</r>
       <r>   6.0111  0.0000</r>
       <r>   6.7747  0.0000</r>
       <r>   7.5714  0.0000</r>
       <r>   8.3840  0.0000</r>
       <r>  11.2521  0.0000</r>
       <r>  11.8930  0.0000</r>
       <r>  12.7203  0.0000</r>
       <r>  13.3826  0.0000</r>
       <r>  14.8448  0.0000</r>
       <r>  15.6957  0.0000</r>
      </set>
      <set comment="kpoint 40">
       <r>  -4.4508  1.0000</r>
       <r>  -1.2323  1.0000</r>
       <r>  -1.2323  1.0000</r>
       <r>  -1.0280  1.0000</r>
       <r>  -0.8034  1.0000</r>
       <r>  -0.8002  1.0000</r>
       <r>  -0.8002  1.0000</r>
       <r>  -0.1510  1.0000</r>
       <r>   0.1854  1.0000</r>
       <r>   0.2109  1.0000</r>
       <r>   0.2923  1.0000</r>
       <r>   0.2923  1.0000</r>
       <r>   0.3432  1.0000</r>
       <r>   0.5969  1.0000</r>
       <r>   0.8083  1.0000</r>
       <r>   0.8333  1.0000</r>
       <r>   0.8819  1.0000</r>
       <r>   0.8819  1.0000</r>
       <r>   1.1524  1.0000</r>
       <r>   1.1524  1.0000</r>
       <r>   1.1685  1.0000</r>
       <r>   3.0498  0.0000</r>
       <r>   3.0498  0.0000</r>
       <r>   5.8275  0.0000</r>
       <r>   8.6373  0.0000</r>
       <r>  10.2420  0.0000</r>
       <r>  11.7772  0.0000</r>
       <r>  11.7772  0.0000</r>
       <r>  13.1348  0.0000</r>
       <r>  13.1348  0.0000</r>
       <r>  14.7682  0.0000</r>
       <r>  14.7682  0.0000</r>
      </set>
      <set comment="kpoint 41">
       <r>  -4.0289  1.0000</r>
       <r>  -1.3936  1.0000</r>
       <r>  -1.0550  1.0000</r>
       <r>  -0.9131  1.0000</r>
       <r>  -0.7218  1.0000</r>
       <r>  -0.7153  1.0000</r>
       <r>  -0.7006  1.0000</r>
       <r>  -0.2143  1.0000</r>
       <r>   0.0335  1.0000</r>
       <r>   0.1269  1.0000</r>
       <r>   0.1578  1.0000</r>
       <r>   0.1899  1.0000</r>
       <r>   0.2665  1.0000</r>
       <r>   0.5758  1.0000</r>
       <r>   0.7512  1.0000</r>
       <r>   0.7787  1.0000</r>
       <r>   0.8106  1.0000</r>
       <r>   0.8893  1.0000</r>
       <r>   1.0818  1.0000</r>
       <r>   1.1246  1.0000</r>
       <r>   1.1345  1.0000</r>
       <r>   2.2329  1.0000</r>
       <r>   3.5742  0.0000</r>
       <r>   6.3701  0.0000</r>
       <r>   7.5622  0.0000</r>
       <r>  10.5583  0.0000</r>
       <r>  10.6820  0.0000</r>
       <r>  12.2788  0.0000</r>
       <r>  13.4922  0.0000</r>
       <r>  13.8606  0.0000</r>
       <r>  15.0813  0.0000</r>
       <r>  15.2793  0.0000</r>
      </set>
      <set comment="kpoint 42">
       <r>  -3.5085  1.0000</r>
       <r>  -1.7585  1.0000</r>
       <r>  -0.8752  1.0000</r>
       <r>  -0.7865  1.0000</r>
       <r>  -0.6496  1.0000</r>
       <r>  -0.6158  1.0000</r>
       <r>  -0.5863  1.0000</r>
       <r>  -0.3006  1.0000</r>
       <r>  -0.1842  1.0000</r>
       <r>  -0.0329  1.0000</r>
       <r>   0.0355  1.0000</r>
       <r>   0.1637  1.0000</r>
       <r>   0.3399  1.0000</r>
       <r>   0.6061  1.0000</r>
       <r>   0.6577  1.0000</r>
       <r>   0.6751  1.0000</r>
       <r>   0.7241  1.0000</r>
       <r>   0.9835  1.0000</r>
       <r>   0.9956  1.0000</r>
       <r>   1.1063  1.0000</r>
       <r>   1.1115  1.0000</r>
       <r>   1.6680  1.0000</r>
       <r>   4.1659  0.0000</r>
       <r>   6.3939  0.0000</r>
       <r>   7.2240  0.0000</r>
       <r>   9.6717  0.0000</r>
       <r>  10.9850  0.0000</r>
       <r>  12.9009  0.0000</r>
       <r>  12.9782  0.0000</r>
       <r>  13.9694  0.0000</r>
       <r>  15.4130  0.0000</r>
       <r>  15.9081  0.0000</r>
      </set>
      <set comment="kpoint 43">
       <r>  -2.9163  1.0000</r>
       <r>  -2.3029  1.0000</r>
       <r>  -0.7248  1.0000</r>
       <r>  -0.6600  1.0000</r>
       <r>  -0.6286  1.0000</r>
       <r>  -0.5368  1.0000</r>
       <r>  -0.5089  1.0000</r>
       <r>  -0.4014  1.0000</r>
       <r>  -0.2900  1.0000</r>
       <r>  -0.1980  1.0000</r>
       <r>   0.0415  1.0000</r>
       <r>   0.1016  1.0000</r>
       <r>   0.4296  1.0000</r>
       <r>   0.5372  1.0000</r>
       <r>   0.6329  1.0000</r>
       <r>   0.6524  1.0000</r>
       <r>   0.7085  1.0000</r>
       <r>   0.8505  1.0000</r>
       <r>   1.0983  1.0000</r>
       <r>   1.0999  1.0000</r>
       <r>   1.1309  1.0000</r>
       <r>   1.3290  1.0000</r>
       <r>   4.8343  0.0000</r>
       <r>   5.5890  0.0000</r>
       <r>   7.9171  0.0000</r>
       <r>   8.7493  0.0000</r>
       <r>  11.5303  0.0000</r>
       <r>  12.1972  0.0000</r>
       <r>  13.6347  0.0000</r>
       <r>  14.4734  0.0000</r>
       <r>  14.5425  0.0000</r>
       <r>  15.2048  0.0000</r>
      </set>
      <set comment="kpoint 44">
       <r>  -3.6234  1.0000</r>
       <r>  -1.1931  1.0000</r>
       <r>  -1.1931  1.0000</r>
       <r>  -0.8462  1.0000</r>
       <r>  -0.6466  1.0000</r>
       <r>  -0.6233  1.0000</r>
       <r>  -0.6233  1.0000</r>
       <r>  -0.2440  1.0000</r>
       <r>  -0.0779  1.0000</r>
       <r>  -0.0779  1.0000</r>
       <r>   0.0507  1.0000</r>
       <r>   0.1664  1.0000</r>
       <r>   0.2962  1.0000</r>
       <r>   0.5613  1.0000</r>
       <r>   0.6736  1.0000</r>
       <r>   0.7250  1.0000</r>
       <r>   0.7250  1.0000</r>
       <r>   0.9988  1.0000</r>
       <r>   1.0396  1.0000</r>
       <r>   1.0396  1.0000</r>
       <r>   1.0783  1.0000</r>
       <r>   2.6849  0.7528</r>
       <r>   2.6849  0.7528</r>
       <r>   6.2554  0.0000</r>
       <r>   7.1082  0.0000</r>
       <r>  10.8979  0.0000</r>
       <r>  11.1752  0.0000</r>
       <r>  11.1752  0.0000</r>
       <r>  14.3311  0.0000</r>
       <r>  14.3311  0.0000</r>
       <r>  15.3148  0.0000</r>
       <r>  15.4507  0.0000</r>
      </set>
      <set comment="kpoint 45">
       <r>  -3.1277  1.0000</r>
       <r>  -1.5184  1.0000</r>
       <r>  -0.9962  1.0000</r>
       <r>  -0.7955  1.0000</r>
       <r>  -0.5657  1.0000</r>
       <r>  -0.5359  1.0000</r>
       <r>  -0.5131  1.0000</r>
       <r>  -0.2963  1.0000</r>
       <r>  -0.2381  1.0000</r>
       <r>  -0.1024  1.0000</r>
       <r>  -0.0712  1.0000</r>
       <r>   0.1221  1.0000</r>
       <r>   0.3415  1.0000</r>
       <r>   0.5870  1.0000</r>
       <r>   0.6046  1.0000</r>
       <r>   0.6151  1.0000</r>
       <r>   0.6546  1.0000</r>
       <r>   0.9330  1.0000</r>
       <r>   1.0101  1.0000</r>
       <r>   1.0342  1.0000</r>
       <r>   1.1426  1.0000</r>
       <r>   2.0296  1.0000</r>
       <r>   3.2036  0.0000</r>
       <r>   5.3512  0.0000</r>
       <r>   7.6833  0.0000</r>
       <r>  10.1620  0.0000</r>
       <r>  11.3510  0.0000</r>
       <r>  11.7882  0.0000</r>
       <r>  13.4275  0.0000</r>
       <r>  14.2786  0.0000</r>
       <r>  14.9284  0.0000</r>
       <r>  15.9254  0.0000</r>
      </set>
      <set comment="kpoint 46">
       <r>  -2.5720  1.0000</r>
       <r>  -2.0083  1.0000</r>
       <r>  -0.8461  1.0000</r>
       <r>  -0.7807  1.0000</r>
       <r>  -0.5032  1.0000</r>
       <r>  -0.4547  1.0000</r>
       <r>  -0.4484  1.0000</r>
       <r>  -0.3666  1.0000</r>
       <r>  -0.2884  1.0000</r>
       <r>  -0.1914  1.0000</r>
       <r>  -0.0461  1.0000</r>
       <r>   0.0432  1.0000</r>
       <r>   0.4092  1.0000</r>
       <r>   0.5035  1.0000</r>
       <r>   0.5693  1.0000</r>
       <r>   0.5907  1.0000</r>
       <r>   0.6765  1.0000</r>
       <r>   0.8043  1.0000</r>
       <r>   0.9992  1.0000</r>
       <r>   1.0073  1.0000</r>
       <r>   1.3295  1.0000</r>
       <r>   1.6005  1.0000</r>
       <r>   3.8086  0.0000</r>
       <r>   4.5205  0.0000</r>
       <r>   8.4136  0.0000</r>
       <r>   9.2415  0.0000</r>
       <r>  11.9241  0.0000</r>
       <r>  12.5129  0.0000</r>
       <r>  12.6185  0.0000</r>
       <r>  13.3441  0.0000</r>
       <r>  15.6406  0.0000</r>
       <r>  16.4618  0.0000</r>
      </set>
      <set comment="kpoint 47">
       <r>  -2.6706  1.0000</r>
       <r>  -1.2745  1.0000</r>
       <r>  -1.2745  1.0000</r>
       <r>  -0.8447  1.0000</r>
       <r>  -0.4591  1.0000</r>
       <r>  -0.4347  1.0000</r>
       <r>  -0.4347  1.0000</r>
       <r>  -0.3057  1.0000</r>
       <r>  -0.2073  1.0000</r>
       <r>  -0.2073  1.0000</r>
       <r>  -0.1273  1.0000</r>
       <r>   0.0743  1.0000</r>
       <r>   0.3489  1.0000</r>
       <r>   0.5353  1.0000</r>
       <r>   0.5587  1.0000</r>
       <r>   0.5587  1.0000</r>
       <r>   0.5990  1.0000</r>
       <r>   0.8989  1.0000</r>
       <r>   0.8989  1.0000</r>
       <r>   0.9653  1.0000</r>
       <r>   1.3308  1.0000</r>
       <r>   2.4553  1.0000</r>
       <r>   2.4553  1.0000</r>
       <r>   4.4095  0.0000</r>
       <r>   8.3017  0.0000</r>
       <r>  10.7703  0.0000</r>
       <r>  10.7703  0.0000</r>
       <r>  11.8335  0.0000</r>
       <r>  13.2454  0.0000</r>
       <r>  13.9957  0.0000</r>
       <r>  13.9957  0.0000</r>
       <r>  16.3821  0.0000</r>
      </set>
      <set comment="kpoint 48">
       <r>  -2.1721  1.0000</r>
       <r>  -1.6853  1.0000</r>
       <r>  -1.0706  1.0000</r>
       <r>  -0.9301  1.0000</r>
       <r>  -0.3748  1.0000</r>
       <r>  -0.3715  1.0000</r>
       <r>  -0.3379  1.0000</r>
       <r>  -0.3321  1.0000</r>
       <r>  -0.2680  1.0000</r>
       <r>  -0.2025  1.0000</r>
       <r>  -0.1131  1.0000</r>
       <r>  -0.0062  1.0000</r>
       <r>   0.3840  1.0000</r>
       <r>   0.4597  1.0000</r>
       <r>   0.4946  1.0000</r>
       <r>   0.5069  1.0000</r>
       <r>   0.6681  1.0000</r>
       <r>   0.7777  1.0000</r>
       <r>   0.8924  1.0000</r>
       <r>   0.9155  1.0000</r>
       <r>   1.5768  1.0000</r>
       <r>   1.9286  1.0000</r>
       <r>   2.9742  0.0000</r>
       <r>   3.6181  0.0000</r>
       <r>   9.0267  0.0000</r>
       <r>   9.8499  0.0000</r>
       <r>  11.4895  0.0000</r>
       <r>  12.3153  0.0000</r>
       <r>  12.4363  0.0000</r>
       <r>  13.1592  0.0000</r>
       <r>  14.6804  0.0000</r>
       <r>  15.4776  0.0000</r>
      </set>
      <set comment="kpoint 49">
       <r>  -1.7579  1.0000</r>
       <r>  -1.3785  1.0000</r>
       <r>  -1.3785  1.0000</r>
       <r>  -1.1243  1.0000</r>
       <r>  -0.3068  1.0000</r>
       <r>  -0.2987  1.0000</r>
       <r>  -0.2987  1.0000</r>
       <r>  -0.2587  1.0000</r>
       <r>  -0.2351  1.0000</r>
       <r>  -0.1740  1.0000</r>
       <r>  -0.1740  1.0000</r>
       <r>  -0.0723  1.0000</r>
       <r>   0.3794  1.0000</r>
       <r>   0.4252  1.0000</r>
       <r>   0.4252  1.0000</r>
       <r>   0.4358  1.0000</r>
       <r>   0.7070  1.0000</r>
       <r>   0.7883  1.0000</r>
       <r>   0.7883  1.0000</r>
       <r>   0.8374  1.0000</r>
       <r>   1.8986  1.0000</r>
       <r>   2.3459  1.0000</r>
       <r>   2.3459  1.0000</r>
       <r>   2.8968  0.0000</r>
       <r>   9.7459  0.0000</r>
       <r>  10.5671  0.0000</r>
       <r>  10.5671  0.0000</r>
       <r>  11.3894  0.0000</r>
       <r>  13.0683  0.0000</r>
       <r>  13.8183  0.0000</r>
       <r>  13.8183  0.0000</r>
       <r>  14.5929  0.0000</r>
      </set>
      <set comment="kpoint 50">
       <r>  -4.8860  1.0000</r>
       <r>  -1.2456  1.0000</r>
       <r>  -1.2456  1.0000</r>
       <r>  -1.2456  1.0000</r>
       <r>  -0.8978  1.0000</r>
       <r>  -0.8978  1.0000</r>
       <r>  -0.8978  1.0000</r>
       <r>  -0.0752  1.0000</r>
       <r>   0.1483  1.0000</r>
       <r>   0.1483  1.0000</r>
       <r>   0.6085  1.0000</r>
       <r>   0.6085  1.0000</r>
       <r>   0.6085  1.0000</r>
       <r>   0.6933  1.0000</r>
       <r>   0.6933  1.0000</r>
       <r>   0.9146  1.0000</r>
       <r>   0.9146  1.0000</r>
       <r>   0.9146  1.0000</r>
       <r>   1.2301  1.0000</r>
       <r>   1.2301  1.0000</r>
       <r>   1.2301  1.0000</r>
       <r>   3.8706  0.0000</r>
       <r>   3.8706  0.0000</r>
       <r>   3.8706  0.0000</r>
       <r>  11.2453  0.0000</r>
       <r>  11.2453  0.0000</r>
       <r>  11.2453  0.0000</r>
       <r>  11.3087  0.0000</r>
       <r>  11.3087  0.0000</r>
       <r>  11.3087  0.0000</r>
       <r>  15.9098  0.0000</r>
       <r>  15.9098  0.0000</r>
      </set>
      <set comment="kpoint 51">
       <r>  -4.5749  1.0000</r>
       <r>  -1.2975  1.0000</r>
       <r>  -1.1288  1.0000</r>
       <r>  -1.1288  1.0000</r>
       <r>  -0.8294  1.0000</r>
       <r>  -0.8255  1.0000</r>
       <r>  -0.8255  1.0000</r>
       <r>  -0.1217  1.0000</r>
       <r>   0.1768  1.0000</r>
       <r>   0.1798  1.0000</r>
       <r>   0.3868  1.0000</r>
       <r>   0.3868  1.0000</r>
       <r>   0.4380  1.0000</r>
       <r>   0.6519  1.0000</r>
       <r>   0.7509  1.0000</r>
       <r>   0.8153  1.0000</r>
       <r>   0.8436  1.0000</r>
       <r>   0.8436  1.0000</r>
       <r>   1.2128  1.0000</r>
       <r>   1.2128  1.0000</r>
       <r>   1.2144  1.0000</r>
       <r>   2.8730  0.0000</r>
       <r>   4.3168  0.0000</r>
       <r>   4.3168  0.0000</r>
       <r>  10.0857  0.0000</r>
       <r>  10.0857  0.0000</r>
       <r>  11.5103  0.0000</r>
       <r>  11.5103  0.0000</r>
       <r>  11.6561  0.0000</r>
       <r>  13.0335  0.0000</r>
       <r>  15.7928  0.0000</r>
       <r>  15.7928  0.0000</r>
      </set>
      <set comment="kpoint 52">
       <r>  -4.1497  1.0000</r>
       <r>  -1.4707  1.0000</r>
       <r>  -0.9887  1.0000</r>
       <r>  -0.9887  1.0000</r>
       <r>  -0.7384  1.0000</r>
       <r>  -0.7304  1.0000</r>
       <r>  -0.7304  1.0000</r>
       <r>  -0.1967  1.0000</r>
       <r>   0.1500  1.0000</r>
       <r>   0.1500  1.0000</r>
       <r>   0.2036  1.0000</r>
       <r>   0.2281  1.0000</r>
       <r>   0.2480  1.0000</r>
       <r>   0.6338  1.0000</r>
       <r>   0.7032  1.0000</r>
       <r>   0.7703  1.0000</r>
       <r>   0.7703  1.0000</r>
       <r>   0.8224  1.0000</r>
       <r>   1.1795  1.0000</r>
       <r>   1.1883  1.0000</r>
       <r>   1.1883  1.0000</r>
       <r>   2.0600  1.0000</r>
       <r>   4.8587  0.0000</r>
       <r>   4.8587  0.0000</r>
       <r>   8.9897  0.0000</r>
       <r>   8.9897  0.0000</r>
       <r>  11.8571  0.0000</r>
       <r>  11.8571  0.0000</r>
       <r>  12.1602  0.0000</r>
       <r>  14.9763  0.0000</r>
       <r>  15.1239  0.0000</r>
       <r>  15.1239  0.0000</r>
      </set>
      <set comment="kpoint 53">
       <r>  -3.6243  1.0000</r>
       <r>  -1.8467  1.0000</r>
       <r>  -0.8408  1.0000</r>
       <r>  -0.8408  1.0000</r>
       <r>  -0.6391  1.0000</r>
       <r>  -0.6391  1.0000</r>
       <r>  -0.6317  1.0000</r>
       <r>  -0.2928  1.0000</r>
       <r>  -0.0583  1.0000</r>
       <r>  -0.0583  1.0000</r>
       <r>   0.1206  1.0000</r>
       <r>   0.1904  1.0000</r>
       <r>   0.2945  1.0000</r>
       <r>   0.5881  1.0000</r>
       <r>   0.6904  1.0000</r>
       <r>   0.6922  1.0000</r>
       <r>   0.6922  1.0000</r>
       <r>   0.9017  1.0000</r>
       <r>   1.1266  1.0000</r>
       <r>   1.1686  1.0000</r>
       <r>   1.1686  1.0000</r>
       <r>   1.4823  1.0000</r>
       <r>   5.4704  0.0000</r>
       <r>   5.4704  0.0000</r>
       <r>   8.0119  0.0000</r>
       <r>   8.0119  0.0000</r>
       <r>  12.3143  0.0000</r>
       <r>  12.3143  0.0000</r>
       <r>  12.7850  0.0000</r>
       <r>  14.3288  0.0000</r>
       <r>  14.3288  0.0000</r>
       <r>  15.3040  0.0000</r>
      </set>
      <set comment="kpoint 54">
       <r>  -3.0250  1.0000</r>
       <r>  -2.4021  1.0000</r>
       <r>  -0.7018  1.0000</r>
       <r>  -0.7018  1.0000</r>
       <r>  -0.6142  1.0000</r>
[...]
       <r>  -0.4965  1.0000</r>
       <r>  -0.4610  1.0000</r>
       <r>  -0.2039  1.0000</r>
       <r>  -0.0207  1.0000</r>
       <r>  -0.0207  1.0000</r>
       <r>  -0.0043  1.0000</r>
       <r>   0.1368  1.0000</r>
       <r>   0.2128  1.0000</r>
       <r>   0.4266  1.0000</r>
       <r>   0.5108  1.0000</r>
       <r>   0.5108  1.0000</r>
       <r>   0.8374  1.0000</r>
       <r>   0.9488  1.0000</r>
       <r>   1.1545  1.0000</r>
       <r>   1.1545  1.0000</r>
       <r>   1.1695  1.0000</r>
       <r>   1.9178  1.0000</r>
       <r>   4.5072  0.0000</r>
       <r>   4.5072  0.0000</r>
       <r>   7.2221  0.0000</r>
       <r>   7.2221  0.0000</r>
       <r>  10.3293  0.0000</r>
       <r>  12.8091  0.0000</r>
       <r>  14.4114  0.0000</r>
       <r>  14.4114  0.0000</r>
       <r>  16.4286  0.0000</r>
       <r>  16.4286  0.0000</r>
      </set>
      <set comment="kpoint 68">
       <r>  -2.5721  1.0000</r>
       <r>  -2.0408  1.0000</r>
       <r>  -0.9366  1.0000</r>
       <r>  -0.9366  1.0000</r>
       <r>  -0.4607  1.0000</r>
       <r>  -0.4607  1.0000</r>
       <r>  -0.3542  1.0000</r>
       <r>  -0.2678  1.0000</r>
       <r>  -0.0343  1.0000</r>
       <r>  -0.0343  1.0000</r>
       <r>   0.0127  1.0000</r>
       <r>   0.0732  1.0000</r>
       <r>   0.2632  1.0000</r>
       <r>   0.3356  1.0000</r>
       <r>   0.4718  1.0000</r>
       <r>   0.4718  1.0000</r>
       <r>   1.0382  1.0000</r>
       <r>   1.0392  1.0000</r>
       <r>   1.1135  1.0000</r>
       <r>   1.1311  1.0000</r>
       <r>   1.1311  1.0000</r>
       <r>   1.3876  1.0000</r>
       <r>   4.9333  0.0000</r>
       <r>   4.9333  0.0000</r>
       <r>   6.5714  0.0000</r>
       <r>   6.5714  0.0000</r>
       <r>  11.0488  0.0000</r>
       <r>  11.8760  0.0000</r>
       <r>  15.0026  0.0000</r>
       <r>  15.0026  0.0000</r>
       <r>  15.6892  0.0000</r>
       <r>  15.6892  0.0000</r>
      </set>
      <set comment="kpoint 69">
       <r>  -3.2166  1.0000</r>
       <r>  -1.2031  1.0000</r>
       <r>  -1.2031  1.0000</r>
       <r>  -1.0384  1.0000</r>
       <r>  -0.4834  1.0000</r>
       <r>  -0.4617  1.0000</r>
       <r>  -0.4617  1.0000</r>
       <r>  -0.1335  1.0000</r>
       <r>  -0.0017  1.0000</r>
       <r>  -0.0017  1.0000</r>
       <r>   0.0525  1.0000</r>
       <r>   0.1543  1.0000</r>
       <r>   0.1695  1.0000</r>
       <r>   0.4612  1.0000</r>
       <r>   0.4612  1.0000</r>
       <r>   0.4738  1.0000</r>
       <r>   0.7879  1.0000</r>
       <r>   0.9253  1.0000</r>
       <r>   1.1735  1.0000</r>
       <r>   1.1865  1.0000</r>
       <r>   1.1865  1.0000</r>
       <r>   3.0173  0.0000</r>
       <r>   3.0173  0.0000</r>
       <r>   4.3540  0.0000</r>
       <r>   7.1242  0.0000</r>
       <r>   8.6234  0.0000</r>
       <r>   8.6234  0.0000</r>
       <r>  12.7040  0.0000</r>
       <r>  14.3096  0.0000</r>
       <r>  15.8798  0.0000</r>
       <r>  15.8798  0.0000</r>
       <r>  17.5806  0.0000</r>
      </set>
      <set comment="kpoint 70">
       <r>  -2.7798  1.0000</r>
       <r>  -1.4793  1.0000</r>
       <r>  -1.1498  1.0000</r>
       <r>  -1.0548  1.0000</r>
       <r>  -0.3984  1.0000</r>
       <r>  -0.3676  1.0000</r>
       <r>  -0.3290  1.0000</r>
       <r>  -0.1211  1.0000</r>
       <r>  -0.0221  1.0000</r>
       <r>  -0.0060  1.0000</r>
       <r>   0.0646  1.0000</r>
       <r>   0.1164  1.0000</r>
       <r>   0.1783  1.0000</r>
       <r>   0.3618  1.0000</r>
       <r>   0.4091  1.0000</r>
       <r>   0.4122  1.0000</r>
       <r>   0.8470  1.0000</r>
       <r>   1.0487  1.0000</r>
       <r>   1.1426  1.0000</r>
       <r>   1.1499  1.0000</r>
       <r>   1.1560  1.0000</r>
       <r>   2.1966  1.0000</r>
       <r>   3.4566  0.0000</r>
       <r>   4.5921  0.0000</r>
       <r>   6.4279  0.0000</r>
       <r>   7.6680  0.0000</r>
       <r>   9.2188  0.0000</r>
       <r>  11.6691  0.0000</r>
       <r>  14.8040  0.0000</r>
       <r>  16.3617  0.0000</r>
       <r>  16.8797  0.0000</r>
       <r>  17.9287  0.0000</r>
      </set>
      <set comment="kpoint 71">
       <r>  -2.3104  1.0000</r>
       <r>  -1.8592  1.0000</r>
       <r>  -1.1092  1.0000</r>
       <r>  -1.0783  1.0000</r>
       <r>  -0.3501  1.0000</r>
       <r>  -0.3364  1.0000</r>
       <r>  -0.2103  1.0000</r>
       <r>  -0.1403  1.0000</r>
       <r>  -0.0058  1.0000</r>
       <r>   0.0426  1.0000</r>
       <r>   0.0510  1.0000</r>
       <r>   0.0745  1.0000</r>
       <r>   0.2153  1.0000</r>
       <r>   0.2778  1.0000</r>
       <r>   0.3730  1.0000</r>
       <r>   0.3772  1.0000</r>
       <r>   0.9754  1.0000</r>
       <r>   1.0898  1.0000</r>
       <r>   1.1178  1.0000</r>
       <r>   1.1200  1.0000</r>
       <r>   1.2334  1.0000</r>
       <r>   1.5980  1.0000</r>
       <r>   3.9593  0.0000</r>
       <r>   4.4362  0.0000</r>
       <r>   6.3711  0.0000</r>
       <r>   6.8840  0.0000</r>
       <r>   9.9263  0.0000</r>
       <r>  10.7433  0.0000</r>
       <r>  15.4084  0.0000</r>
       <r>  16.1113  0.0000</r>
       <r>  16.9465  0.0000</r>
       <r>  17.6008  0.0000</r>
      </set>
      <set comment="kpoint 72">
       <r>  -2.4083  1.0000</r>
       <r>  -1.3841  1.0000</r>
       <r>  -1.3841  1.0000</r>
       <r>  -1.1388  1.0000</r>
       <r>  -0.3052  1.0000</r>
       <r>  -0.2246  1.0000</r>
       <r>  -0.2246  1.0000</r>
       <r>  -0.0363  1.0000</r>
       <r>   0.0110  1.0000</r>
       <r>   0.0110  1.0000</r>
       <r>   0.0894  1.0000</r>
       <r>   0.1340  1.0000</r>
       <r>   0.1617  1.0000</r>
       <r>   0.3197  1.0000</r>
       <r>   0.3197  1.0000</r>
       <r>   0.3328  1.0000</r>
       <r>   0.8543  1.0000</r>
       <r>   1.1102  1.0000</r>
       <r>   1.1127  1.0000</r>
       <r>   1.1127  1.0000</r>
       <r>   1.2190  1.0000</r>
       <r>   2.5745  1.0000</r>
       <r>   2.5745  1.0000</r>
       <r>   4.2567  0.0000</r>
       <r>   6.3076  0.0000</r>
       <r>   8.2396  0.0000</r>
       <r>   8.2396  0.0000</r>
       <r>  10.6421  0.0000</r>
       <r>  15.3108  0.0000</r>
       <r>  17.4441  0.0000</r>
       <r>  17.4441  0.0000</r>
       <r>  18.4189  0.0000</r>
      </set>
      <set comment="kpoint 73">
       <r>  -2.0283  1.0000</r>
       <r>  -1.6787  1.0000</r>
       <r>  -1.2997  1.0000</r>
       <r>  -1.2198  1.0000</r>
       <r>  -0.2397  1.0000</r>
       <r>  -0.2079  1.0000</r>
       <r>  -0.0869  1.0000</r>
       <r>   0.0128  1.0000</r>
       <r>   0.0228  1.0000</r>
       <r>   0.0252  1.0000</r>
       <r>   0.1067  1.0000</r>
       <r>   0.1616  1.0000</r>
       <r>   0.1845  1.0000</r>
       <r>   0.2416  1.0000</r>
       <r>   0.2902  1.0000</r>
       <r>   0.2925  1.0000</r>
       <r>   0.9298  1.0000</r>
       <r>   1.0358  1.0000</r>
       <r>   1.0778  1.0000</r>
       <r>   1.0788  1.0000</r>
       <r>   1.4733  1.0000</r>
       <r>   1.9066  1.0000</r>
       <r>   3.0591  0.0000</r>
       <r>   3.6468  0.0000</r>
       <r>   6.7286  0.0000</r>
       <r>   7.4018  0.0000</r>
       <r>   8.9274  0.0000</r>
       <r>   9.7283  0.0000</r>
       <r>  15.9296  0.0000</r>
       <r>  16.6509  0.0000</r>
       <r>  18.1282  0.0000</r>
       <r>  18.9220  0.0000</r>
      </set>
      <set comment="kpoint 74">
       <r>  -1.7566  1.0000</r>
       <r>  -1.5133  1.0000</r>
       <r>  -1.5133  1.0000</r>
       <r>  -1.3627  1.0000</r>
       <r>  -0.1511  1.0000</r>
       <r>  -0.0962  1.0000</r>
       <r>  -0.0962  1.0000</r>
       <r>  -0.0181  1.0000</r>
       <r>   0.1336  1.0000</r>
       <r>   0.1466  1.0000</r>
       <r>   0.1466  1.0000</r>
       <r>   0.1773  1.0000</r>
       <r>   0.2056  1.0000</r>
       <r>   0.2253  1.0000</r>
       <r>   0.2253  1.0000</r>
       <r>   0.2324  1.0000</r>
       <r>   0.9396  1.0000</r>
       <r>   1.0067  1.0000</r>
       <r>   1.0067  1.0000</r>
       <r>   1.0290  1.0000</r>
       <r>   1.8150  1.0000</r>
       <r>   2.3334  1.0000</r>
       <r>   2.3334  1.0000</r>
       <r>   2.9145  0.0000</r>
       <r>   7.3168  0.0000</r>
       <r>   8.0557  0.0000</r>
       <r>   8.0557  0.0000</r>
       <r>   8.8322  0.0000</r>
       <r>  16.5642  0.0000</r>
       <r>  17.3046  0.0000</r>
       <r>  17.3046  0.0000</r>
       <r>  18.0661  0.0000</r>
      </set>
      <set comment="kpoint 75">
       <r>  -2.8892  1.0000</r>
       <r>  -1.2192  1.0000</r>
       <r>  -1.2192  1.0000</r>
       <r>  -1.2192  1.0000</r>
       <r>  -0.3533  1.0000</r>
       <r>  -0.3533  1.0000</r>
       <r>  -0.3533  1.0000</r>
       <r>  -0.0401  1.0000</r>
       <r>   0.0623  1.0000</r>
       <r>   0.0623  1.0000</r>
       <r>   0.0623  1.0000</r>
       <r>   0.1373  1.0000</r>
       <r>   0.1373  1.0000</r>
       <r>   0.3684  1.0000</r>
       <r>   0.3684  1.0000</r>
       <r>   0.3684  1.0000</r>
       <r>   0.9016  1.0000</r>
       <r>   0.9016  1.0000</r>
       <r>   1.1942  1.0000</r>
       <r>   1.1942  1.0000</r>
       <r>   1.1942  1.0000</r>
       <r>   3.2964  0.0000</r>
       <r>   3.2964  0.0000</r>
       <r>   3.2964  0.0000</r>
       <r>   7.5663  0.0000</r>
       <r>   7.5663  0.0000</r>
       <r>   7.5663  0.0000</r>
       <r>  11.5626  0.0000</r>
       <r>  16.2588  0.0000</r>
       <r>  16.2588  0.0000</r>
       <r>  16.2588  0.0000</r>
       <r>  18.7566  0.0000</r>
      </set>
      <set comment="kpoint 76">
       <r>  -2.5128  1.0000</r>
       <r>  -1.4608  1.0000</r>
       <r>  -1.2352  1.0000</r>
       <r>  -1.2352  1.0000</r>
       <r>  -0.2754  1.0000</r>
       <r>  -0.2754  1.0000</r>
       <r>  -0.2095  1.0000</r>
       <r>   0.0487  1.0000</r>
       <r>   0.0773  1.0000</r>
       <r>   0.1039  1.0000</r>
       <r>   0.1318  1.0000</r>
       <r>   0.1442  1.0000</r>
       <r>   0.1442  1.0000</r>
       <r>   0.2758  1.0000</r>
       <r>   0.3095  1.0000</r>
       <r>   0.3095  1.0000</r>
       <r>   0.9627  1.0000</r>
       <r>   1.0043  1.0000</r>
       <r>   1.1714  1.0000</r>
       <r>   1.1714  1.0000</r>
       <r>   1.1873  1.0000</r>
       <r>   2.3954  1.0000</r>
       <r>   3.6139  0.0000</r>
       <r>   3.6139  0.0000</r>
       <r>   6.7166  0.0000</r>
       <r>   6.7166  0.0000</r>
       <r>   8.1354  0.0000</r>
       <r>  10.5351  0.0000</r>
       <r>  16.7472  0.0000</r>
       <r>  16.7472  0.0000</r>
       <r>  18.3055  0.0000</r>
       <r>  18.6652  0.0000</r>
      </set>
      <set comment="kpoint 77">
       <r>  -2.1250  1.0000</r>
       <r>  -1.7654  1.0000</r>
       <r>  -1.2449  1.0000</r>
       <r>  -1.2449  1.0000</r>
       <r>  -0.2417  1.0000</r>
       <r>  -0.2417  1.0000</r>
       <r>  -0.0717  1.0000</r>
       <r>   0.0371  1.0000</r>
       <r>   0.0919  1.0000</r>
       <r>   0.0921  1.0000</r>
       <r>   0.1538  1.0000</r>
       <r>   0.2027  1.0000</r>
       <r>   0.2157  1.0000</r>
       <r>   0.2157  1.0000</r>
       <r>   0.2767  1.0000</r>
       <r>   0.2767  1.0000</r>
       <r>   1.0894  1.0000</r>
       <r>   1.1456  1.0000</r>
       <r>   1.1456  1.0000</r>
       <r>   1.1517  1.0000</r>
       <r>   1.2085  1.0000</r>
       <r>   1.6897  1.0000</r>
       <r>   3.8682  0.0000</r>
       <r>   3.8682  0.0000</r>
       <r>   6.1911  0.0000</r>
       <r>   6.1911  0.0000</r>
       <r>   8.8215  0.0000</r>
       <r>   9.6215  0.0000</r>
       <r>  17.3376  0.0000</r>
       <r>  17.3376  0.0000</r>
       <r>  18.0169  0.0000</r>
       <r>  18.0169  0.0000</r>
      </set>
      <set comment="kpoint 78">
       <r>  -2.2209  1.0000</r>
       <r>  -1.4404  1.0000</r>
       <r>  -1.4404  1.0000</r>
       <r>  -1.3098  1.0000</r>
       <r>  -0.2003  1.0000</r>
       <r>  -0.1499  1.0000</r>
       <r>  -0.1499  1.0000</r>
       <r>   0.0858  1.0000</r>
       <r>   0.1031  1.0000</r>
       <r>   0.2022  1.0000</r>
       <r>   0.2022  1.0000</r>
       <r>   0.2349  1.0000</r>
       <r>   0.2449  1.0000</r>
       <r>   0.2486  1.0000</r>
       <r>   0.2486  1.0000</r>
       <r>   0.2879  1.0000</r>
       <r>   0.9674  1.0000</r>
       <r>   1.1290  1.0000</r>
       <r>   1.1600  1.0000</r>
       <r>   1.1699  1.0000</r>
       <r>   1.1699  1.0000</r>
       <r>   2.6894  0.5180</r>
       <r>   2.6894  0.5180</r>
       <r>   3.6576  0.0000</r>
       <r>   6.1337  0.0000</r>
       <r>   7.2172  0.0000</r>
       <r>   7.2172  0.0000</r>
       <r>   9.5213  0.0000</r>
       <r>  17.2435  0.0000</r>
       <r>  18.7699  0.0000</r>
       <r>  18.7699  0.0000</r>
       <r>  19.2487  0.0000</r>
      </set>
      <set comment="kpoint 79">
       <r>  -1.9343  1.0000</r>
       <r>  -1.6725  1.0000</r>
       <r>  -1.4115  1.0000</r>
       <r>  -1.3688  1.0000</r>
       <r>  -0.1535  1.0000</r>
       <r>  -0.1365  1.0000</r>
       <r>  -0.0419  1.0000</r>
       <r>   0.0369  1.0000</r>
       <r>   0.1128  1.0000</r>
       <r>   0.1512  1.0000</r>
       <r>   0.1885  1.0000</r>
       <r>   0.1948  1.0000</r>
       <r>   0.3128  1.0000</r>
       <r>   0.3447  1.0000</r>
       <r>   0.3617  1.0000</r>
       <r>   0.3784  1.0000</r>
       <r>   1.0495  1.0000</r>
       <r>   1.1318  1.0000</r>
       <r>   1.1373  1.0000</r>
       <r>   1.1396  1.0000</r>
       <r>   1.3891  1.0000</r>
       <r>   1.9225  1.0000</r>
       <r>   3.0649  0.0000</r>
       <r>   3.4463  0.0000</r>
       <r>   6.0848  0.0000</r>
       <r>   6.5035  0.0000</r>
       <r>   7.8598  0.0000</r>
       <r>   8.6291  0.0000</r>
       <r>  17.8460  0.0000</r>
       <r>  18.5333  0.0000</r>
       <r>  19.3534  0.0000</r>
       <r>  19.9150  0.0000</r>
      </set>
      <set comment="kpoint 80">
       <r>  -1.7517  1.0000</r>
       <r>  -1.5790  1.0000</r>
       <r>  -1.5790  1.0000</r>
       <r>  -1.4795  1.0000</r>
       <r>  -0.0862  1.0000</r>
       <r>  -0.0491  1.0000</r>
       <r>  -0.0491  1.0000</r>
       <r>   0.0111  1.0000</r>
       <r>   0.1012  1.0000</r>
       <r>   0.1297  1.0000</r>
       <r>   0.1297  1.0000</r>
       <r>   0.1440  1.0000</r>
       <r>   0.4794  1.0000</r>
       <r>   0.4794  1.0000</r>
       <r>   0.4904  1.0000</r>
       <r>   0.5075  1.0000</r>
       <r>   1.0388  1.0000</r>
       <r>   1.0958  1.0000</r>
       <r>   1.0958  1.0000</r>
       <r>   1.1058  1.0000</r>
       <r>   1.7396  1.0000</r>
       <r>   2.3129  1.0000</r>
       <r>   2.3129  1.0000</r>
       <r>   2.8519  0.0000</r>
       <r>   6.4378  0.0000</r>
       <r>   7.0558  0.0000</r>
       <r>   7.0558  0.0000</r>
       <r>   7.7713  0.0000</r>
       <r>  18.4621  0.0000</r>
       <r>  19.1724  0.0000</r>
       <r>  19.1724  0.0000</r>
       <r>  19.9084  0.0000</r>
      </set>
      <set comment="kpoint 81">
       <r>  -2.0260  1.0000</r>
       <r>  -1.4828  1.0000</r>
       <r>  -1.4828  1.0000</r>
       <r>  -1.4828  1.0000</r>
       <r>  -0.1003  1.0000</r>
       <r>  -0.1003  1.0000</r>
       <r>  -0.1003  1.0000</r>
       <r>   0.0723  1.0000</r>
       <r>   0.0723  1.0000</r>
       <r>   0.1550  1.0000</r>
       <r>   0.1550  1.0000</r>
       <r>   0.1550  1.0000</r>
       <r>   0.4482  1.0000</r>
       <r>   0.4482  1.0000</r>
       <r>   0.4482  1.0000</r>
       <r>   0.6069  1.0000</r>
       <r>   1.0616  1.0000</r>
       <r>   1.0616  1.0000</r>
       <r>   1.1817  1.0000</r>
       <r>   1.1817  1.0000</r>
       <r>   1.1817  1.0000</r>
       <r>   2.8295  0.0000</r>
       <r>   2.8295  0.0000</r>
       <r>   2.8295  0.0000</r>
       <r>   6.4322  0.0000</r>
       <r>   6.4322  0.0000</r>
       <r>   6.4322  0.0000</r>
       <r>   8.5317  0.0000</r>
       <r>  19.2493  0.0000</r>
       <r>  19.2493  0.0000</r>
       <r>  19.2493  0.0000</r>
       <r>  20.6223  0.0000</r>
      </set>
      <set comment="kpoint 82">
       <r>  -1.8373  1.0000</r>
       <r>  -1.6574  1.0000</r>
       <r>  -1.5053  1.0000</r>
       <r>  -1.5053  1.0000</r>
       <r>  -0.0742  1.0000</r>
       <r>  -0.0742  1.0000</r>
       <r>  -0.0188  1.0000</r>
       <r>   0.0386  1.0000</r>
       <r>   0.0711  1.0000</r>
       <r>   0.0992  1.0000</r>
       <r>   0.1204  1.0000</r>
       <r>   0.1204  1.0000</r>
       <r>   0.5966  1.0000</r>
       <r>   0.5966  1.0000</r>
       <r>   0.6069  1.0000</r>
       <r>   0.7327  1.0000</r>
       <r>   1.1313  1.0000</r>
       <r>   1.1652  1.0000</r>
       <r>   1.1652  1.0000</r>
       <r>   1.1721  1.0000</r>
       <r>   1.3550  1.0000</r>
       <r>   2.0245  1.0000</r>
       <r>   2.9402  0.0000</r>
       <r>   2.9402  0.0000</r>
       <r>   5.9843  0.0000</r>
       <r>   5.9843  0.0000</r>
       <r>   6.9721  0.0000</r>
       <r>   7.6792  0.0000</r>
       <r>  19.8119  0.0000</r>
       <r>  19.8119  0.0000</r>
       <r>  20.4490  0.0000</r>
       <r>  20.4490  0.0000</r>
      </set>
      <set comment="kpoint 83">
       <r>  -1.7366  1.0000</r>
       <r>  -1.6273  1.0000</r>
       <r>  -1.6273  1.0000</r>
       <r>  -1.5774  1.0000</r>
       <r>  -0.0297  1.0000</r>
       <r>  -0.0115  1.0000</r>
       <r>  -0.0115  1.0000</r>
       <r>   0.0292  1.0000</r>
       <r>   0.0511  1.0000</r>
       <r>   0.0711  1.0000</r>
       <r>   0.0711  1.0000</r>
       <r>   0.0781  1.0000</r>
       <r>   0.7776  1.0000</r>
       <r>   0.7995  1.0000</r>
       <r>   0.7995  1.0000</r>
       <r>   0.9308  1.0000</r>
       <r>   1.1142  1.0000</r>
       <r>   1.1557  1.0000</r>
       <r>   1.1557  1.0000</r>
       <r>   1.1560  1.0000</r>
       <r>   1.6683  1.0000</r>
       <r>   2.2773  1.0000</r>
       <r>   2.2773  1.0000</r>
       <r>   2.6378  1.0000</r>
       <r>   5.9387  0.0000</r>
       <r>   6.3067  0.0000</r>
       <r>   6.3067  0.0000</r>
       <r>   6.8952  0.0000</r>
       <r>  20.3923  0.0000</r>
       <r>  21.0270  0.0000</r>
       <r>  21.0270  0.0000</r>
       <r>  21.7045  0.0000</r>
      </set>
      <set comment="kpoint 84">
       <r>  -1.7051  1.0000</r>
       <r>  -1.6528  1.0000</r>
       <r>  -1.6528  1.0000</r>
       <r>  -1.6528  1.0000</r>
       <r>   0.0104  1.0000</r>
       <r>   0.0104  1.0000</r>
       <r>   0.0104  1.0000</r>
       <r>   0.0301  1.0000</r>
       <r>   0.0301  1.0000</r>
       <r>   0.0393  1.0000</r>
       <r>   0.0393  1.0000</r>
       <r>   0.0393  1.0000</r>
       <r>   1.0291  1.0000</r>
       <r>   1.0291  1.0000</r>
       <r>   1.0291  1.0000</r>
       <r>   1.1606  1.0000</r>
       <r>   1.1606  1.0000</r>
       <r>   1.1748  1.0000</r>
       <r>   1.1748  1.0000</r>
       <r>   1.1748  1.0000</r>
       <r>   1.8022  1.0000</r>
       <r>   2.2396  1.0000</r>
       <r>   2.2396  1.0000</r>
       <r>   2.2396  1.0000</r>
       <r>   5.8942  0.0000</r>
       <r>   5.8942  0.0000</r>
       <r>   5.8942  0.0000</r>
       <r>   6.2464  0.0000</r>
       <r>  22.1848  0.0000</r>
       <r>  22.1848  0.0000</r>
       <r>  22.1849  0.0000</r>
       <r>  22.4469  0.0000</r>
      </set>
     </set>
    </set>
   </array>
  </eigenvalues>
 </calculation>
 <structure name="finalpos" >
  <crystal>
   <varray name="basis" >
    <v>       3.78187244      0.00000000      0.00000000</v>
    <v>       0.00000000      3.78187244      0.00000000</v>
    <v>       0.00000000      0.00000000      3.78187244</v>
   </varray>
   <i name="volume">     54.09045446</i>
   <varray name="rec_basis" >
    <v>       0.26441928      0.00000000      0.00000000</v>
    <v>       0.00000000      0.26441928      0.00000000</v>
    <v>       0.00000000      0.00000000      0.26441928</v>
   </varray>
  </crystal>
  <varray name="positions" >
   <v>       0.00000000      0.00000000      0.00000000</v>
   <v>       0.50000000      0.50000000      0.00000000</v>
   <v>       0.50000000      0.00000000      0.50000000</v>
   <v>       0.00000000      0.50000000      0.50000000</v>
  </varray>
 </structure>
</modeling>
