  32  32   0   0
  0.1131459E+02  0.7127375E-09  0.7127375E-09  0.7127375E-09  0.5000000E-15
  1.000000000000000E-004
  CAR 
 unknown system                          
     15.61407000     -6.51718499  301      4.18438713      1.00000000
     -6.517  0.0000E+00  0.0000E+00
     -6.443  0.0000E+00  0.0000E+00
     -6.370  0.0000E+00  0.0000E+00
     -6.296  0.0000E+00  0.0000E+00
     -6.222  0.0000E+00  0.0000E+00
     -6.148  0.0000E+00  0.0000E+00
     -6.075  0.0000E+00  0.0000E+00
     -6.001  0.0000E+00  0.0000E+00
     -5.927  0.0000E+00  0.0000E+00
     -5.853  0.0000E+00  0.0000E+00
     -5.779  0.0000E+00  0.0000E+00
     -5.706  0.0000E+00  0.0000E+00
     -5.632  0.0000E+00  0.0000E+00
     -5.558  0.1248E-11  0.9205E-13
     -5.484  0.7903E-01  0.5830E-02
     -5.411  0.4743E+00  0.4082E-01
     -5.337  0.9532E+00  0.1111E+00
     -5.263  0.7033E+00  0.1630E+00
     -5.189  0.1707E+01  0.2889E+00
     -5.116  0.2445E+01  0.4693E+00
     -5.042  0.5234E-07  0.4723E+00
     -4.968  0.9488E+00  0.5423E+00
     -4.894  0.2401E+01  0.7194E+00
     -4.820  0.2484E+01  0.9027E+00
     -4.747  0.1861E+01  0.1040E+01
     -4.673  0.1894E+01  0.1183E+01
     -4.599  0.3794E+01  0.1464E+01
     -4.525  0.5163E-02  0.1464E+01
     -4.452  0.2076E+01  0.1617E+01
     -4.378  0.4859E+01  0.1976E+01
     -4.304  0.1897E+01  0.2128E+01
     -4.230  0.1903E+01  0.2269E+01
     -4.157  0.4500E+01  0.2601E+01
     -4.083  0.1185E+01  0.2688E+01
     -4.009  0.1897E+01  0.2828E+01
     -3.935  0.2386E+01  0.3004E+01
     -3.861  0.6513E+01  0.3484E+01
     -3.788  0.1692E+01  0.3609E+01
     -3.714  0.5691E+01  0.4029E+01
     -3.640  0.3794E+01  0.4309E+01
     -3.566  0.6235E+00  0.4355E+01
     -3.493  0.4130E+01  0.4660E+01
     -3.419  0.3837E+01  0.4943E+01
     -3.345  0.5910E+01  0.5379E+01
     -3.271  0.2059E+01  0.5533E+01
     -3.197  0.5690E+01  0.5953E+01
     -3.124  0.1409E+01  0.6057E+01
     -3.050  0.8074E+01  0.6653E+01
     -2.976  0.5684E+01  0.7072E+01
     -2.902  0.1908E+01  0.7214E+01
     -2.829  0.5739E+01  0.7637E+01
     -2.755  0.4350E+01  0.7958E+01
     -2.681  0.7175E+00  0.8012E+01
     -2.607  0.9450E+01  0.8709E+01
     -2.534  0.4519E+01  0.9044E+01
     -2.460  0.6496E+01  0.9523E+01
     -2.386  0.8608E+01  0.1016E+02
     -2.312  0.5674E+01  0.1058E+02
     -2.238  0.3860E+01  0.1087E+02
     -2.165  0.7330E+01  0.1141E+02
     -2.091  0.2092E+01  0.1156E+02
     -2.017  0.1177E+02  0.1243E+02
     -1.943  0.6027E+01  0.1288E+02
     -1.870  0.9403E+01  0.1358E+02
     -1.796  0.9577E+01  0.1429E+02
     -1.722  0.5906E+01  0.1472E+02
     -1.648  0.9112E+01  0.1540E+02
     -1.575  0.8025E+01  0.1601E+02
     -1.501  0.1134E+02  0.1689E+02
     -1.427  0.1308E+02  0.1789E+02
     -1.353  0.9175E+01  0.1860E+02
     -1.279  0.1661E+02  0.1983E+02
     -1.206  0.6252E+01  0.2030E+02
     -1.132  0.2864E+02  0.2241E+02
     -1.058  0.1810E+02  0.2376E+02
     -0.984  0.4048E+02  0.2675E+02
     -0.911  0.2118E+02  0.2835E+02
     -0.837  0.4215E+02  0.3147E+02
     -0.763  0.3121E+02  0.3382E+02
     -0.689  0.4652E+02  0.3726E+02
     -0.616  0.3402E+02  0.3981E+02
     -0.542  0.3935E+02  0.4273E+02
     -0.468  0.4449E+02  0.4612E+02
     -0.394  0.4441E+02  0.4945E+02
     -0.320  0.6523E+02  0.5427E+02
     -0.247  0.6314E+02  0.5893E+02
     -0.173  0.7719E+02  0.6466E+02
     -0.099  0.7262E+02  0.7010E+02
     -0.025  0.6663E+02  0.7504E+02
      0.048  0.6343E+02  0.7979E+02
      0.122  0.5653E+02  0.8400E+02
      0.196  0.7092E+02  0.8924E+02
      0.270  0.6749E+02  0.9427E+02
      0.344  0.4978E+02  0.9803E+02
      0.417  0.5710E+02  0.1023E+03
      0.491  0.8913E+02  0.1089E+03
      0.565  0.7937E+02  0.1148E+03
      0.639  0.7687E+02  0.1206E+03
      0.712  0.1016E+03  0.1282E+03
      0.786  0.9867E+02  0.1355E+03
      0.860  0.8705E+02  0.1420E+03
      0.934  0.1213E+03  0.1511E+03
      1.007  0.1019E+03  0.1588E+03
      1.081  0.1357E+03  0.1689E+03
      1.155  0.1283E+03  0.1785E+03
      1.229  0.1306E+03  0.1883E+03
      1.303  0.9227E+02  0.1952E+03
      1.376  0.9439E+02  0.2021E+03
      1.450  0.7869E+02  0.2080E+03
      1.524  0.7282E+02  0.2135E+03
      1.598  0.6876E+02  0.2186E+03
      1.671  0.9850E+02  0.2259E+03
      1.745  0.1105E+03  0.2341E+03
      1.819  0.1229E+03  0.2433E+03
      1.893  0.1063E+03  0.2513E+03
      1.966  0.9831E+02  0.2586E+03
      2.040  0.8250E+02  0.2647E+03
      2.114  0.1034E+03  0.2723E+03
      2.188  0.1034E+03  0.2801E+03
      2.262  0.9078E+02  0.2868E+03
      2.335  0.1169E+03  0.2955E+03
      2.409  0.1484E+03  0.3066E+03
      2.483  0.1939E+03  0.3210E+03
      2.557  0.1198E+03  0.3300E+03
      2.630  0.6103E+02  0.3345E+03
      2.704  0.1145E+02  0.3354E+03
      2.778  0.2837E+02  0.3375E+03
      2.852  0.7200E+01  0.3380E+03
      2.925  0.7230E+01  0.3386E+03
      2.999  0.1197E+02  0.3394E+03
      3.073  0.2123E+02  0.3410E+03
      3.147  0.6969E+01  0.3416E+03
      3.221  0.7147E+01  0.3421E+03
      3.294  0.1238E+02  0.3430E+03
      3.368  0.8016E+01  0.3436E+03
      3.442  0.1059E+02  0.3444E+03
      3.516  0.1596E+02  0.3456E+03
      3.589  0.9252E+01  0.3463E+03
      3.663  0.8522E+01  0.3469E+03
      3.737  0.3835E+01  0.3472E+03
      3.811  0.1602E+02  0.3484E+03
      3.885  0.1274E+02  0.3494E+03
      3.958  0.8822E+01  0.3500E+03
      4.032  0.6649E+01  0.3505E+03
      4.106  0.1346E+02  0.3515E+03
      4.180  0.5839E+01  0.3519E+03
      4.253  0.2813E+01  0.3521E+03
      4.327  0.1486E+02  0.3532E+03
      4.401  0.4353E+01  0.3536E+03
      4.475  0.1822E+02  0.3549E+03
      4.548  0.1597E+01  0.3550E+03
      4.622  0.1485E+02  0.3561E+03
      4.696  0.1832E+02  0.3575E+03
      4.770  0.1868E+01  0.3576E+03
      4.844  0.3752E+01  0.3579E+03
      4.917  0.6614E+01  0.3584E+03
      4.991  0.7243E+01  0.3589E+03
      5.065  0.6846E+01  0.3594E+03
      5.139  0.9777E+01  0.3601E+03
      5.212  0.7343E+01  0.3607E+03
      5.286  0.1622E+02  0.3620E+03
      5.360  0.6689E+01  0.3625E+03
      5.434  0.4385E+01  0.3628E+03
      5.507  0.1079E+02  0.3636E+03
      5.581  0.6571E+01  0.3641E+03
      5.655  0.8590E+01  0.3647E+03
      5.729  0.8103E+01  0.3653E+03
      5.803  0.5092E+01  0.3657E+03
      5.876  0.6033E+01  0.3662E+03
      5.950  0.2421E+01  0.3664E+03
      6.024  0.1794E+02  0.3677E+03
      6.098  0.5192E+01  0.3681E+03
      6.171  0.5073E+01  0.3685E+03
      6.245  0.1392E+02  0.3695E+03
      6.319  0.6262E+01  0.3699E+03
      6.393  0.5559E+01  0.3704E+03
      6.466  0.7498E+01  0.3710E+03
      6.540  0.4800E+01  0.3713E+03
      6.614  0.6727E+01  0.3718E+03
      6.688  0.7781E+01  0.3724E+03
      6.762  0.5335E+01  0.3728E+03
      6.835  0.1772E+00  0.3728E+03
      6.909  0.1116E+02  0.3736E+03
      6.983  0.1299E+02  0.3746E+03
      7.057  0.5038E+01  0.3749E+03
      7.130  0.1893E+01  0.3751E+03
      7.204  0.3706E+01  0.3754E+03
      7.278  0.4904E+01  0.3757E+03
      7.352  0.1206E+02  0.3766E+03
      7.426  0.7445E+01  0.3772E+03
      7.499  0.3459E+01  0.3775E+03
      7.573  0.1082E-08  0.3775E+03
      7.647  0.3794E+01  0.3777E+03
      7.721  0.5785E+01  0.3782E+03
      7.794  0.4648E+01  0.3785E+03
      7.868  0.9443E+01  0.3792E+03
      7.942  0.1897E+01  0.3793E+03
      8.016  0.9900E+00  0.3794E+03
      8.089  0.6879E+01  0.3799E+03
      8.163  0.9998E+01  0.3807E+03
      8.237  0.2732E+01  0.3809E+03
      8.311  0.5726E+01  0.3813E+03
      8.385  0.7424E+01  0.3818E+03
      8.458  0.9250E+01  0.3825E+03
      8.532  0.1107E+02  0.3833E+03
      8.606  0.1076E+02  0.3841E+03
      8.680  0.8163E+01  0.3847E+03
      8.753  0.6416E+01  0.3852E+03
      8.827  0.7168E+01  0.3858E+03
      8.901  0.7996E+01  0.3864E+03
      8.975  0.1229E+02  0.3873E+03
      9.048  0.1376E+02  0.3883E+03
      9.122  0.9330E+01  0.3890E+03
      9.196  0.7349E+01  0.3895E+03
      9.270  0.5004E+01  0.3899E+03
      9.344  0.6794E+01  0.3904E+03
      9.417  0.8839E+01  0.3911E+03
      9.491  0.1264E+02  0.3920E+03
      9.565  0.1034E+02  0.3928E+03
      9.639  0.8937E+01  0.3934E+03
      9.712  0.1093E+02  0.3942E+03
      9.786  0.7961E+01  0.3948E+03
      9.860  0.4238E+01  0.3951E+03
      9.934  0.1526E+02  0.3963E+03
     10.007  0.3456E+01  0.3966E+03
     10.081  0.4605E+01  0.3969E+03
     10.155  0.6777E+01  0.3974E+03
     10.229  0.1229E+02  0.3983E+03
     10.303  0.5994E+01  0.3988E+03
     10.376  0.8061E+01  0.3994E+03
     10.450  0.1100E+02  0.4002E+03
     10.524  0.3804E+01  0.4005E+03
     10.598  0.1232E+02  0.4014E+03
     10.671  0.4480E+01  0.4017E+03
     10.745  0.8796E+01  0.4024E+03
     10.819  0.4741E+01  0.4027E+03
     10.893  0.1016E+02  0.4035E+03
     10.967  0.7562E+01  0.4040E+03
     11.040  0.3568E+01  0.4043E+03
     11.114  0.1133E+02  0.4051E+03
     11.188  0.5281E+01  0.4055E+03
     11.262  0.5732E+01  0.4059E+03
     11.335  0.7239E+01  0.4065E+03
     11.409  0.4962E+01  0.4068E+03
     11.483  0.8213E+01  0.4074E+03
     11.557  0.7145E+01  0.4080E+03
     11.630  0.9527E+01  0.4087E+03
     11.704  0.1488E+02  0.4098E+03
     11.778  0.3072E+01  0.4100E+03
     11.852  0.1356E+02  0.4110E+03
     11.926  0.2541E+01  0.4112E+03
     11.999  0.1345E+02  0.4122E+03
     12.073  0.5237E+01  0.4126E+03
     12.147  0.6421E+01  0.4131E+03
     12.221  0.1400E+02  0.4141E+03
     12.294  0.8242E+01  0.4147E+03
     12.368  0.1305E+02  0.4157E+03
     12.442  0.1593E+02  0.4169E+03
     12.516  0.6607E+01  0.4174E+03
     12.589  0.1157E+02  0.4182E+03
     12.663  0.8317E+01  0.4188E+03
     12.737  0.1024E+02  0.4196E+03
     12.811  0.5087E+01  0.4200E+03
     12.885  0.8303E+01  0.4206E+03
     12.958  0.2007E+02  0.4221E+03
     13.032  0.8847E+01  0.4228E+03
     13.106  0.7011E+01  0.4234E+03
     13.180  0.1215E+02  0.4243E+03
     13.253  0.5432E+01  0.4247E+03
     13.327  0.1972E+02  0.4262E+03
     13.401  0.4809E+01  0.4265E+03
     13.475  0.7148E+01  0.4271E+03
     13.548  0.1354E+02  0.4281E+03
     13.622  0.1085E+02  0.4289E+03
     13.696  0.5315E+01  0.4293E+03
     13.770  0.1078E+02  0.4301E+03
     13.844  0.6586E+01  0.4306E+03
     13.917  0.2899E+01  0.4308E+03
     13.991  0.6098E+01  0.4312E+03
     14.065  0.5284E+01  0.4316E+03
     14.139  0.0000E+00  0.4316E+03
     14.212  0.3961E-05  0.4316E+03
     14.286  0.3162E+01  0.4319E+03
     14.360  0.0000E+00  0.4319E+03
     14.434  0.0000E+00  0.4319E+03
     14.508  0.0000E+00  0.4319E+03
     14.581  0.1246E-02  0.4319E+03
     14.655  0.1896E+01  0.4320E+03
     14.729  0.0000E+00  0.4320E+03
     14.803  0.0000E+00  0.4320E+03
     14.876  0.0000E+00  0.4320E+03
     14.950  0.0000E+00  0.4320E+03
     15.024  0.0000E+00  0.4320E+03
     15.098  0.0000E+00  0.4320E+03
     15.171  0.0000E+00  0.4320E+03
     15.245  0.0000E+00  0.4320E+03
     15.319  0.0000E+00  0.4320E+03
     15.393  0.0000E+00  0.4320E+03
     15.467  0.0000E+00  0.4320E+03
     15.540  0.0000E+00  0.4320E+03
     15.614  0.0000E+00  0.4320E+03
