   32   32    1    1
  0.1131459E+02  0.7127375E-09  0.7127375E-09  0.7127375E-09  0.5000000E-15
  1.000000000000000E-004
  CAR 
 unknown system                          
  352   20  216
 
  0.0000000E+00  0.0000000E+00  0.0000000E+00  0.2915452E-02
   1       -5.5112
   2       -2.6762
   3       -2.6762
   4       -2.6762
   5       -2.6762
   6       -2.6762
   7       -2.6762
   8       -1.1703
   9       -1.1703
  10       -1.1703
  11       -1.1703
  12       -0.9854
  13       -0.9854
  14       -0.9854
  15       -0.7481
  16       -0.7481
  17       -0.7481
  18       -0.7481
  19       -0.7481
  20       -0.7481
  21       -0.7481
  22       -0.7481
  23       -0.7481
  24       -0.7481
  25       -0.7481
  26       -0.7481
  27       -0.5043
  28       -0.5043
  29       -0.5043
  30       -0.2065
  31       -0.2065
  32       -0.2065
  33       -0.2065
  34       -0.2065
  35       -0.2065
  36        0.2179
  37        0.2179
  38        0.2179
  39        0.2179
  40        0.2179
  41        0.2179
  42        0.4418
  43        0.4418
  44        0.4418
  45        0.4418
  46        0.4418
  47        0.4418
  48        0.4418
  49        0.4418
  50        0.4418
  51        0.4418
  52        0.4418
  53        0.4418
  54        0.4460
  55        0.4460
  56        0.4460
  57        0.4460
  58        0.4460
  59        0.4460
  60        0.4460
  61        0.4460
  62        0.4460
  63        0.4460
  64        0.4460
  65        0.4460
  66        0.6661
  67        0.6661
  68        0.6661
  69        0.6661
  70        0.6661
  71        0.6661
  72        0.6661
  73        0.6661
  74        0.6661
  75        0.6661
  76        0.6661
  77        0.6661
  78        0.9501
  79        0.9501
  80        0.9501
  81        0.9501
  82        0.9501
  83        0.9501
  84        0.9501
  85        0.9501
  86        0.9833
  87        0.9833
  88        0.9833
  89        1.3819
  90        1.3819
  91        1.3819
  92        1.3819
  93        1.3819
  94        1.3819
  95        1.5192
  96        1.5192
  97        1.5192
  98        1.5192
  99        1.5192
 100        1.5192
 101        1.5192
 102        1.5192
 103        1.5192
 104        1.5192
 105        1.5192
 106        1.5192
 107        1.6885
 108        1.6885
 109        1.6885
 110        1.6885
 111        1.6885
 112        1.6885
 113        1.6885
 114        1.6885
 115        1.6885
 116        1.6885
 117        1.6885
 118        1.6885
 119        1.8240
 120        1.8240
 121        1.8240
 122        1.8240
 123        1.8240
 124        1.8240
 125        1.8606
 126        1.8606
 127        1.8606
 128        1.8606
 129        1.8606
 130        1.8606
 131        1.8606
 132        1.8606
 133        1.8606
 134        1.8606
 135        1.8606
 136        1.8606
 137        1.8683
 138        1.8683
 139        2.1586
 140        2.1586
 141        2.1586
 142        2.1586
 143        2.1586
 144        2.1586
 145        2.4555
 146        2.4555
 147        2.4555
 148        2.4707
 149        2.4707
 150        2.4707
 151        2.4707
 152        2.4707
 153        2.4707
 154        2.4707
 155        2.4707
 156        2.6205
 157        2.6205
 158        2.6205
 159        2.6205
 160        2.6205
 161        2.6205
 162        2.6213
 163        2.6213
 164        2.6213
 165        2.6213
 166        2.6213
 167        2.6213
 168        3.0459
 169        3.0459
 170        3.0459
 171        3.0459
 172        3.8652
 173        3.8652
 174        3.8652
 175        3.8652
 176        3.8652
 177        3.8652
 178        3.8652
 179        3.8652
 180        3.8652
 181        3.8652
 182        3.8652
 183        3.8652
 184        5.6505
 185        5.6505
 186        5.6505
 187        8.1423
 188        8.1423
 189        8.1423
 190        8.1423
 191       10.5521
 192       10.5521
 193       10.5521
 194       10.5521
 195       10.5521
 196       10.5521
 197       10.5521
 198       10.5521
 199       10.5521
 200       10.5521
 201       10.5521
 202       10.5521
 203       11.5953
 204       11.5953
 205       11.5953
 206       12.7036
 207       12.7036
 208       12.7036
 209       12.7036
 210       12.7036
 211       12.7036
 212       13.4244
 213       13.4244
 214       13.4244
 215       13.4244
 216       13.4244
 
  0.1428571E+00  0.0000000E+00  0.0000000E+00  0.1749271E-01
   1       -5.4472
   2       -3.3479
   3       -2.6245
   4       -2.6245
   5       -2.6245
   6       -2.6245
   7       -2.0254
   8       -1.1550
   9       -1.1550
  10       -1.1550
  11       -1.1550
  12       -1.1246
  13       -1.1246
  14       -1.1246
  15       -1.1246
  16       -0.9848
  17       -0.9547
  18       -0.9547
  19       -0.7797
  20       -0.7797
  21       -0.7797
  22       -0.7797
  23       -0.4867
  24       -0.4857
  25       -0.4857
  26       -0.4278
  27       -0.4278
  28       -0.4278
  29       -0.4278
  30       -0.2578
  31       -0.2578
  32       -0.1825
  33       -0.1825
  34       -0.1825
  35       -0.1825
  36        0.0536
  37        0.1858
  38        0.1858
  39        0.2255
  40        0.2255
  41        0.2255
  42        0.2255
  43        0.3844
  44        0.4132
  45        0.4132
  46        0.4132
  47        0.4132
  48        0.4167
  49        0.4167
  50        0.4167
  51        0.4167
  52        0.4444
  53        0.4444
  54        0.4444
  55        0.4444
  56        0.4657
  57        0.4657
  58        0.4657
  59        0.4657
  60        0.5163
  61        0.5163
  62        0.5163
  63        0.5163
  64        0.5259
  65        0.5259
  66        0.5259
  67        0.5259
  68        0.6827
  69        0.6827
  70        0.6827
  71        0.6827
  72        0.7387
  73        0.7387
  74        0.7684
  75        0.7684
  76        0.7684
  77        0.7684
  78        0.9372
  79        0.9372
  80        0.9372
  81        0.9372
  82        0.9635
  83        0.9672
  84        0.9672
  85        0.9672
  86        0.9672
  87        0.9990
  88        0.9990
  89        1.3008
  90        1.3008
  91        1.3008
  92        1.3008
  93        1.4135
  94        1.4537
  95        1.4537
  96        1.4537
  97        1.4537
  98        1.4814
  99        1.5160
 100        1.5160
 101        1.5317
 102        1.5317
 103        1.5317
 104        1.5317
 105        1.5758
 106        1.5758
 107        1.5758
 108        1.5758
 109        1.6884
 110        1.6884
 111        1.6884
 112        1.6884
 113        1.7534
 114        1.7534
 115        1.7534
 116        1.7534
 117        1.7831
 118        1.7831
 119        1.7831
 120        1.7831
 121        1.8239
 122        1.8239
 123        1.8239
 124        1.8239
 125        1.8503
 126        1.8682
 127        1.8682
 128        1.8719
 129        1.8719
 130        1.8755
 131        1.9281
 132        1.9281
 133        1.9281
 134        1.9281
 135        1.9673
 136        1.9673
 137        1.9673
 138        1.9673
 139        2.0934
 140        2.1807
 141        2.1807
 142        2.1807
 143        2.1807
 144        2.2241
 145        2.2264
 146        2.2264
 147        2.2264
 148        2.2264
 149        2.4323
 150        2.4323
 151        2.4480
 152        2.4515
 153        2.4515
 154        2.4515
 155        2.4515
 156        2.4995
 157        2.4995
 158        2.5919
 159        2.5919
 160        2.5919
 161        2.5919
 162        2.5931
 163        2.5931
 164        2.6205
 165        2.6205
 166        2.6213
 167        2.6213
 168        3.2265
 169        3.2265
 170        3.2265
 171        3.2265
 172        3.4058
 173        3.4058
 174        3.4058
 175        3.4058
 176        3.8554
 177        3.8554
 178        3.8554
 179        3.8554
 180        4.4599
 181        4.4599
 182        4.4599
 183        4.4599
 184        5.2578
 185        5.8280
 186        5.8280
 187        8.3164
 188        8.3164
 189        8.3164
 190        8.3164
 191        9.5427
 192        9.5427
 193        9.7830
 194        9.7830
 195        9.7830
 196        9.7830
 197       10.6392
 198       10.6392
 199       10.6392
 200       10.6392
 201       11.6174
 202       11.6174
 203       11.6206
 204       11.6206
 205       12.1128
 206       12.5051
 207       12.5051
 208       13.0356
 209       13.0356
 210       13.0356
 211       13.0356
 212       13.1806
 213       13.1806
 214       13.1806
 215       13.1822
 216       13.3073
 
  0.2857143E+00  0.0000000E+00  0.0000000E+00  0.1749271E-01
   1       -5.2560
   2       -3.9713
   3       -2.4716
   4       -2.4716
   5       -2.4716
   6       -2.4716
   7       -1.5229
   8       -1.5229
   9       -1.5229
  10       -1.5229
  11       -1.5000
  12       -1.1103
  13       -1.1103
  14       -1.1103
  15       -1.1103
  16       -0.9919
  17       -0.8659
  18       -0.8659
  19       -0.8574
  20       -0.8574
  21       -0.8574
  22       -0.8574
  23       -0.4346
  24       -0.4296
  25       -0.4296
  26       -0.3906
  27       -0.3906
  28       -0.1777
  29       -0.1777
  30       -0.1777
  31       -0.1777
  32       -0.1141
  33       -0.1141
  34       -0.1141
  35       -0.1141
  36       -0.1005
  37       -0.0286
  38       -0.0286
  39        0.2476
  40        0.2476
  41        0.2476
  42        0.2476
  43        0.3464
  44        0.3464
  45        0.3464
  46        0.3464
  47        0.3662
  48        0.3662
  49        0.3662
  50        0.3662
  51        0.3708
  52        0.3708
  53        0.3708
  54        0.3708
  55        0.4515
  56        0.4515
  57        0.4515
  58        0.4515
  59        0.4725
  60        0.4725
  61        0.4725
  62        0.4725
  63        0.5445
  64        0.6970
  65        0.6970
  66        0.6970
  67        0.6970
  68        0.7430
  69        0.7430
  70        0.7430
  71        0.7430
  72        0.8461
  73        0.8461
  74        0.8461
  75        0.8461
  76        0.9004
  77        0.9004
  78        0.9004
  79        0.9004
  80        0.9054
  81        1.0177
  82        1.0177
  83        1.0177
  84        1.0177
  85        1.0458
  86        1.0458
  87        1.0741
  88        1.0741
  89        1.1620
  90        1.1620
  91        1.1620
  92        1.1620
  93        1.3300
  94        1.3300
  95        1.3300
  96        1.3300
  97        1.3610
  98        1.3611
  99        1.5044
 100        1.6059
 101        1.6059
 102        1.6059
 103        1.6059
 104        1.6648
 105        1.6648
 106        1.6648
 107        1.6648
 108        1.6890
 109        1.6890
 110        1.6890
 111        1.6890
 112        1.7333
 113        1.7333
 114        1.7333
 115        1.7333
 116        1.7980
 117        1.8074
 118        1.8074
 119        1.8074
 120        1.8074
 121        1.8116
 122        1.8116
 123        1.8116
 124        1.8116
 125        1.8162
 126        1.8184
 127        1.8184
 128        1.8184
 129        1.8184
 130        1.8967
 131        1.9809
 132        1.9809
 133        2.0318
 134        2.0573
 135        2.0573
 136        2.0575
 137        2.0575
 138        2.0575
 139        2.0575
 140        2.0985
 141        2.0985
 142        2.0985
 143        2.0985
 144        2.2008
 145        2.2008
 146        2.2809
 147        2.2809
 148        2.2809
 149        2.2809
 150        2.2866
 151        2.3643
 152        2.3643
 153        2.3954
 154        2.3954
 155        2.3954
 156        2.3954
 157        2.4258
 158        2.5088
 159        2.5088
 160        2.5088
 161        2.5088
 162        2.5139
 163        2.5139
 164        2.6207
 165        2.6207
 166        2.6212
 167        2.6212
 168        3.0396
 169        3.0396
 170        3.0396
 171        3.0396
 172        3.4710
 173        3.4710
 174        3.4710
 175        3.4710
 176        3.8230
 177        3.8230
 178        3.8230
 179        3.8230
 180        4.3637
 181        5.2244
 182        5.2244
 183        5.2244
 184        5.2244
 185        6.2962
 186        6.2962
 187        8.5150
 188        8.5150
 189        8.5150
 190        8.5150
 191        8.5988
 192        8.5988
 193        8.8223
 194        8.8223
 195        8.8223
 196        8.8223
 197       10.8951
 198       10.8951
 199       10.8951
 200       10.8951
 201       11.6854
 202       11.6854
 203       11.8527
 204       11.8527
 205       11.8527
 206       11.8527
 207       12.2159
 208       12.2159
 209       12.5282
 210       12.5282
 211       12.5282
 212       12.5282
 213       12.7415
 214       12.7415
 215       13.2563
 216       13.2563
 
  0.4285714E+00  0.0000000E+00  0.0000000E+00  0.1749271E-01
   1       -4.9412
   2       -4.5091
   3       -2.2257
   4       -2.2257
   5       -2.2257
   6       -2.2257
   7       -1.9014
   8       -1.9014
   9       -1.9014
  10       -1.9014
  11       -1.1794
  12       -1.0400
  13       -1.0400
  14       -1.0400
  15       -1.0400
  16       -1.0368
  17       -0.9514
  18       -0.9514
  19       -0.9514
  20       -0.9514
  21       -0.7287
  22       -0.7287
  23       -0.5609
  24       -0.5609
  25       -0.3502
  26       -0.3354
  27       -0.3354
  28       -0.2372
  29       -0.2021
  30       -0.2021
  31       -0.0195
  32       -0.0195
  33       -0.0195
  34       -0.0195
  35       -0.0103
  36       -0.0103
  37       -0.0103
  38       -0.0103
  39        0.2323
  40        0.2323
  41        0.2323
  42        0.2323
  43        0.2498
  44        0.2498
  45        0.2498
  46        0.2498
  47        0.2820
  48        0.2820
  49        0.2820
  50        0.2820
  51        0.3249
  52        0.3249
  53        0.3249
  54        0.3249
  55        0.4610
  56        0.4610
  57        0.4610
  58        0.4610
  59        0.4694
  60        0.4694
  61        0.4694
  62        0.4694
  63        0.6898
  64        0.7805
  65        0.7805
  66        0.7805
  67        0.7805
  68        0.8124
  69        0.8453
  70        0.8453
  71        0.8453
  72        0.8453
  73        0.9285
  74        0.9285
  75        0.9285
  76        0.9285
  77        1.0164
  78        1.0164
  79        1.0164
  80        1.0164
  81        1.0331
  82        1.0331
  83        1.0331
  84        1.0331
  85        1.0988
  86        1.0988
  87        1.0988
  88        1.0988
  89        1.1229
  90        1.1229
  91        1.2057
  92        1.2057
  93        1.2057
  94        1.2057
  95        1.2288
  96        1.2288
  97        1.3874
  98        1.3874
  99        1.3874
 100        1.3874
 101        1.4415
 102        1.4415
 103        1.6133
 104        1.6931
 105        1.6931
 106        1.6931
 107        1.6931
 108        1.7026
 109        1.7026
 110        1.7026
 111        1.7026
 112        1.7057
 113        1.7057
 114        1.7057
 115        1.7057
 116        1.7161
 117        1.7448
 118        1.7448
 119        1.7448
 120        1.7448
 121        1.7836
 122        1.7836
 123        1.7836
 124        1.7836
 125        1.7957
 126        1.7957
 127        1.7957
 128        1.7957
 129        1.8271
 130        1.8271
 131        1.9311
 132        1.9768
 133        2.1220
 134        2.1220
 135        2.1901
 136        2.1901
 137        2.1901
 138        2.1901
 139        2.2342
 140        2.2342
 141        2.2435
 142        2.2435
 143        2.2435
 144        2.2435
 145        2.2570
 146        2.2570
 147        2.3061
 148        2.3061
 149        2.3061
 150        2.3061
 151        2.3429
 152        2.3865
 153        2.3865
 154        2.3865
 155        2.3865
 156        2.3902
 157        2.3906
 158        2.3906
 159        2.4577
 160        2.4771
 161        2.4771
 162        2.4771
 163        2.4771
 164        2.6208
 165        2.6208
 166        2.6210
 167        2.6210
 168        2.7344
 169        2.7344
 170        2.7344
 171        2.7344
 172        3.3550
 173        3.6479
 174        3.6479
 175        3.6479
 176        3.6479
 177        3.7590
 178        3.7590
 179        3.7590
 180        3.7590
 181        6.1689
 182        6.1689
 183        6.1689
 184        6.1689
 185        6.9515
 186        6.9515
 187        7.2781
 188        7.2781
 189        7.2781
 190        7.2781
 191        7.7297
 192        7.7297
 193        9.6161
 194        9.6161
 195        9.6161
 196        9.6161
 197       10.6434
 198       10.6434
 199       10.6434
 200       10.6434
 201       11.3066
 202       11.3066
 203       11.3066
 204       11.3066
 205       11.8036
 206       11.8036
 207       11.8566
 208       11.8566
 209       11.8566
 210       11.8566
 211       11.9786
 212       11.9786
 213       13.5085
 214       13.5085
 215       13.5085
 216       13.5085
 
  0.1428571E+00  0.1428571E+00  0.0000000E+00  0.3498542E-01
   1       -5.3833
   2       -3.2925
   3       -3.2925
   4       -2.5738
   5       -2.5738
   6       -1.9778
   7       -1.9778
   8       -1.5997
   9       -1.1907
  10       -1.1907
  11       -1.1314
  12       -1.1314
  13       -1.1314
  14       -1.1314
  15       -1.0919
  16       -1.0919
  17       -0.9537
  18       -0.9537
  19       -0.9246
  20       -0.6947
  21       -0.6947
  22       -0.4813
  23       -0.4813
  24       -0.4813
  25       -0.4813
  26       -0.4684
  27       -0.4684
  28       -0.4675
  29       -0.2387
  30       -0.2387
  31       -0.2324
  32       -0.2324
  33       -0.2309
  34       -0.1581
  35       -0.1581
  36        0.0638
  37        0.0638
  38        0.1732
  39        0.1732
  40        0.1930
  41        0.1930
  42        0.2338
  43        0.2338
  44        0.3576
  45        0.3576
  46        0.3771
  47        0.3771
  48        0.3892
  49        0.3892
  50        0.4078
  51        0.4362
  52        0.4691
  53        0.4691
  54        0.4691
  55        0.4691
  56        0.4824
  57        0.4824
  58        0.5146
  59        0.5146
  60        0.5146
  61        0.5146
  62        0.5475
  63        0.5746
  64        0.5746
  65        0.5746
  66        0.5746
  67        0.6201
  68        0.6201
  69        0.7039
  70        0.7039
  71        0.7353
  72        0.7353
  73        0.7805
  74        0.7805
  75        0.7805
  76        0.7805
  77        0.8894
  78        0.8983
  79        0.8983
  80        0.9425
  81        0.9425
  82        0.9523
  83        0.9795
  84        0.9795
  85        0.9963
  86        0.9963
  87        1.0065
  88        1.0135
  89        1.2503
  90        1.2503
  91        1.3212
  92        1.3212
  93        1.3689
  94        1.3689
  95        1.4523
  96        1.4523
  97        1.4523
  98        1.4523
  99        1.4981
 100        1.5149
 101        1.5149
 102        1.5149
 103        1.5149
 104        1.5162
 105        1.5162
 106        1.5996
 107        1.6009
 108        1.6009
 109        1.6226
 110        1.6226
 111        1.6337
 112        1.6337
 113        1.6746
 114        1.8200
 115        1.8200
 116        1.8453
 117        1.8543
 118        1.8543
 119        1.8633
 120        1.8633
 121        1.8679
 122        1.8679
 123        1.8679
 124        1.8679
 125        1.8710
 126        1.8716
 127        1.8716
 128        1.8720
 129        1.8720
 130        1.9192
 131        1.9192
 132        1.9527
 133        1.9527
 134        1.9895
 135        1.9895
 136        2.0268
 137        2.0268
 138        2.0268
 139        2.0268
 140        2.0407
 141        2.1062
 142        2.1062
 143        2.1239
 144        2.1239
 145        2.1910
 146        2.1910
 147        2.2625
 148        2.2625
 149        2.4072
 150        2.4090
 151        2.4090
 152        2.4099
 153        2.4612
 154        2.4612
 155        2.4638
 156        2.4638
 157        2.4832
 158        2.4832
 159        2.5666
 160        2.5666
 161        2.5914
 162        2.5914
 163        2.5923
 164        2.5923
 165        2.5931
 166        2.5931
 167        2.6031
 168        2.9867
 169        2.9867
 170        3.0321
 171        3.3924
 172        3.3924
 173        3.3924
 174        3.3924
 175        3.6623
 176        3.6623
 177        3.9076
 178        3.9076
 179        4.4576
 180        4.4576
 181        4.4576
 182        4.4576
 183        5.1430
 184        5.4338
 185        5.4338
 186        5.9945
 187        8.1745
 188        8.1745
 189        8.7666
 190        8.7666
 191        8.8825
 192        8.8825
 193        9.6352
 194        9.6352
 195        9.6521
 196        9.6521
 197       10.0934
 198       10.0934
 199       10.7266
 200       10.7266
 201       11.6395
 202       11.7037
 203       11.7037
 204       12.1415
 205       12.1415
 206       12.3726
 207       12.3726
 208       12.3726
 209       12.3726
 210       12.4109
 211       12.6559
 212       12.6559
 213       13.2058
 214       13.2058
 215       13.7546
 216       13.7546
 
  0.2857143E+00  0.1428571E+00  0.0000000E+00  0.6997085E-01
   1       -5.1928
   2       -3.9130
   3       -3.1282
   4       -2.4245
   5       -2.4245
   6       -2.0728
   7       -1.8380
   8       -1.5082
   9       -1.5082
  10       -1.4567
  11       -1.2017
  12       -1.2017
  13       -1.1495
  14       -1.1495
  15       -1.0095
  16       -1.0008
  17       -1.0008
  18       -0.9592
  19       -0.8633
  20       -0.8373
  21       -0.6050
  22       -0.6050
  23       -0.4170
  24       -0.4130
  25       -0.4129
  26       -0.3770
  27       -0.3664
  28       -0.3549
  29       -0.2426
  30       -0.2426
  31       -0.1875
  32       -0.1585
  33       -0.0946
  34       -0.0886
  35       -0.0886
  36       -0.0879
  37       -0.0286
  38       -0.0179
  39        0.0942
  40        0.1368
  41        0.2140
  42        0.2582
  43        0.2582
  44        0.2611
  45        0.2632
  46        0.2632
  47        0.2894
  48        0.3334
  49        0.3691
  50        0.3691
  51        0.4024
  52        0.4093
  53        0.4093
  54        0.4433
  55        0.4827
  56        0.5170
  57        0.5170
  58        0.5465
  59        0.5666
  60        0.5666
  61        0.5834
  62        0.5834
  63        0.6097
  64        0.6158
  65        0.6348
  66        0.6348
  67        0.7176
  68        0.7240
  69        0.7586
  70        0.7586
  71        0.8139
  72        0.8139
  73        0.8353
  74        0.8353
  75        0.8542
  76        0.8542
  77        0.8995
  78        0.9269
  79        0.9269
  80        0.9705
  81        1.0220
  82        1.0220
  83        1.0316
  84        1.0489
  85        1.0567
  86        1.0578
  87        1.0578
  88        1.0624
  89        1.1410
  90        1.1410
  91        1.1773
  92        1.2053
  93        1.3083
  94        1.3216
  95        1.3216
  96        1.3616
  97        1.3928
  98        1.3928
  99        1.4938
 100        1.4938
 101        1.5184
 102        1.5348
 103        1.5566
 104        1.5963
 105        1.5963
 106        1.5978
 107        1.5980
 108        1.6088
 109        1.6088
 110        1.6687
 111        1.6687
 112        1.6715
 113        1.6742
 114        1.7202
 115        1.7224
 116        1.7224
 117        1.7289
 118        1.7993
 119        1.8041
 120        1.8041
 121        1.8460
 122        1.8558
 123        1.8558
 124        1.8711
 125        1.8755
 126        1.8895
 127        1.8913
 128        1.9426
 129        1.9426
 130        1.9716
 131        1.9868
 132        1.9889
 133        2.0148
 134        2.0148
 135        2.0375
 136        2.0569
 137        2.0738
 138        2.1400
 139        2.1409
 140        2.1448
 141        2.1448
 142        2.1470
 143        2.1474
 144        2.1474
 145        2.1663
 146        2.1838
 147        2.2698
 148        2.2698
 149        2.3262
 150        2.3440
 151        2.3726
 152        2.3862
 153        2.4038
 154        2.4038
 155        2.4345
 156        2.4345
 157        2.4403
 158        2.4470
 159        2.4962
 160        2.4962
 161        2.5088
 162        2.5096
 163        2.5137
 164        2.5910
 165        2.5926
 166        2.5931
 167        2.5936
 168        2.7392
 169        3.0256
 170        3.0256
 171        3.0490
 172        3.0490
 173        3.3512
 174        3.3512
 175        3.4529
 176        4.0443
 177        4.0443
 178        4.4447
 179        4.4447
 180        4.5482
 181        4.5852
 182        5.2321
 183        5.2321
 184        5.8883
 185        5.9805
 186        6.4410
 187        7.6964
 188        8.0305
 189        8.3982
 190        8.3982
 191        8.5269
 192        8.5269
 193        8.6990
 194        9.3988
 195        9.4701
 196        9.4701
 197        9.9064
 198       10.1880
 199       10.1880
 200       11.0814
 201       11.0814
 202       11.6090
 203       11.6597
 204       11.6597
 205       11.6690
 206       11.7065
 207       11.9489
 208       12.2292
 209       12.3948
 210       12.7258
 211       12.7258
 212       12.8095
 213       12.8222
 214       12.9031
 215       13.4261
 216       13.5294
 
  0.4285714E+00  0.1428571E+00  0.0000000E+00  0.6997085E-01
   1       -4.8791
   2       -4.4486
   3       -2.8612
   4       -2.5030
   5       -2.1849
   6       -2.1849
   7       -1.8712
   8       -1.8712
   9       -1.6160
  10       -1.3301
  11       -1.1934
  12       -1.1934
  13       -1.1730
  14       -1.1730
  15       -1.1402
  16       -1.0013
  17       -0.8843
  18       -0.8843
  19       -0.7482
  20       -0.7482
  21       -0.7235
  22       -0.7024
  23       -0.5521
  24       -0.5365
  25       -0.3339
  26       -0.3214
  27       -0.3201
  28       -0.2225
  29       -0.1931
  30       -0.1887
  31       -0.1568
  32       -0.1323
  33       -0.0595
  34       -0.0595
  35       -0.0437
  36        0.0010
  37        0.0010
  38        0.0024
  39        0.0809
  40        0.1050
  41        0.1435
  42        0.1622
  43        0.1622
  44        0.2098
  45        0.2138
  46        0.2138
  47        0.2467
  48        0.2880
  49        0.2976
  50        0.2976
  51        0.3494
  52        0.3494
  53        0.4200
  54        0.4209
  55        0.4360
  56        0.4888
  57        0.5423
  58        0.5423
  59        0.5593
  60        0.5593
  61        0.6659
  62        0.6659
  63        0.6673
  64        0.6892
  65        0.7024
  66        0.7545
  67        0.7545
  68        0.8093
  69        0.8401
  70        0.8429
  71        0.8429
  72        0.8938
  73        0.8938
  74        0.9223
  75        0.9223
  76        0.9313
  77        0.9313
  78        0.9948
  79        1.0227
  80        1.0227
  81        1.0274
  82        1.0274
  83        1.0344
  84        1.0921
  85        1.0921
  86        1.1088
  87        1.1247
  88        1.1268
  89        1.1467
  90        1.1467
  91        1.2001
  92        1.2001
  93        1.2185
  94        1.2299
  95        1.2656
  96        1.2656
  97        1.2915
  98        1.2915
  99        1.3382
 100        1.3382
 101        1.3930
 102        1.4186
 103        1.5275
 104        1.5380
 105        1.5380
 106        1.5511
 107        1.5697
 108        1.5697
 109        1.6082
 110        1.6288
 111        1.6695
 112        1.6996
 113        1.6996
 114        1.7217
 115        1.7500
 116        1.7663
 117        1.7663
 118        1.7748
 119        1.7886
 120        1.8099
 121        1.8137
 122        1.8328
 123        1.8611
 124        1.8720
 125        1.8774
 126        1.8873
 127        1.8873
 128        1.9223
 129        1.9266
 130        1.9313
 131        1.9336
 132        1.9336
 133        1.9768
 134        2.1085
 135        2.1283
 136        2.1627
 137        2.1627
 138        2.1705
 139        2.2338
 140        2.2341
 141        2.2398
 142        2.2624
 143        2.2633
 144        2.2649
 145        2.2649
 146        2.2736
 147        2.2736
 148        2.2958
 149        2.2958
 150        2.3018
 151        2.3301
 152        2.3652
 153        2.3652
 154        2.3849
 155        2.3903
 156        2.3917
 157        2.3937
 158        2.3937
 159        2.3990
 160        2.4629
 161        2.4629
 162        2.4980
 163        2.5908
 164        2.5913
 165        2.5928
 166        2.5930
 167        2.7207
 168        2.7207
 169        2.7265
 170        2.7919
 171        3.0652
 172        3.1751
 173        3.1751
 174        3.2794
 175        3.2794
 176        3.5787
 177        4.2845
 178        4.2845
 179        4.4005
 180        4.4005
 181        5.4591
 182        6.1854
 183        6.1854
 184        6.5102
 185        6.5129
 186        6.9785
 187        7.0769
 188        7.2347
 189        7.2987
 190        7.2987
 191        7.8405
 192        8.1265
 193        9.0008
 194        9.0008
 195        9.9244
 196        9.9244
 197       10.3392
 198       10.3854
 199       10.3854
 200       10.5511
 201       10.5511
 202       10.9132
 203       11.0486
 204       11.0486
 205       11.4801
 206       11.4801
 207       11.8198
 208       11.9611
 209       12.3448
 210       12.3815
 211       12.6054
 212       12.8767
 213       12.9214
 214       13.0254
 215       13.3269
 216       13.9970
 
  0.2857143E+00  0.2857143E+00  0.0000000E+00  0.3498542E-01
   1       -5.0042
   2       -3.7396
   3       -3.7396
   4       -2.6022
   5       -2.2862
   6       -2.2862
   7       -1.4684
   8       -1.4684
   9       -1.4684
  10       -1.4684
  11       -1.3301
  12       -1.3301
  13       -1.2795
  14       -1.2795
  15       -0.8711
  16       -0.8711
  17       -0.8641
  18       -0.8641
  19       -0.7545
  20       -0.6051
  21       -0.6051
  22       -0.3888
  23       -0.3888
  24       -0.3888
  25       -0.3888
  26       -0.3640
  27       -0.3640
  28       -0.3626
  29       -0.3439
  30       -0.3439