   4   4   0   0
  0.1238999E+02  0.3673193E-09  0.3673193E-09  0.3673193E-09  0.5000000E-15
  1.000000000000000E-004
  CAR 
 unknown system                          
     25.98033792     -7.10283129  301      3.40017427      1.00000000
     -7.103  0.0000E+00  0.0000E+00
     -6.993  0.0000E+00  0.0000E+00
     -6.882  0.0000E+00  0.0000E+00
     -6.772  0.0000E+00  0.0000E+00
     -6.662  0.0000E+00  0.0000E+00
     -6.551  0.0000E+00  0.0000E+00
     -6.441  0.0000E+00  0.0000E+00
     -6.331  0.0000E+00  0.0000E+00
     -6.221  0.0000E+00  0.0000E+00
     -6.110  0.0000E+00  0.0000E+00
     -6.000  0.0000E+00  0.0000E+00
     -5.890  0.0000E+00  0.0000E+00
     -5.780  0.0000E+00  0.0000E+00
     -5.669  0.0000E+00  0.0000E+00
     -5.559  0.1435E-01  0.1583E-02
     -5.449  0.7417E-01  0.1165E-01
     -5.338  0.1120E+00  0.2800E-01
     -5.228  0.1383E+00  0.4745E-01
     -5.118  0.1629E+00  0.7099E-01
     -5.008  0.1675E+00  0.9628E-01
     -4.897  0.1798E+00  0.1257E+00
     -4.787  0.2489E+00  0.1591E+00
     -4.677  0.2076E+00  0.1895E+00
     -4.566  0.2269E+00  0.2264E+00
     -4.456  0.2585E+00  0.2641E+00
     -4.346  0.2568E+00  0.3048E+00
     -4.236  0.3303E+00  0.3513E+00
     -4.125  0.2854E+00  0.3909E+00
     -4.015  0.3309E+00  0.4420E+00
     -3.905  0.3144E+00  0.4906E+00
     -3.795  0.3520E+00  0.5447E+00
     -3.684  0.3207E+00  0.5963E+00
     -3.574  0.3959E+00  0.6573E+00
     -3.464  0.4304E+00  0.7156E+00
     -3.353  0.3715E+00  0.7727E+00
     -3.243  0.4487E+00  0.8422E+00
     -3.133  0.4359E+00  0.9077E+00
     -3.023  0.4588E+00  0.9792E+00
     -2.912  0.5211E+00  0.1054E+01
     -2.802  0.4822E+00  0.1127E+01
     -2.692  0.5291E+00  0.1212E+01
     -2.581  0.6034E+00  0.1296E+01
     -2.471  0.5821E+00  0.1387E+01
     -2.361  0.6894E+00  0.1482E+01
     -2.251  0.6755E+00  0.1582E+01
     -2.140  0.8235E+00  0.1697E+01
     -2.030  0.7939E+00  0.1810E+01
     -1.920  0.8849E+00  0.1937E+01
     -1.810  0.9924E+00  0.2080E+01
     -1.699  0.1029E+01  0.2233E+01
     -1.589  0.1234E+01  0.2424E+01
     -1.479  0.1566E+01  0.2650E+01
     -1.368  0.2050E+01  0.2958E+01
     -1.258  0.2395E+01  0.3320E+01
     -1.148  0.3542E+01  0.3826E+01
     -1.038  0.3617E+01  0.4371E+01
     -0.927  0.3654E+01  0.4942E+01
     -0.817  0.3885E+01  0.5554E+01
     -0.707  0.5530E+01  0.6326E+01
     -0.596  0.6374E+01  0.7283E+01
     -0.486  0.7614E+01  0.8418E+01
     -0.376  0.6916E+01  0.9496E+01
     -0.266  0.6372E+01  0.1046E+02
     -0.155  0.6744E+01  0.1149E+02
     -0.045  0.6184E+01  0.1244E+02
      0.065  0.7922E+01  0.1357E+02
      0.175  0.9284E+01  0.1490E+02
      0.286  0.9932E+01  0.1639E+02
      0.396  0.1046E+02  0.1797E+02
      0.506  0.1254E+02  0.1984E+02
      0.617  0.1332E+02  0.2182E+02
      0.727  0.1211E+02  0.2390E+02
      0.837  0.8963E+01  0.2530E+02
      0.947  0.7955E+01  0.2652E+02
      1.058  0.9088E+01  0.2786E+02
      1.168  0.1148E+02  0.2957E+02
      1.278  0.1199E+02  0.3139E+02
      1.389  0.1014E+02  0.3297E+02
      1.499  0.1001E+02  0.3450E+02
      1.609  0.1083E+02  0.3611E+02
      1.719  0.1489E+02  0.3823E+02
      1.830  0.1674E+02  0.4098E+02
      1.940  0.4772E+01  0.4188E+02
      2.050  0.1434E+01  0.4208E+02
      2.160  0.1162E+01  0.4228E+02
      2.271  0.1097E+01  0.4246E+02
      2.381  0.1057E+01  0.4262E+02
      2.491  0.1067E+01  0.4279E+02
      2.602  0.1089E+01  0.4296E+02
      2.712  0.1070E+01  0.4311E+02
      2.822  0.7662E+00  0.4325E+02
      2.932  0.1050E+01  0.4341E+02
      3.043  0.9729E+00  0.4356E+02
      3.153  0.8406E+00  0.4370E+02
      3.263  0.9781E+00  0.4384E+02
      3.374  0.8008E+00  0.4397E+02
      3.484  0.1013E+01  0.4412E+02
      3.594  0.8430E+00  0.4425E+02
      3.704  0.8837E+00  0.4437E+02
      3.815  0.8636E+00  0.4451E+02
      3.925  0.7397E+00  0.4462E+02
      4.035  0.8671E+00  0.4476E+02
      4.145  0.8084E+00  0.4488E+02
      4.256  0.9934E+00  0.4501E+02
      4.366  0.7894E+00  0.4512E+02
      4.476  0.7779E+00  0.4524E+02
      4.587  0.8210E+00  0.4536E+02
      4.697  0.7025E+00  0.4548E+02
      4.807  0.7233E+00  0.4559E+02
      4.917  0.7095E+00  0.4571E+02
      5.028  0.8041E+00  0.4582E+02
      5.138  0.8236E+00  0.4594E+02
      5.248  0.7742E+00  0.4606E+02
      5.358  0.6432E+00  0.4615E+02
      5.469  0.7034E+00  0.4626E+02
      5.579  0.6671E+00  0.4637E+02
      5.689  0.5876E+00  0.4646E+02
      5.800  0.7061E+00  0.4657E+02
      5.910  0.6305E+00  0.4667E+02
      6.020  0.5223E+00  0.4675E+02
      6.130  0.5722E+00  0.4684E+02
      6.241  0.6105E+00  0.4694E+02
      6.351  0.5058E+00  0.4701E+02
      6.461  0.5122E+00  0.4709E+02
      6.572  0.5068E+00  0.4717E+02
      6.682  0.5640E+00  0.4726E+02
      6.792  0.4354E+00  0.4732E+02
      6.902  0.4615E+00  0.4738E+02
      7.013  0.6277E+00  0.4748E+02
      7.123  0.7940E+00  0.4761E+02
      7.233  0.7947E+00  0.4773E+02
      7.343  0.9728E+00  0.4787E+02
      7.454  0.8645E+00  0.4799E+02
      7.564  0.9541E+00  0.4812E+02
      7.674  0.8766E+00  0.4825E+02
      7.785  0.9642E+00  0.4839E+02
      7.895  0.8122E+00  0.4851E+02
      8.005  0.8037E+00  0.4864E+02
      8.115  0.8048E+00  0.4877E+02
      8.226  0.8214E+00  0.4889E+02
      8.336  0.8419E+00  0.4903E+02
      8.446  0.7958E+00  0.4916E+02
      8.557  0.9070E+00  0.4928E+02
      8.667  0.8676E+00  0.4941E+02
      8.777  0.7059E+00  0.4952E+02
      8.887  0.7028E+00  0.4963E+02
      8.998  0.7173E+00  0.4975E+02
      9.108  0.7245E+00  0.4987E+02
      9.218  0.6437E+00  0.4998E+02
      9.328  0.7424E+00  0.5009E+02
      9.439  0.6323E+00  0.5020E+02
      9.549  0.6914E+00  0.5031E+02
      9.659  0.6522E+00  0.5042E+02
      9.770  0.7278E+00  0.5053E+02
      9.880  0.7041E+00  0.5063E+02
      9.990  0.6186E+00  0.5072E+02
     10.100  0.6878E+00  0.5083E+02
     10.211  0.6647E+00  0.5093E+02
     10.321  0.8485E+00  0.5106E+02
     10.431  0.9124E+00  0.5120E+02
     10.542  0.9075E+00  0.5133E+02
     10.652  0.9290E+00  0.5148E+02
     10.762  0.9059E+00  0.5161E+02
     10.872  0.8369E+00  0.5175E+02
     10.983  0.1135E+01  0.5191E+02
     11.093  0.9519E+00  0.5205E+02
     11.203  0.9148E+00  0.5220E+02
     11.313  0.8506E+00  0.5235E+02
     11.424  0.1031E+01  0.5251E+02
     11.534  0.1038E+01  0.5267E+02
     11.644  0.1104E+01  0.5283E+02
     11.755  0.1037E+01  0.5298E+02
     11.865  0.1023E+01  0.5313E+02
     11.975  0.1031E+01  0.5330E+02
     12.085  0.1074E+01  0.5346E+02
     12.196  0.9805E+00  0.5362E+02
     12.306  0.1108E+01  0.5378E+02
     12.416  0.1022E+01  0.5394E+02
     12.527  0.1126E+01  0.5409E+02
     12.637  0.1176E+01  0.5427E+02
     12.747  0.1026E+01  0.5442E+02
     12.857  0.9967E+00  0.5459E+02
     12.968  0.9493E+00  0.5475E+02
     13.078  0.9787E+00  0.5491E+02
     13.188  0.1023E+01  0.5507E+02
     13.298  0.1098E+01  0.5525E+02
     13.409  0.1124E+01  0.5541E+02
     13.519  0.1081E+01  0.5558E+02
     13.629  0.1018E+01  0.5574E+02
     13.740  0.1038E+01  0.5590E+02
     13.850  0.1122E+01  0.5608E+02
     13.960  0.1035E+01  0.5625E+02
     14.070  0.1041E+01  0.5642E+02
     14.181  0.1133E+01  0.5659E+02
     14.291  0.1263E+01  0.5677E+02
     14.401  0.9967E+00  0.5692E+02
     14.512  0.1201E+01  0.5710E+02
     14.622  0.1186E+01  0.5728E+02
     14.732  0.1079E+01  0.5745E+02
     14.842  0.1176E+01  0.5763E+02
     14.953  0.1042E+01  0.5780E+02
     15.063  0.1138E+01  0.5798E+02
     15.173  0.1340E+01  0.5817E+02
     15.283  0.1037E+01  0.5833E+02
     15.394  0.1415E+01  0.5853E+02
     15.504  0.1228E+01  0.5871E+02
     15.614  0.1042E+01  0.5888E+02
     15.725  0.1260E+01  0.5908E+02
     15.835  0.1107E+01  0.5925E+02
     15.945  0.1165E+01  0.5944E+02
     16.055  0.1417E+01  0.5964E+02
     16.166  0.1317E+01  0.5984E+02
     16.276  0.1238E+01  0.6004E+02
     16.386  0.1209E+01  0.6023E+02
     16.496  0.1189E+01  0.6042E+02
     16.607  0.1197E+01  0.6060E+02
     16.717  0.1150E+01  0.6077E+02
     16.827  0.1011E+01  0.6094E+02
     16.938  0.1160E+01  0.6112E+02
     17.048  0.9883E+00  0.6128E+02
     17.158  0.9112E+00  0.6143E+02
     17.268  0.9992E+00  0.6158E+02
     17.379  0.1006E+01  0.6173E+02
     17.489  0.6836E+00  0.6184E+02
     17.599  0.9196E+00  0.6198E+02
     17.710  0.7864E+00  0.6210E+02
     17.820  0.7022E+00  0.6220E+02
     17.930  0.6416E+00  0.6230E+02
     18.040  0.6476E+00  0.6239E+02
     18.151  0.5548E+00  0.6246E+02
     18.261  0.5608E+00  0.6255E+02
     18.371  0.5517E+00  0.6264E+02
     18.481  0.3859E+00  0.6270E+02
     18.592  0.4439E+00  0.6278E+02
     18.702  0.4174E+00  0.6285E+02
     18.812  0.4449E+00  0.6291E+02
     18.923  0.4921E+00  0.6298E+02
     19.033  0.4710E+00  0.6304E+02
     19.143  0.3001E+00  0.6309E+02
     19.253  0.3626E+00  0.6314E+02
     19.364  0.3445E+00  0.6319E+02
     19.474  0.1611E+00  0.6323E+02
     19.584  0.4214E+00  0.6329E+02
     19.695  0.1998E+00  0.6332E+02
     19.805  0.3107E+00  0.6336E+02
     19.915  0.1650E+00  0.6340E+02
     20.025  0.2999E+00  0.6344E+02
     20.136  0.1349E+00  0.6346E+02
     20.246  0.2697E+00  0.6350E+02
     20.356  0.2043E+00  0.6353E+02
     20.466  0.1990E+00  0.6356E+02
     20.577  0.1218E+00  0.6359E+02
     20.687  0.2021E+00  0.6362E+02
     20.797  0.1027E+00  0.6364E+02
     20.908  0.1860E+00  0.6366E+02
     21.018  0.9698E-01  0.6369E+02
     21.128  0.5921E-01  0.6370E+02
     21.238  0.2003E+00  0.6373E+02
     21.349  0.1315E+00  0.6375E+02
     21.459  0.1693E+00  0.6378E+02
     21.569  0.4281E-01  0.6378E+02
     21.680  0.1207E+00  0.6380E+02
     21.790  0.1289E+00  0.6382E+02
     21.900  0.1524E+00  0.6384E+02
     22.010  0.9988E-01  0.6385E+02
     22.121  0.5728E-01  0.6386E+02
     22.231  0.8375E-01  0.6387E+02
     22.341  0.8816E-01  0.6389E+02
     22.451  0.5598E-01  0.6390E+02
     22.562  0.3573E-01  0.6390E+02
     22.672  0.6619E-01  0.6392E+02
     22.782  0.5457E-01  0.6393E+02
     22.893  0.6911E-01  0.6394E+02
     23.003  0.3941E-01  0.6394E+02
     23.113  0.7431E-01  0.6395E+02
     23.223  0.1866E-01  0.6396E+02
     23.334  0.6560E-01  0.6396E+02
     23.444  0.9948E-03  0.6397E+02
     23.554  0.3611E-01  0.6397E+02
     23.665  0.4876E-01  0.6398E+02
     23.775  0.1866E-01  0.6398E+02
     23.885  0.2791E-01  0.6399E+02
     23.995  0.3845E-01  0.6399E+02
     24.106  0.9329E-02  0.6399E+02
     24.216  0.2558E-01  0.6400E+02
     24.326  0.8367E-02  0.6400E+02
     24.436  0.1866E-01  0.6400E+02
     24.547  0.3110E-02  0.6400E+02
     24.657  0.0000E+00  0.6400E+02
     24.767  0.0000E+00  0.6400E+02
     24.878  0.0000E+00  0.6400E+02
     24.988  0.0000E+00  0.6400E+02
     25.098  0.0000E+00  0.6400E+02
     25.208  0.0000E+00  0.6400E+02
     25.319  0.0000E+00  0.6400E+02
     25.429  0.0000E+00  0.6400E+02
     25.539  0.0000E+00  0.6400E+02
     25.650  0.0000E+00  0.6400E+02
     25.760  0.0000E+00  0.6400E+02
     25.870  0.0000E+00  0.6400E+02
     25.980  0.0000E+00  0.6400E+02
