       N       E                     dE             d eps       ncg     rms          rms(c)
DAV:   1     0.360639828183E+03    0.36064E+03   -0.31184E+04 87328   0.329E+03
DAV:   2     0.103461710015E+02   -0.35029E+03   -0.33262E+03 85248   0.478E+02
DAV:   3    -0.178632832403E+02   -0.28209E+02   -0.27371E+02 92664   0.158E+02
DAV:   4    -0.182735872549E+02   -0.41030E+00   -0.40990E+00 95720   0.197E+01
DAV:   5    -0.182743726611E+02   -0.78541E-03   -0.78539E-03 94856   0.819E-01    0.138E+01
DAV:   6    -0.162533134730E+02    0.20211E+01   -0.24539E+01 93520   0.797E+01    0.669E+00
DAV:   7    -0.148972862791E+02    0.13560E+01   -0.47520E+00 96856   0.343E+01    0.110E+00
DAV:   8    -0.148634798734E+02    0.33806E-01   -0.41745E-02 92272   0.176E+00    0.673E-01
DAV:   9    -0.148544967013E+02    0.89832E-02   -0.15459E-02 99848   0.200E+00    0.236E-02
DAV:  10    -0.148545769915E+02   -0.80290E-04   -0.54723E-04 91808   0.187E-01    0.110E-02
DAV:  11    -0.148545749134E+02    0.20781E-05   -0.89111E-06102624   0.381E-02    0.503E-03
DAV:  12    -0.148545795062E+02   -0.45928E-05   -0.44570E-07 98376   0.110E-02    0.981E-04
DAV:  13    -0.148545798013E+02   -0.29512E-06   -0.23365E-08 83328   0.210E-03    0.411E-04
DAV:  14    -0.148545798410E+02   -0.39740E-07   -0.30222E-09 54936   0.868E-04    0.171E-05
DAV:  15    -0.148545798192E+02    0.21860E-07   -0.10657E-09 52776   0.276E-04    0.156E-05
DAV:  16    -0.148545798204E+02   -0.11978E-08   -0.16455E-10 50776   0.166E-04
   1 F= -.14854580E+02 E0= -.14854544E+02  d E =-.710500E-04
