<?xml version="1.0" encoding="ISO-8859-1"?>
<modeling>
 <generator>
  <i name="program" type="string">vasp</i>
  <i name="version" type="string">4.6.28 </i>
  <i name="subversion" type="string">25Jul05 complex  parallel</i>
  <i name="platform" type="string">LinuxIFC</i>
  <i name="date" type="string">2017 01 14</i>
  <i name="time" type="string">03:54:13</i>
 </generator>
 <incar>
  <i type="string" name="PREC">accurate</i>
  <i type="int" name="IALGO">    38</i>
  <i type="logical" name="ADDGRID"> T  </i>
  <i name="EDIFF">      0.00000001</i>
  <i type="int" name="IBRION">    -1</i>
  <i name="ENCUT">   1000.00000000</i>
  <i type="logical" name="LREAL"> F  </i>
  <i type="int" name="ISMEAR">     0</i>
  <i name="SIGMA">      0.01000000</i>
  <i type="logical" name="LWAVE"> F  </i>
  <i type="logical" name="LCHARG"> F  </i>
 </incar>
 <kpoints>
  <generation param="Gamma">
   <v type="int" name="divisions">      36      36      36</v>
   <v name="usershift">      0.00000000      0.00000000      0.00000000</v>
   <v name="genvec1">      0.02777778      0.00000000      0.00000000</v>
   <v name="genvec2">      0.00000000      0.02777778      0.00000000</v>
   <v name="genvec3">      0.00000000      0.00000000      0.02777778</v>
   <v name="shift">      0.00000000      0.00000000      0.00000000</v>
  </generation>
  <varray name="kpointlist" >
   <v>       0.00000000      0.00000000      0.00000000</v>
   <v>       0.02777778      0.00000000      0.00000000</v>
   <v>       0.05555556      0.00000000      0.00000000</v>
   <v>       0.08333333      0.00000000      0.00000000</v>
   <v>       0.11111111      0.00000000      0.00000000</v>
   <v>       0.13888889      0.00000000      0.00000000</v>
   <v>       0.16666667      0.00000000      0.00000000</v>
   <v>       0.19444444      0.00000000      0.00000000</v>
   <v>       0.22222222      0.00000000      0.00000000</v>
   <v>       0.25000000      0.00000000      0.00000000</v>
   <v>       0.27777778      0.00000000      0.00000000</v>
   <v>       0.30555556      0.00000000      0.00000000</v>
   <v>       0.33333333      0.00000000      0.00000000</v>
   <v>       0.36111111      0.00000000      0.00000000</v>
   <v>       0.38888889      0.00000000      0.00000000</v>
   <v>       0.41666667      0.00000000      0.00000000</v>
   <v>       0.44444444      0.00000000      0.00000000</v>
   <v>       0.47222222      0.00000000      0.00000000</v>
   <v>       0.50000000      0.00000000      0.00000000</v>
   <v>       0.02777778      0.02777778      0.00000000</v>
   <v>       0.05555556      0.02777778      0.00000000</v>
   <v>       0.08333333      0.02777778      0.00000000</v>
   <v>       0.11111111      0.02777778      0.00000000</v>
   <v>       0.13888889      0.02777778      0.00000000</v>
   <v>       0.16666667      0.02777778      0.00000000</v>
   <v>       0.19444444      0.02777778      0.00000000</v>
   <v>       0.22222222      0.02777778      0.00000000</v>
   <v>       0.25000000      0.02777778      0.00000000</v>
   <v>       0.27777778      0.02777778      0.00000000</v>
   <v>       0.30555556      0.02777778      0.00000000</v>
   <v>       0.33333333      0.02777778      0.00000000</v>
   <v>       0.36111111      0.02777778      0.00000000</v>
   <v>       0.38888889      0.02777778      0.00000000</v>
   <v>       0.41666667      0.02777778      0.00000000</v>
   <v>       0.44444444      0.02777778      0.00000000</v>
   <v>       0.47222222      0.02777778      0.00000000</v>
   <v>       0.50000000      0.02777778      0.00000000</v>
   <v>       0.05555556      0.05555556      0.00000000</v>
   <v>       0.08333333      0.05555556      0.00000000</v>
   <v>       0.11111111      0.05555556      0.00000000</v>
   <v>       0.13888889      0.05555556      0.00000000</v>
   <v>       0.16666667      0.05555556      0.00000000</v>
   <v>       0.19444444      0.05555556      0.00000000</v>
   <v>       0.22222222      0.05555556      0.00000000</v>
   <v>       0.25000000      0.05555556      0.00000000</v>
   <v>       0.27777778      0.05555556      0.00000000</v>
   <v>       0.30555556      0.05555556      0.00000000</v>
   <v>       0.33333333      0.05555556      0.00000000</v>
   <v>       0.36111111      0.05555556      0.00000000</v>
   <v>       0.38888889      0.05555556      0.00000000</v>
   <v>       0.41666667      0.05555556      0.00000000</v>
   <v>       0.44444444      0.05555556      0.00000000</v>
   <v>       0.47222222      0.05555556      0.00000000</v>
   <v>       0.50000000      0.05555556      0.00000000</v>
   <v>       0.08333333      0.08333333      0.00000000</v>
   <v>       0.11111111      0.08333333      0.00000000</v>
   <v>       0.13888889      0.08333333      0.00000000</v>
   <v>       0.16666667      0.08333333      0.00000000</v>
   <v>       0.19444444      0.08333333      0.00000000</v>
   <v>       0.22222222      0.08333333      0.00000000</v>
   <v>       0.25000000      0.08333333      0.00000000</v>
   <v>       0.27777778      0.08333333      0.00000000</v>
   <v>       0.30555556      0.08333333      0.00000000</v>
   <v>       0.33333333      0.08333333      0.00000000</v>
   <v>       0.36111111      0.08333333      0.00000000</v>
   <v>       0.38888889      0.08333333      0.00000000</v>
   <v>       0.41666667      0.08333333      0.00000000</v>
   <v>       0.44444444      0.08333333      0.00000000</v>
   <v>       0.47222222      0.08333333      0.00000000</v>
   <v>       0.50000000      0.08333333      0.00000000</v>
   <v>       0.11111111      0.11111111      0.00000000</v>
   <v>       0.13888889      0.11111111      0.00000000</v>
   <v>       0.16666667      0.11111111      0.00000000</v>
   <v>       0.19444444      0.11111111      0.00000000</v>
   <v>       0.22222222      0.11111111      0.00000000</v>
   <v>       0.25000000      0.11111111      0.00000000</v>
   <v>       0.27777778      0.11111111      0.00000000</v>
   <v>       0.30555556      0.11111111      0.00000000</v>
   <v>       0.33333333      0.11111111      0.00000000</v>
   <v>       0.36111111      0.11111111      0.00000000</v>
   <v>       0.38888889      0.11111111      0.00000000</v>
   <v>       0.41666667      0.11111111      0.00000000</v>
   <v>       0.44444444      0.11111111      0.00000000</v>
   <v>       0.47222222      0.11111111      0.00000000</v>
   <v>       0.50000000      0.11111111      0.00000000</v>
   <v>       0.13888889      0.13888889      0.00000000</v>
   <v>       0.16666667      0.13888889      0.00000000</v>
   <v>       0.19444444      0.13888889      0.00000000</v>
   <v>       0.22222222      0.13888889      0.00000000</v>
   <v>       0.25000000      0.13888889      0.00000000</v>
   <v>       0.27777778      0.13888889      0.00000000</v>
   <v>       0.30555556      0.13888889      0.00000000</v>
   <v>       0.33333333      0.13888889      0.00000000</v>
   <v>       0.36111111      0.13888889      0.00000000</v>
   <v>       0.38888889      0.13888889      0.00000000</v>
   <v>       0.41666667      0.13888889      0.00000000</v>
   <v>       0.44444444      0.13888889      0.00000000</v>
   <v>       0.47222222      0.13888889      0.00000000</v>
   <v>       0.50000000      0.13888889      0.00000000</v>
   <v>       0.16666667      0.16666667      0.00000000</v>
   <v>       0.19444444      0.16666667      0.00000000</v>
   <v>       0.22222222      0.16666667      0.00000000</v>
   <v>       0.25000000      0.16666667      0.00000000</v>
   <v>       0.27777778      0.16666667      0.00000000</v>
   <v>       0.30555556      0.16666667      0.00000000</v>
   <v>       0.33333333      0.16666667      0.00000000</v>
   <v>       0.36111111      0.16666667      0.00000000</v>
   <v>       0.38888889      0.16666667      0.00000000</v>
   <v>       0.41666667      0.16666667      0.00000000</v>
   <v>       0.44444444      0.16666667      0.00000000</v>
   <v>       0.47222222      0.16666667      0.00000000</v>
   <v>       0.50000000      0.16666667      0.00000000</v>
   <v>       0.19444444      0.19444444      0.00000000</v>
   <v>       0.22222222      0.19444444      0.00000000</v>
   <v>       0.25000000      0.19444444      0.00000000</v>
   <v>       0.27777778      0.19444444      0.00000000</v>
   <v>       0.30555556      0.19444444      0.00000000</v>
   <v>       0.33333333      0.19444444      0.00000000</v>
   <v>       0.36111111      0.19444444      0.00000000</v>
   <v>       0.38888889      0.19444444      0.00000000</v>
   <v>       0.41666667      0.19444444      0.00000000</v>
   <v>       0.44444444      0.19444444      0.00000000</v>
   <v>       0.47222222      0.19444444      0.00000000</v>
   <v>       0.50000000      0.19444444      0.00000000</v>
   <v>       0.22222222      0.22222222      0.00000000</v>
   <v>       0.25000000      0.22222222      0.00000000</v>
   <v>       0.27777778      0.22222222      0.00000000</v>
   <v>       0.30555556      0.22222222      0.00000000</v>
   <v>       0.33333333      0.22222222      0.00000000</v>
   <v>       0.36111111      0.22222222      0.00000000</v>
   <v>       0.38888889      0.22222222      0.00000000</v>
   <v>       0.41666667      0.22222222      0.00000000</v>
   <v>       0.44444444      0.22222222      0.00000000</v>
   <v>       0.47222222      0.22222222      0.00000000</v>
   <v>       0.50000000      0.22222222      0.00000000</v>
   <v>       0.25000000      0.25000000      0.00000000</v>
   <v>       0.27777778      0.25000000      0.00000000</v>
   <v>       0.30555556      0.25000000      0.00000000</v>
   <v>       0.33333333      0.25000000      0.00000000</v>
   <v>       0.36111111      0.25000000      0.00000000</v>
   <v>       0.38888889      0.25000000      0.00000000</v>
   <v>       0.41666667      0.25000000      0.00000000</v>
   <v>       0.44444444      0.25000000      0.00000000</v>
   <v>       0.47222222      0.25000000      0.00000000</v>
   <v>       0.50000000      0.25000000      0.00000000</v>
   <v>       0.27777778      0.27777778      0.00000000</v>
   <v>       0.30555556      0.27777778      0.00000000</v>
   <v>       0.33333333      0.27777778      0.00000000</v>
   <v>       0.36111111      0.27777778      0.00000000</v>
   <v>       0.38888889      0.27777778      0.00000000</v>
   <v>       0.41666667      0.27777778      0.00000000</v>
   <v>       0.44444444      0.27777778      0.00000000</v>
   <v>       0.47222222      0.27777778      0.00000000</v>
   <v>       0.50000000      0.27777778      0.00000000</v>
   <v>       0.30555556      0.30555556      0.00000000</v>
   <v>       0.33333333      0.30555556      0.00000000</v>
   <v>       0.36111111      0.30555556      0.00000000</v>
   <v>       0.38888889      0.30555556      0.00000000</v>
   <v>       0.41666667      0.30555556      0.00000000</v>
   <v>       0.44444444      0.30555556      0.00000000</v>
   <v>       0.47222222      0.30555556      0.00000000</v>
   <v>       0.50000000      0.30555556      0.00000000</v>
   <v>       0.33333333      0.33333333      0.00000000</v>
   <v>       0.36111111      0.33333333      0.00000000</v>
   <v>       0.38888889      0.33333333      0.00000000</v>
   <v>       0.41666667      0.33333333      0.00000000</v>
   <v>       0.44444444      0.33333333      0.00000000</v>
   <v>       0.47222222      0.33333333      0.00000000</v>
   <v>       0.50000000      0.33333333      0.00000000</v>
   <v>       0.36111111      0.36111111      0.00000000</v>
   <v>       0.38888889      0.36111111      0.00000000</v>
   <v>       0.41666667      0.36111111      0.00000000</v>
   <v>       0.44444444      0.36111111      0.00000000</v>
   <v>       0.47222222      0.36111111      0.00000000</v>
   <v>       0.50000000      0.36111111      0.00000000</v>
   <v>       0.38888889      0.38888889      0.00000000</v>
   <v>       0.41666667      0.38888889      0.00000000</v>
   <v>       0.44444444      0.38888889      0.00000000</v>
   <v>       0.47222222      0.38888889      0.00000000</v>
   <v>       0.50000000      0.38888889      0.00000000</v>
   <v>       0.41666667      0.41666667      0.00000000</v>
   <v>       0.44444444      0.41666667      0.00000000</v>
   <v>       0.47222222      0.41666667      0.00000000</v>
   <v>       0.50000000      0.41666667      0.00000000</v>
   <v>       0.44444444      0.44444444      0.00000000</v>
   <v>       0.47222222      0.44444444      0.00000000</v>
   <v>       0.50000000      0.44444444      0.00000000</v>
   <v>       0.47222222      0.47222222      0.00000000</v>
   <v>       0.50000000      0.47222222      0.00000000</v>
   <v>       0.50000000      0.50000000      0.00000000</v>
   <v>       0.02777778      0.02777778      0.02777778</v>
   <v>       0.05555556      0.02777778      0.02777778</v>
   <v>       0.08333333      0.02777778      0.02777778</v>
   <v>       0.11111111      0.02777778      0.02777778</v>
   <v>       0.13888889      0.02777778      0.02777778</v>
   <v>       0.16666667      0.02777778      0.02777778</v>
   <v>       0.19444444      0.02777778      0.02777778</v>
   <v>       0.22222222      0.02777778      0.02777778</v>
   <v>       0.25000000      0.02777778      0.02777778</v>
   <v>       0.27777778      0.02777778      0.02777778</v>
   <v>       0.30555556      0.02777778      0.02777778</v>
   <v>       0.33333333      0.02777778      0.02777778</v>
   <v>       0.36111111      0.02777778      0.02777778</v>
   <v>       0.38888889      0.02777778      0.02777778</v>
   <v>       0.41666667      0.02777778      0.02777778</v>
   <v>       0.44444444      0.02777778      0.02777778</v>
   <v>       0.47222222      0.02777778      0.02777778</v>
   <v>       0.50000000      0.02777778      0.02777778</v>
   <v>       0.05555556      0.05555556      0.02777778</v>
   <v>       0.08333333      0.05555556      0.02777778</v>
   <v>       0.11111111      0.05555556      0.02777778</v>
   <v>       0.13888889      0.05555556      0.02777778</v>
   <v>       0.16666667      0.05555556      0.02777778</v>
   <v>       0.19444444      0.05555556      0.02777778</v>
   <v>       0.22222222      0.05555556      0.02777778</v>
   <v>       0.25000000      0.05555556      0.02777778</v>
   <v>       0.27777778      0.05555556      0.02777778</v>
   <v>       0.30555556      0.05555556      0.02777778</v>
   <v>       0.33333333      0.05555556      0.02777778</v>
   <v>       0.36111111      0.05555556      0.02777778</v>
   <v>       0.38888889      0.05555556      0.02777778</v>
   <v>       0.41666667      0.05555556      0.02777778</v>
   <v>       0.44444444      0.05555556      0.02777778</v>
   <v>       0.47222222      0.05555556      0.02777778</v>
   <v>       0.50000000      0.05555556      0.02777778</v>
   <v>       0.08333333      0.08333333      0.02777778</v>
   <v>       0.11111111      0.08333333      0.02777778</v>
   <v>       0.13888889      0.08333333      0.02777778</v>
   <v>       0.16666667      0.08333333      0.02777778</v>
   <v>       0.19444444      0.08333333      0.02777778</v>
   <v>       0.22222222      0.08333333      0.02777778</v>
   <v>       0.25000000      0.08333333      0.02777778</v>
   <v>       0.27777778      0.08333333      0.02777778</v>
   <v>       0.30555556      0.08333333      0.02777778</v>
   <v>       0.33333333      0.08333333      0.02777778</v>
   <v>       0.36111111      0.08333333      0.02777778</v>
   <v>       0.38888889      0.08333333      0.02777778</v>
   <v>       0.41666667      0.08333333      0.02777778</v>
   <v>       0.44444444      0.08333333      0.02777778</v>
   <v>       0.47222222      0.08333333      0.02777778</v>
   <v>       0.50000000      0.08333333      0.02777778</v>
   <v>       0.11111111      0.11111111      0.02777778</v>
   <v>       0.13888889      0.11111111      0.02777778</v>
   <v>       0.16666667      0.11111111      0.02777778</v>
   <v>       0.19444444      0.11111111      0.02777778</v>
   <v>       0.22222222      0.11111111      0.02777778</v>
   <v>       0.25000000      0.11111111      0.02777778</v>
   <v>       0.27777778      0.11111111      0.02777778</v>
   <v>       0.30555556      0.11111111      0.02777778</v>
   <v>       0.33333333      0.11111111      0.02777778</v>
   <v>       0.36111111      0.11111111      0.02777778</v>
   <v>       0.38888889      0.11111111      0.02777778</v>
   <v>       0.41666667      0.11111111      0.02777778</v>
   <v>       0.44444444      0.11111111      0.02777778</v>
   <v>       0.47222222      0.11111111      0.02777778</v>
   <v>       0.50000000      0.11111111      0.02777778</v>
   <v>       0.13888889      0.13888889      0.02777778</v>
   <v>       0.16666667      0.13888889      0.02777778</v>
   <v>       0.19444444      0.13888889      0.02777778</v>
   <v>       0.22222222      0.13888889      0.02777778</v>
   <v>       0.25000000      0.13888889      0.02777778</v>
   <v>       0.27777778      0.13888889      0.02777778</v>
   <v>       0.30555556      0.13888889      0.02777778</v>
   <v>       0.33333333      0.13888889      0.02777778</v>
   <v>       0.36111111      0.13888889      0.02777778</v>
   <v>       0.38888889      0.13888889      0.02777778</v>
   <v>       0.41666667      0.13888889      0.02777778</v>
   <v>       0.44444444      0.13888889      0.02777778</v>
   <v>       0.47222222      0.13888889      0.02777778</v>
   <v>       0.50000000      0.13888889      0.02777778</v>
   <v>       0.16666667      0.16666667      0.02777778</v>
   <v>       0.19444444      0.16666667      0.02777778</v>
   <v>       0.22222222      0.16666667      0.02777778</v>
   <v>       0.25000000      0.16666667      0.02777778</v>
   <v>       0.27777778      0.16666667      0.02777778</v>
   <v>       0.30555556      0.16666667      0.02777778</v>
   <v>       0.33333333      0.16666667      0.02777778</v>
   <v>       0.36111111      0.16666667      0.02777778</v>
   <v>       0.38888889      0.16666667      0.02777778</v>
   <v>       0.41666667      0.16666667      0.02777778</v>
   <v>       0.44444444      0.16666667      0.02777778</v>
   <v>       0.47222222      0.16666667      0.02777778</v>
   <v>       0.50000000      0.16666667      0.02777778</v>
   <v>       0.19444444      0.19444444      0.02777778</v>
   <v>       0.22222222      0.19444444      0.02777778</v>
   <v>       0.25000000      0.19444444      0.02777778</v>
   <v>       0.27777778      0.19444444      0.02777778</v>
   <v>       0.30555556      0.19444444      0.02777778</v>
   <v>       0.33333333      0.19444444      0.02777778</v>
   <v>       0.36111111      0.19444444      0.02777778</v>
   <v>       0.38888889      0.19444444      0.02777778</v>
   <v>       0.41666667      0.19444444      0.02777778</v>
   <v>       0.44444444      0.19444444      0.02777778</v>
   <v>       0.47222222      0.19444444      0.02777778</v>
   <v>       0.50000000      0.19444444      0.02777778</v>
   <v>       0.22222222      0.22222222      0.02777778</v>
   <v>       0.25000000      0.22222222      0.02777778</v>
   <v>       0.27777778      0.22222222      0.02777778</v>
   <v>       0.30555556      0.22222222      0.02777778</v>
   <v>       0.33333333      0.22222222      0.02777778</v>
   <v>       0.36111111      0.22222222      0.02777778</v>
   <v>       0.38888889      0.22222222      0.02777778</v>
   <v>       0.41666667      0.22222222      0.02777778</v>
   <v>       0.44444444      0.22222222      0.02777778</v>
   <v>       0.47222222      0.22222222      0.02777778</v>
   <v>       0.50000000      0.22222222      0.02777778</v>
   <v>       0.25000000      0.25000000      0.02777778</v>
   <v>       0.27777778      0.25000000      0.02777778</v>
   <v>       0.30555556      0.25000000      0.02777778</v>
   <v>       0.33333333      0.25000000      0.02777778</v>
   <v>       0.36111111      0.25000000      0.02777778</v>
   <v>       0.38888889      0.25000000      0.02777778</v>
   <v>       0.41666667      0.25000000      0.02777778</v>
   <v>       0.44444444      0.25000000      0.02777778</v>
   <v>       0.47222222      0.25000000      0.02777778</v>
   <v>       0.50000000      0.25000000      0.02777778</v>
   <v>       0.27777778      0.27777778      0.02777778</v>
   <v>       0.30555556      0.27777778      0.02777778</v>
   <v>       0.33333333      0.27777778      0.02777778</v>
   <v>       0.36111111      0.27777778      0.02777778</v>
   <v>       0.38888889      0.27777778      0.02777778</v>
   <v>       0.41666667      0.27777778      0.02777778</v>
   <v>       0.44444444      0.27777778      0.02777778</v>
   <v>       0.47222222      0.27777778      0.02777778</v>
   <v>       0.50000000      0.27777778      0.02777778</v>
   <v>       0.30555556      0.30555556      0.02777778</v>
   <v>       0.33333333      0.30555556      0.02777778</v>
   <v>       0.36111111      0.30555556      0.02777778</v>
   <v>       0.38888889      0.30555556      0.02777778</v>
   <v>       0.41666667      0.30555556      0.02777778</v>
   <v>       0.44444444      0.30555556      0.02777778</v>
   <v>       0.47222222      0.30555556      0.02777778</v>
   <v>       0.50000000      0.30555556      0.02777778</v>
   <v>       0.33333333      0.33333333      0.02777778</v>
   <v>       0.36111111      0.33333333      0.02777778</v>
   <v>       0.38888889      0.33333333      0.02777778</v>
   <v>       0.41666667      0.33333333      0.02777778</v>
   <v>       0.44444444      0.33333333      0.02777778</v>
   <v>       0.47222222      0.33333333      0.02777778</v>
   <v>       0.50000000      0.33333333      0.02777778</v>
   <v>       0.36111111      0.36111111      0.02777778</v>
   <v>       0.38888889      0.36111111      0.02777778</v>
   <v>       0.41666667      0.36111111      0.02777778</v>
   <v>       0.44444444      0.36111111      0.02777778</v>
   <v>       0.47222222      0.36111111      0.02777778</v>
   <v>       0.50000000      0.36111111      0.02777778</v>
   <v>       0.38888889      0.38888889      0.02777778</v>
   <v>       0.41666667      0.38888889      0.02777778</v>
   <v>       0.44444444      0.38888889      0.02777778</v>
   <v>       0.47222222      0.38888889      0.02777778</v>
   <v>       0.50000000      0.38888889      0.02777778</v>
   <v>       0.41666667      0.41666667      0.02777778</v>
   <v>       0.44444444      0.41666667      0.02777778</v>
   <v>       0.47222222      0.41666667      0.02777778</v>
   <v>       0.50000000      0.41666667      0.02777778</v>
   <v>       0.44444444      0.44444444      0.02777778</v>
   <v>       0.47222222      0.44444444      0.02777778</v>
   <v>       0.50000000      0.44444444      0.02777778</v>
   <v>       0.47222222      0.47222222      0.02777778</v>
   <v>       0.50000000      0.47222222      0.02777778</v>
   <v>       0.50000000      0.50000000      0.02777778</v>
   <v>       0.05555556      0.05555556      0.05555556</v>
   <v>       0.08333333      0.05555556      0.05555556</v>
   <v>       0.11111111      0.05555556      0.05555556</v>
   <v>       0.13888889      0.05555556      0.05555556</v>
   <v>       0.16666667      0.05555556      0.05555556</v>
   <v>       0.19444444      0.05555556      0.05555556</v>
   <v>       0.22222222      0.05555556      0.05555556</v>
   <v>       0.25000000      0.05555556      0.05555556</v>
   <v>       0.27777778      0.05555556      0.05555556</v>
   <v>       0.30555556      0.05555556      0.05555556</v>
   <v>       0.33333333      0.05555556      0.05555556</v>
   <v>       0.36111111      0.05555556      0.05555556</v>
   <v>       0.38888889      0.05555556      0.05555556</v>
   <v>       0.41666667      0.05555556      0.05555556</v>
   <v>       0.44444444      0.05555556      0.05555556</v>
   <v>       0.47222222      0.05555556      0.05555556</v>
   <v>       0.50000000      0.05555556      0.05555556</v>
   <v>       0.08333333      0.08333333      0.05555556</v>
   <v>       0.11111111      0.08333333      0.05555556</v>
   <v>       0.13888889      0.08333333      0.05555556</v>
   <v>       0.16666667      0.08333333      0.05555556</v>
   <v>       0.19444444      0.08333333      0.05555556</v>
   <v>       0.22222222      0.08333333      0.05555556</v>
   <v>       0.25000000      0.08333333      0.05555556</v>
   <v>       0.27777778      0.08333333      0.05555556</v>
   <v>       0.30555556      0.08333333      0.05555556</v>
   <v>       0.33333333      0.08333333      0.05555556</v>
   <v>       0.36111111      0.08333333      0.05555556</v>
   <v>       0.38888889      0.08333333      0.05555556</v>
   <v>       0.41666667      0.08333333      0.05555556</v>
   <v>       0.44444444      0.08333333      0.05555556</v>
   <v>       0.47222222      0.08333333      0.05555556</v>
   <v>       0.50000000      0.08333333      0.05555556</v>
   <v>       0.11111111      0.11111111      0.05555556</v>
   <v>       0.13888889      0.11111111      0.05555556</v>
   <v>       0.16666667      0.11111111      0.05555556</v>
   <v>       0.19444444      0.11111111      0.05555556</v>
   <v>       0.22222222      0.11111111      0.05555556</v>
   <v>       0.25000000      0.11111111      0.05555556</v>
   <v>       0.27777778      0.11111111      0.05555556</v>
   <v>       0.30555556      0.11111111      0.05555556</v>
   <v>       0.33333333      0.11111111      0.05555556</v>
   <v>       0.36111111      0.11111111      0.05555556</v>
   <v>       0.38888889      0.11111111      0.05555556</v>
   <v>       0.41666667      0.11111111      0.05555556</v>
   <v>       0.44444444      0.11111111      0.05555556</v>
   <v>       0.47222222      0.11111111      0.05555556</v>
   <v>       0.50000000      0.11111111      0.05555556</v>
   <v>       0.13888889      0.13888889      0.05555556</v>
   <v>       0.16666667      0.13888889      0.05555556</v>
   <v>       0.19444444      0.13888889      0.05555556</v>
   <v>       0.22222222      0.13888889      0.05555556</v>
   <v>       0.25000000      0.13888889      0.05555556</v>
   <v>       0.27777778      0.13888889      0.05555556</v>
   <v>       0.30555556      0.13888889      0.05555556</v>
   <v>       0.33333333      0.13888889      0.05555556</v>
   <v>       0.36111111      0.13888889      0.05555556</v>
   <v>       0.38888889      0.13888889      0.05555556</v>
   <v>       0.41666667      0.13888889      0.05555556</v>
   <v>       0.44444444      0.13888889      0.05555556</v>
   <v>       0.47222222      0.13888889      0.05555556</v>
   <v>       0.50000000      0.13888889      0.05555556</v>
   <v>       0.16666667      0.16666667      0.05555556</v>
   <v>       0.19444444      0.16666667      0.05555556</v>
   <v>       0.22222222      0.16666667      0.05555556</v>
   <v>       0.25000000      0.16666667      0.05555556</v>
   <v>       0.27777778      0.16666667      0.05555556</v>
   <v>       0.30555556      0.16666667      0.05555556</v>
   <v>       0.33333333      0.16666667      0.05555556</v>
   <v>       0.36111111      0.16666667      0.05555556</v>
   <v>       0.38888889      0.16666667      0.05555556</v>
   <v>       0.41666667      0.16666667      0.05555556</v>
   <v>       0.44444444      0.16666667      0.05555556</v>
   <v>       0.47222222      0.16666667      0.05555556</v>
   <v>       0.50000000      0.16666667      0.05555556</v>
   <v>       0.19444444      0.19444444      0.05555556</v>
   <v>       0.22222222      0.19444444      0.05555556</v>
   <v>       0.25000000      0.19444444      0.05555556</v>
   <v>       0.27777778      0.19444444      0.05555556</v>
   <v>       0.30555556      0.19444444      0.05555556</v>
   <v>       0.33333333      0.19444444      0.05555556</v>
   <v>       0.36111111      0.19444444      0.05555556</v>
   <v>       0.38888889      0.19444444      0.05555556</v>
   <v>       0.41666667      0.19444444      0.05555556</v>
   <v>       0.44444444      0.19444444      0.05555556</v>
   <v>       0.47222222      0.19444444      0.05555556</v>
   <v>       0.50000000      0.19444444      0.05555556</v>
   <v>       0.22222222      0.22222222      0.05555556</v>
   <v>       0.25000000      0.22222222      0.05555556</v>
   <v>       0.27777778      0.22222222      0.05555556</v>
   <v>       0.30555556      0.22222222      0.05555556</v>
   <v>       0.33333333      0.22222222      0.05555556</v>
   <v>       0.36111111      0.22222222      0.05555556</v>
   <v>       0.38888889      0.22222222      0.05555556</v>
   <v>       0.41666667      0.22222222      0.05555556</v>
   <v>       0.44444444      0.22222222      0.05555556</v>
   <v>       0.47222222      0.22222222      0.05555556</v>
   <v>       0.50000000      0.22222222      0.05555556</v>
   <v>       0.25000000      0.25000000      0.05555556</v>
   <v>       0.27777778      0.25000000      0.05555556</v>
   <v>       0.30555556      0.25000000      0.05555556</v>
   <v>       0.33333333      0.25000000      0.05555556</v>
   <v>       0.36111111      0.25000000      0.05555556</v>
   <v>       0.38888889      0.25000000      0.05555556</v>
   <v>       0.41666667      0.25000000      0.05555556</v>
   <v>       0.44444444      0.25000000      0.05555556</v>
   <v>       0.47222222      0.25000000      0.05555556</v>
   <v>       0.50000000      0.25000000      0.05555556</v>
   <v>       0.27777778      0.27777778      0.05555556</v>
   <v>       0.30555556      0.27777778      0.05555556</v>
   <v>       0.33333333      0.27777778      0.05555556</v>
   <v>       0.36111111      0.27777778      0.05555556</v>
   <v>       0.38888889      0.27777778      0.05555556</v>
   <v>       0.41666667      0.27777778      0.05555556</v>
   <v>       0.44444444      0.27777778      0.05555556</v>
   <v>       0.47222222      0.27777778      0.05555556</v>
   <v>       0.50000000      0.27777778      0.05555556</v>
   <v>       0.30555556      0.30555556      0.05555556</v>
   <v>       0.33333333      0.30555556      0.05555556</v>
   <v>       0.36111111      0.30555556      0.05555556</v>
   <v>       0.38888889      0.30555556      0.05555556</v>
   <v>       0.41666667      0.30555556      0.05555556</v>
   <v>       0.44444444      0.30555556      0.05555556</v>
   <v>       0.47222222      0.30555556      0.05555556</v>
   <v>       0.50000000      0.30555556      0.05555556</v>
   <v>       0.33333333      0.33333333      0.05555556</v>
   <v>       0.36111111      0.33333333      0.05555556</v>
   <v>       0.38888889      0.33333333      0.05555556</v>
   <v>       0.41666667      0.33333333      0.05555556</v>
   <v>       0.44444444      0.33333333      0.05555556</v>
   <v>       0.47222222      0.33333333      0.05555556</v>
   <v>       0.50000000      0.33333333      0.05555556</v>
   <v>       0.36111111      0.36111111      0.05555556</v>
   <v>       0.38888889      0.36111111      0.05555556</v>
   <v>       0.41666667      0.36111111      0.05555556</v>
   <v>       0.44444444      0.36111111      0.05555556</v>
   <v>       0.47222222      0.36111111      0.05555556</v>
   <v>       0.50000000      0.36111111      0.05555556</v>
   <v>       0.38888889      0.38888889      0.05555556</v>
   <v>       0.41666667      0.38888889      0.05555556</v>
   <v>       0.44444444      0.38888889      0.05555556</v>
   <v>       0.47222222      0.38888889      0.05555556</v>
   <v>       0.50000000      0.38888889      0.05555556</v>
   <v>       0.41666667      0.41666667      0.05555556</v>
   <v>       0.44444444      0.41666667      0.05555556</v>
   <v>       0.47222222      0.41666667      0.05555556</v>
   <v>       0.50000000      0.41666667      0.05555556</v>
   <v>       0.44444444      0.44444444      0.05555556</v>
   <v>       0.47222222      0.44444444      0.05555556</v>
   <v>       0.50000000      0.44444444      0.05555556</v>
   <v>       0.47222222      0.47222222      0.05555556</v>
   <v>       0.50000000      0.47222222      0.05555556</v>
   <v>       0.50000000      0.50000000      0.05555556</v>
   <v>       0.08333333      0.08333333      0.08333333</v>
   <v>       0.11111111      0.08333333      0.08333333</v>
   <v>       0.13888889      0.08333333      0.08333333</v>
   <v>       0.16666667      0.08333333      0.08333333</v>
   <v>       0.19444444      0.08333333      0.08333333</v>
   <v>       0.22222222      0.08333333      0.08333333</v>
   <v>       0.25000000      0.08333333      0.08333333</v>
   <v>       0.27777778      0.08333333      0.08333333</v>
   <v>       0.30555556      0.08333333      0.08333333</v>
   <v>       0.33333333      0.08333333      0.08333333</v>
   <v>       0.36111111      0.08333333      0.08333333</v>
   <v>       0.38888889      0.08333333      0.08333333</v>
   <v>       0.41666667      0.08333333      0.08333333</v>
   <v>       0.44444444      0.08333333      0.08333333</v>
   <v>       0.47222222      0.08333333      0.08333333</v>
   <v>       0.50000000      0.08333333      0.08333333</v>
   <v>       0.11111111      0.11111111      0.08333333</v>
   <v>       0.13888889      0.11111111      0.08333333</v>
   <v>       0.16666667      0.11111111      0.08333333</v>
   <v>       0.19444444      0.11111111      0.08333333</v>
   <v>       0.22222222      0.11111111      0.08333333</v>
   <v>       0.25000000      0.11111111      0.08333333</v>
   <v>       0.27777778      0.11111111      0.08333333</v>
   <v>       0.30555556      0.11111111      0.08333333</v>
   <v>       0.33333333      0.11111111      0.08333333</v>
   <v>       0.36111111      0.11111111      0.08333333</v>
   <v>       0.38888889      0.11111111      0.08333333</v>
   <v>       0.41666667      0.11111111      0.08333333</v>
   <v>       0.44444444      0.11111111      0.08333333</v>
   <v>       0.47222222      0.11111111      0.08333333</v>
   <v>       0.50000000      0.11111111      0.08333333</v>
   <v>       0.13888889      0.13888889      0.08333333</v>
   <v>       0.16666667      0.13888889      0.08333333</v>
   <v>       0.19444444      0.13888889      0.08333333</v>
   <v>       0.22222222      0.13888889      0.08333333</v>
   <v>       0.25000000      0.13888889      0.08333333</v>
   <v>       0.27777778      0.13888889      0.08333333</v>
   <v>       0.30555556      0.13888889      0.08333333</v>
   <v>       0.33333333      0.13888889      0.08333333</v>
   <v>       0.36111111      0.13888889      0.08333333</v>
   <v>       0.38888889      0.13888889      0.08333333</v>
   <v>       0.41666667      0.13888889      0.08333333</v>
   <v>       0.44444444      0.13888889      0.08333333</v>
   <v>       0.47222222      0.13888889      0.08333333</v>
   <v>       0.50000000      0.13888889      0.08333333</v>
   <v>       0.16666667      0.16666667      0.08333333</v>
   <v>       0.19444444      0.16666667      0.08333333</v>
   <v>       0.22222222      0.16666667      0.08333333</v>
   <v>       0.25000000      0.16666667      0.08333333</v>
   <v>       0.27777778      0.16666667      0.08333333</v>
   <v>       0.30555556      0.16666667      0.08333333</v>
   <v>       0.33333333      0.16666667      0.08333333</v>
   <v>       0.36111111      0.16666667      0.08333333</v>
   <v>       0.38888889      0.16666667      0.08333333</v>
   <v>       0.41666667      0.16666667      0.08333333</v>
   <v>       0.44444444      0.16666667      0.08333333</v>
   <v>       0.47222222      0.16666667      0.08333333</v>
   <v>       0.50000000      0.16666667      0.08333333</v>
   <v>       0.19444444      0.19444444      0.08333333</v>
   <v>       0.22222222      0.19444444      0.08333333</v>
   <v>       0.25000000      0.19444444      0.08333333</v>
   <v>       0.27777778      0.19444444      0.08333333</v>
   <v>       0.30555556      0.19444444      0.08333333</v>
   <v>       0.33333333      0.19444444      0.08333333</v>
   <v>       0.36111111      0.19444444      0.08333333</v>
   <v>       0.38888889      0.19444444      0.08333333</v>
   <v>       0.41666667      0.19444444      0.08333333</v>
   <v>       0.44444444      0.19444444      0.08333333</v>
   <v>       0.47222222      0.19444444      0.08333333</v>
   <v>       0.50000000      0.19444444      0.08333333</v>
   <v>       0.22222222      0.22222222      0.08333333</v>
   <v>       0.25000000      0.22222222      0.08333333</v>
   <v>       0.27777778      0.22222222      0.08333333</v>
   <v>       0.30555556      0.22222222      0.08333333</v>
   <v>       0.33333333      0.22222222      0.08333333</v>
   <v>       0.36111111      0.22222222      0.08333333</v>
   <v>       0.38888889      0.22222222      0.08333333</v>
   <v>       0.41666667      0.22222222      0.08333333</v>
   <v>       0.44444444      0.22222222      0.08333333</v>
   <v>       0.47222222      0.22222222      0.08333333</v>
   <v>       0.50000000      0.22222222      0.08333333</v>
   <v>       0.25000000      0.25000000      0.08333333</v>
   <v>       0.27777778      0.25000000      0.08333333</v>
   <v>       0.30555556      0.25000000      0.08333333</v>
   <v>       0.33333333      0.25000000      0.08333333</v>
   <v>       0.36111111      0.25000000      0.08333333</v>
   <v>       0.38888889      0.25000000      0.08333333</v>
   <v>       0.41666667      0.25000000      0.08333333</v>
   <v>       0.44444444      0.25000000      0.08333333</v>
   <v>       0.47222222      0.25000000      0.08333333</v>
   <v>       0.50000000      0.25000000      0.08333333</v>
   <v>       0.27777778      0.27777778      0.08333333</v>
   <v>       0.30555556      0.27777778      0.08333333</v>
   <v>       0.33333333      0.27777778      0.08333333</v>
   <v>       0.36111111      0.27777778      0.08333333</v>
   <v>       0.38888889      0.27777778      0.08333333</v>
   <v>       0.41666667      0.27777778      0.08333333</v>
   <v>       0.44444444      0.27777778      0.08333333</v>
   <v>       0.47222222      0.27777778      0.08333333</v>
   <v>       0.50000000      0.27777778      0.08333333</v>
   <v>       0.30555556      0.30555556      0.08333333</v>
   <v>       0.33333333      0.30555556      0.08333333</v>
   <v>       0.36111111      0.30555556      0.08333333</v>
   <v>       0.38888889      0.30555556      0.08333333</v>
   <v>       0.41666667      0.30555556      0.08333333</v>
   <v>       0.44444444      0.30555556      0.08333333</v>
   <v>       0.47222222      0.30555556      0.08333333</v>
   <v>       0.50000000      0.30555556      0.08333333</v>
   <v>       0.33333333      0.33333333      0.08333333</v>
   <v>       0.36111111      0.33333333      0.08333333</v>
   <v>       0.38888889      0.33333333      0.08333333</v>
   <v>       0.41666667      0.33333333      0.08333333</v>
   <v>       0.44444444      0.33333333      0.08333333</v>
   <v>       0.47222222      0.33333333      0.08333333</v>
   <v>       0.50000000      0.33333333      0.08333333</v>
   <v>       0.36111111      0.36111111      0.08333333</v>
   <v>       0.38888889      0.36111111      0.08333333</v>
   <v>       0.41666667      0.36111111      0.08333333</v>
   <v>       0.44444444      0.36111111      0.08333333</v>
   <v>       0.47222222      0.36111111      0.08333333</v>
   <v>       0.50000000      0.36111111      0.08333333</v>
   <v>       0.38888889      0.38888889      0.08333333</v>
   <v>       0.41666667      0.38888889      0.08333333</v>
   <v>       0.44444444      0.38888889      0.08333333</v>
   <v>       0.47222222      0.38888889      0.08333333</v>
   <v>       0.50000000      0.38888889      0.08333333</v>
   <v>       0.41666667      0.41666667      0.08333333</v>
   <v>       0.44444444      0.41666667      0.08333333</v>
   <v>       0.47222222      0.41666667      0.08333333</v>
   <v>       0.50000000      0.41666667      0.08333333</v>
   <v>       0.44444444      0.44444444      0.08333333</v>
   <v>       0.47222222      0.44444444      0.08333333</v>
   <v>       0.50000000      0.44444444      0.08333333</v>
   <v>       0.47222222      0.47222222      0.08333333</v>
   <v>       0.50000000      0.47222222      0.08333333</v>
   <v>       0.50000000      0.50000000      0.08333333</v>
   <v>       0.11111111      0.11111111      0.11111111</v>
   <v>       0.13888889      0.11111111      0.11111111</v>
   <v>       0.16666667      0.11111111      0.11111111</v>
   <v>       0.19444444      0.11111111      0.11111111</v>
   <v>       0.22222222      0.11111111      0.11111111</v>
   <v>       0.25000000      0.11111111      0.11111111</v>
   <v>       0.27777778      0.11111111      0.11111111</v>
   <v>       0.30555556      0.11111111      0.11111111</v>
   <v>       0.33333333      0.11111111      0.11111111</v>
   <v>       0.36111111      0.11111111      0.11111111</v>
   <v>       0.38888889      0.11111111      0.11111111</v>
   <v>       0.41666667      0.11111111      0.11111111</v>
   <v>       0.44444444      0.11111111      0.11111111</v>
   <v>       0.47222222      0.11111111      0.11111111</v>
   <v>       0.50000000      0.11111111      0.11111111</v>
   <v>       0.13888889      0.13888889      0.11111111</v>
   <v>       0.16666667      0.13888889      0.11111111</v>
   <v>       0.19444444      0.13888889      0.11111111</v>
   <v>       0.22222222      0.13888889      0.11111111</v>
   <v>       0.25000000      0.13888889      0.11111111</v>
   <v>       0.27777778      0.13888889      0.11111111</v>
   <v>       0.30555556      0.13888889      0.11111111</v>
   <v>       0.33333333      0.13888889      0.11111111</v>
   <v>       0.36111111      0.13888889      0.11111111</v>
   <v>       0.38888889      0.13888889      0.11111111</v>
   <v>       0.41666667      0.13888889      0.11111111</v>
   <v>       0.44444444      0.13888889      0.11111111</v>
   <v>       0.47222222      0.13888889      0.11111111</v>
   <v>       0.50000000      0.13888889      0.11111111</v>
   <v>       0.16666667      0.16666667      0.11111111</v>
   <v>       0.19444444      0.16666667      0.11111111</v>
   <v>       0.22222222      0.16666667      0.11111111</v>
   <v>       0.25000000      0.16666667      0.11111111</v>
   <v>       0.27777778      0.16666667      0.11111111</v>
   <v>       0.30555556      0.16666667      0.11111111</v>
   <v>       0.33333333      0.16666667      0.11111111</v>
   <v>       0.36111111      0.16666667      0.11111111</v>
   <v>       0.38888889      0.16666667      0.11111111</v>
   <v>       0.41666667      0.16666667      0.11111111</v>
   <v>       0.44444444      0.16666667      0.11111111</v>
   <v>       0.47222222      0.16666667      0.11111111</v>
   <v>       0.50000000      0.16666667      0.11111111</v>
   <v>       0.19444444      0.19444444      0.11111111</v>
   <v>       0.22222222      0.19444444      0.11111111</v>
   <v>       0.25000000      0.19444444      0.11111111</v>
   <v>       0.27777778      0.19444444      0.11111111</v>
   <v>       0.30555556      0.19444444      0.11111111</v>
   <v>       0.33333333      0.19444444      0.11111111</v>
   <v>       0.36111111      0.19444444      0.11111111</v>
   <v>       0.38888889      0.19444444      0.11111111</v>
   <v>       0.41666667      0.19444444      0.11111111</v>
   <v>       0.44444444      0.19444444      0.11111111</v>
   <v>       0.47222222      0.19444444      0.11111111</v>
   <v>       0.50000000      0.19444444      0.11111111</v>
   <v>       0.22222222      0.22222222      0.11111111</v>
   <v>       0.25000000      0.22222222      0.11111111</v>
   <v>       0.27777778      0.22222222      0.11111111</v>
   <v>       0.30555556      0.22222222      0.11111111</v>
   <v>       0.33333333      0.22222222      0.11111111</v>
   <v>       0.36111111      0.22222222      0.11111111</v>
   <v>       0.38888889      0.22222222      0.11111111</v>
   <v>       0.41666667      0.22222222      0.11111111</v>
   <v>       0.44444444      0.22222222      0.11111111</v>
   <v>       0.47222222      0.22222222      0.11111111</v>
   <v>       0.50000000      0.22222222      0.11111111</v>
   <v>       0.25000000      0.25000000      0.11111111</v>
   <v>       0.27777778      0.25000000      0.11111111</v>
   <v>       0.30555556      0.25000000      0.11111111</v>
   <v>       0.33333333      0.25000000      0.11111111</v>
   <v>       0.36111111      0.25000000      0.11111111</v>
   <v>       0.38888889      0.25000000      0.11111111</v>
   <v>       0.41666667      0.25000000      0.11111111</v>
   <v>       0.44444444      0.25000000      0.11111111</v>
   <v>       0.47222222      0.25000000      0.11111111</v>
   <v>       0.50000000      0.25000000      0.11111111</v>
   <v>       0.27777778      0.27777778      0.11111111</v>
   <v>       0.30555556      0.27777778      0.11111111</v>
   <v>       0.33333333      0.27777778      0.11111111</v>
   <v>       0.36111111      0.27777778      0.11111111</v>
   <v>       0.38888889      0.27777778      0.11111111</v>
   <v>       0.41666667      0.27777778      0.11111111</v>
   <v>       0.44444444      0.27777778      0.11111111</v>
   <v>       0.47222222      0.27777778      0.11111111</v>
   <v>       0.50000000      0.27777778      0.11111111</v>
   <v>       0.30555556      0.30555556      0.11111111</v>
   <v>       0.33333333      0.30555556      0.11111111</v>
   <v>       0.36111111      0.30555556      0.11111111</v>
   <v>       0.38888889      0.30555556      0.11111111</v>
   <v>       0.41666667      0.30555556      0.11111111</v>
   <v>       0.44444444      0.30555556      0.11111111</v>
   <v>       0.47222222      0.30555556      0.11111111</v>
   <v>       0.50000000      0.30555556      0.11111111</v>
   <v>       0.33333333      0.33333333      0.11111111</v>
   <v>       0.36111111      0.33333333      0.11111111</v>
   <v>       0.38888889      0.33333333      0.11111111</v>
   <v>       0.41666667      0.33333333      0.11111111</v>
   <v>       0.44444444      0.33333333      0.11111111</v>
   <v>       0.47222222      0.33333333      0.11111111</v>
   <v>       0.50000000      0.33333333      0.11111111</v>
   <v>       0.36111111      0.36111111      0.11111111</v>
   <v>       0.38888889      0.36111111      0.11111111</v>
   <v>       0.41666667      0.36111111      0.11111111</v>
   <v>       0.44444444      0.36111111      0.11111111</v>
   <v>       0.47222222      0.36111111      0.11111111</v>
   <v>       0.50000000      0.36111111      0.11111111</v>
   <v>       0.38888889      0.38888889      0.11111111</v>
   <v>       0.41666667      0.38888889      0.11111111</v>
   <v>       0.44444444      0.38888889      0.11111111</v>
   <v>       0.47222222      0.38888889      0.11111111</v>
   <v>       0.50000000      0.38888889      0.11111111</v>
   <v>       0.41666667      0.41666667      0.11111111</v>
   <v>       0.44444444      0.41666667      0.11111111</v>
   <v>       0.47222222      0.41666667      0.11111111</v>
   <v>       0.50000000      0.41666667      0.11111111</v>
   <v>       0.44444444      0.44444444      0.11111111</v>
   <v>       0.47222222      0.44444444      0.11111111</v>
   <v>       0.50000000      0.44444444      0.11111111</v>
   <v>       0.47222222      0.47222222      0.11111111</v>
   <v>       0.50000000      0.47222222      0.11111111</v>
   <v>       0.50000000      0.50000000      0.11111111</v>
   <v>       0.13888889      0.13888889      0.13888889</v>
   <v>       0.16666667      0.13888889      0.13888889</v>
   <v>       0.19444444      0.13888889      0.13888889</v>
   <v>       0.22222222      0.13888889      0.13888889</v>
   <v>       0.25000000      0.13888889      0.13888889</v>
   <v>       0.27777778      0.13888889      0.13888889</v>
   <v>       0.30555556      0.13888889      0.13888889</v>
   <v>       0.33333333      0.13888889      0.13888889</v>
   <v>       0.36111111      0.13888889      0.13888889</v>
   <v>       0.38888889      0.13888889      0.13888889</v>
   <v>       0.41666667      0.13888889      0.13888889</v>
   <v>       0.44444444      0.13888889      0.13888889</v>
   <v>       0.47222222      0.13888889      0.13888889</v>
   <v>       0.50000000      0.13888889      0.13888889</v>
   <v>       0.16666667      0.16666667      0.13888889</v>
   <v>       0.19444444      0.16666667      0.13888889</v>
   <v>       0.22222222      0.16666667      0.13888889</v>
   <v>       0.25000000      0.16666667      0.13888889</v>
   <v>       0.27777778      0.16666667      0.13888889</v>
   <v>       0.30555556      0.16666667      0.13888889</v>
   <v>       0.33333333      0.16666667      0.13888889</v>
   <v>       0.36111111      0.16666667      0.13888889</v>
   <v>       0.38888889      0.16666667      0.13888889</v>
   <v>       0.41666667      0.16666667      0.13888889</v>
   <v>       0.44444444      0.16666667      0.13888889</v>
   <v>       0.47222222      0.16666667      0.13888889</v>
   <v>       0.50000000      0.16666667      0.13888889</v>
   <v>       0.19444444      0.19444444      0.13888889</v>
   <v>       0.22222222      0.19444444      0.13888889</v>
   <v>       0.25000000      0.19444444      0.13888889</v>
   <v>       0.27777778      0.19444444      0.13888889</v>
   <v>       0.30555556      0.19444444      0.13888889</v>
   <v>       0.33333333      0.19444444      0.13888889</v>
   <v>       0.36111111      0.19444444      0.13888889</v>
   <v>       0.38888889      0.19444444      0.13888889</v>
   <v>       0.41666667      0.19444444      0.13888889</v>
   <v>       0.44444444      0.19444444      0.13888889</v>
   <v>       0.47222222      0.19444444      0.13888889</v>
   <v>       0.50000000      0.19444444      0.13888889</v>
   <v>       0.22222222      0.22222222      0.13888889</v>
   <v>       0.25000000      0.22222222      0.13888889</v>
   <v>       0.27777778      0.22222222      0.13888889</v>
   <v>       0.30555556      0.22222222      0.13888889</v>
   <v>       0.33333333      0.22222222      0.13888889</v>
   <v>       0.36111111      0.22222222      0.13888889</v>
   <v>       0.38888889      0.22222222      0.13888889</v>
   <v>       0.41666667      0.22222222      0.13888889</v>
   <v>       0.44444444      0.22222222      0.13888889</v>
   <v>       0.47222222      0.22222222      0.13888889</v>
   <v>       0.50000000      0.22222222      0.13888889</v>
   <v>       0.25000000      0.25000000      0.13888889</v>
   <v>       0.27777778      0.25000000      0.13888889</v>
   <v>       0.30555556      0.25000000      0.13888889</v>
   <v>       0.33333333      0.25000000      0.13888889</v>
   <v>       0.36111111      0.25000000      0.13888889</v>
   <v>       0.38888889      0.25000000      0.13888889</v>
   <v>       0.41666667      0.25000000      0.13888889</v>
   <v>       0.44444444      0.25000000      0.13888889</v>
   <v>       0.47222222      0.25000000      0.13888889</v>
   <v>       0.50000000      0.25000000      0.13888889</v>
   <v>       0.27777778      0.27777778      0.13888889</v>
   <v>       0.30555556      0.27777778      0.13888889</v>
   <v>       0.33333333      0.27777778      0.13888889</v>
   <v>       0.36111111      0.27777778      0.13888889</v>
   <v>       0.38888889      0.27777778      0.13888889</v>
   <v>       0.41666667      0.27777778      0.13888889</v>
   <v>       0.44444444      0.27777778      0.13888889</v>
   <v>       0.47222222      0.27777778      0.13888889</v>
   <v>       0.50000000      0.27777778      0.13888889</v>
   <v>       0.30555556      0.30555556      0.13888889</v>
   <v>       0.33333333      0.30555556      0.13888889</v>
   <v>       0.36111111      0.30555556      0.13888889</v>
   <v>       0.38888889      0.30555556      0.13888889</v>
   <v>       0.41666667      0.30555556      0.13888889</v>
   <v>       0.44444444      0.30555556      0.13888889</v>
   <v>       0.47222222      0.30555556      0.13888889</v>
   <v>       0.50000000      0.30555556      0.13888889</v>
   <v>       0.33333333      0.33333333      0.13888889</v>
   <v>       0.36111111      0.33333333      0.13888889</v>
   <v>       0.38888889      0.33333333      0.13888889</v>
   <v>       0.41666667      0.33333333      0.13888889</v>
   <v>       0.44444444      0.33333333      0.13888889</v>
   <v>       0.47222222      0.33333333      0.13888889</v>
   <v>       0.50000000      0.33333333      0.13888889</v>
   <v>       0.36111111      0.36111111      0.13888889</v>
   <v>       0.38888889      0.36111111      0.13888889</v>
   <v>       0.41666667      0.36111111      0.13888889</v>
   <v>       0.44444444      0.36111111      0.13888889</v>
   <v>       0.47222222      0.36111111      0.13888889</v>
   <v>       0.50000000      0.36111111      0.13888889</v>
   <v>       0.38888889      0.38888889      0.13888889</v>
   <v>       0.41666667      0.38888889      0.13888889</v>
   <v>       0.44444444      0.38888889      0.13888889</v>
   <v>       0.47222222      0.38888889      0.13888889</v>
   <v>       0.50000000      0.38888889      0.13888889</v>
   <v>       0.41666667      0.41666667      0.13888889</v>
   <v>       0.44444444      0.41666667      0.13888889</v>
   <v>       0.47222222      0.41666667      0.13888889</v>
   <v>       0.50000000      0.41666667      0.13888889</v>
   <v>       0.44444444      0.44444444      0.13888889</v>
   <v>       0.47222222      0.44444444      0.13888889</v>
   <v>       0.50000000      0.44444444      0.13888889</v>
   <v>       0.47222222      0.47222222      0.13888889</v>
   <v>       0.50000000      0.47222222      0.13888889</v>
   <v>       0.50000000      0.50000000      0.13888889</v>
   <v>       0.16666667      0.16666667      0.16666667</v>
   <v>       0.19444444      0.16666667      0.16666667</v>
   <v>       0.22222222      0.16666667      0.16666667</v>
   <v>       0.25000000      0.16666667      0.16666667</v>
   <v>       0.27777778      0.16666667      0.16666667</v>
   <v>       0.30555556      0.16666667      0.16666667</v>
   <v>       0.33333333      0.16666667      0.16666667</v>
   <v>       0.36111111      0.16666667      0.16666667</v>
   <v>       0.38888889      0.16666667      0.16666667</v>
   <v>       0.41666667      0.16666667      0.16666667</v>
   <v>       0.44444444      0.16666667      0.16666667</v>
   <v>       0.47222222      0.16666667      0.16666667</v>
   <v>       0.50000000      0.16666667      0.16666667</v>
   <v>       0.19444444      0.19444444      0.16666667</v>
   <v>       0.22222222      0.19444444      0.16666667</v>
   <v>       0.25000000      0.19444444      0.16666667</v>
   <v>       0.27777778      0.19444444      0.16666667</v>
   <v>       0.30555556      0.19444444      0.16666667</v>
   <v>       0.33333333      0.19444444      0.16666667</v>
   <v>       0.36111111      0.19444444      0.16666667</v>
   <v>       0.38888889      0.19444444      0.16666667</v>
   <v>       0.41666667      0.19444444      0.16666667</v>
   <v>       0.44444444      0.19444444      0.16666667</v>
   <v>       0.47222222      0.19444444      0.16666667</v>
   <v>       0.50000000      0.19444444      0.16666667</v>
   <v>       0.22222222      0.22222222      0.16666667</v>
   <v>       0.25000000      0.22222222      0.16666667</v>
   <v>       0.27777778      0.22222222      0.16666667</v>
   <v>       0.30555556      0.22222222      0.16666667</v>
   <v>       0.33333333      0.22222222      0.16666667</v>
   <v>       0.36111111      0.22222222      0.16666667</v>
   <v>       0.38888889      0.22222222      0.16666667</v>
   <v>       0.41666667      0.22222222      0.16666667</v>
   <v>       0.44444444      0.22222222      0.16666667</v>
   <v>       0.47222222      0.22222222      0.16666667</v>
   <v>       0.50000000      0.22222222      0.16666667</v>
   <v>       0.25000000      0.25000000      0.16666667</v>
   <v>       0.27777778      0.25000000      0.16666667</v>
   <v>       0.30555556      0.25000000      0.16666667</v>
   <v>       0.33333333      0.25000000      0.16666667</v>
   <v>       0.36111111      0.25000000      0.16666667</v>
   <v>       0.38888889      0.25000000      0.16666667</v>
   <v>       0.41666667      0.25000000      0.16666667</v>
   <v>       0.44444444      0.25000000      0.16666667</v>
   <v>       0.47222222      0.25000000      0.16666667</v>
   <v>       0.50000000      0.25000000      0.16666667</v>
   <v>       0.27777778      0.27777778      0.16666667</v>
   <v>       0.30555556      0.27777778      0.16666667</v>
   <v>       0.33333333      0.27777778      0.16666667</v>
   <v>       0.36111111      0.27777778      0.16666667</v>
   <v>       0.38888889      0.27777778      0.16666667</v>
   <v>       0.41666667      0.27777778      0.16666667</v>
   <v>       0.44444444      0.27777778      0.16666667</v>
   <v>       0.47222222      0.27777778      0.16666667</v>
   <v>       0.50000000      0.27777778      0.16666667</v>
   <v>       0.30555556      0.30555556      0.16666667</v>
   <v>       0.33333333      0.30555556      0.16666667</v>
   <v>       0.36111111      0.30555556      0.16666667</v>
   <v>       0.38888889      0.30555556      0.16666667</v>
   <v>       0.41666667      0.30555556      0.16666667</v>
   <v>       0.44444444      0.30555556      0.16666667</v>
   <v>       0.47222222      0.30555556      0.16666667</v>
   <v>       0.50000000      0.30555556      0.16666667</v>
   <v>       0.33333333      0.33333333      0.16666667</v>
   <v>       0.36111111      0.33333333      0.16666667</v>
   <v>       0.38888889      0.33333333      0.16666667</v>
   <v>       0.41666667      0.33333333      0.16666667</v>
   <v>       0.44444444      0.33333333      0.16666667</v>
   <v>       0.47222222      0.33333333      0.16666667</v>
   <v>       0.50000000      0.33333333      0.16666667</v>
   <v>       0.36111111      0.36111111      0.16666667</v>
   <v>       0.38888889      0.36111111      0.16666667</v>
   <v>       0.41666667      0.36111111      0.16666667</v>
   <v>       0.44444444      0.36111111      0.16666667</v>
   <v>       0.47222222      0.36111111      0.16666667</v>
   <v>       0.50000000      0.36111111      0.16666667</v>
   <v>       0.38888889      0.38888889      0.16666667</v>
   <v>       0.41666667      0.38888889      0.16666667</v>
   <v>       0.44444444      0.38888889      0.16666667</v>
   <v>       0.47222222      0.38888889      0.16666667</v>
   <v>       0.50000000      0.38888889      0.16666667</v>
   <v>       0.41666667      0.41666667      0.16666667</v>
   <v>       0.44444444      0.41666667      0.16666667</v>
   <v>       0.47222222      0.41666667      0.16666667</v>
   <v>       0.50000000      0.41666667      0.16666667</v>
   <v>       0.44444444      0.44444444      0.16666667</v>
   <v>       0.47222222      0.44444444      0.16666667</v>
   <v>       0.50000000      0.44444444      0.16666667</v>
   <v>       0.47222222      0.47222222      0.16666667</v>
   <v>       0.50000000      0.47222222      0.16666667</v>
   <v>       0.50000000      0.50000000      0.16666667</v>
   <v>       0.19444444      0.19444444      0.19444444</v>
   <v>       0.22222222      0.19444444      0.19444444</v>
   <v>       0.25000000      0.19444444      0.19444444</v>
   <v>       0.27777778      0.19444444      0.19444444</v>
   <v>       0.30555556      0.19444444      0.19444444</v>
   <v>       0.33333333      0.19444444      0.19444444</v>
   <v>       0.36111111      0.19444444      0.19444444</v>
   <v>       0.38888889      0.19444444      0.19444444</v>
   <v>       0.41666667      0.19444444      0.19444444</v>
   <v>       0.44444444      0.19444444      0.19444444</v>
   <v>       0.47222222      0.19444444      0.19444444</v>
   <v>       0.50000000      0.19444444      0.19444444</v>
   <v>       0.22222222      0.22222222      0.19444444</v>
   <v>       0.25000000      0.22222222      0.19444444</v>
   <v>       0.27777778      0.22222222      0.19444444</v>
   <v>       0.30555556      0.22222222      0.19444444</v>
   <v>       0.33333333      0.22222222      0.19444444</v>
   <v>       0.36111111      0.22222222      0.19444444</v>
   <v>       0.38888889      0.22222222      0.19444444</v>
   <v>       0.41666667      0.22222222      0.19444444</v>
   <v>       0.44444444      0.22222222      0.19444444</v>
   <v>       0.47222222      0.22222222      0.19444444</v>
   <v>       0.50000000      0.22222222      0.19444444</v>
   <v>       0.25000000      0.25000000      0.19444444</v>
   <v>       0.27777778      0.25000000      0.19444444</v>
   <v>       0.30555556      0.25000000      0.19444444</v>
   <v>       0.33333333      0.25000000      0.19444444</v>
   <v>       0.36111111      0.25000000      0.19444444</v>
   <v>       0.38888889      0.25000000      0.19444444</v>
   <v>       0.41666667      0.25000000      0.19444444</v>
   <v>       0.44444444      0.25000000      0.19444444</v>
   <v>       0.47222222      0.25000000      0.19444444</v>
   <v>       0.50000000      0.25000000      0.19444444</v>
   <v>       0.27777778      0.27777778      0.19444444</v>
   <v>       0.30555556      0.27777778      0.19444444</v>
   <v>       0.33333333      0.27777778      0.19444444</v>
   <v>       0.36111111      0.27777778      0.19444444</v>
   <v>       0.38888889      0.27777778      0.19444444</v>
   <v>       0.41666667      0.27777778      0.19444444</v>
   <v>       0.44444444      0.27777778      0.19444444</v>
   <v>       0.47222222      0.27777778      0.19444444</v>
   <v>       0.50000000      0.27777778      0.19444444</v>
   <v>       0.30555556      0.30555556      0.19444444</v>
   <v>       0.33333333      0.30555556      0.19444444</v>
   <v>       0.36111111      0.30555556      0.19444444</v>
   <v>       0.38888889      0.30555556      0.19444444</v>
   <v>       0.41666667      0.30555556      0.19444444</v>
   <v>       0.44444444      0.30555556      0.19444444</v>
   <v>       0.47222222      0.30555556      0.19444444</v>
   <v>       0.50000000      0.30555556      0.19444444</v>
   <v>       0.33333333      0.33333333      0.19444444</v>
   <v>       0.36111111      0.33333333      0.19444444</v>
   <v>       0.38888889      0.33333333      0.19444444</v>
   <v>       0.41666667      0.33333333      0.19444444</v>
   <v>       0.44444444      0.33333333      0.19444444</v>
   <v>       0.47222222      0.33333333      0.19444444</v>
   <v>       0.50000000      0.33333333      0.19444444</v>
   <v>       0.36111111      0.36111111      0.19444444</v>
   <v>       0.38888889      0.36111111      0.19444444</v>
   <v>       0.41666667      0.36111111      0.19444444</v>
   <v>       0.44444444      0.36111111      0.19444444</v>
   <v>       0.47222222      0.36111111      0.19444444</v>
   <v>       0.50000000      0.36111111      0.19444444</v>
   <v>       0.38888889      0.38888889      0.19444444</v>
   <v>       0.41666667      0.38888889      0.19444444</v>
   <v>       0.44444444      0.38888889      0.19444444</v>
   <v>       0.47222222      0.38888889      0.19444444</v>
   <v>       0.50000000      0.38888889      0.19444444</v>
   <v>       0.41666667      0.41666667      0.19444444</v>
   <v>       0.44444444      0.41666667      0.19444444</v>
   <v>       0.47222222      0.41666667      0.19444444</v>
   <v>       0.50000000      0.41666667      0.19444444</v>
   <v>       0.44444444      0.44444444      0.19444444</v>
   <v>       0.47222222      0.44444444      0.19444444</v>
   <v>       0.50000000      0.44444444      0.19444444</v>
   <v>       0.47222222      0.47222222      0.19444444</v>
   <v>       0.50000000      0.47222222      0.19444444</v>
   <v>       0.50000000      0.50000000      0.19444444</v>
   <v>       0.22222222      0.22222222      0.22222222</v>
   <v>       0.25000000      0.22222222      0.22222222</v>
   <v>       0.27777778      0.22222222      0.22222222</v>
   <v>       0.30555556      0.22222222      0.22222222</v>
   <v>       0.33333333      0.22222222      0.22222222</v>
   <v>       0.36111111      0.22222222      0.22222222</v>
   <v>       0.38888889      0.22222222      0.22222222</v>
   <v>       0.41666667      0.22222222      0.22222222</v>
   <v>       0.44444444      0.22222222      0.22222222</v>
   <v>       0.47222222      0.22222222      0.22222222</v>
   <v>       0.50000000      0.22222222      0.22222222</v>
   <v>       0.25000000      0.25000000      0.22222222</v>
   <v>       0.27777778      0.25000000      0.22222222</v>
   <v>       0.30555556      0.25000000      0.22222222</v>
   <v>       0.33333333      0.25000000      0.22222222</v>
   <v>       0.36111111      0.25000000      0.22222222</v>
   <v>       0.38888889      0.25000000      0.22222222</v>
   <v>       0.41666667      0.25000000      0.22222222</v>
   <v>       0.44444444      0.25000000      0.22222222</v>
   <v>       0.47222222      0.25000000      0.22222222</v>
   <v>       0.50000000      0.25000000      0.22222222</v>
   <v>       0.27777778      0.27777778      0.22222222</v>
   <v>       0.30555556      0.27777778      0.22222222</v>
   <v>       0.33333333      0.27777778      0.22222222</v>
   <v>       0.36111111      0.27777778      0.22222222</v>
   <v>       0.38888889      0.27777778      0.22222222</v>
   <v>       0.41666667      0.27777778      0.22222222</v>
   <v>       0.44444444      0.27777778      0.22222222</v>
   <v>       0.47222222      0.27777778      0.22222222</v>
   <v>       0.50000000      0.27777778      0.22222222</v>
   <v>       0.30555556      0.30555556      0.22222222</v>
   <v>       0.33333333      0.30555556      0.22222222</v>
   <v>       0.36111111      0.30555556      0.22222222</v>
   <v>       0.38888889      0.30555556      0.22222222</v>
   <v>       0.41666667      0.30555556      0.22222222</v>
   <v>       0.44444444      0.30555556      0.22222222</v>
   <v>       0.47222222      0.30555556      0.22222222</v>
   <v>       0.50000000      0.30555556      0.22222222</v>
   <v>       0.33333333      0.33333333      0.22222222</v>
   <v>       0.36111111      0.33333333      0.22222222</v>
   <v>       0.38888889      0.33333333      0.22222222</v>
   <v>       0.41666667      0.33333333      0.22222222</v>
   <v>       0.44444444      0.33333333      0.22222222</v>
   <v>       0.47222222      0.33333333      0.22222222</v>
   <v>       0.50000000      0.33333333      0.22222222</v>
   <v>       0.36111111      0.36111111      0.22222222</v>
   <v>       0.38888889      0.36111111      0.22222222</v>
   <v>       0.41666667      0.36111111      0.22222222</v>
   <v>       0.44444444      0.36111111      0.22222222</v>
   <v>       0.47222222      0.36111111      0.22222222</v>
   <v>       0.50000000      0.36111111      0.22222222</v>
   <v>       0.38888889      0.38888889      0.22222222</v>
   <v>       0.41666667      0.38888889      0.22222222</v>
   <v>       0.44444444      0.38888889      0.22222222</v>
   <v>       0.47222222      0.38888889      0.22222222</v>
   <v>       0.50000000      0.38888889      0.22222222</v>
   <v>       0.41666667      0.41666667      0.22222222</v>
   <v>       0.44444444      0.41666667      0.22222222</v>
   <v>       0.47222222      0.41666667      0.22222222</v>
   <v>       0.50000000      0.41666667      0.22222222</v>
   <v>       0.44444444      0.44444444      0.22222222</v>
   <v>       0.47222222      0.44444444      0.22222222</v>
   <v>       0.50000000      0.44444444      0.22222222</v>
   <v>       0.47222222      0.47222222      0.22222222</v>
   <v>       0.50000000      0.47222222      0.22222222</v>
   <v>       0.50000000      0.50000000      0.22222222</v>
   <v>       0.25000000      0.25000000      0.25000000</v>
   <v>       0.27777778      0.25000000      0.25000000</v>
   <v>       0.30555556      0.25000000      0.25000000</v>
   <v>       0.33333333      0.25000000      0.25000000</v>
   <v>       0.36111111      0.25000000      0.25000000</v>
   <v>       0.38888889      0.25000000      0.25000000</v>
   <v>       0.41666667      0.25000000      0.25000000</v>
   <v>       0.44444444      0.25000000      0.25000000</v>
   <v>       0.47222222      0.25000000      0.25000000</v>
   <v>       0.50000000      0.25000000      0.25000000</v>
   <v>       0.27777778      0.27777778      0.25000000</v>
   <v>       0.30555556      0.27777778      0.25000000</v>
   <v>       0.33333333      0.27777778      0.25000000</v>
   <v>       0.36111111      0.27777778      0.25000000</v>
   <v>       0.38888889      0.27777778      0.25000000</v>
   <v>       0.41666667      0.27777778      0.25000000</v>
   <v>       0.44444444      0.27777778      0.25000000</v>
   <v>       0.47222222      0.27777778      0.25000000</v>
   <v>       0.50000000      0.27777778      0.25000000</v>
   <v>       0.30555556      0.30555556      0.25000000</v>
   <v>       0.33333333      0.30555556      0.25000000</v>
   <v>       0.36111111      0.30555556      0.25000000</v>
   <v>       0.38888889      0.30555556      0.25000000</v>
   <v>       0.41666667      0.30555556      0.25000000</v>
   <v>       0.44444444      0.30555556      0.25000000</v>
   <v>       0.47222222      0.30555556      0.25000000</v>
   <v>       0.50000000      0.30555556      0.25000000</v>
   <v>       0.33333333      0.33333333      0.25000000</v>
   <v>       0.36111111      0.33333333      0.25000000</v>
   <v>       0.38888889      0.33333333      0.25000000</v>
   <v>       0.41666667      0.33333333      0.25000000</v>
   <v>       0.44444444      0.33333333      0.25000000</v>
   <v>       0.47222222      0.33333333      0.25000000</v>
   <v>       0.50000000      0.33333333      0.25000000</v>
   <v>       0.36111111      0.36111111      0.25000000</v>
   <v>       0.38888889      0.36111111      0.25000000</v>
   <v>       0.41666667      0.36111111      0.25000000</v>
   <v>       0.44444444      0.36111111      0.25000000</v>
   <v>       0.47222222      0.36111111      0.25000000</v>
   <v>       0.50000000      0.36111111      0.25000000</v>
   <v>       0.38888889      0.38888889      0.25000000</v>
   <v>       0.41666667      0.38888889      0.25000000</v>
   <v>       0.44444444      0.38888889      0.25000000</v>
   <v>       0.47222222      0.38888889      0.25000000</v>
   <v>       0.50000000      0.38888889      0.25000000</v>
   <v>       0.41666667      0.41666667      0.25000000</v>
   <v>       0.44444444      0.41666667      0.25000000</v>
   <v>       0.47222222      0.41666667      0.25000000</v>
   <v>       0.50000000      0.41666667      0.25000000</v>
   <v>       0.44444444      0.44444444      0.25000000</v>
   <v>       0.47222222      0.44444444      0.25000000</v>
   <v>       0.50000000      0.44444444      0.25000000</v>
   <v>       0.47222222      0.47222222      0.25000000</v>
   <v>       0.50000000      0.47222222      0.25000000</v>
   <v>       0.50000000      0.50000000      0.25000000</v>
   <v>       0.27777778      0.27777778      0.27777778</v>
   <v>       0.30555556      0.27777778      0.27777778</v>
   <v>       0.33333333      0.27777778      0.27777778</v>
   <v>       0.36111111      0.27777778      0.27777778</v>
   <v>       0.38888889      0.27777778      0.27777778</v>
   <v>       0.41666667      0.27777778      0.27777778</v>
   <v>       0.44444444      0.27777778      0.27777778</v>
   <v>       0.47222222      0.27777778      0.27777778</v>
   <v>       0.50000000      0.27777778      0.27777778</v>
   <v>       0.30555556      0.30555556      0.27777778</v>
   <v>       0.33333333      0.30555556      0.27777778</v>
   <v>       0.36111111      0.30555556      0.27777778</v>
   <v>       0.38888889      0.30555556      0.27777778</v>
   <v>       0.41666667      0.30555556      0.27777778</v>
   <v>       0.44444444      0.30555556      0.27777778</v>
   <v>       0.47222222      0.30555556      0.27777778</v>
   <v>       0.50000000      0.30555556      0.27777778</v>
   <v>       0.33333333      0.33333333      0.27777778</v>
   <v>       0.36111111      0.33333333      0.27777778</v>
   <v>       0.38888889      0.33333333      0.27777778</v>
   <v>       0.41666667      0.33333333      0.27777778</v>
   <v>       0.44444444      0.33333333      0.27777778</v>
   <v>       0.47222222      0.33333333      0.27777778</v>
   <v>       0.50000000      0.33333333      0.27777778</v>
   <v>       0.36111111      0.36111111      0.27777778</v>
   <v>       0.38888889      0.36111111      0.27777778</v>
   <v>       0.41666667      0.36111111      0.27777778</v>
   <v>       0.44444444      0.36111111      0.27777778</v>
   <v>       0.47222222      0.36111111      0.27777778</v>
   <v>       0.50000000      0.36111111      0.27777778</v>
   <v>       0.38888889      0.38888889      0.27777778</v>
   <v>       0.41666667      0.38888889      0.27777778</v>
   <v>       0.44444444      0.38888889      0.27777778</v>
   <v>       0.47222222      0.38888889      0.27777778</v>
   <v>       0.50000000      0.38888889      0.27777778</v>
   <v>       0.41666667      0.41666667      0.27777778</v>
   <v>       0.44444444      0.41666667      0.27777778</v>
   <v>       0.47222222      0.41666667      0.27777778</v>
   <v>       0.50000000      0.41666667      0.27777778</v>
   <v>       0.44444444      0.44444444      0.27777778</v>
   <v>       0.47222222      0.44444444      0.27777778</v>
   <v>       0.50000000      0.44444444      0.27777778</v>
   <v>       0.47222222      0.47222222      0.27777778</v>
   <v>       0.50000000      0.47222222      0.27777778</v>
   <v>       0.50000000      0.50000000      0.27777778</v>
   <v>       0.30555556      0.30555556      0.30555556</v>
   <v>       0.33333333      0.30555556      0.30555556</v>
   <v>       0.36111111      0.30555556      0.30555556</v>
   <v>       0.38888889      0.30555556      0.30555556</v>
   <v>       0.41666667      0.30555556      0.30555556</v>
   <v>       0.44444444      0.30555556      0.30555556</v>
   <v>       0.47222222      0.30555556      0.30555556</v>
   <v>       0.50000000      0.30555556      0.30555556</v>
   <v>       0.33333333      0.33333333      0.30555556</v>
   <v>       0.36111111      0.33333333      0.30555556</v>
   <v>       0.38888889      0.33333333      0.30555556</v>
   <v>       0.41666667      0.33333333      0.30555556</v>
   <v>       0.44444444      0.33333333      0.30555556</v>
   <v>       0.47222222      0.33333333      0.30555556</v>
   <v>       0.50000000      0.33333333      0.30555556</v>
   <v>       0.36111111      0.36111111      0.30555556</v>
   <v>       0.38888889      0.36111111      0.30555556</v>
   <v>       0.41666667      0.36111111      0.30555556</v>
   <v>       0.44444444      0.36111111      0.30555556</v>
   <v>       0.47222222      0.36111111      0.30555556</v>
   <v>       0.50000000      0.36111111      0.30555556</v>
   <v>       0.38888889      0.38888889      0.30555556</v>
   <v>       0.41666667      0.38888889      0.30555556</v>
   <v>       0.44444444      0.38888889      0.30555556</v>
   <v>       0.47222222      0.38888889      0.30555556</v>
   <v>       0.50000000      0.38888889      0.30555556</v>
   <v>       0.41666667      0.41666667      0.30555556</v>
   <v>       0.44444444      0.41666667      0.30555556</v>
   <v>       0.47222222      0.41666667      0.30555556</v>
   <v>       0.50000000      0.41666667      0.30555556</v>
   <v>       0.44444444      0.44444444      0.30555556</v>
   <v>       0.47222222      0.44444444      0.30555556</v>
   <v>       0.50000000      0.44444444      0.30555556</v>
   <v>       0.47222222      0.47222222      0.30555556</v>
   <v>       0.50000000      0.47222222      0.30555556</v>
   <v>       0.50000000      0.50000000      0.30555556</v>
   <v>       0.33333333      0.33333333      0.33333333</v>
   <v>       0.36111111      0.33333333      0.33333333</v>
   <v>       0.38888889      0.33333333      0.33333333</v>
   <v>       0.41666667      0.33333333      0.33333333</v>
   <v>       0.44444444      0.33333333      0.33333333</v>
   <v>       0.47222222      0.33333333      0.33333333</v>
   <v>       0.50000000      0.33333333      0.33333333</v>
   <v>       0.36111111      0.36111111      0.33333333</v>
   <v>       0.38888889      0.36111111      0.33333333</v>
   <v>       0.41666667      0.36111111      0.33333333</v>
   <v>       0.44444444      0.36111111      0.33333333</v>
   <v>       0.47222222      0.36111111      0.33333333</v>
   <v>       0.50000000      0.36111111      0.33333333</v>
   <v>       0.38888889      0.38888889      0.33333333</v>
   <v>       0.41666667      0.38888889      0.33333333</v>
   <v>       0.44444444      0.38888889      0.33333333</v>
   <v>       0.47222222      0.38888889      0.33333333</v>
   <v>       0.50000000      0.38888889      0.33333333</v>
   <v>       0.41666667      0.41666667      0.33333333</v>
   <v>       0.44444444      0.41666667      0.33333333</v>
   <v>       0.47222222      0.41666667      0.33333333</v>
   <v>       0.50000000      0.41666667      0.33333333</v>
   <v>       0.44444444      0.44444444      0.33333333</v>
   <v>       0.47222222      0.44444444      0.33333333</v>
   <v>       0.50000000      0.44444444      0.33333333</v>
   <v>       0.47222222      0.47222222      0.33333333</v>
   <v>       0.50000000      0.47222222      0.33333333</v>
   <v>       0.50000000      0.50000000      0.33333333</v>
   <v>       0.36111111      0.36111111      0.36111111</v>
   <v>       0.38888889      0.36111111      0.36111111</v>
   <v>       0.41666667      0.36111111      0.36111111</v>
   <v>       0.44444444      0.36111111      0.36111111</v>
   <v>       0.47222222      0.36111111      0.36111111</v>
   <v>       0.50000000      0.36111111      0.36111111</v>
   <v>       0.38888889      0.38888889      0.36111111</v>
   <v>       0.41666667      0.38888889      0.36111111</v>
   <v>       0.44444444      0.38888889      0.36111111</v>
   <v>       0.47222222      0.38888889      0.36111111</v>
   <v>       0.50000000      0.38888889      0.36111111</v>
   <v>       0.41666667      0.41666667      0.36111111</v>
   <v>       0.44444444      0.41666667      0.36111111</v>
   <v>       0.47222222      0.41666667      0.36111111</v>
   <v>       0.50000000      0.41666667      0.36111111</v>
   <v>       0.44444444      0.44444444      0.36111111</v>
   <v>       0.47222222      0.44444444      0.36111111</v>
   <v>       0.50000000      0.44444444      0.36111111</v>
   <v>       0.47222222      0.47222222      0.36111111</v>
   <v>       0.50000000      0.47222222      0.36111111</v>
   <v>       0.50000000      0.50000000      0.36111111</v>
   <v>       0.38888889      0.38888889      0.38888889</v>
   <v>       0.41666667      0.38888889      0.38888889</v>
   <v>       0.44444444      0.38888889      0.38888889</v>
   <v>       0.47222222      0.38888889      0.38888889</v>
   <v>       0.50000000      0.38888889      0.38888889</v>
   <v>       0.41666667      0.41666667      0.38888889</v>
   <v>       0.44444444      0.41666667      0.38888889</v>
   <v>       0.47222222      0.41666667      0.38888889</v>
   <v>       0.50000000      0.41666667      0.38888889</v>
   <v>       0.44444444      0.44444444      0.38888889</v>
   <v>       0.47222222      0.44444444      0.38888889</v>
   <v>       0.50000000      0.44444444      0.38888889</v>
   <v>       0.47222222      0.47222222      0.38888889</v>
   <v>       0.50000000      0.47222222      0.38888889</v>
   <v>       0.50000000      0.50000000      0.38888889</v>
[...]
       <r>   0.4281  1.0000</r>
       <r>   0.4638  1.0000</r>
       <r>   0.4843  1.0000</r>
       <r>   0.5008  1.0000</r>
       <r>   0.5134  1.0000</r>
       <r>   0.5134  1.0000</r>
       <r>   1.2992  1.0000</r>
       <r>   1.2992  1.0000</r>
       <r>   1.3503  1.0000</r>
       <r>   1.5080  1.0000</r>
       <r>   1.7483  1.0000</r>
       <r>   1.7689  1.0000</r>
       <r>   1.7689  1.0000</r>
       <r>   1.7734  1.0000</r>
       <r>   2.0769  1.0000</r>
       <r>   2.6037  1.0000</r>
       <r>   3.1615  1.0000</r>
       <r>   3.1615  1.0000</r>
       <r>   6.9812  0.0000</r>
       <r>   6.9812  0.0000</r>
       <r>   7.5290  0.0000</r>
       <r>   7.9779  0.0000</r>
       <r>  22.5729  0.0000</r>
       <r>  22.5729  0.0000</r>
       <r>  23.1928  0.0000</r>
       <r>  23.1929  0.0000</r>
      </set>
      <set comment="kpoint 1314">
       <r>  -1.4714  1.0000</r>
       <r>  -1.4714  1.0000</r>
       <r>  -1.3425  1.0000</r>
       <r>  -1.3425  1.0000</r>
       <r>   0.3968  1.0000</r>
       <r>   0.3968  1.0000</r>
       <r>   0.4477  1.0000</r>
       <r>   0.4477  1.0000</r>
       <r>   0.4903  1.0000</r>
       <r>   0.4903  1.0000</r>
       <r>   0.5106  1.0000</r>
       <r>   0.5106  1.0000</r>
       <r>   1.3160  1.0000</r>
       <r>   1.3160  1.0000</r>
       <r>   1.4315  1.0000</r>
       <r>   1.4315  1.0000</r>
       <r>   1.7632  1.0000</r>
       <r>   1.7632  1.0000</r>
       <r>   1.7663  1.0000</r>
       <r>   1.7663  1.0000</r>
       <r>   2.3348  1.0000</r>
       <r>   2.3348  1.0000</r>
       <r>   3.1624  1.0000</r>
       <r>   3.1624  1.0000</r>
       <r>   6.9525  0.0000</r>
       <r>   6.9525  0.0000</r>
       <r>   7.7393  0.0000</r>
       <r>   7.7393  0.0000</r>
       <r>  22.6708  0.0000</r>
       <r>  22.6708  0.0000</r>
       <r>  23.1016  0.0000</r>
       <r>  23.1016  0.0000</r>
      </set>
      <set comment="kpoint 1315">
       <r>  -1.5280  1.0000</r>
       <r>  -1.3786  1.0000</r>
       <r>  -1.3786  1.0000</r>
       <r>  -1.3513  1.0000</r>
       <r>   0.4010  1.0000</r>
       <r>   0.4119  1.0000</r>
       <r>   0.4119  1.0000</r>
       <r>   0.4731  1.0000</r>
       <r>   0.4751  1.0000</r>
       <r>   0.5037  1.0000</r>
       <r>   0.5037  1.0000</r>
       <r>   0.5075  1.0000</r>
       <r>   1.3305  1.0000</r>
       <r>   1.3452  1.0000</r>
       <r>   1.3452  1.0000</r>
       <r>   1.6503  1.0000</r>
       <r>   1.7222  1.0000</r>
       <r>   1.7726  1.0000</r>
       <r>   1.7753  1.0000</r>
       <r>   1.7753  1.0000</r>
       <r>   1.9482  1.0000</r>
       <r>   2.9087  1.0000</r>
       <r>   2.9087  1.0000</r>
       <r>   3.1086  1.0000</r>
       <r>   6.9757  0.0000</r>
       <r>   7.1724  0.0000</r>
       <r>   7.1724  0.0000</r>
       <r>   7.9681  0.0000</r>
       <r>  22.6029  0.0000</r>
       <r>  23.0632  0.0000</r>
       <r>  23.0632  0.0000</r>
       <r>  23.5850  0.0000</r>
      </set>
      <set comment="kpoint 1316">
       <r>  -1.4940  1.0000</r>
       <r>  -1.4195  1.0000</r>
       <r>  -1.3774  1.0000</r>
       <r>  -1.3637  1.0000</r>
       <r>   0.4101  1.0000</r>
       <r>   0.4155  1.0000</r>
       <r>   0.4322  1.0000</r>
       <r>   0.4628  1.0000</r>
       <r>   0.4756  1.0000</r>
       <r>   0.4900  1.0000</r>
       <r>   0.4964  1.0000</r>
       <r>   0.4983  1.0000</r>
       <r>   1.3861  1.0000</r>
       <r>   1.3956  1.0000</r>
       <r>   1.4355  1.0000</r>
       <r>   1.5994  1.0000</r>
       <r>   1.7426  1.0000</r>
       <r>   1.7681  1.0000</r>
       <r>   1.7692  1.0000</r>
       <r>   1.7706  1.0000</r>
       <r>   2.1603  1.0000</r>
       <r>   2.6540  1.0000</r>
       <r>   2.9496  1.0000</r>
       <r>   3.0539  1.0000</r>
       <r>   6.9420  0.0000</r>
       <r>   7.0429  0.0000</r>
       <r>   7.3200  0.0000</r>
       <r>   7.7212  0.0000</r>
       <r>  22.8148  0.0000</r>
       <r>  23.1307  0.0000</r>
       <r>  23.5403  0.0000</r>
       <r>  23.5966  0.0000</r>
      </set>
      <set comment="kpoint 1317">
       <r>  -1.4579  1.0000</r>
       <r>  -1.4579  1.0000</r>
       <r>  -1.3724  1.0000</r>
       <r>  -1.3724  1.0000</r>
       <r>   0.4150  1.0000</r>
       <r>   0.4150  1.0000</r>
       <r>   0.4492  1.0000</r>
       <r>   0.4492  1.0000</r>
       <r>   0.4807  1.0000</r>
       <r>   0.4807  1.0000</r>
       <r>   0.4945  1.0000</r>
       <r>   0.4945  1.0000</r>
       <r>   1.4098  1.0000</r>
       <r>   1.4098  1.0000</r>
       <r>   1.5213  1.0000</r>
       <r>   1.5213  1.0000</r>
       <r>   1.7600  1.0000</r>
       <r>   1.7600  1.0000</r>
       <r>   1.7659  1.0000</r>
       <r>   1.7659  1.0000</r>
       <r>   2.4018  1.0000</r>
       <r>   2.4018  1.0000</r>
       <r>   2.9993  1.0000</r>
       <r>   2.9993  1.0000</r>
       <r>   6.9650  0.0000</r>
       <r>   6.9650  0.0000</r>
       <r>   7.5043  0.0000</r>
       <r>   7.5043  0.0000</r>
       <r>  23.0114  0.0000</r>
       <r>  23.0114  0.0000</r>
       <r>  23.6418  0.0000</r>
       <r>  23.6418  0.0000</r>
      </set>
      <set comment="kpoint 1318">
       <r>  -1.4691  1.0000</r>
       <r>  -1.4109  1.0000</r>
       <r>  -1.4109  1.0000</r>
       <r>  -1.3831  1.0000</r>
       <r>   0.4221  1.0000</r>
       <r>   0.4332  1.0000</r>
       <r>   0.4332  1.0000</r>
       <r>   0.4583  1.0000</r>
       <r>   0.4718  1.0000</r>
       <r>   0.4837  1.0000</r>
       <r>   0.4837  1.0000</r>
       <r>   0.4879  1.0000</r>
       <r>   1.4536  1.0000</r>
       <r>   1.4851  1.0000</r>
       <r>   1.4851  1.0000</r>
       <r>   1.6138  1.0000</r>
       <r>   1.7381  1.0000</r>
       <r>   1.7632  1.0000</r>
       <r>   1.7632  1.0000</r>
       <r>   1.7635  1.0000</r>
       <r>   2.3166  1.0000</r>
       <r>   2.7304  1.0000</r>
       <r>   2.7304  1.0000</r>
       <r>   2.9399  1.0000</r>
       <r>   6.9597  0.0000</r>
       <r>   7.1528  0.0000</r>
       <r>   7.1528  0.0000</r>
       <r>   7.4961  0.0000</r>
       <r>  23.0396  0.0000</r>
       <r>  23.4620  0.0000</r>
       <r>  23.4620  0.0000</r>
       <r>  23.9452  0.0000</r>
      </set>
      <set comment="kpoint 1319">
       <r>  -1.4415  1.0000</r>
       <r>  -1.4415  1.0000</r>
       <r>  -1.3989  1.0000</r>
       <r>  -1.3989  1.0000</r>
       <r>   0.4300  1.0000</r>
       <r>   0.4300  1.0000</r>
       <r>   0.4477  1.0000</r>
       <r>   0.4477  1.0000</r>
       <r>   0.4753  1.0000</r>
       <r>   0.4753  1.0000</r>
       <r>   0.4828  1.0000</r>
       <r>   0.4828  1.0000</r>
       <r>   1.4905  1.0000</r>
       <r>   1.4905  1.0000</r>
       <r>   1.5627  1.0000</r>
       <r>   1.5627  1.0000</r>
       <r>   1.7511  1.0000</r>
       <r>   1.7511  1.0000</r>
       <r>   1.7600  1.0000</r>
       <r>   1.7600  1.0000</r>
       <r>   2.5147  1.0000</r>
       <r>   2.5147  1.0000</r>
       <r>   2.8287  1.0000</r>
       <r>   2.8287  1.0000</r>
       <r>   7.0313  0.0000</r>
       <r>   7.0313  0.0000</r>
       <r>   7.3054  0.0000</r>
       <r>   7.3054  0.0000</r>
       <r>  23.2588  0.0000</r>
       <r>  23.2588  0.0000</r>
       <r>  23.7115  0.0000</r>
       <r>  23.7115  0.0000</r>
      </set>
      <set comment="kpoint 1320">
       <r>  -1.4218  1.0000</r>
       <r>  -1.4218  1.0000</r>
       <r>  -1.4218  1.0000</r>
       <r>  -1.4218  1.0000</r>
       <r>   0.4413  1.0000</r>
       <r>   0.4413  1.0000</r>
       <r>   0.4413  1.0000</r>
       <r>   0.4413  1.0000</r>
       <r>   0.4760  1.0000</r>
       <r>   0.4760  1.0000</r>
       <r>   0.4760  1.0000</r>
       <r>   0.4760  1.0000</r>
       <r>   1.5478  1.0000</r>
       <r>   1.5478  1.0000</r>
       <r>   1.5478  1.0000</r>
       <r>   1.5478  1.0000</r>
       <r>   1.7519  1.0000</r>
       <r>   1.7519  1.0000</r>
       <r>   1.7519  1.0000</r>
       <r>   1.7519  1.0000</r>
       <r>   2.6623  1.0000</r>
       <r>   2.6623  1.0000</r>
       <r>   2.6623  1.0000</r>
       <r>   2.6623  1.0000</r>
       <r>   7.1464  0.0000</r>
       <r>   7.1464  0.0000</r>
       <r>   7.1464  0.0000</r>
       <r>   7.1464  0.0000</r>
       <r>  23.4893  0.0000</r>
       <r>  23.4893  0.0000</r>
       <r>  23.4893  0.0000</r>
       <r>  23.4893  0.0000</r>
      </set>
      <set comment="kpoint 1321">
       <r>  -1.5055  1.0000</r>
       <r>  -1.3882  1.0000</r>
       <r>  -1.3882  1.0000</r>
       <r>  -1.3882  1.0000</r>
       <r>   0.4213  1.0000</r>
       <r>   0.4213  1.0000</r>
       <r>   0.4213  1.0000</r>
       <r>   0.4693  1.0000</r>
       <r>   0.4693  1.0000</r>
       <r>   0.4911  1.0000</r>
       <r>   0.4911  1.0000</r>
       <r>   0.4911  1.0000</r>
       <r>   1.4322  1.0000</r>
       <r>   1.4322  1.0000</r>
       <r>   1.4322  1.0000</r>
       <r>   1.7427  1.0000</r>
       <r>   1.7427  1.0000</r>
       <r>   1.7764  1.0000</r>
       <r>   1.7764  1.0000</r>
       <r>   1.7764  1.0000</r>
       <r>   2.0036  1.0000</r>
       <r>   2.8883  1.0000</r>
       <r>   2.8883  1.0000</r>
       <r>   2.8883  1.0000</r>
       <r>   7.0369  0.0000</r>
       <r>   7.0369  0.0000</r>
       <r>   7.0369  0.0000</r>
       <r>   7.7122  0.0000</r>
       <r>  23.2796  0.0000</r>
       <r>  23.2796  0.0000</r>
       <r>  23.2796  0.0000</r>
       <r>  23.9999  0.0000</r>
      </set>
      <set comment="kpoint 1322">
       <r>  -1.4804  1.0000</r>
       <r>  -1.4219  1.0000</r>
       <r>  -1.3940  1.0000</r>
       <r>  -1.3940  1.0000</r>
       <r>   0.4274  1.0000</r>
       <r>   0.4274  1.0000</r>
       <r>   0.4383  1.0000</r>
       <r>   0.4623  1.0000</r>
       <r>   0.4680  1.0000</r>
       <r>   0.4789  1.0000</r>
       <r>   0.4830  1.0000</r>
       <r>   0.4830  1.0000</r>
       <r>   1.4918  1.0000</r>
       <r>   1.4918  1.0000</r>
       <r>   1.5295  1.0000</r>
       <r>   1.6994  1.0000</r>
       <r>   1.7585  1.0000</r>
       <r>   1.7731  1.0000</r>
       <r>   1.7731  1.0000</r>
       <r>   1.7754  1.0000</r>
       <r>   2.1963  1.0000</r>
       <r>   2.6574  1.0000</r>
       <r>   2.8742  1.0000</r>
       <r>   2.8742  1.0000</r>
       <r>   6.9542  0.0000</r>
       <r>   6.9542  0.0000</r>
       <r>   7.1461  0.0000</r>
       <r>   7.4879  0.0000</r>
       <r>  23.4557  0.0000</r>
       <r>  23.4557  0.0000</r>
       <r>  23.8682  0.0000</r>
       <r>  24.0082  0.0000</r>
      </set>
      <set comment="kpoint 1323">
       <r>  -1.4527  1.0000</r>
       <r>  -1.4527  1.0000</r>
       <r>  -1.3959  1.0000</r>
       <r>  -1.3959  1.0000</r>
       <r>   0.4296  1.0000</r>
       <r>   0.4296  1.0000</r>
       <r>   0.4520  1.0000</r>
       <r>   0.4520  1.0000</r>
       <r>   0.4713  1.0000</r>
       <r>   0.4713  1.0000</r>
       <r>   0.4802  1.0000</r>
       <r>   0.4802  1.0000</r>
       <r>   1.5135  1.0000</r>
       <r>   1.5135  1.0000</r>
       <r>   1.6202  1.0000</r>
       <r>   1.6202  1.0000</r>
       <r>   1.7694  1.0000</r>
       <r>   1.7694  1.0000</r>
       <r>   1.7707  1.0000</r>
       <r>   1.7707  1.0000</r>
       <r>   2.4236  1.0000</r>
       <r>   2.4236  1.0000</r>
       <r>   2.8691  1.0000</r>
       <r>   2.8691  1.0000</r>
       <r>   6.9264  0.0000</r>
       <r>   6.9264  0.0000</r>
       <r>   7.2980  0.0000</r>
       <r>   7.2980  0.0000</r>
       <r>  23.5443  0.0000</r>
       <r>  23.5443  0.0000</r>
       <r>  23.9383  0.0000</r>
       <r>  23.9383  0.0000</r>
      </set>
      <set comment="kpoint 1324">
       <r>  -1.4638  1.0000</r>
       <r>  -1.4207  1.0000</r>
       <r>  -1.4207  1.0000</r>
       <r>  -1.4067  1.0000</r>
       <r>   0.4362  1.0000</r>
       <r>   0.4416  1.0000</r>
       <r>   0.4416  1.0000</r>
       <r>   0.4603  1.0000</r>
       <r>   0.4633  1.0000</r>
       <r>   0.4720  1.0000</r>
       <r>   0.4720  1.0000</r>
       <r>   0.4741  1.0000</r>
       <r>   1.5649  1.0000</r>
       <r>   1.5889  1.0000</r>
       <r>   1.5889  1.0000</r>
       <r>   1.7257  1.0000</r>
       <r>   1.7546  1.0000</r>
       <r>   1.7716  1.0000</r>
       <r>   1.7726  1.0000</r>
       <r>   1.7726  1.0000</r>
       <r>   2.3172  1.0000</r>
       <r>   2.6830  1.0000</r>
       <r>   2.6830  1.0000</r>
       <r>   2.7986  1.0000</r>
       <r>   6.9213  0.0000</r>
       <r>   7.0196  0.0000</r>
       <r>   7.0196  0.0000</r>
       <r>   7.2907  0.0000</r>
       <r>  23.6698  0.0000</r>
       <r>  23.9424  0.0000</r>
       <r>  23.9424  0.0000</r>
       <r>  24.3172  0.0000</r>
      </set>
      <set comment="kpoint 1325">
       <r>  -1.4439  1.0000</r>
       <r>  -1.4439  1.0000</r>
       <r>  -1.4156  1.0000</r>
       <r>  -1.4156  1.0000</r>
       <r>   0.4411  1.0000</r>
       <r>   0.4411  1.0000</r>
       <r>   0.4527  1.0000</r>
       <r>   0.4527  1.0000</r>
       <r>   0.4654  1.0000</r>
       <r>   0.4654  1.0000</r>
       <r>   0.4702  1.0000</r>
       <r>   0.4702  1.0000</r>
       <r>   1.6017  1.0000</r>
       <r>   1.6017  1.0000</r>
       <r>   1.6719  1.0000</r>
       <r>   1.6719  1.0000</r>
       <r>   1.7659  1.0000</r>
       <r>   1.7659  1.0000</r>
       <r>   1.7695  1.0000</r>
       <r>   1.7695  1.0000</r>
       <r>   2.4912  1.0000</r>
       <r>   2.4912  1.0000</r>
       <r>   2.7318  1.0000</r>
       <r>   2.7318  1.0000</r>
       <r>   6.9437  0.0000</r>
       <r>   6.9437  0.0000</r>
       <r>   7.1333  0.0000</r>
       <r>   7.1333  0.0000</r>
       <r>  23.8455  0.0000</r>
       <r>  23.8455  0.0000</r>
       <r>  24.2080  0.0000</r>
       <r>  24.2080  0.0000</r>
      </set>
      <set comment="kpoint 1326">
       <r>  -1.4316  1.0000</r>
       <r>  -1.4316  1.0000</r>
       <r>  -1.4316  1.0000</r>
       <r>  -1.4316  1.0000</r>
       <r>   0.4492  1.0000</r>
       <r>   0.4492  1.0000</r>
       <r>   0.4492  1.0000</r>
       <r>   0.4492  1.0000</r>
       <r>   0.4648  1.0000</r>
       <r>   0.4648  1.0000</r>
       <r>   0.4648  1.0000</r>
       <r>   0.4648  1.0000</r>
       <r>   1.6626  1.0000</r>
       <r>   1.6626  1.0000</r>
       <r>   1.6626  1.0000</r>
       <r>   1.6626  1.0000</r>
       <r>   1.7643  1.0000</r>
       <r>   1.7643  1.0000</r>
       <r>   1.7643  1.0000</r>
       <r>   1.7643  1.0000</r>
       <r>   2.6000  1.0000</r>
       <r>   2.6000  1.0000</r>
       <r>   2.6000  1.0000</r>
       <r>   2.6000  1.0000</r>
       <r>   7.0139  0.0000</r>
       <r>   7.0139  0.0000</r>
       <r>   7.0139  0.0000</r>
       <r>   7.0139  0.0000</r>
       <r>  24.0483  0.0000</r>
       <r>  24.0483  0.0000</r>
       <r>  24.0483  0.0000</r>
       <r>  24.0483  0.0000</r>
      </set>
      <set comment="kpoint 1327">
       <r>  -1.4550  1.0000</r>
       <r>  -1.4266  1.0000</r>
       <r>  -1.4266  1.0000</r>
       <r>  -1.4266  1.0000</r>
       <r>   0.4471  1.0000</r>
       <r>   0.4471  1.0000</r>
       <r>   0.4471  1.0000</r>
       <r>   0.4592  1.0000</r>
       <r>   0.4592  1.0000</r>
       <r>   0.4646  1.0000</r>
       <r>   0.4646  1.0000</r>
       <r>   0.4646  1.0000</r>
       <r>   1.6624  1.0000</r>
       <r>   1.6624  1.0000</r>
       <r>   1.6624  1.0000</r>
       <r>   1.7663  1.0000</r>
       <r>   1.7663  1.0000</r>
       <r>   1.7749  1.0000</r>
       <r>   1.7749  1.0000</r>
       <r>   1.7749  1.0000</r>
       <r>   2.3798  1.0000</r>
       <r>   2.6478  1.0000</r>
       <r>   2.6478  1.0000</r>
       <r>   2.6478  1.0000</r>
       <r>   6.9384  0.0000</r>
       <r>   6.9384  0.0000</r>
       <r>   6.9384  0.0000</r>
       <r>   7.1268  0.0000</r>
       <r>  24.1639  0.0000</r>
       <r>  24.1639  0.0000</r>
       <r>  24.1639  0.0000</r>
       <r>  24.4766  0.0000</r>
      </set>
      <set comment="kpoint 1328">
       <r>  -1.4427  1.0000</r>
       <r>  -1.4427  1.0000</r>
       <r>  -1.4285  1.0000</r>
       <r>  -1.4285  1.0000</r>
       <r>   0.4492  1.0000</r>
       <r>   0.4492  1.0000</r>
       <r>   0.4548  1.0000</r>
       <r>   0.4548  1.0000</r>
       <r>   0.4596  1.0000</r>
       <r>   0.4596  1.0000</r>
       <r>   0.4619  1.0000</r>
       <r>   0.4619  1.0000</r>
       <r>   1.6909  1.0000</r>
       <r>   1.6909  1.0000</r>
       <r>   1.7362  1.0000</r>
       <r>   1.7362  1.0000</r>
       <r>   1.7731  1.0000</r>
       <r>   1.7731  1.0000</r>
       <r>   1.7734  1.0000</r>
       <r>   1.7734  1.0000</r>
       <r>   2.5003  1.0000</r>
       <r>   2.5003  1.0000</r>
       <r>   2.6345  1.0000</r>
       <r>   2.6345  1.0000</r>
       <r>   6.9112  0.0000</r>
       <r>   6.9112  0.0000</r>
       <r>   7.0081  0.0000</r>
       <r>   7.0081  0.0000</r>
       <r>  24.2331  0.0000</r>
       <r>  24.2332  0.0000</r>
       <r>  24.4070  0.0000</r>
       <r>  24.4071  0.0000</r>
      </set>
      <set comment="kpoint 1329">
       <r>  -1.4375  1.0000</r>
       <r>  -1.4375  1.0000</r>
       <r>  -1.4375  1.0000</r>
       <r>  -1.4375  1.0000</r>
       <r>   0.4541  1.0000</r>
       <r>   0.4541  1.0000</r>
       <r>   0.4541  1.0000</r>
       <r>   0.4541  1.0000</r>
       <r>   0.4580  1.0000</r>
       <r>   0.4580  1.0000</r>
       <r>   0.4580  1.0000</r>
       <r>   0.4580  1.0000</r>
       <r>   1.7441  1.0000</r>
       <r>   1.7441  1.0000</r>
       <r>   1.7441  1.0000</r>
       <r>   1.7441  1.0000</r>
       <r>   1.7718  1.0000</r>
       <r>   1.7718  1.0000</r>
       <r>   1.7718  1.0000</r>
       <r>   1.7718  1.0000</r>
       <r>   2.5512  1.0000</r>
       <r>   2.5512  1.0000</r>
       <r>   2.5512  1.0000</r>
       <r>   2.5512  1.0000</r>
       <r>   6.9332  0.0000</r>
       <r>   6.9332  0.0000</r>
       <r>   6.9332  0.0000</r>
       <r>   6.9332  0.0000</r>
       <r>  24.3839  0.0000</r>
       <r>  24.3839  0.0000</r>
       <r>  24.3839  0.0000</r>
       <r>  24.3839  0.0000</r>
      </set>
      <set comment="kpoint 1330">
       <r>  -1.4395  1.0000</r>
       <r>  -1.4395  1.0000</r>
       <r>  -1.4395  1.0000</r>
       <r>  -1.4395  1.0000</r>
       <r>   0.4557  1.0000</r>
       <r>   0.4557  1.0000</r>
       <r>   0.4557  1.0000</r>
       <r>   0.4557  1.0000</r>
       <r>   0.4557  1.0000</r>
       <r>   0.4557  1.0000</r>
       <r>   0.4557  1.0000</r>
       <r>   0.4557  1.0000</r>
       <r>   1.7743  1.0000</r>
       <r>   1.7743  1.0000</r>
       <r>   1.7743  1.0000</r>
       <r>   1.7743  1.0000</r>
       <r>   1.7743  1.0000</r>
       <r>   1.7743  1.0000</r>
       <r>   1.7743  1.0000</r>
       <r>   1.7743  1.0000</r>
       <r>   2.5321  1.0000</r>
       <r>   2.5321  1.0000</r>
       <r>   2.5321  1.0000</r>
       <r>   2.5321  1.0000</r>
       <r>   6.9062  0.0000</r>
       <r>   6.9062  0.0000</r>
       <r>   6.9062  0.0000</r>
       <r>   6.9062  0.0000</r>
       <r>  24.4560  0.0000</r>
       <r>  24.4560  0.0000</r>
       <r>  24.4561  0.0000</r>
       <r>  24.4561  0.0000</r>
      </set>
     </set>
    </set>
   </array>
  </eigenvalues>
 </calculation>
 <structure name="finalpos" >
  <crystal>
   <varray name="basis" >
    <v>       3.67319247      0.00000000      0.00000000</v>
    <v>       0.00000000      3.67319247      0.00000000</v>
    <v>       0.00000000      0.00000000      3.67319247</v>
   </varray>
   <i name="volume">     49.55997232</i>
   <varray name="rec_basis" >
    <v>       0.27224274      0.00000000      0.00000000</v>
    <v>       0.00000000      0.27224274      0.00000000</v>
    <v>       0.00000000      0.00000000      0.27224274</v>
   </varray>
  </crystal>
  <varray name="positions" >
   <v>       0.00000000      0.00000000      0.00000000</v>
   <v>       0.50000000      0.50000000      0.00000000</v>
   <v>       0.50000000      0.00000000      0.50000000</v>
   <v>       0.00000000      0.50000000      0.50000000</v>
  </varray>
 </structure>
</modeling>
