 running on    4 nodes
 distr:  one band on    1 nodes,    4 groups
 vasp.4.6.28 25Jul05 complex 
 POSCAR found :  1 types and    4 ions
 LDA part: xc-table for Pade appr. of Perdew
 POSCAR, INCAR and KPOINTS ok, starting setup
 FFT: planning ...           1
 reading WAVECAR
 entering main loop
       N       E                     dE             d eps       ncg     rms          rms(c)
DAV:   1     0.101398344400E+02    0.10140E+02   -0.51217E+03  2016   0.103E+03
DAV:   2    -0.137405671788E+02   -0.23880E+02   -0.22460E+02  2424   0.101E+02
DAV:   3    -0.146387546296E+02   -0.89819E+00   -0.87045E+00  2668   0.162E+01
DAV:   4    -0.146491761474E+02   -0.10422E-01   -0.10369E-01  2324   0.184E+00
DAV:   5    -0.146492739397E+02   -0.97792E-04   -0.97790E-04  2484   0.210E-01    0.171E+00
DAV:   6    -0.146018004164E+02    0.47474E-01   -0.93067E-03  2252   0.624E-01    0.106E+00
DAV:   7    -0.145679051294E+02    0.33895E-01   -0.27486E-02  2172   0.102E+00    0.488E-02
DAV:   8    -0.145678798425E+02    0.25287E-04   -0.16449E-04  2400   0.107E-01    0.126E-02
DAV:   9    -0.145678826928E+02   -0.28502E-05   -0.44838E-06  2400   0.134E-02    0.142E-03
DAV:  10    -0.145678811281E+02    0.15647E-05   -0.69824E-08  2560   0.214E-03    0.315E-04
DAV:  11    -0.145678810199E+02    0.10819E-06   -0.12396E-09  1564   0.260E-04    0.372E-05
DAV:  12    -0.145678810614E+02   -0.41517E-07   -0.28264E-10  1400   0.127E-04    0.849E-06
DAV:  13    -0.145678810576E+02    0.38545E-08   -0.39567E-11  1312   0.421E-05
   1 F= -.14567881E+02 E0= -.14567857E+02  d E =-.475989E-04
