   4   4   0   0
  0.1959443E+02  0.4279545E-09  0.4279545E-09  0.4279545E-09  0.5000000E-15
  1.000000000000000E-004
  CAR 
 unknown system                          
     17.01603560     -4.66662196  301      6.35089778      1.00000000
     -4.667  0.0000E+00  0.0000E+00
     -4.594  0.0000E+00  0.0000E+00
     -4.522  0.0000E+00  0.0000E+00
     -4.450  0.0000E+00  0.0000E+00
     -4.378  0.0000E+00  0.0000E+00
     -4.305  0.0000E+00  0.0000E+00
     -4.233  0.0000E+00  0.0000E+00
     -4.161  0.0000E+00  0.0000E+00
     -4.088  0.0000E+00  0.0000E+00
     -4.016  0.0000E+00  0.0000E+00
     -3.944  0.0000E+00  0.0000E+00
     -3.872  0.0000E+00  0.0000E+00
     -3.799  0.0000E+00  0.0000E+00
     -3.727  0.6243E-12  0.4512E-13
     -3.655  0.1601E-01  0.1157E-02
     -3.582  0.1013E+00  0.8477E-02
     -3.510  0.2693E+00  0.2794E-01
     -3.438  0.1415E+00  0.3817E-01
     -3.366  0.3849E+00  0.6601E-01
     -3.293  0.3837E+00  0.9375E-01
     -3.221  0.1827E+00  0.1070E+00
     -3.149  0.4804E+00  0.1424E+00
     -3.077  0.4038E+00  0.1715E+00
     -3.004  0.4614E+00  0.2049E+00
     -2.932  0.4154E+00  0.2349E+00
     -2.860  0.7687E+00  0.2905E+00
     -2.787  0.3832E-01  0.2933E+00
     -2.715  0.8122E+00  0.3520E+00
     -2.643  0.5766E+00  0.3947E+00
     -2.571  0.4337E+00  0.4260E+00
     -2.498  0.1017E+01  0.4995E+00
     -2.426  0.3843E+00  0.5336E+00
     -2.354  0.9574E-02  0.5343E+00
     -2.282  0.6862E+00  0.5839E+00
     -2.209  0.1318E+01  0.6791E+00
     -2.137  0.5124E+00  0.7164E+00
     -2.065  0.4000E+00  0.7453E+00
     -1.992  0.1502E+01  0.8539E+00
     -1.920  0.4285E-04  0.8553E+00
     -1.848  0.2903E+00  0.8763E+00
     -1.776  0.1358E+01  0.9744E+00
     -1.703  0.7686E+00  0.1036E+01
     -1.631  0.4919E+00  0.1071E+01
     -1.559  0.1187E+01  0.1157E+01
     -1.486  0.3388E+00  0.1182E+01
     -1.414  0.3939E+00  0.1210E+01
     -1.342  0.1883E+01  0.1346E+01
     -1.270  0.7941E+00  0.1404E+01
     -1.197  0.3854E+00  0.1432E+01
     -1.125  0.1334E+01  0.1528E+01
     -1.053  0.5868E+00  0.1571E+01
     -0.981  0.1282E+00  0.1580E+01
     -0.908  0.1008E+01  0.1653E+01
     -0.836  0.1873E+01  0.1788E+01
     -0.764  0.3843E+00  0.1823E+01
     -0.691  0.1210E+01  0.1910E+01
     -0.619  0.1480E+01  0.2017E+01
     -0.547  0.7679E+00  0.2073E+01
     -0.475  0.7730E+00  0.2129E+01
     -0.402  0.1047E+01  0.2204E+01
     -0.330  0.4861E+00  0.2240E+01
     -0.258  0.1158E+01  0.2323E+01
     -0.186  0.1532E+01  0.2434E+01
     -0.113  0.9477E-01  0.2441E+01
     -0.041  0.1539E+01  0.2552E+01
      0.031  0.1643E+01  0.2671E+01
      0.104  0.1024E+01  0.2745E+01
      0.176  0.1538E+01  0.2858E+01
      0.248  0.7683E+00  0.2913E+01
      0.320  0.5403E+00  0.2952E+01
      0.393  0.7689E+00  0.3010E+01
      0.465  0.2022E+01  0.3157E+01
      0.537  0.1142E+01  0.3239E+01
      0.609  0.1537E+01  0.3353E+01
      0.682  0.7686E+00  0.3409E+01
      0.754  0.3255E+00  0.3432E+01
      0.826  0.1692E+01  0.3554E+01
      0.899  0.8398E+00  0.3615E+01
      0.971  0.1705E+01  0.3738E+01
      1.043  0.9143E+00  0.3804E+01
      1.115  0.1922E+01  0.3943E+01
      1.188  0.3246E+00  0.3967E+01
      1.260  0.2365E+01  0.4138E+01
      1.332  0.1953E+01  0.4279E+01
      1.405  0.7374E+00  0.4332E+01
      1.477  0.7681E+00  0.4388E+01
      1.549  0.1537E+01  0.4499E+01
      1.621  0.3017E+00  0.4521E+01
      1.694  0.8511E+00  0.4582E+01
      1.766  0.1802E+01  0.4712E+01
      1.838  0.1426E+01  0.4815E+01
      1.910  0.2818E+01  0.5020E+01
      1.983  0.7686E+00  0.5075E+01
      2.055  0.9271E+00  0.5142E+01
      2.127  0.1741E+01  0.5270E+01
      2.200  0.1280E+01  0.5362E+01
      2.272  0.1785E+01  0.5491E+01
      2.344  0.1209E+01  0.5580E+01
      2.416  0.1601E+01  0.5696E+01
      2.489  0.3044E+00  0.5718E+01
      2.561  0.2001E+01  0.5862E+01
      2.633  0.1282E+01  0.5955E+01
      2.705  0.1212E+01  0.6043E+01
      2.778  0.2109E+01  0.6196E+01
      2.850  0.1537E+01  0.6307E+01
      2.922  0.9355E+00  0.6374E+01
      2.995  0.2128E+01  0.6529E+01
      3.067  0.4494E+00  0.6564E+01
      3.139  0.1228E+01  0.6652E+01
      3.211  0.3286E+01  0.6891E+01
      3.284  0.7641E+00  0.6953E+01
      3.356  0.6352E+00  0.6998E+01
      3.428  0.2594E+01  0.7187E+01
      3.501  0.1801E+01  0.7319E+01
      3.573  0.9378E+00  0.7387E+01
      3.645  0.2500E+01  0.7567E+01
      3.717  0.5163E+00  0.7605E+01
      3.790  0.1628E+01  0.7723E+01
      3.862  0.2362E+01  0.7894E+01
      3.934  0.1887E+01  0.8030E+01
      4.006  0.1303E+01  0.8125E+01
      4.079  0.1851E+01  0.8258E+01
      4.151  0.7684E+00  0.8317E+01
      4.223  0.7901E+00  0.8374E+01
      4.296  0.2265E+01  0.8539E+01
      4.368  0.2677E+01  0.8733E+01
      4.440  0.5741E+00  0.8777E+01
      4.512  0.2652E+01  0.8969E+01
      4.585  0.1104E+01  0.9049E+01
      4.657  0.1309E+01  0.9143E+01
      4.729  0.2004E+01  0.9291E+01
      4.801  0.2546E+01  0.9475E+01
      4.874  0.1446E+01  0.9579E+01
      4.946  0.6234E+00  0.9625E+01
      5.018  0.1106E+01  0.9705E+01
      5.091  0.7794E+00  0.9761E+01
      5.163  0.3377E+01  0.1001E+02
      5.235  0.1294E+01  0.1010E+02
      5.307  0.1265E+01  0.1019E+02
      5.380  0.3086E+01  0.1041E+02
      5.452  0.9558E+00  0.1048E+02
      5.524  0.9805E+00  0.1055E+02
      5.597  0.1936E+01  0.1069E+02
      5.669  0.1721E+01  0.1082E+02
      5.741  0.2526E+01  0.1100E+02
      5.813  0.2859E+01  0.1121E+02
      5.886  0.2675E+00  0.1123E+02
      5.958  0.1608E+01  0.1135E+02
      6.030  0.1497E+01  0.1146E+02
      6.102  0.1367E+01  0.1156E+02
      6.175  0.2712E+01  0.1176E+02
      6.247  0.2634E+01  0.1195E+02
      6.319  0.3845E+00  0.1198E+02
      6.392  0.3843E+01  0.1225E+02
      6.464  0.1314E+01  0.1235E+02
      6.536  0.1192E+01  0.1244E+02
      6.608  0.3073E+01  0.1266E+02
      6.681  0.1153E+01  0.1275E+02
      6.753  0.1194E+01  0.1283E+02
      6.825  0.1285E+01  0.1293E+02
      6.897  0.2302E+01  0.1310E+02
      6.970  0.3889E+00  0.1312E+02
      7.042  0.2320E+01  0.1329E+02
      7.114  0.1654E+01  0.1341E+02
      7.187  0.2893E+01  0.1362E+02
      7.259  0.2420E+01  0.1380E+02
      7.331  0.1430E+01  0.1390E+02
      7.403  0.1924E+01  0.1404E+02
      7.476  0.2452E+01  0.1422E+02
      7.548  0.2277E+01  0.1438E+02
      7.620  0.2241E+01  0.1454E+02
      7.692  0.2214E+01  0.1471E+02
      7.765  0.1965E+01  0.1485E+02
      7.837  0.1396E+01  0.1495E+02
      7.909  0.1811E+01  0.1508E+02
      7.982  0.1002E+01  0.1516E+02
      8.054  0.2063E+01  0.1531E+02
      8.126  0.2783E+01  0.1551E+02
      8.198  0.1421E+01  0.1561E+02
      8.271  0.2708E+01  0.1581E+02
      8.343  0.1546E+01  0.1593E+02
      8.415  0.2388E+01  0.1610E+02
      8.488  0.2181E+01  0.1626E+02
      8.560  0.2392E+01  0.1643E+02
      8.632  0.1589E+01  0.1654E+02
      8.704  0.2054E+01  0.1669E+02
      8.777  0.1922E+01  0.1683E+02
      8.849  0.4980E+00  0.1687E+02
      8.921  0.3349E+01  0.1711E+02
      8.993  0.1102E+01  0.1719E+02
      9.066  0.4068E+01  0.1748E+02
      9.138  0.3843E+01  0.1776E+02
      9.210  0.4109E+00  0.1779E+02
      9.283  0.3583E+01  0.1805E+02
      9.355  0.6791E+00  0.1810E+02
      9.427  0.1691E+01  0.1823E+02
      9.499  0.1956E+01  0.1838E+02
      9.572  0.3592E+01  0.1863E+02
      9.644  0.1277E+01  0.1873E+02
      9.716  0.2121E+01  0.1888E+02
      9.788  0.1551E+01  0.1900E+02
      9.861  0.2187E+01  0.1915E+02
      9.933  0.3391E+01  0.1940E+02
     10.005  0.1870E+01  0.1954E+02
     10.078  0.9508E+00  0.1961E+02
     10.150  0.3117E+01  0.1983E+02
     10.222  0.1204E+01  0.1992E+02
     10.294  0.1923E+01  0.2006E+02
     10.367  0.3948E+01  0.2034E+02
     10.439  0.2075E+01  0.2049E+02
     10.511  0.2972E+01  0.2071E+02
     10.584  0.1807E+01  0.2084E+02
     10.656  0.2427E+01  0.2102E+02
     10.728  0.1481E+01  0.2113E+02
     10.800  0.2430E+01  0.2130E+02
     10.873  0.2651E+01  0.2150E+02
     10.945  0.2120E+01  0.2165E+02
     11.017  0.1439E+01  0.2175E+02
     11.089  0.5323E+00  0.2179E+02
     11.162  0.2891E+01  0.2200E+02
     11.234  0.1118E+01  0.2208E+02
     11.306  0.1921E+01  0.2222E+02
     11.379  0.1105E+01  0.2230E+02
     11.451  0.4554E+00  0.2234E+02
     11.523  0.1862E+01  0.2247E+02
     11.595  0.1306E+01  0.2257E+02
     11.668  0.1160E+01  0.2265E+02
     11.740  0.1463E+01  0.2275E+02
     11.812  0.7883E+00  0.2281E+02
     11.884  0.1220E+01  0.2290E+02
     11.957  0.3000E+00  0.2292E+02
     12.029  0.1212E+01  0.2301E+02
     12.101  0.8813E-01  0.2302E+02
     12.174  0.3072E+00  0.2304E+02
     12.246  0.1197E+01  0.2312E+02
     12.318  0.1119E+01  0.2321E+02
     12.390  0.7556E+00  0.2326E+02
     12.463  0.7757E+00  0.2332E+02
     12.535  0.1358E+00  0.2333E+02
     12.607  0.3766E+00  0.2336E+02
     12.680  0.2334E-02  0.2336E+02
     12.752  0.7663E+00  0.2341E+02
     12.824  0.1487E-12  0.2341E+02
     12.896  0.1063E+01  0.2349E+02
     12.969  0.9515E+00  0.2356E+02
     13.041  0.0000E+00  0.2356E+02
     13.113  0.0000E+00  0.2356E+02
     13.185  0.8380E-07  0.2356E+02
     13.258  0.7687E+00  0.2362E+02
     13.330  0.1118E-01  0.2362E+02
     13.402  0.7575E+00  0.2367E+02
     13.475  0.4267E-03  0.2367E+02
     13.547  0.5119E+00  0.2371E+02
     13.619  0.0000E+00  0.2371E+02
     13.691  0.2152E-03  0.2371E+02
     13.764  0.1152E+01  0.2379E+02
     13.836  0.0000E+00  0.2379E+02
     13.908  0.1083E-04  0.2379E+02
     13.980  0.3843E+00  0.2382E+02
     14.053  0.0000E+00  0.2382E+02
     14.125  0.0000E+00  0.2382E+02
     14.197  0.0000E+00  0.2382E+02
     14.270  0.8120E-01  0.2383E+02
     14.342  0.1072E+01  0.2390E+02
     14.414  0.0000E+00  0.2390E+02
     14.486  0.0000E+00  0.2390E+02
     14.559  0.0000E+00  0.2390E+02
     14.631  0.2881E+00  0.2392E+02
     14.703  0.9622E-01  0.2393E+02
     14.775  0.3717E-13  0.2393E+02
     14.848  0.5110E+00  0.2397E+02
     14.920  0.0000E+00  0.2397E+02
     14.992  0.0000E+00  0.2397E+02
     15.065  0.0000E+00  0.2397E+02
     15.137  0.4328E-06  0.2397E+02
     15.209  0.3843E+00  0.2400E+02
     15.281  0.0000E+00  0.2400E+02
     15.354  0.0000E+00  0.2400E+02
     15.426  0.0000E+00  0.2400E+02
     15.498  0.0000E+00  0.2400E+02
     15.571  0.0000E+00  0.2400E+02
     15.643  0.0000E+00  0.2400E+02
     15.715  0.0000E+00  0.2400E+02
     15.787  0.0000E+00  0.2400E+02
     15.860  0.0000E+00  0.2400E+02
     15.932  0.0000E+00  0.2400E+02
     16.004  0.6461E-05  0.2400E+02
     16.076  0.6405E-01  0.2400E+02
     16.149  0.0000E+00  0.2400E+02
     16.221  0.0000E+00  0.2400E+02
     16.293  0.0000E+00  0.2400E+02
     16.366  0.0000E+00  0.2400E+02
     16.438  0.0000E+00  0.2400E+02
     16.510  0.0000E+00  0.2400E+02
     16.582  0.0000E+00  0.2400E+02
     16.655  0.0000E+00  0.2400E+02
     16.727  0.0000E+00  0.2400E+02
     16.799  0.0000E+00  0.2400E+02
     16.871  0.0000E+00  0.2400E+02
     16.944  0.0000E+00  0.2400E+02
     17.016  0.0000E+00  0.2400E+02
