    4    4    1    1
  0.1959443E+02  0.4279545E-09  0.4279545E-09  0.4279545E-09  0.5000000E-15
  1.000000000000000E-004
  CAR 
 unknown system                          
   12   84   12
 
  0.0000000E+00  0.0000000E+00  0.0000000E+00  0.5787037E-03
   1       -3.6810
   2        3.8091
   3        3.8091
   4        3.8091
   5        4.6942
   6        4.6942
   7        4.6942
   8       11.1745
   9       11.1745
  10       11.1745
  11       11.1745
  12       11.1745
 
  0.8333333E-01  0.0000000E+00  0.0000000E+00  0.3472222E-02
   1       -3.6250
   2        2.9343
   3        3.8613
   4        3.8613
   5        4.7493
   6        4.7493
   7        5.6678
   8       10.1342
   9       10.1342
  10       10.7431
  11       10.7431
  12       11.2235
 
  0.1666667E+00  0.0000000E+00  0.0000000E+00  0.3472222E-02
   1       -3.4568
   2        1.8275
   3        4.0180
   4        4.0180
   5        4.9142
   6        4.9142
   7        7.0704
   8        9.0398
   9        9.0398
  10        9.8923
  11        9.8923
  12       11.3706
 
  0.2500000E+00  0.0000000E+00  0.0000000E+00  0.3472222E-02
   1       -3.1768
   2        0.8001
   3        4.2793
   4        4.2793
   5        5.1881
   6        5.1881
   7        8.0461
   8        8.0461
   9        8.5889
  10        8.9878
  11        8.9878
  12       11.6157
 
  0.3333333E+00  0.0000000E+00  0.0000000E+00  0.3472222E-02
   1       -2.7856
   2       -0.1289
   3        4.6451
   4        4.6451
   5        5.5690
   6        5.5690
   7        7.1563
   8        7.1563
   9        8.1304
  10        8.1304
  11       10.2004
  12       11.9588
 
  0.4166667E+00  0.0000000E+00  0.0000000E+00  0.3472222E-02
   1       -2.2841
   2       -0.9541
   3        5.1157
   4        5.1157
   5        6.0526
   6        6.0526
   7        6.3712
   8        6.3712
   9        7.3541
  10        7.3541
  11       11.8903
  12       12.3999
 
  0.5000000E+00  0.0000000E+00  0.0000000E+00  0.1736111E-02
   1       -1.6731
   2       -1.6731
   3        5.6910
   4        5.6910
   5        5.6910
   6        5.6910
   7        6.5400
   8        6.5400
   9        6.7681
  10        6.7681
  11       12.9388
  12       12.9388
 
  0.8333333E-01  0.8333333E-01  0.0000000E+00  0.6944444E-02
   1       -3.5689
   2        2.9878
   3        2.9878
   4        3.9135
   5        4.8043
   6        5.7215
   7        5.7215
   8        9.2727
   9       10.1860
  10       10.1860
  11       10.7930
  12       10.7930
 
  0.1666667E+00  0.8333333E-01  0.0000000E+00  0.1388889E-01
   1       -3.4007
   2        1.8816
   3        3.1484
   4        4.0703
   5        4.9690
   6        5.8824
   7        7.1233
   8        8.2141
   9        9.0919
  10        9.9434
  11       10.3413
  12       10.7501
 
  0.2500000E+00  0.8333333E-01  0.0000000E+00  0.1388889E-01
   1       -3.1209
   2        0.8546
   3        3.4158
   4        4.3315
   5        5.2421
   6        6.1497
   7        7.2299
   8        8.0983
   9        8.6410
  10        9.0400
  11        9.8826
  12       10.5999
 
  0.3333333E+00  0.8333333E-01  0.0000000E+00  0.1388889E-01
   1       -2.7299
   2       -0.0740
   3        3.7894
   4        4.6974
   5        5.6193
   6        6.3431
   7        6.5217
   8        7.2086
   9        8.1839
  10        9.0373
  11       10.2504
  12       10.9615
 
  0.4166667E+00  0.8333333E-01  0.0000000E+00  0.1388889E-01
   1       -2.2285
   2       -0.8990
   3        4.2688
   4        5.1679
   5        5.5357
   6        6.1219
   7        6.4235
   8        6.9857
   9        7.4182
  10        8.2683
  11       11.4254
  12       11.8842
 
  0.5000000E+00  0.8333333E-01  0.0000000E+00  0.6944444E-02
   1       -1.6177
   2       -1.6177
   3        4.8527
   4        4.8527
   5        5.7433
   6        5.7433
   7        6.7016
   8        6.7016
   9        7.5946
  10        7.5946
  11       11.9908
  12       11.9908
 
  0.1666667E+00  0.1666667E+00  0.0000000E+00  0.6944444E-02
   1       -3.2328
   2        2.0439
   3        2.0439
   4        4.2270
   5        5.1326
   6        7.1531
   7        7.2817
   8        7.2817
   9        9.2481
  10        9.2481
  11       10.0967
  12       10.0967
 
  0.2500000E+00  0.1666667E+00  0.0000000E+00  0.1388889E-01
   1       -2.9532
   2        1.0181
   3        2.3141
   4        4.4883
   5        5.4007
   6        6.1676
   7        7.5445
   8        8.2548
   9        8.7962
  10        9.1968
  11        9.5083
  12       10.3527
 
  0.3333333E+00  0.1666667E+00  0.0000000E+00  0.1388889E-01
   1       -2.5626
   2        0.0905
   3        2.6917
   4        4.8541
   5        5.2483
   6        5.8035
   7        7.3653
   8        7.9023
   9        8.3518
  10        9.8723
  11       10.3703
  12       10.3866
 
  0.4166667E+00  0.1666667E+00  0.0000000E+00  0.1388889E-01
   1       -2.0618
   2       -0.7337
   3        3.1759
   4        4.4592
   5        5.3247
   6        6.2812
   7        6.5803
   8        7.5508
   9        8.3961
  10        9.6261
  11       10.3398
  12       11.1462
 
  0.5000000E+00  0.1666667E+00  0.0000000E+00  0.6944444E-02
   1       -1.4517
   2       -1.4517
   3        3.7657
   4        3.7657
   5        5.9001
   6        5.9001
   7        6.8682
   8        6.8682
   9        8.9624
  10        8.9624
  11       10.9101
  12       10.9101
 
  0.2500000E+00  0.2500000E+00  0.0000000E+00  0.6944444E-02
   1       -2.6742
   2        1.2902
   3        1.2902
   4        4.7496
   5        5.1472
   6        5.6964
   7        8.5157
   8        8.5157
   9        9.0451
  10        9.0451
  11        9.4673
  12        9.4673
 
  0.3333333E+00  0.2500000E+00  0.0000000E+00  0.1388889E-01
   1       -2.2843
   2        0.3642
   3        1.6705
   4        4.2530
   5        5.1155
   6        6.0669
   7        7.6265
   8        8.5912
   9        8.8807
  10        9.4317
  11        9.8026
  12       10.6750
 
  0.4166667E+00  0.2500000E+00  0.0000000E+00  0.1388889E-01
   1       -1.7843
   2       -0.4585
   3        2.1583
   4        3.4515
   5        5.5861
   6        6.5503
   7        6.8416
   8        7.8203
   9        9.3497
  10        9.8896
  11       10.2667
  12       10.5978
 
  0.5000000E+00  0.2500000E+00  0.0000000E+00  0.6944444E-02
   1       -1.1752
   2       -1.1752
   3        2.7524
   4        2.7524
   5        6.1615
   6        6.1615
   7        7.1366
   8        7.1366
   9        9.9222
  10        9.9222
  11       10.4452
  12       10.4452
 
  0.3333333E+00  0.3333333E+00  0.0000000E+00  0.6944444E-02
   1       -1.8953
   2        0.7468
   3        0.7468
   4        3.3457
   5        5.4814
   6        6.4436
   7        7.9920
   8        7.9920
   9        8.9602
  10        8.9602
  11       10.4935
  12       11.0245
 
  0.4166667E+00  0.3333333E+00  0.0000000E+00  0.1388889E-01
   1       -1.3965
   2       -0.0739
   3        1.2375
   4        2.5386
   5        5.9521
   6        6.9256
   7        7.2074
   8        8.1902
   9        8.4618
  10        9.4269
  11        9.7131
  12       10.6495
 
  0.5000000E+00  0.3333333E+00  0.0000000E+00  0.6944444E-02
   1       -0.7890
   2       -0.7890
   3        1.8352
   4        1.8352
   5        6.5274
   6        6.5274
   7        7.5094
   8        7.5094
   9        9.0356
  10        9.0356
  11        9.9913
  12        9.9913
 
  0.4166667E+00  0.4166667E+00  0.0000000E+00  0.6944444E-02
   1       -0.8993
   2        0.4192
   3        0.4192
   4        1.7271
   5        6.4226
   6        7.4048
   7        7.6777
   8        7.6777
   9        8.6615
  10        8.6615
  11        8.9309
  12        9.8970
 
  0.5000000E+00  0.4166667E+00  0.0000000E+00  0.6944444E-02
   1       -0.2936
   2       -0.2936
   3        1.0200
   4        1.0200
   5        6.9979
   6        6.9979
   7        7.9850
   8        7.9850
   9        8.2522
  10        8.2522
  11        9.2319
  12        9.2319
 
  0.5000000E+00  0.5000000E+00  0.0000000E+00  0.1736111E-02
   1        0.3098
   2        0.3098
   3        0.3098
   4        0.3098
   5        7.5729
   6        7.5729
   7        7.5729
   8        7.5729
   9        8.5607
  10        8.5607
  11        8.5607
  12        8.5607
 
  0.8333333E-01  0.8333333E-01  0.8333333E-01  0.4629630E-02
   1       -3.5128
   2        3.0414
   3        3.0414
   4        3.0414
   5        5.7751
   6        5.7751
   7        5.7751
   8        9.3247
   9        9.3247
  10        9.3247
  11       11.3217
  12       11.3217
 
  0.1666667E+00  0.8333333E-01  0.8333333E-01  0.1388889E-01
   1       -3.3447
   2        1.9358
   3        3.2019
   4        3.2019
   5        5.9358
   6        5.9358
   7        7.1761
   8        8.2665
   9        8.2665
  10        9.4805
  11       10.8006
  12       10.8006
 
  0.2500000E+00  0.8333333E-01  0.8333333E-01  0.1388889E-01
   1       -3.0650
   2        0.9091
   3        3.4691
   4        3.4691
   5        6.2020
   6        6.2020
   7        7.2831
   8        7.2831
   9        8.6925
  10        9.7405
  11        9.9341
  12        9.9341
 
  0.3333333E+00  0.8333333E-01  0.8333333E-01  0.1388889E-01
   1       -2.6741
   2       -0.0192
   3        3.8425
   4        3.8425
   5        6.3758
   6        6.3758
   7        6.5918
   8        6.5918
   9        9.0896
  10        9.0896
  11       10.0914
  12       10.3137
 
  0.4166667E+00  0.8333333E-01  0.8333333E-01  0.1388889E-01
   1       -2.1729
   2       -0.8439
   3        4.3212
   4        4.3212
   5        5.5974
   6        5.5974
   7        7.0560
   8        7.0560
   9        8.3219
  10        8.3219
  11       10.5634
  12       11.7944
 
  0.5000000E+00  0.8333333E-01  0.8333333E-01  0.6944444E-02
   1       -1.5624
   2       -1.5624
   3        4.8591
   4        4.8591
   5        4.9560
   6        4.9560
   7        7.5678
   8        7.5678
   9        7.7113
  10        7.7113
  11       11.1293
  12       11.1293
 
  0.1666667E+00  0.1666667E+00  0.8333333E-01  0.1388889E-01
   1       -3.1768
   2        2.0980
   3        2.0980
   4        3.3622
   5        6.0950
   6        7.2065
   7        7.3339
   8        7.3339
   9        8.4240
  10        8.4240
  11       10.9519
  12       10.9519
 
  0.2500000E+00  0.1666667E+00  0.8333333E-01  0.2777778E-01
   1       -2.8974
   2        1.0725
   3        2.3680
   4        3.6290
   5        6.1921
   6        6.3864
   7        7.4265
   8        7.6112
   9        8.6726
  10        8.8611
  11       10.0885
  12       11.2000
 
  0.3333333E+00  0.1666667E+00  0.8333333E-01  0.2777778E-01
   1       -2.5069
   2        0.1452
   3        2.7454
   4        4.0012
   5        5.3142
   6        6.5466
   7        6.7413
   8        7.9677
   9        9.0463
  10        9.2469
  11       10.4217
  12       10.4580
 
  0.4166667E+00  0.1666667E+00  0.8333333E-01  0.2777778E-01
   1       -2.0063
   2       -0.6786
   3        3.2292
   4        4.4381
   5        4.5601
   6        5.7569
   7        7.2170
   8        8.3894
   9        8.5273
  10        9.5144
  11        9.6781
  12       10.7545
 
  0.5000000E+00  0.1666667E+00  0.8333333E-01  0.1388889E-01
   1       -1.3964
   2       -1.3964
   3        3.8179
   4        3.8179
   5        5.0702
   6        5.0702
   7        7.7942
   8        7.7942
   9        9.0157
  10        9.0157
  11       10.0843
  12       10.0843
 
  0.2500000E+00  0.2500000E+00  0.8333333E-01  0.1388889E-01
   1       -2.6184
   2        1.3446
   3        1.3446
   4        3.8944
   5        5.2143
   6        6.6354
   7        7.6993
   8        7.6993
   9        9.1106
  10        9.1106
  11       10.3466
  12       10.3466
 
  0.3333333E+00  0.2500000E+00  0.8333333E-01  0.2777778E-01
   1       -2.2287
   2        0.4189
   3        1.7247
   4        4.2237
   5        4.3561
   6        6.8108
   7        7.0065
   8        8.0665
   9        9.4193
  10        9.5597
  11       10.5586
  12       10.6325
 
  0.4166667E+00  0.2500000E+00  0.8333333E-01  0.2777778E-01
   1       -1.7289
   2       -0.4035
   3        2.2121
   4        3.5035
   5        4.7525
   6        6.0215
   7        7.4821
   8        8.5370
   9        8.7325
  10        9.7848
  11        9.9426
  12       11.1355
 
  0.5000000E+00  0.2500000E+00  0.8333333E-01  0.1388889E-01
   1       -1.1201
   2       -1.1201
   3        2.8058
   4        2.8058
   5        5.3346
   6        5.3346
   7        8.0591
   8        8.0591
   9        9.1102
  10        9.1102
  11       10.4969
  12       10.4969
 
  0.3333333E+00  0.3333333E+00  0.8333333E-01  0.1388889E-01
   1       -1.8399
   2        0.8013
   3        0.8013
   4        3.3976
   5        4.6465
   6        7.1793
   7        7.1793
   8        7.3771
   9        9.6838
  10        9.8590
  11        9.8590
  12       11.0771
 
  0.4166667E+00  0.3333333E+00  0.8333333E-01  0.2777778E-01
   1       -1.3413
   2       -0.0191
   3        1.2917
   4        2.5920
   5        5.1229
   6        6.3911
   7        7.6518
   8        7.8514
   9        8.9057
  10        9.0986
  11       10.3227
  12       11.5229
 
  0.5000000E+00  0.3333333E+00  0.8333333E-01  0.1388889E-01
   1       -0.7339
   2       -0.7339
   3        1.8891
   4        1.8891
   5        5.7050
   6        5.7050
   7        8.2277
   8        8.2277
   9        8.4266
  10        8.4266
  11       10.8835
  12       10.8835
 
  0.4166667E+00  0.4166667E+00  0.8333333E-01  0.1388889E-01
   1       -0.8443
   2        0.4738
   3        0.4738
   4        1.7810
   5        5.5994
   6        6.8654
   7        6.8654
   8        8.1242
   9        8.3235
  10        9.5651
  11        9.5651
  12       10.7906
 
  0.5000000E+00  0.4166667E+00  0.8333333E-01  0.1388889E-01
   1       -0.2388
   2       -0.2388
   3        1.0743
   4        1.0743
   5        6.1806
   6        6.1806
   7        7.4435
   8        7.4435
   9        8.8961
  10        8.8961
  11       10.1303
  12       10.1303
 
  0.5000000E+00  0.5000000E+00  0.8333333E-01  0.3472222E-02
   1        0.3644
   2        0.3644
   3        0.3644
   4        0.3644
   5        6.7605
   6        6.7605
   7        6.7605
   8        6.7605
   9        9.4653
  10        9.4653
  11        9.4653
  12        9.4653
 
  0.1666667E+00  0.1666667E+00  0.1666667E+00  0.4629630E-02
   1       -3.0091
   2        2.2600
   3        2.2600
   4        2.2600
   5        7.3452
   6        7.3452
   7        7.3452
   8        7.5108
   9        7.5108
  10        7.5108
  11       11.7631
  12       11.7631
 
  0.2500000E+00  0.1666667E+00  0.1666667E+00  0.1388889E-01
   1       -2.7300
   2        1.2357
   3        2.5296
   4        2.5296
   5        6.3699
   6        6.3699
   7        7.6225
   8        7.7602
   9        7.7602
  10        9.0090
  11       11.3449
  12       11.3451
 
  0.3333333E+00  0.1666667E+00  0.1666667E+00  0.1388889E-01
   1       -2.3399
   2        0.3094
   3        2.9062
   4        2.9062
   5        5.4748
   6        5.4748
   7        7.9902
   8        8.1268
   9        8.1268
  10       10.4824
  11       10.5757
  12       10.5774
 
  0.4166667E+00  0.1666667E+00  0.1666667E+00  0.1388889E-01
   1       -1.8398
   2       -0.5136
   3        3.3881
   4        3.3881
   5        4.6802
   6        4.6802
   7        8.4610
   8        8.5952
   9        8.5952
  10        9.7089
  11        9.8348
  12        9.8348
 
  0.5000000E+00  0.1666667E+00  0.1666667E+00  0.6944444E-02
   1       -1.2306
   2       -1.2306
   3        3.9086
   4        3.9086
   5        4.0553
   6        4.0553
   7        9.0344
   8        9.0344
   9        9.1030
  10        9.1030
  11        9.2334
  12        9.2334
 
  0.2500000E+00  0.2500000E+00  0.1666667E+00  0.1388889E-01
   1       -2.4513
   2        1.5074
   3        1.5074
   4        2.7984
   5        5.3752
   6        6.6351
   7        6.6351
   8        8.0227
   9        9.2679
  10        9.2679
  11       10.3867
  12       11.5967
 
  0.3333333E+00  0.2500000E+00  0.1666667E+00  0.2777778E-01
   1       -2.0620
   2        0.5827
   3        1.8869
   4        3.1727
   5        4.4756
   6        5.7405
   7        7.0045
   8        8.3893
   9        9.5119
  10        9.6279
  11       10.8332
  12       10.8654
 
  0.4166667E+00  0.2500000E+00  0.1666667E+00  0.2777778E-01
   1       -1.5627
   2       -0.2388
   3        2.3734
   4        3.5836
   5        3.7459
   6        4.9457
   7        7.4780
   8        8.7335
   9        8.8577
  10       10.0216
  11       10.1609
  12       11.2860
 
  0.5000000E+00  0.2500000E+00  0.1666667E+00  0.1388889E-01
   1       -0.9546
   2       -0.9546
   3        2.9646
   4        2.9646
   5        4.2550
   6        4.2550
   7        8.0548
   8        8.0548
   9        9.4239
  10        9.4239
  11       10.6527
  12       10.6527
 
  0.3333333E+00  0.3333333E+00  0.1666667E+00  0.1388889E-01
   1       -1.6736
   2        0.9647
   3        0.9647
   4        3.4746
   5        3.6422
   6        6.1115
   7        6.1115
   8        8.6320
   9        8.7549
  10       11.1241
  11       11.1241
  12       11.2855
 
  0.4166667E+00  0.3333333E+00  0.1666667E+00  0.2777778E-01
   1       -1.1756
   2        0.1451
   3        1.4543
   4        2.7506
   5        4.0419
   6        5.3178
   7        6.5873
   8        7.8492
   9        9.2220
  10       10.4434
  11       11.6334
  12       11.6768
 
  0.5000000E+00  0.3333333E+00  0.1666667E+00  0.1388889E-01
   1       -0.5689
   2       -0.5689
   3        2.0505
   4        2.0505
   5        4.6269
   6        4.6269
   7        7.1670
   8        7.1670
   9        9.7873
  10        9.7873
  11       12.1873
  12       12.1940
 
  0.4166667E+00  0.4166667E+00  0.1666667E+00  0.1388889E-01
   1       -0.6791
   2        0.6374
   3        0.6374
   4        1.9425
   5        4.5205
   6        5.7955
   7        5.7955
   8        7.0628
   9        9.6872
  10       10.9042
  11       10.9042
  12       12.1065
 
  0.5000000E+00  0.4166667E+00  0.1666667E+00  0.1388889E-01
   1       -0.0743
   2       -0.0743
   3        1.2371
   4        1.2371
   5        5.1059
   6        5.1059
   7        6.3776
   8        6.3776
   9       10.2501
  10       10.2501
  11       11.4603
  12       11.4603
 
  0.5000000E+00  0.5000000E+00  0.1666667E+00  0.3472222E-02
   1        0.5281
   2        0.5281
   3        0.5281
   4        0.5281
   5        5.6899
   6        5.6899
   7        5.6899
   8        5.6899
   9       10.8098
  10       10.8098
  11       10.8098
  12       10.8098
 
  0.2500000E+00  0.2500000E+00  0.2500000E+00  0.4629630E-02
   1       -2.1732
   2        1.7784
   3        1.7784
   4        1.7784
   5        5.6412
   6        5.6412
   7        5.6412
   8        9.4155
   9        9.5272
  10        9.5272
  11        9.5272
  12       12.4984
 
  0.3333333E+00  0.2500000E+00  0.2500000E+00  0.1388889E-01
   1       -1.7846
   2        0.8555
   3        2.1567
   4        2.1567
   5        4.7413
   6        4.7413
   7        6.0125
   8        8.5350
   9        9.8877
  10        9.8877
  11       11.1209
  12       12.1976
 
  0.4166667E+00  0.2500000E+00  0.2500000E+00  0.1388889E-01
   1       -1.2862
   2        0.0354
   3        2.6400
   4        2.6400
   5        3.9437
   6        3.9437
   7        6.4888
   8        7.7517
   9       10.3456
  10       10.3456
  11       11.5421
  12       11.5421
 
  0.5000000E+00  0.2500000E+00  0.2500000E+00  0.6944444E-02
   1       -0.6791
   2       -0.6791
   3        3.1473
   4        3.1473
   5        3.3315
   6        3.3315
   7        7.0689
   8        7.0689
   9       10.8282
  10       10.8282
  11       10.9803
  12       10.9803
 
  0.3333333E+00  0.3333333E+00  0.2500000E+00  0.1388889E-01
   1       -1.3969
   2        1.2364
   3        1.2364
   4        2.5317
   5        3.8389
   6        5.1142
   7        5.1142
   8        7.6495
   9       10.2475
  10       11.4709
  11       11.4709
  12       12.5495
 
  0.4166667E+00  0.3333333E+00  0.2500000E+00  0.2777778E-01
   1       -0.8998
   2        0.4185
   3        1.7246
   4        2.9277
   5        3.1231
   6        4.3162
   7        5.5926
   8        6.8620
   9       10.7051
  10       11.8190
  11       11.9942
  12       12.9483
 
  0.5000000E+00  0.3333333E+00  0.2500000E+00  0.1388889E-01
   1       -0.2942
   2       -0.2942
   3        2.3171
   4        2.3171
   5        3.6235
   6        3.6235
   7        6.1757
   8        6.1757
   9       11.2536
  10       11.2536
  11       12.4538
  12       12.4538
 
  0.4166667E+00  0.4166667E+00  0.2500000E+00  0.1388889E-01
   1       -0.4042
   2        0.9097
   3        0.9097
   4        2.2091
   5        3.5166
   6        4.7962
   7        4.7962
   8        6.0709
   9       11.1612
  10       12.3316
  11       12.3316
  12       13.4962
 
  0.5000000E+00  0.4166667E+00  0.2500000E+00  0.1388889E-01
   1        0.1994
   2        0.1994
   3        1.5076
   4        1.5076
   5        4.1030
   6        4.1030
   7        5.3817
   8        5.3817
   9       11.7087
  10       11.7087
  11       12.8754
  12       12.8754
 
  0.5000000E+00  0.5000000E+00  0.2500000E+00  0.3472222E-02
   1        0.8005
   2        0.8005
   3        0.8005
   4        0.8005
   5        4.6900
   6        4.6900
   7        4.6900
   8        4.6900
   9       12.2537
  10       12.2537
  11       12.2537
  12       12.2537
 
  0.3333333E+00  0.3333333E+00  0.3333333E+00  0.4629630E-02
   1       -1.0102
   2        1.6158
   3        1.6158
   4        1.6158
   5        4.2115
   6        4.2115
   7        4.2115
   8        6.7592
   9       11.8234
  10       11.8234
  11       11.8234
  12       13.5250
 
  0.4166667E+00  0.3333333E+00  0.3333333E+00  0.1388889E-01
   1       -0.5144
   2        0.8004
   3        2.0997
   4        2.0997
   5        3.4122
   6        3.4122
   7        4.6919
   8        5.9675
   9       12.2637
  10       12.2637
  11       13.3452
  12       13.3456
 
  0.5000000E+00  0.3333333E+00  0.3333333E+00  0.6944444E-02
   1        0.0896
   2        0.0896
   3        2.5969
   4        2.5969
   5        2.8098
   6        2.8098
   7        5.2778
   8        5.2778
   9       12.6973
  10       12.6973
  11       12.8911
  12       12.8911
 
  0.4166667E+00  0.4166667E+00  0.3333333E+00  0.1388889E-01
   1       -0.0202
   2        1.2895
   3        1.2895
   4        2.4862
   5        2.7052
   6        3.8921
   7        3.8921
   8        5.1724
   9       12.7067
  10       13.7158
  11       13.7158
  12       13.9367
 
  0.5000000E+00  0.4166667E+00  0.3333333E+00  0.1388889E-01
   1        0.5817
   2        0.5817
   3        1.8827
   4        1.8827
   5        3.1984
   6        3.1984
   7        4.4798
   8        4.4798
   9       13.2221
  10       13.2221
  11       14.2863
  12       14.3097
 
  0.5000000E+00  0.5000000E+00  0.3333333E+00  0.3472222E-02
   1        1.1805
   2        1.1805
   3        1.1805
   4        1.1805
   5        3.7853
   6        3.7853
   7        3.7853
   8        3.7853
   9       13.7420
  10       13.7420
  11       13.7420
  12       13.7420
 
  0.4166667E+00  0.4166667E+00  0.4166667E+00  0.4629630E-02
   1        0.4721
   2        1.7737
   3        1.7737
   4        1.7737
   5        3.0919
   6        3.0919
   7        3.0919
   8        4.3739
   9       14.2755
  10       14.2755
  11       14.2755
  12       14.8268
 
  0.5000000E+00  0.4166667E+00  0.4166667E+00  0.6944444E-02
   1        1.0713
   2        1.0713
   3        2.2643
   4        2.2643
   5        2.4958
   6        2.4958
   7        3.6791
   8        3.6791
   9       14.6262
  10       14.6262
  11       14.8285
  12       14.8285
 
  0.5000000E+00  0.5000000E+00  0.4166667E+00  0.3472222E-02
   1        1.6648
   2        1.6648
   3        1.6648
   4        1.6648
   5        2.9849
   6        2.9849
   7        2.9849
   8        2.9849
   9       15.1703
  10       15.1703
  11       15.1703
  12       15.1703
 
  0.5000000E+00  0.5000000E+00  0.5000000E+00  0.5787037E-03
   1        2.1532
   2        2.1532
   3        2.1532
   4        2.1532
   5        2.3910
   6        2.3910
   7        2.3910
   8        2.3910
   9       16.0305
  10       16.0305
  11       16.0305
  12       16.0305
