    4    4  200    1
  0.1804539E+02  0.4163661E-09  0.4163661E-09  0.4163661E-09  0.5000000E-15
  1.000000000000000E-004
  CAR 
 unknown system                          
   44   84   28
 
  0.0000000E+00  0.0000000E+00  0.0000000E+00  0.5787037E-03
   1       -4.3308
   2       -3.0794
   3       -3.0794
   4       -3.0794
   5       -2.9613
   6       -2.9613
   7       -2.9613
   8       -1.6031
   9       -1.6031
  10       -1.6031
  11       -0.6662
  12       -0.6662
  13        0.0249
  14        0.0249
  15        0.0249
  16        0.2418
  17        0.2418
  18        0.2418
  19        0.2418
  20        0.2418
  21        0.2418
  22        4.6999
  23        4.6999
  24        4.6999
  25        9.3561
  26        9.3561
  27        9.3561
  28       13.5778
 
  0.8333333E-01  0.0000000E+00  0.0000000E+00  0.3472222E-02
   1       -4.2611
   2       -3.0518
   3       -3.0436
   4       -3.0436
   5       -2.9404
   6       -2.9293
   7       -2.9293
   8       -1.6288
   9       -1.5788
  10       -1.5788
  11       -0.6919
  12       -0.6549
  13       -0.0094
  14       -0.0094
  15        0.0125
  16        0.1219
  17        0.1219
  18        0.1998
  19        0.1998
  20        0.2418
  21        0.2418
  22        4.2188
  23        4.8782
  24        4.8782
  25        9.3681
  26        9.3681
  27        9.9484
  28       13.3210
 
  0.1666667E+00  0.0000000E+00  0.0000000E+00  0.3472222E-02
   1       -4.0559
   2       -2.9724
   3       -2.9405
   4       -2.9405
   5       -2.8786
   6       -2.8335
   7       -2.8335
   8       -1.7037
   9       -1.5065
  10       -1.5065
  11       -0.7639
  12       -0.6219
  13       -0.1880
  14       -0.1880
  15       -0.1082
  16       -0.1082
  17       -0.0236
  18        0.0799
  19        0.0799
  20        0.2420
  21        0.2420
  22        3.1893
  23        5.3626
  24        5.3626
  25        9.4058
  26        9.4058
  27       11.3115
  28       12.6614
 
  0.2500000E+00  0.0000000E+00  0.0000000E+00  0.3472222E-02
   1       -3.7284
   2       -2.8530
   3       -2.7851
   4       -2.7851
   5       -2.7792
   6       -2.6744
   7       -2.6744
   8       -1.8210
   9       -1.3884
  10       -1.3884
  11       -0.8641
  12       -0.5955
  13       -0.5955
  14       -0.5690
  15       -0.2586
  16       -0.2586
  17       -0.1019
  18       -0.1019
  19       -0.0805
  20        0.2422
  21        0.2422
  22        2.0486
  23        6.0581
  24        6.0581
  25        9.4728
  26        9.4728
  27       11.7829
  28       11.7829
 
  0.3333333E+00  0.0000000E+00  0.0000000E+00  0.3472222E-02
   1       -3.3128
   2       -2.7175
   3       -2.6474
   4       -2.6061
   5       -2.6061
   6       -2.4535
   7       -2.4535
   8       -1.9706
   9       -1.2280
  10       -1.2280
  11       -1.0303
  12       -1.0303
  13       -0.9507
  14       -0.4995
  15       -0.4335
  16       -0.4335
  17       -0.3244
  18       -0.3244
  19       -0.1542
  20        0.2425
  21        0.2425
  22        0.9687
  23        6.8896
  24        6.8896
  25        9.5695
  26        9.5695
  27       10.8056
  28       10.8056
 
  0.4166667E+00  0.0000000E+00  0.0000000E+00  0.3472222E-02
   1       -2.8960
   2       -2.6140
   3       -2.4905
   4       -2.4524
   5       -2.4524
   6       -2.1727
   7       -2.1727
   8       -2.1404
   9       -1.4514
  10       -1.4514
  11       -1.0312
  12       -1.0312
  13       -0.9275
  14       -0.5849
  15       -0.5849
  16       -0.5658
  17       -0.5658
  18       -0.4177
  19       -0.2390
  20        0.0424
  21        0.2426
  22        0.2426
  23        7.8097
  24        7.8097
  25        9.6784
  26        9.6784
  27        9.7943
  28        9.7943
 
  0.5000000E+00  0.0000000E+00  0.0000000E+00  0.1736111E-02
   1       -2.6390
   2       -2.6390
   3       -2.3891
   4       -2.3891
   5       -2.3178
   6       -2.3178
   7       -1.8364
   8       -1.8364
   9       -1.8364
  10       -1.8364
  11       -0.8066
  12       -0.8066
  13       -0.8066
  14       -0.8066
  15       -0.6475
  16       -0.6475
  17       -0.6234
  18       -0.6234
  19       -0.3289
  20       -0.3289
  21        0.2427
  22        0.2427
  23        8.7866
  24        8.7866
  25        8.7866
  26        8.7866
  27        9.7347
  28        9.7347
 
  0.8333333E-01  0.8333333E-01  0.0000000E+00  0.6944444E-02
   1       -4.1925
   2       -3.0157
   3       -3.0157
   4       -3.0144
   5       -2.9088
   6       -2.9088
   7       -2.8919
   8       -1.6383
   9       -1.5701
  10       -1.5561
  11       -0.6987
  12       -0.6603
  13       -0.0422
  14       -0.0397
  15       -0.0397
  16        0.0388
  17        0.0974
  18        0.0974
  19        0.1997
  20        0.1997
  21        0.2128
  22        4.3889
  23        4.3889
  24        5.0490
  25        9.3799
  26        9.9688
  27        9.9688
  28       12.4980
 
  0.1666667E+00  0.8333333E-01  0.0000000E+00  0.1388889E-01
   1       -3.9902
   2       -2.9355
   3       -2.9281
   4       -2.9119
   5       -2.8483
   6       -2.8143
   7       -2.7833
   8       -1.7035
   9       -1.5055
  10       -1.4895
  11       -0.7608
  12       -0.6295
  13       -0.2773
  14       -0.2395
  15       -0.1390
  16       -0.1372
  17       -0.0724
  18        0.0382
  19        0.0795
  20        0.1982
  21        0.1995
  22        3.3547
  23        4.8446
  24        5.5171
  25        9.4149
  26       10.0312
  27       11.3375
  28       11.5608
 
  0.2500000E+00  0.8333333E-01  0.0000000E+00  0.1388889E-01
   1       -3.6677
   2       -2.8148
   3       -2.7897
   4       -2.7554
   5       -2.7510
   6       -2.6575
   7       -2.6139
   8       -1.8160
   9       -1.3891
  10       -1.3854
  11       -0.8503
  12       -0.6665
  13       -0.6267
  14       -0.5699
  15       -0.3093
  16       -0.2820
  17       -0.2355
  18       -0.1028
  19       -0.0380
  20        0.1954
  21        0.1991
  22        2.2216
  23        5.4847
  24        6.1962
  25        9.4612
  26       10.1355
  27       10.6463
  28       11.8868
 
  0.3333333E+00  0.8333333E-01  0.0000000E+00  0.1388889E-01
   1       -3.2593
   2       -2.6770
   3       -2.6220
   4       -2.6136
   5       -2.5749
   6       -2.4398
   7       -2.3994
   8       -1.9613
   9       -1.2712
  10       -1.2294
  11       -1.0865
  12       -1.0466
  13       -0.8975
  14       -0.5335
  15       -0.4892
  16       -0.4506
  17       -0.4161
  18       -0.3257
  19       -0.1290
  20        0.1952
  21        0.1985
  22        1.1638
  23        6.2304
  24        7.0144
  25        9.3514
  26        9.9710
  27       10.2595
  28       10.9080
 
  0.4166667E+00  0.8333333E-01  0.0000000E+00  0.1388889E-01
   1       -2.8489
   2       -2.5707
   3       -2.4686
   4       -2.4431
   5       -2.4205
   6       -2.1636
   7       -2.1484
   8       -2.1268
   9       -1.4887
  10       -1.4566
  11       -1.1918
  12       -1.0329
  13       -0.7923
  14       -0.7728
  15       -0.5947
  16       -0.5752
  17       -0.5674
  18       -0.3892
  19       -0.2403
  20        0.1959
  21        0.1977
  22        0.2851
  23        7.0311
  24        7.9247
  25        8.6755
  26        9.8982
  27        9.9527
  28       10.2965
 
  0.5000000E+00  0.8333333E-01  0.0000000E+00  0.6944444E-02
   1       -2.5937
   2       -2.5937
   3       -2.3624
   4       -2.3624
   5       -2.2999
   6       -2.2999
   7       -1.8473
   8       -1.8473
   9       -1.8334
  10       -1.8334
  11       -1.0447
  12       -1.0447
  13       -0.8083
  14       -0.8083
  15       -0.6480
  16       -0.6480
  17       -0.4578
  18       -0.4578
  19       -0.2371
  20       -0.2371
  21        0.1968
  22        0.1968
  23        7.8551
  24        7.8551
  25        8.8947
  26        8.8947
  27       10.1429
  28       10.1429
 
  0.1666667E+00  0.1666667E+00  0.0000000E+00  0.6944444E-02
   1       -3.7970
   2       -2.8731
   3       -2.8296
   4       -2.8296
   5       -2.7577
   6       -2.7577
   7       -2.6553
   8       -1.7307
   9       -1.4734
  10       -1.4404
  11       -0.7847
  12       -0.6131
  13       -0.4434
  14       -0.4434
  15       -0.4229
  16       -0.2213
  17       -0.0624
  18       -0.0624
  19        0.0782
  20        0.0782
  21        0.1272
  22        3.7863
  23        3.7863
  24        5.9483
  25        9.4209
  26       10.4823
  27       11.4066
  28       11.4066
 
  0.2500000E+00  0.1666667E+00  0.0000000E+00  0.1388889E-01
   1       -3.4907
   2       -2.7640
   3       -2.7047
   4       -2.6693
   5       -2.6667
   6       -2.6076
   7       -2.4759
   8       -1.8141
   9       -1.3775
  10       -1.3718
  11       -0.8470
  12       -0.8301
  13       -0.7325
  14       -0.6521
  15       -0.5346
  16       -0.3509
  17       -0.2122
  18       -0.1053
  19       -0.1001
  20        0.0763
  21        0.0889
  22        2.6538
  23        4.3769
  24        6.5878
  25        9.1213
  26        9.8240
  27       11.4552
  28       12.1902
 
  0.3333333E+00  0.1666667E+00  0.0000000E+00  0.1388889E-01
   1       -3.1051
   2       -2.6050
   3       -2.5601
   4       -2.5464
   5       -2.4838
   6       -2.3997
   7       -2.2712
   8       -1.9397
   9       -1.3307
  10       -1.2267
  11       -1.2251
  12       -1.1006
  13       -0.8897
  14       -0.8555
  15       -0.5023
  16       -0.4055
  17       -0.3926
  18       -0.3292
  19       -0.1836
  20        0.0738
  21        0.0741
  22        1.6113
  23        5.0560
  24        7.3726
  25        8.2680
  26        9.8623
  27       11.2069
  28       11.2471
 
  0.4166667E+00  0.1666667E+00  0.0000000E+00  0.1388889E-01
   1       -2.7159
   2       -2.4453
   3       -2.4191
   4       -2.4038
   5       -2.3272
   6       -2.1373
   7       -2.0890
   8       -2.0718
   9       -1.5842
  10       -1.4749
  11       -1.3505
  12       -1.1327
  13       -1.0343
  14       -0.7182
  15       -0.6276
  16       -0.5712
  17       -0.5628
  18       -0.3132
  19       -0.2101
  20        0.0696
  21        0.0714
  22        0.7464
  23        5.7899
  24        7.3927
  25        8.2571
  26       10.0771
  27       10.2010
  28       10.8086
 
  0.5000000E+00  0.1666667E+00  0.0000000E+00  0.6944444E-02
   1       -2.4651
   2       -2.4651
   3       -2.2898
   4       -2.2898
   5       -2.2478
   6       -2.2478
   7       -1.8680
   8       -1.8680
   9       -1.8259
  10       -1.8259
  11       -1.3129
  12       -1.3129
  13       -0.8115
  14       -0.8115
  15       -0.6578
  16       -0.6578
  17       -0.4990
  18       -0.4990
  19        0.0695
  20        0.0695
  21        0.1358
  22        0.1358
  23        6.5677
  24        6.5677
  25        9.2087
  26        9.2087
  27       10.3962
  28       10.3962
 
  0.2500000E+00  0.2500000E+00  0.0000000E+00  0.6944444E-02
   1       -3.2138
   2       -2.6871
   3       -2.5371
   4       -2.5371
   5       -2.5276
   6       -2.5276
   7       -2.2951
   8       -1.8455
   9       -1.3476
  10       -1.3203
  11       -1.0348
  12       -1.0348
  13       -0.9307
  14       -0.8940
  15       -0.4593
  16       -0.4076
  17       -0.2318
  18       -0.2318
  19       -0.1088
  20       -0.1088
  21       -0.0109
  22        3.2245
  23        3.2245
  24        7.1817
  25        8.1146
  26        9.8219
  27       12.5087
  28       12.5087
 
  0.3333333E+00  0.2500000E+00  0.0000000E+00  0.1388889E-01
   1       -2.8710
   2       -2.5579
   3       -2.4226
   4       -2.3807
   5       -2.3414
   6       -2.3363
   7       -2.1015
   8       -1.9242
   9       -1.4010
  10       -1.3556
  11       -1.2531
  12       -1.2055
  13       -1.1994
  14       -0.9120
  15       -0.5882
  16       -0.4041
  17       -0.3334
  18       -0.3070
  19       -0.1926
  20       -0.1125
  21       -0.0718
  22        2.1702
  23        3.8734
  24        7.1057
  25        7.9252
  26        9.9985
  27       11.6796
  28       11.8029
 
  0.4166667E+00  0.2500000E+00  0.0000000E+00  0.1388889E-01
   1       -2.5243
   2       -2.3831
   3       -2.2996
   4       -2.2527
   5       -2.1804
   6       -2.0974
   7       -2.0375
   8       -1.9434
   9       -1.7060
  10       -1.5137
  11       -1.4473
  12       -1.4439
  13       -1.0240
  14       -0.8060
  15       -0.6910
  16       -0.5794
  17       -0.5741
  18       -0.4400
  19       -0.1146
  20       -0.1010
  21        0.1236
  22        1.2796
  23        4.5806
  24        6.1841
  25        8.7761
  26       10.2773
  27       10.6792
  28       11.1744
 
  0.5000000E+00  0.2500000E+00  0.0000000E+00  0.6944444E-02
   1       -2.2787
   2       -2.2787
   3       -2.2010
   4       -2.2010
   5       -2.1674
   6       -2.1674
   7       -1.8601
   8       -1.8601
   9       -1.8187
  10       -1.8187
  11       -1.5218
  12       -1.5218
  13       -0.8102
  14       -0.8102
  15       -0.6954
  16       -0.6954
  17       -0.6207
  18       -0.6207
  19       -0.1124
  20       -0.1124
  21        0.5966
  22        0.5966
  23        5.3470
  24        5.3470
  25        9.7029
  26        9.7029
  27       10.6657
  28       10.6657
 
  0.3333333E+00  0.3333333E+00  0.0000000E+00  0.6944444E-02
   1       -2.5946
   2       -2.4664
   3       -2.2548
   4       -2.2548
   5       -2.1660
   6       -2.1660
   7       -1.9379
   8       -1.9201
   9       -1.5826
  10       -1.5826
  11       -1.3703
  12       -1.3642
  13       -1.1219
  14       -0.9883
  15       -0.6970
  16       -0.4728
  17       -0.4728
  18       -0.3357
  19       -0.3357
  20       -0.1944
  21        0.1246
  22        2.7963
  23        2.7963
  24        6.0426
  25        8.6285
  26       10.2335
  27       12.2963
  28       12.3064
 
  0.4166667E+00  0.3333333E+00  0.0000000E+00  0.1388889E-01
   1       -2.3282
   2       -2.3248
   3       -2.1625
   4       -2.0499
   5       -2.0221
   6       -1.9966
   7       -1.9896
   8       -1.8248
   9       -1.7823
  10       -1.7130
  11       -1.5844
  12       -1.4559
  13       -0.9834
  14       -0.9436
  15       -0.7866
  16       -0.6490
  17       -0.6040
  18       -0.5705
  19       -0.3318
  20       -0.2733
  21        0.5507
  22        1.8707
  23        3.4839
  24        5.0909
  25        9.4450
  26       10.5712
  27       11.3028
  28       11.6079
 
  0.5000000E+00  0.3333333E+00  0.0000000E+00  0.6944444E-02
   1       -2.1453
   2       -2.1453
   3       -2.1035
   4       -2.1035
   5       -2.0696
   6       -2.0696
   7       -1.8200
   8       -1.8200
   9       -1.7709
  10       -1.7709
  11       -1.6257
  12       -1.6257
  13       -0.7934
  14       -0.7934
  15       -0.7804
  16       -0.7804
  17       -0.7773
  18       -0.7773
  19       -0.3147
  20       -0.3147
  21        1.1224
  22        1.1224
  23        4.2433
  24        4.2433
  25       10.3446
  26       10.3446
  27       11.0252
  28       11.0252
 
  0.4166667E+00  0.4166667E+00  0.0000000E+00  0.6944444E-02
   1       -2.2434
   2       -2.1686
   3       -2.0038
   4       -2.0038
   5       -1.9645
   6       -1.9577
   7       -1.9577
   8       -1.7639
   9       -1.7639
  10       -1.6948
  11       -1.6387
  12       -1.4422
  13       -1.0325
  14       -0.8931
  15       -0.8873
  16       -0.7783
  17       -0.7783
  18       -0.5511
  19       -0.5511
  20       -0.4123
  21        1.0767
  22        2.5292
  23        2.5292
  24        4.1221
  25       10.2298
  26       10.9723
  27       12.0415
  28       12.0415
 
  0.5000000E+00  0.4166667E+00  0.0000000E+00  0.6944444E-02
   1       -2.1198
   2       -2.1198
   3       -2.0562
   4       -2.0562
   5       -1.9711
   6       -1.9711
   7       -1.8407
   8       -1.8407
   9       -1.6180
  10       -1.6180
  11       -1.5626
  12       -1.5626
  13       -0.9414
  14       -0.9414
  15       -0.9010
  16       -0.9010
  17       -0.7455
  18       -0.7455
  19       -0.5031
  20       -0.5031
  21        1.7286
  22        1.7286
  23        3.2730
  24        3.2730
  25       11.1029
  26       11.1029
  27       11.4933
  28       11.4933
 
  0.5000000E+00  0.5000000E+00  0.0000000E+00  0.1736111E-02
   1       -2.0892
   2       -2.0892
   3       -2.0892
   4       -2.0892
   5       -1.8907
   6       -1.8907
   7       -1.8907
   8       -1.8907
   9       -1.5057
  10       -1.5057
  11       -1.5057
  12       -1.5057
  13       -1.0020
  14       -1.0020
  15       -1.0020
  16       -1.0020
  17       -0.6508
  18       -0.6508
  19       -0.6508
  20       -0.6508
  21        2.4384
  22        2.4384
  23        2.4384
  24        2.4384
  25       11.9514
  26       11.9514
  27       11.9514
  28       11.9514
 
  0.8333333E-01  0.8333333E-01  0.8333333E-01  0.4629630E-02
   1       -4.1250
   2       -2.9872
   3       -2.9872
   4       -2.9872
   5       -2.8710
   6       -2.8710
   7       -2.8710
   8       -1.6443
   9       -1.5495
  10       -1.5495
  11       -0.6845
  12       -0.6845
  13       -0.0717
  14       -0.0717
  15       -0.0717
  16       -0.0068
  17       -0.0068
  18       -0.0068
  19        0.1913
  20        0.1913
  21        0.1913
  22        4.5504
  23        4.5504
  24        4.5504
  25        9.9878
  26        9.9878
  27        9.9878
  28       12.6078
 
  0.1666667E+00  0.8333333E-01  0.8333333E-01  0.1388889E-01
   1       -3.9263
   2       -2.9098
   3       -2.9024
   4       -2.9024
   5       -2.8086
   6       -2.7618
   7       -2.7618
   8       -1.6993
   9       -1.4926
  10       -1.4884
  11       -0.7501
  12       -0.6426
  13       -0.3096
  14       -0.3096
  15       -0.1603
  16       -0.1410
  17       -0.1410
  18       -0.1381
  19        0.1328
  20        0.1780
  21        0.1780
  22        3.5083
  23        4.9875
  24        4.9875
  25       10.0399
  26       10.0399
  27       11.3545
  28       11.6765
 
  0.2500000E+00  0.8333333E-01  0.8333333E-01  0.1388889E-01
   1       -3.6105
   2       -2.7957
   3       -2.7652
   4       -2.7652
   5       -2.7057
   6       -2.5928
   7       -2.5928
   8       -1.8048
   9       -1.3886
  10       -1.3882
  11       -0.8297
  12       -0.6905
  13       -0.6905
  14       -0.5758
  15       -0.3408
  16       -0.3030
  17       -0.2785
  18       -0.2785
  19        0.0492
  20        0.1683
  21        0.1683
  22        2.3753
  23        5.6089
  24        5.6089
  25       10.0571
  26       10.0571
  27       10.8389
  28       10.8389
 
  0.3333333E+00  0.8333333E-01  0.8333333E-01  0.1388889E-01
   1       -3.2123
   2       -2.6674
   3       -2.5884
   4       -2.5884
   5       -2.5684
   6       -2.3821
   7       -2.3821
   8       -1.9430
   9       -1.2914
  10       -1.2517
  11       -1.0973
  12       -1.0972
  13       -0.8396
  14       -0.5967
  15       -0.4883
  16       -0.4854
  17       -0.4447
  18       -0.4447
  19       -0.0503
  20        0.1628
  21        0.1628
  22        1.3205
  23        6.3390
  24        6.3390
  25        9.5859
  26        9.5859
  27       10.5988
  28       10.5988
 
  0.4166667E+00  0.8333333E-01  0.8333333E-01  0.1388889E-01
   1       -2.8144
   2       -2.5605
   3       -2.4163
   4       -2.4143
   5       -2.4143
   6       -2.1433
   7       -2.1433
   8       -2.0998
   9       -1.4846
  10       -1.4846
  11       -1.2495
  12       -1.0840
  13       -0.8816
  14       -0.6880
  15       -0.6474
  16       -0.5932
  17       -0.5932
  18       -0.3855
  19       -0.1600
  20        0.1602
  21        0.1602
  22        0.4309
  23        7.1281
  24        7.1281
  25        8.7768
  26        8.7768
  27       10.7967
  28       10.7967
 
  0.5000000E+00  0.8333333E-01  0.8333333E-01  0.6944444E-02
   1       -2.5714
   2       -2.5714
   3       -2.3359
   4       -2.3359
   5       -2.2610
   6       -2.2610
   7       -1.9218
   8       -1.9218
   9       -1.7644
  10       -1.7644
  11       -1.1331
  12       -1.1331
  13       -0.8925
  14       -0.8925
  15       -0.6559
  16       -0.6559
  17       -0.2739
  18       -0.2739
  19       -0.2290
  20       -0.2290
  21        0.1595
  22        0.1595
  23        7.9253
  24        7.9253
  25        7.9677
  26        7.9677
  27       10.9586
  28       10.9586
 
  0.1666667E+00  0.1666667E+00  0.8333333E-01  0.1388889E-01
   1       -3.7392
   2       -2.8513
   3       -2.8306
   4       -2.8306
   5       -2.6963
   6       -2.6963
   7       -2.6317
   8       -1.7141
   9       -1.4663
  10       -1.4457
  11       -0.7594
  12       -0.6342
  13       -0.4682
  14       -0.4653
  15       -0.4653
  16       -0.2726
  17       -0.2055
  18       -0.2055
  19        0.1272
  20        0.1272
  21        0.1360
  22        3.9164
  23        3.9164
  24        5.3824
  25        9.9704
  26       10.7037
  27       11.3314
  28       11.3314
 
  0.2500000E+00  0.1666667E+00  0.8333333E-01  0.2777778E-01
   1       -3.4446
   2       -2.7454
   3       -2.7279
   4       -2.6984
   5       -2.5855
   6       -2.5271
   7       -2.4526
   8       -1.7834
   9       -1.3852
  10       -1.3789
  11       -0.8440
  12       -0.8096
  13       -0.7781
  14       -0.6717
  15       -0.5525
  16       -0.3911
  17       -0.3460
  18       -0.3079
  19        0.0555
  20        0.0978
  21        0.0991
  22        2.7738
  23        4.4850
  24        5.9574
  25        9.2844
  26       10.4883
  27       10.7715
  28       11.8423
 
  0.3333333E+00  0.1666667E+00  0.8333333E-01  0.2777778E-01
   1       -3.0791
   2       -2.6143
   3       -2.5886
   4       -2.5214
   5       -2.4374
   6       -2.3260
   7       -2.2532
   8       -1.8930
   9       -1.3404
  10       -1.2650
  11       -1.2235
  12       -1.1351
  13       -0.9118
  14       -0.7790
  15       -0.5350
  16       -0.5271
  17       -0.4542
  18       -0.4247
  19       -0.0402
  20        0.0726
  21        0.0759
  22        1.7161
  23        5.1471
  24        6.6444
  25        8.3605
  26        9.9041
  27       10.6861
  28       11.9995
 
  0.4166667E+00  0.1666667E+00  0.8333333E-01  0.2777778E-01
   1       -2.7219
   2       -2.5169
   3       -2.4005
   4       -2.3340
   5       -2.2792
   6       -2.1284
   7       -2.0786
   8       -2.0188
   9       -1.5516
  10       -1.4750
  11       -1.3685
  12       -1.1585
  13       -1.1160
  14       -0.7405
  15       -0.6489
  16       -0.6039
  17       -0.5769
  18       -0.2342
  19       -0.1649
  20        0.0602
  21        0.0626
  22        0.8181
  23        5.8683
  24        7.3161
  25        7.5640
  26        9.0450
  27       11.0255
  28       11.9460
 
  0.5000000E+00  0.1666667E+00  0.8333333E-01  0.1388889E-01
   1       -2.5138
   2       -2.5138
   3       -2.2642
   4       -2.2642
   5       -2.1431
   6       -2.1431
   7       -1.9996
   8       -1.9996
   9       -1.6941
  10       -1.6941
  11       -1.3378
  12       -1.3378
  13       -0.9390
  14       -0.9390
  15       -0.6862
  16       -0.6862
  17       -0.3332
  18       -0.3332
  19        0.0575
  20        0.0575
  21        0.1468
  22        0.1468
  23        6.6351
  24        6.6351
  25        8.2203
  26        8.2203
  27       11.4779
  28       11.4779
 
  0.2500000E+00  0.2500000E+00  0.8333333E-01  0.1388889E-01
   1       -3.1895
   2       -2.6743
   3       -2.6071
   4       -2.6071
   5       -2.4121
   6       -2.4121
   7       -2.2737
   8       -1.7859
   9       -1.3552
  10       -1.3461
  11       -1.0407
  12       -1.0407
  13       -0.9595
  14       -0.8397
  15       -0.5232
  16       -0.4303
  17       -0.4110
  18       -0.4110
  19        0.0092
  20        0.0092
  21        0.0223
  22        3.3175
  23        3.3175
  24        6.4725
  25        8.2079
  26       10.6258
  27       11.2835
  28       11.2835
 
  0.3333333E+00  0.2500000E+00  0.8333333E-01  0.2777778E-01
   1       -2.8850
   2       -2.5510
   3       -2.5120
   4       -2.4384
   5       -2.2534
   6       -2.2181
   7       -2.0908
   8       -1.8303
   9       -1.3824
  10       -1.3600
  11       -1.2600
  12       -1.2515
  13       -1.2136
  14       -0.8197
  15       -0.6459
  16       -0.5787
  17       -0.5203
  18       -0.2175
  19       -0.1004
  20       -0.0425
  21       -0.0379
  22        2.2430
  23        3.9478
  24        6.9655
  25        7.3399
  26       10.3433
  27       10.9021
  28       11.8829
 
  0.4166667E+00  0.2500000E+00  0.8333333E-01  0.2777778E-01
   1       -2.6015
   2       -2.4371
   3       -2.3815
   4       -2.2365
   5       -2.0899
   6       -2.0806
   7       -1.9751
   8       -1.8924
   9       -1.6202
  10       -1.4651
  11       -1.4498
  12       -1.4413
  13       -1.1330
  14       -0.7751
  15       -0.7419
  16       -0.6573
  17       -0.6554
  18       -0.2453
  19       -0.0753
  20       -0.0740
  21        0.1034
  22        1.3221
  23        4.6422
  24        6.2237
  25        7.8794
  26        9.4652
  27       11.3043
  28       12.4845
 
  0.5000000E+00  0.2500000E+00  0.8333333E-01  0.1388889E-01
   1       -2.4401
   2       -2.4401
   3       -2.1911
   4       -2.1911
   5       -2.0354
   6       -2.0354
   7       -1.9554
   8       -1.9554
   9       -1.6228
  10       -1.6228
  11       -1.5249
  12       -1.5249
  13       -0.9674
  14       -0.9674
  15       -0.7522
  16       -0.7522
  17       -0.4366
  18       -0.4366
  19       -0.0858
  20       -0.0858
  21        0.6017
  22        0.6017
  23        5.3990
  24        5.3990
  25        8.6445
  26        8.6445
  27       11.8362
  28       11.8362
 
  0.3333333E+00  0.3333333E+00  0.8333333E-01  0.1388889E-01
   1       -2.6717
   2       -2.4712
   3       -2.3691
   4       -2.3691
   5       -2.0532
   6       -2.0532
   7       -1.9345
   8       -1.7887
   9       -1.5406
  10       -1.5406
  11       -1.3529
  12       -1.3347
  13       -1.2320
  14       -0.8555
  15       -0.7687
  16       -0.6533
  17       -0.6533
  18       -0.1796
  19       -0.1796
  20       -0.1405
  21        0.1001
  22        2.8506
  23        2.8506
  24        6.0702
  25        7.7655
  26       10.9090
  27       10.9090
  28       11.2344
 
  0.4166667E+00  0.3333333E+00  0.8333333E-01  0.2777778E-01
   1       -2.4864
   2       -2.3497
   3       -2.3354
   4       -2.2106
   5       -1.9748
   6       -1.8713
   7       -1.8537
   8       -1.7778
   9       -1.6663
  10       -1.6482
  11       -1.4492
  12       -1.4376
  13       -1.1491
  14       -0.8592
  15       -0.8266
  16       -0.7618
  17       -0.7494
  18       -0.3454
  19       -0.2354
  20       -0.2148
  21        0.5338
  22        1.9000
  23        3.5275
  24        5.1255
  25        8.4422
  26       10.0147
  27       11.5834
  28       11.6932
 
  0.5000000E+00  0.3333333E+00  0.8333333E-01  0.1388889E-01
   1       -2.3682
   2       -2.3682
   3       -2.2047
   4       -2.2047
   5       -1.9594
   6       -1.9594
   7       -1.7626
   8       -1.7626
   9       -1.6179
  10       -1.6179
  11       -1.5391
  12       -1.5391
  13       -1.0027
  14       -1.0027
  15       -0.8582
  16       -0.8582
  17       -0.5464
  18       -0.5464
  19       -0.2479
  20       -0.2479
  21        1.1250
  22        1.1250
  23        4.2811
  24        4.2811
  25        9.1945
  26        9.1945
  27       12.2832
  28       12.2833
 
  0.4166667E+00  0.4166667E+00  0.8333333E-01  0.1388889E-01
   1       -2.3913
   2       -2.2990
   3       -2.2490
   4       -2.2490
   5       -1.8434
   6       -1.8434
   7       -1.8358
   8       -1.7473
   9       -1.5944
  10       -1.5944
  11       -1.4104
  12       -1.3647
  13       -1.1677
  14       -0.9675
  15       -0.9083
  16       -0.9083
  17       -0.7428
  18       -0.4142
  19       -0.4142
  20       -0.3375
  21        1.0675
  22        2.5532
  23        2.5532
  24        4.1505
  25        9.1040
  26       10.6732
  27       10.6732
  28       12.2069
 
  0.5000000E+00  0.4166667E+00  0.8333333E-01  0.1388889E-01
   1       -2.3132
   2       -2.3132
   3       -2.2440
   4       -2.2440
   5       -1.8663
   6       -1.8663
   7       -1.7725
   8       -1.7725
   9       -1.4563
  10       -1.4563
  11       -1.4315
  12       -1.4315
  13       -1.0638
  14       -1.0638
  15       -0.9898
  16       -0.9898
  17       -0.6021
  18       -0.6021
  19       -0.4123
  20       -0.4123
  21        1.7337
  22        1.7337
  23        3.2973
  24        3.2973
  25        9.8483
  26        9.8483
  27       11.4272
  28       11.4272
 
  0.5000000E+00  0.5000000E+00  0.8333333E-01  0.3472222E-02
   1       -2.2768
   2       -2.2768
   3       -2.2768
   4       -2.2768
   5       -1.8110
   6       -1.8110
   7       -1.8110
   8       -1.8110
   9       -1.3473
  10       -1.3473
  11       -1.3473
  12       -1.3473
  13       -1.0980
  14       -1.0980
  15       -1.0980
  16       -1.0980
  17       -0.5489
  18       -0.5489
  19       -0.5489
  20       -0.5489
  21        2.4512
  22        2.4512
  23        2.4512
  24        2.4512
  25       10.5936
  26       10.5936
  27       10.5936
  28       10.5936
 
  0.1666667E+00  0.1666667E+00  0.1666667E+00  0.4629630E-02
   1       -3.5716
   2       -2.7913
   3       -2.7913
   4       -2.7913
   5       -2.5596
   6       -2.5596
   7       -2.5596
   8       -1.6853
   9       -1.4422
  10       -1.4422
  11       -0.6876
  12       -0.6876
  13       -0.5973
  14       -0.5973
  15       -0.5973
  16       -0.3992
  17       -0.3992
  18       -0.3992
  19        0.1396
  20        0.1396
  21        0.1396
  22        4.2729
  23        4.2729
  24        4.2729
  25       10.6113
  26       10.6113
  27       10.6113
  28       11.7785
 
  0.2500000E+00  0.1666667E+00  0.1666667E+00  0.1388889E-01