   4   4   0   0
  0.1556826E+02  0.3963693E-09  0.3963693E-09  0.3963693E-09  0.5000000E-15
  1.000000000000000E-004
  CAR 
 unknown system                          
     10.69908892     -6.48295075  301      1.78527087      1.00000000
     -6.483  0.0000E+00  0.0000E+00
     -6.426  0.0000E+00  0.0000E+00
     -6.368  0.0000E+00  0.0000E+00
     -6.311  0.0000E+00  0.0000E+00
     -6.254  0.0000E+00  0.0000E+00
     -6.197  0.0000E+00  0.0000E+00
     -6.139  0.0000E+00  0.0000E+00
     -6.082  0.0000E+00  0.0000E+00
     -6.025  0.0000E+00  0.0000E+00
     -5.967  0.0000E+00  0.0000E+00
     -5.910  0.0000E+00  0.0000E+00
     -5.853  0.0000E+00  0.0000E+00
     -5.796  0.0000E+00  0.0000E+00
     -5.738  0.2572E-08  0.1473E-09
     -5.681  0.2018E-01  0.1156E-02
     -5.624  0.1080E+00  0.7340E-02
     -5.567  0.9169E-01  0.1259E-01
     -5.509  0.1669E+00  0.2215E-01
     -5.452  0.1589E+00  0.3125E-01
     -5.395  0.1212E+00  0.3819E-01
     -5.337  0.4835E+00  0.6589E-01
     -5.280  0.4301E+00  0.9052E-01
     -5.223  0.5645E-01  0.9375E-01
     -5.166  0.7793E-02  0.9420E-01
     -5.108  0.2350E+00  0.1077E+00
     -5.051  0.6060E+00  0.1424E+00
     -4.994  0.4847E+00  0.1701E+00
     -4.937  0.4709E+00  0.1971E+00
     -4.879  0.1409E+00  0.2052E+00
     -4.822  0.1398E+00  0.2132E+00
     -4.765  0.4043E+00  0.2363E+00
     -4.707  0.9458E+00  0.2905E+00
     -4.650  0.8091E-07  0.2905E+00
     -4.593  0.1212E+00  0.2974E+00
     -4.536  0.9611E+00  0.3525E+00
     -4.478  0.6468E+00  0.3895E+00
     -4.421  0.4179E+00  0.4135E+00
     -4.364  0.2338E+00  0.4269E+00
     -4.307  0.4434E+00  0.4523E+00
     -4.249  0.9521E+00  0.5068E+00
     -4.192  0.4675E+00  0.5336E+00
     -4.135  0.2686E-04  0.5336E+00
     -4.077  0.4850E+00  0.5613E+00
     -4.020  0.6034E+00  0.5959E+00
     -3.963  0.1423E+01  0.6774E+00
     -3.906  0.6047E+00  0.7121E+00
     -3.848  0.7653E-01  0.7164E+00
     -3.791  0.1147E+01  0.7821E+00
     -3.734  0.6444E+00  0.8190E+00
     -3.677  0.6334E+00  0.8553E+00
     -3.619  0.2836E-01  0.8569E+00
     -3.562  0.4774E+00  0.8843E+00
     -3.505  0.1201E+01  0.9531E+00
     -3.447  0.5501E+00  0.9846E+00
     -3.390  0.1349E+01  0.1062E+01
     -3.333  0.1680E+00  0.1071E+01
     -3.276  0.1268E+01  0.1144E+01
     -3.218  0.6574E+00  0.1182E+01
     -3.161  0.1057E+00  0.1188E+01
     -3.104  0.1069E+01  0.1249E+01
     -3.047  0.1910E+01  0.1358E+01
     -2.989  0.7958E+00  0.1404E+01
     -2.932  0.5614E+00  0.1436E+01
     -2.875  0.1229E+01  0.1507E+01
     -2.817  0.1273E+01  0.1579E+01
     -2.760  0.7487E-02  0.1580E+01
     -2.703  0.1906E+01  0.1689E+01
     -2.646  0.6352E+00  0.1725E+01
     -2.588  0.1160E+01  0.1792E+01
     -2.531  0.3456E+00  0.1812E+01
     -2.474  0.3357E+01  0.2004E+01
     -2.417  0.1471E+01  0.2088E+01
     -2.359  0.7262E+00  0.2130E+01
     -2.302  0.1370E+01  0.2208E+01
     -2.245  0.1767E+01  0.2309E+01
     -2.187  0.7238E+00  0.2351E+01
     -2.130  0.2919E+01  0.2518E+01
     -2.073  0.3574E+01  0.2723E+01
     -2.016  0.1463E+01  0.2807E+01
     -1.958  0.4446E+01  0.3061E+01
     -1.901  0.3331E+01  0.3252E+01
     -1.844  0.3633E+01  0.3460E+01
     -1.787  0.3887E+01  0.3683E+01
     -1.729  0.7254E+01  0.4098E+01
     -1.672  0.4904E+01  0.4379E+01
     -1.615  0.7437E+01  0.4805E+01
     -1.557  0.5973E+01  0.5147E+01
     -1.500  0.7696E+01  0.5588E+01
     -1.443  0.7764E+01  0.6033E+01
     -1.386  0.1216E+02  0.6729E+01
     -1.328  0.1005E+02  0.7304E+01
     -1.271  0.1434E+02  0.8126E+01
     -1.214  0.1381E+02  0.8917E+01
     -1.157  0.1185E+02  0.9595E+01
     -1.099  0.9928E+01  0.1016E+02
     -1.042  0.1561E+02  0.1106E+02
     -0.985  0.1205E+02  0.1175E+02
     -0.927  0.1087E+02  0.1237E+02
     -0.870  0.1754E+02  0.1337E+02
     -0.813  0.1538E+02  0.1426E+02
     -0.756  0.1743E+02  0.1525E+02
     -0.698  0.1951E+02  0.1637E+02
     -0.641  0.2094E+02  0.1757E+02
     -0.584  0.2506E+02  0.1901E+02
     -0.527  0.2445E+02  0.2041E+02
     -0.469  0.2931E+02  0.2209E+02
     -0.412  0.2516E+02  0.2353E+02
     -0.355  0.2077E+02  0.2472E+02
     -0.297  0.1639E+02  0.2565E+02
     -0.240  0.1434E+02  0.2648E+02
     -0.183  0.1805E+02  0.2751E+02
     -0.126  0.2289E+02  0.2882E+02
     -0.068  0.2321E+02  0.3015E+02
     -0.011  0.2331E+02  0.3149E+02
      0.046  0.2047E+02  0.3266E+02
      0.103  0.2000E+02  0.3380E+02
      0.161  0.2137E+02  0.3503E+02
      0.218  0.1868E+02  0.3610E+02
      0.275  0.3317E+02  0.3800E+02
      0.333  0.3805E+02  0.4018E+02
      0.390  0.1972E+02  0.4131E+02
      0.447  0.1136E+02  0.4196E+02
      0.504  0.3112E+00  0.4197E+02
      0.562  0.1273E+01  0.4205E+02
      0.619  0.2302E+01  0.4218E+02
      0.676  0.3301E+01  0.4237E+02
      0.734  0.1585E+01  0.4246E+02
      0.791  0.8146E+00  0.4251E+02
      0.848  0.9703E+00  0.4256E+02
      0.905  0.1708E+01  0.4266E+02
      0.963  0.3263E+01  0.4285E+02
      1.020  0.1876E+01  0.4295E+02
      1.077  0.1976E+01  0.4307E+02
      1.134  0.1097E+01  0.4313E+02
      1.192  0.1490E+01  0.4321E+02
      1.249  0.3506E+00  0.4323E+02
      1.306  0.9688E-01  0.4324E+02
      1.364  0.2588E+01  0.4339E+02
      1.421  0.2477E+01  0.4353E+02
      1.478  0.1903E+01  0.4364E+02
      1.535  0.1948E+01  0.4375E+02
      1.593  0.1297E+01  0.4383E+02
      1.650  0.1537E+01  0.4391E+02
      1.707  0.3358E+00  0.4393E+02
      1.764  0.7556E+00  0.4398E+02
      1.822  0.9654E+00  0.4403E+02
      1.879  0.7826E+00  0.4408E+02
      1.936  0.2603E+01  0.4423E+02
      1.994  0.1969E+01  0.4434E+02
      2.051  0.8354E+00  0.4439E+02
      2.108  0.2760E+01  0.4454E+02
      2.165  0.1643E+01  0.4464E+02
      2.223  0.1608E+01  0.4473E+02
      2.280  0.4514E-01  0.4473E+02
      2.337  0.4484E-05  0.4473E+02
      2.394  0.1677E+01  0.4483E+02
      2.452  0.9864E+00  0.4489E+02
      2.509  0.2494E+01  0.4503E+02
      2.566  0.6632E+00  0.4507E+02
      2.624  0.5723E+00  0.4510E+02
      2.681  0.1276E+01  0.4517E+02
      2.738  0.2551E+01  0.4532E+02
      2.795  0.6629E+00  0.4536E+02
      2.853  0.1000E+01  0.4541E+02
      2.910  0.1964E+01  0.4553E+02
      2.967  0.1321E+01  0.4560E+02
      3.024  0.7166E+00  0.4564E+02
      3.082  0.1454E+01  0.4573E+02
      3.139  0.2069E-09  0.4573E+02
      3.196  0.7882E+00  0.4577E+02
      3.254  0.2122E+01  0.4589E+02
      3.311  0.1180E+00  0.4590E+02
      3.368  0.8531E+00  0.4595E+02
      3.425  0.1210E+01  0.4602E+02
      3.483  0.1290E+01  0.4609E+02
      3.540  0.2280E+01  0.4622E+02
      3.597  0.1977E+01  0.4634E+02
      3.654  0.3346E+00  0.4635E+02
      3.712  0.9427E+00  0.4641E+02
      3.769  0.2209E+01  0.4653E+02
      3.826  0.2119E-03  0.4653E+02
      3.884  0.1452E+01  0.4662E+02
      3.941  0.5852E-02  0.4662E+02
      3.998  0.5717E+00  0.4665E+02
      4.055  0.4533E+00  0.4668E+02
      4.113  0.2028E+01  0.4679E+02
      4.170  0.7751E+00  0.4684E+02
      4.227  0.1240E+01  0.4691E+02
      4.284  0.2172E-01  0.4691E+02
      4.342  0.2660E+00  0.4692E+02
      4.399  0.3398E+01  0.4712E+02
      4.456  0.7127E+00  0.4716E+02
      4.514  0.1197E+01  0.4723E+02
      4.571  0.1483E+01  0.4731E+02
      4.628  0.9482E+00  0.4737E+02
      4.685  0.4687E+00  0.4740E+02
      4.743  0.3045E+01  0.4757E+02
      4.800  0.4717E+00  0.4760E+02
      4.857  0.1809E+01  0.4770E+02
      4.914  0.1204E+01  0.4777E+02
      4.972  0.1851E+01  0.4787E+02
      5.029  0.1242E+01  0.4795E+02
      5.086  0.6985E+00  0.4799E+02
      5.144  0.8063E+00  0.4803E+02
      5.201  0.6482E+00  0.4807E+02
      5.258  0.7169E+00  0.4811E+02
      5.315  0.1703E+01  0.4821E+02
      5.373  0.1125E+01  0.4827E+02
      5.430  0.2773E+01  0.4843E+02
      5.487  0.4722E+00  0.4846E+02
      5.544  0.1129E+01  0.4852E+02
      5.602  0.2025E+01  0.4864E+02
      5.659  0.1292E+01  0.4871E+02
      5.716  0.8839E+00  0.4876E+02
      5.774  0.1093E+01  0.4883E+02
      5.831  0.9861E+00  0.4888E+02
      5.888  0.9168E+00  0.4894E+02
      5.945  0.4784E+00  0.4896E+02
      6.003  0.4949E+00  0.4899E+02
      6.060  0.1729E+01  0.4909E+02
      6.117  0.1213E+01  0.4916E+02
      6.174  0.2192E+01  0.4928E+02
      6.232  0.9005E+00  0.4934E+02
      6.289  0.7524E+00  0.4938E+02
      6.346  0.4846E+00  0.4941E+02
      6.404  0.9646E+00  0.4946E+02
      6.461  0.9415E+00  0.4952E+02
      6.518  0.6043E+00  0.4955E+02
      6.575  0.2614E+00  0.4957E+02
      6.633  0.1395E+01  0.4965E+02
      6.690  0.1896E+01  0.4975E+02
      6.747  0.9684E+00  0.4981E+02
      6.804  0.1495E+00  0.4982E+02
      6.862  0.1550E+01  0.4991E+02
      6.919  0.9693E+00  0.4996E+02
      6.976  0.1452E+01  0.5005E+02
      7.034  0.4888E+00  0.5007E+02
      7.091  0.1029E+01  0.5013E+02
      7.148  0.6821E+00  0.5017E+02
      7.205  0.7365E+00  0.5021E+02
      7.263  0.8245E+00  0.5026E+02
      7.320  0.1179E+01  0.5033E+02
      7.377  0.2243E+01  0.5046E+02
      7.435  0.1184E+01  0.5053E+02
      7.492  0.4910E+00  0.5055E+02
      7.549  0.1249E+01  0.5062E+02
      7.606  0.2023E+00  0.5064E+02
      7.664  0.3461E-01  0.5064E+02
      7.721  0.1663E+01  0.5073E+02
      7.778  0.8328E+00  0.5078E+02
      7.835  0.1296E+01  0.5086E+02
      7.893  0.1485E+01  0.5094E+02
      7.950  0.1043E+00  0.5095E+02
      8.007  0.1625E+01  0.5104E+02
      8.065  0.3467E+01  0.5124E+02
      8.122  0.9685E+00  0.5129E+02
      8.179  0.4881E+00  0.5132E+02
      8.236  0.2039E+01  0.5144E+02
      8.294  0.2062E+01  0.5156E+02
      8.351  0.1913E-01  0.5156E+02
      8.408  0.7545E+00  0.5160E+02
      8.465  0.1400E+01  0.5168E+02
      8.523  0.5125E+00  0.5171E+02
      8.580  0.9186E-03  0.5171E+02
      8.637  0.3608E-03  0.5171E+02
      8.695  0.1417E+01  0.5179E+02
      8.752  0.2797E+00  0.5181E+02
      8.809  0.5599E-03  0.5181E+02
      8.866  0.7729E+00  0.5185E+02
      8.924  0.2884E+00  0.5187E+02
      8.981  0.1509E+00  0.5188E+02
      9.038  0.4795E+00  0.5190E+02
      9.095  0.9165E-01  0.5191E+02
      9.153  0.4142E+00  0.5193E+02
      9.210  0.7931E+00  0.5198E+02
      9.267  0.0000E+00  0.5198E+02
      9.325  0.2483E-03  0.5198E+02
      9.382  0.2423E+00  0.5199E+02
      9.439  0.0000E+00  0.5199E+02
      9.496  0.0000E+00  0.5199E+02
      9.554  0.0000E+00  0.5199E+02
      9.611  0.0000E+00  0.5199E+02
      9.668  0.0000E+00  0.5199E+02
      9.725  0.0000E+00  0.5199E+02
      9.783  0.0000E+00  0.5199E+02
      9.840  0.0000E+00  0.5199E+02
      9.897  0.1956E-03  0.5199E+02
      9.955  0.1211E+00  0.5200E+02
     10.012  0.0000E+00  0.5200E+02
     10.069  0.0000E+00  0.5200E+02
     10.126  0.0000E+00  0.5200E+02
     10.184  0.0000E+00  0.5200E+02
     10.241  0.0000E+00  0.5200E+02
     10.298  0.0000E+00  0.5200E+02
     10.355  0.0000E+00  0.5200E+02
     10.413  0.0000E+00  0.5200E+02
     10.470  0.0000E+00  0.5200E+02
     10.527  0.0000E+00  0.5200E+02
     10.585  0.0000E+00  0.5200E+02
     10.642  0.0000E+00  0.5200E+02
     10.699  0.0000E+00  0.5200E+02
