    4    4    1    1
  0.1556826E+02  0.3963693E-09  0.3963693E-09  0.3963693E-09  0.5000000E-15
  1.000000000000000E-004
  CAR 
 unknown system                          
   44   84   26
 
  0.0000000E+00  0.0000000E+00  0.0000000E+00  0.5787037E-03
   1       -5.7019
   2       -1.7831
   3       -1.7831
   4       -1.7831
   5       -1.4826
   6       -1.4826
   7       -1.4826
   8       -0.5834
   9       -0.5834
  10       -0.5834
  11       -0.0455
  12       -0.0455
  13        0.3140
  14        0.3140
  15        0.3140
  16        0.4143
  17        0.4143
  18        0.4143
  19        0.4143
  20        0.4143
  21        0.4143
  22        3.4500
  23        3.4500
  24        3.4500
  25        7.1156
  26        7.1156
 
  0.8333333E-01  0.0000000E+00  0.0000000E+00  0.3472222E-02
   1       -5.6325
   2       -1.7869
   3       -1.7550
   4       -1.7550
   5       -1.4677
   6       -1.4667
   7       -1.4666
   8       -0.5991
   9       -0.5701
  10       -0.5701
  11       -0.0598
  12       -0.0395
  13        0.2956
  14        0.2956
  15        0.3078
  16        0.3320
  17        0.3320
  18        0.3924
  19        0.3924
  20        0.4143
  21        0.4143
  22        2.9090
  23        3.5976
  24        3.5976
  25        7.1478
  26        7.1478
 
  0.1666667E+00  0.0000000E+00  0.0000000E+00  0.3472222E-02
   1       -5.4253
   2       -1.8121
   3       -1.6748
   4       -1.6748
   5       -1.4240
   6       -1.4185
   7       -1.4185
   8       -0.6452
   9       -0.5305
  10       -0.5305
  11       -0.1009
  12       -0.0218
  13        0.1242
  14        0.1242
  15        0.2421
  16        0.2421
  17        0.2896
  18        0.3293
  19        0.3293
  20        0.4144
  21        0.4144
  22        1.8752
  23        4.0005
  24        4.0005
  25        7.2469
  26        7.2469
 
  0.2500000E+00  0.0000000E+00  0.0000000E+00  0.3472222E-02
   1       -5.0840
   2       -1.9105
   3       -1.5553
   4       -1.5553
   5       -1.3542
   6       -1.3372
   7       -1.3372
   8       -0.7182
   9       -0.4658
  10       -0.4658
  11       -0.1636
  12       -0.1392
  13       -0.1392
  14        0.0065
  15        0.1592
  16        0.1592
  17        0.2329
  18        0.2329
  19        0.2606
  20        0.4145
  21        0.4145
  22        0.8751
  23        4.5879
  24        4.5879
  25        7.4190
  26        7.4190
 
  0.3333333E+00  0.0000000E+00  0.0000000E+00  0.3472222E-02
   1       -4.6160
   2       -2.1877
   3       -1.4197
   4       -1.4197
   5       -1.2627
   6       -1.2216
   7       -1.2216
   8       -0.8130
   9       -0.4095
  10       -0.4095
  11       -0.3779
  12       -0.3779
  13       -0.2376
  14        0.0434
  15        0.0605
  16        0.0605
  17        0.1139
  18        0.1139
  19        0.1402
  20        0.2231
  21        0.4146
  22        0.4146
  23        5.3094
  24        5.3094
  25        7.6721
  26        7.6721
 
  0.4166667E+00  0.0000000E+00  0.0000000E+00  0.3472222E-02
   1       -4.0364
   2       -2.7132
   3       -1.3054
   4       -1.3054
   5       -1.1554
   6       -1.0704
   7       -1.0704
   8       -0.9226
   9       -0.6615
  10       -0.6615
  11       -0.3041
  12       -0.2701
  13       -0.2701
  14       -0.2265
  15       -0.0266
  16       -0.0266
  17       -0.0164
  18       -0.0164
  19        0.0865
  20        0.1795
  21        0.4147
  22        0.4147
  23        6.1369
  24        6.1369
  25        8.0039
  26        8.0222
 
  0.5000000E+00  0.0000000E+00  0.0000000E+00  0.1736111E-02
   1       -3.3774
   2       -3.3774
   3       -1.2589
   4       -1.2589
   5       -1.0394
   6       -1.0394
   7       -0.8833
   8       -0.8833
   9       -0.8833
  10       -0.8833
  11       -0.3264
  12       -0.3264
  13       -0.1474
  14       -0.1474
  15       -0.1474
  16       -0.1474
  17       -0.0631
  18       -0.0631
  19        0.1329
  20        0.1329
  21        0.4148
  22        0.4148
  23        7.0550
  24        7.0550
  25        7.0550
  26        7.0550
 
  0.8333333E-01  0.8333333E-01  0.0000000E+00  0.6944444E-02
   1       -5.5633
   2       -1.7580
   3       -1.7580
   4       -1.7278
   5       -1.4521
   6       -1.4521
   7       -1.4511
   8       -0.6075
   9       -0.5639
  10       -0.5581
  11       -0.0635
  12       -0.0426
  13        0.2706
  14        0.2719
  15        0.2719
  16        0.2780
  17        0.3237
  18        0.3237
  19        0.3923
  20        0.3923
  21        0.4000
  22        3.0497
  23        3.0497
  24        3.7385
  25        7.1807
  26        7.8464
 
  0.1666667E+00  0.8333333E-01  0.0000000E+00  0.1388889E-01
   1       -5.3568
   2       -1.7806
   3       -1.6754
   4       -1.6502
   5       -1.4092
   6       -1.4048
   7       -1.4042
   8       -0.6488
   9       -0.5282
  10       -0.5227
  11       -0.0991
  12       -0.0263
  13        0.0793
  14        0.0847
  15        0.1984
  16        0.2266
  17        0.2499
  18        0.3009
  19        0.3291
  20        0.3922
  21        0.3924
  22        2.0210
  23        3.4254
  24        4.1276
  25        7.2815
  26        7.9760
 
  0.2500000E+00  0.8333333E-01  0.0000000E+00  0.1388889E-01
   1       -5.0168
   2       -1.8741
   3       -1.5519
   4       -1.5342
   5       -1.3408
   6       -1.3256
   7       -1.3250
   8       -0.7192
   9       -0.4667
  10       -0.4646
  11       -0.1834
  12       -0.1630
  13       -0.1564
  14        0.0052
  15        0.0679
  16        0.1468
  17        0.1659
  18        0.2326
  19        0.2638
  20        0.3907
  21        0.3921
  22        1.0573
  23        3.9587
  24        4.7015
  25        7.4551
  26        8.1983
 
  0.3333333E+00  0.8333333E-01  0.0000000E+00  0.1388889E-01
   1       -4.5508
   2       -2.1441
   3       -1.4111
   4       -1.4009
   5       -1.2511
   6       -1.2168
   7       -1.2117
   8       -0.8114
   9       -0.4499
  10       -0.4219
  11       -0.4019
  12       -0.3773
  13       -0.2122
  14       -0.1388
  15        0.0471
  16        0.0520
  17        0.0670
  18        0.1134
  19        0.2013
  20        0.3904
  21        0.3918
  22        0.4299
  23        4.5996
  24        5.4124
  25        7.6792
  26        8.0415
 
  0.4166667E+00  0.8333333E-01  0.0000000E+00  0.1388889E-01
   1       -3.9741
   2       -2.6618
   3       -1.2903
   4       -1.2846
   5       -1.1461
   6       -1.0795
   7       -1.0639
   8       -0.9184
   9       -0.6951
  10       -0.6654
  11       -0.3787
  12       -0.3325
  13       -0.2700
  14       -0.2002
  15       -0.0309
  16       -0.0218
  17       -0.0168
  18        0.0565
  19        0.0969
  20        0.2230
  21        0.3907
  22        0.3915
  23        5.3251
  24        6.2321
  25        7.0052
  26        8.1032
 
  0.5000000E+00  0.8333333E-01  0.0000000E+00  0.6944444E-02
   1       -3.3196
   2       -3.3196
   3       -1.2383
   4       -1.2383
   5       -1.0326
   6       -1.0326
   7       -0.9070
   8       -0.9070
   9       -0.8812
  10       -0.8812
  11       -0.3917
  12       -0.3917
  13       -0.1476
  14       -0.1476
  15       -0.0950
  16       -0.0950
  17       -0.0624
  18       -0.0624
  19        0.1531
  20        0.1531
  21        0.3911
  22        0.3911
  23        6.1275
  24        6.1275
  25        7.1447
  26        7.1447
 
  0.1666667E+00  0.1666667E+00  0.0000000E+00  0.6944444E-02
   1       -5.1526
   2       -1.6902
   3       -1.6902
   4       -1.5802
   5       -1.3646
   6       -1.3646
   7       -1.3610
   8       -0.6726
   9       -0.5073
  10       -0.5000
  11       -0.1117
  12       -0.0423
  13       -0.0317
  14       -0.0317
  15       -0.0203
  16        0.1812
  17        0.2483
  18        0.2483
  19        0.3286
  20        0.3286
  21        0.3575
  22        2.3846
  23        2.3846
  24        4.4857
  25        7.3861
  26        8.9258
 
  0.2500000E+00  0.1666667E+00  0.0000000E+00  0.1388889E-01
   1       -4.8165
   2       -1.7693
   3       -1.5542
   4       -1.4759
   5       -1.3004
   6       -1.2897
   7       -1.2894
   8       -0.7286
   9       -0.4667
  10       -0.4539
  11       -0.2978
  12       -0.2385
  13       -0.1937
  14       -0.1519
  15        0.0169
  16        0.1101
  17        0.1690
  18        0.2200
  19        0.2317
  20        0.3278
  21        0.3376
  22        1.4273
  23        2.8733
  24        5.0275
  25        7.5208
  26        7.7946
 
  0.3333333E+00  0.1666667E+00  0.0000000E+00  0.1388889E-01
   1       -4.3568
   2       -2.0184
   3       -1.3965
   4       -1.3514
   5       -1.2166
   6       -1.1982
   7       -1.1830
   8       -0.8100
   9       -0.5542
  10       -0.4608
  11       -0.4404
  12       -0.3753
  13       -0.3719
  14       -0.1852
  15        0.0253
  16        0.0728
  17        0.0755
  18        0.1124
  19        0.1580
  20        0.3268
  21        0.3292
  22        0.7594
  23        3.4497
  24        5.7115
  25        6.6483
  26        7.8736
 
  0.4166667E+00  0.1666667E+00  0.0000000E+00  0.1388889E-01
   1       -3.7897
   2       -2.5121
   3       -1.2543
   4       -1.2278
   5       -1.1186
   6       -1.1026
   7       -1.0449
   8       -0.9076
   9       -0.7830
  10       -0.6785
  11       -0.4839
  12       -0.4541
  13       -0.2677
  14       -0.1591
  15       -0.0465
  16       -0.0178
  17       -0.0175
  18        0.0548
  19        0.1503
  20        0.3259
  21        0.3261
  22        0.4112
  23        4.1071
  24        5.6969
  25        6.5108
  26        8.2509
 
  0.5000000E+00  0.1666667E+00  0.0000000E+00  0.6944444E-02
   1       -3.1495
   2       -3.1495
   3       -1.1806
   4       -1.1806
   5       -1.0131
   6       -1.0131
   7       -0.9731
   8       -0.9731
   9       -0.8757
  10       -0.8757
  11       -0.4905
  12       -0.4905
  13       -0.1472
  14       -0.1472
  15       -0.0670
  16       -0.0670
  17       -0.0665
  18       -0.0665
  19        0.2484
  20        0.2484
  21        0.3254
  22        0.3254
  23        4.8524
  24        4.8524
  25        7.4085
  26        7.4085
 
  0.2500000E+00  0.2500000E+00  0.0000000E+00  0.6944444E-02
   1       -4.4876
   2       -1.6107
   3       -1.6107
   4       -1.3922
   5       -1.2328
   6       -1.2328
   7       -1.2282
   8       -0.7599
   9       -0.4640
  10       -0.4499
  11       -0.4499
  12       -0.4185
  13       -0.3664
  14       -0.1741
  15        0.0512
  16        0.0674
  17        0.1468
  18        0.1468
  19        0.2304
  20        0.2304
  21        0.2881
  22        1.8764
  23        1.8764
  24        5.5325
  25        6.5154
  26        7.7972
 
  0.3333333E+00  0.2500000E+00  0.0000000E+00  0.1388889E-01
   1       -4.0396
   2       -1.8271
   3       -1.4237
   4       -1.2940
   5       -1.1592
   6       -1.1525
   7       -1.1378
   8       -0.8175
   9       -0.6792
  10       -0.5789
  11       -0.5296
  12       -0.4705
  13       -0.3516
  14       -0.1989
  15       -0.0204
  16        0.0556
  17        0.0889
  18        0.1115
  19        0.1523
  20        0.2293
  21        0.2563
  22        1.1304
  23        2.3938
  24        5.4429
  25        6.1835
  26        8.0933
 
  0.4166667E+00  0.2500000E+00  0.0000000E+00  0.1388889E-01
   1       -3.4907
   2       -2.2797
   3       -1.2465
   4       -1.1813
   5       -1.0998
   6       -1.0739
   7       -1.0159
   8       -0.8951
   9       -0.8763
  10       -0.7036
  11       -0.6148
  12       -0.5101
  13       -0.2572
  14       -0.1794
  15       -0.0793
  16       -0.0337
  17       -0.0167
  18       -0.0032
  19        0.2294
  20        0.2396
  21        0.2649
  22        0.6732
  23        2.9912
  24        4.5008
  25        6.9560
  26        8.5022
 
  0.5000000E+00  0.2500000E+00  0.0000000E+00  0.6944444E-02
   1       -2.8783
   2       -2.8783
   3       -1.1293
   4       -1.1293
   5       -1.0400
   6       -1.0400
   7       -0.9833
   8       -0.9833
   9       -0.8693
  10       -0.8693
  11       -0.5732
  12       -0.5732
  13       -0.1428
  14       -0.1428
  15       -0.1052
  16       -0.1052
  17       -0.0880
  18       -0.0880
  19        0.2320
  20        0.2320
  21        0.4202
  22        0.4202
  23        3.6875
  24        3.6875
  25        7.8333
  26        7.8333
 
  0.3333333E+00  0.3333333E+00  0.0000000E+00  0.6944444E-02
   1       -3.6109
   2       -1.6010
   3       -1.6010
   4       -1.2504
   5       -1.0798
   6       -1.0798
   7       -1.0781
   8       -0.8429
   9       -0.7464
  10       -0.7464
  11       -0.6273
  12       -0.4988
  13       -0.3055
  14       -0.2298
  15       -0.0797
  16        0.0030
  17        0.0030
  18        0.1121
  19        0.1121
  20        0.1945
  21        0.2704
  22        1.5589
  23        1.5589
  24        4.3757
  25        6.8026
  26        8.4213
 
  0.4166667E+00  0.3333333E+00  0.0000000E+00  0.1388889E-01
   1       -3.0929
   2       -1.9944
   3       -1.3889
   4       -1.2257
   5       -1.0144
   6       -1.0080
   7       -0.9806
   8       -0.8881
   9       -0.8732
  10       -0.7441
  11       -0.7148
  12       -0.5507
  13       -0.2299
  14       -0.2282
  15       -0.1306
  16       -0.0821
  17       -0.0817
  18       -0.0114
  19        0.1166
  20        0.1526
  21        0.4261
  22        0.9905
  23        2.0706
  24        3.4597
  25        7.5476
  26        8.8647
 
  0.5000000E+00  0.3333333E+00  0.0000000E+00  0.6944444E-02
   1       -2.5284
   2       -2.5284
   3       -1.2545
   4       -1.2545
   5       -0.9540
   6       -0.9540
   7       -0.9479
   8       -0.9479
   9       -0.8660
  10       -0.8660
  11       -0.6329
  12       -0.6329
  13       -0.1715
  14       -0.1715
  15       -0.1358
  16       -0.1358
  17       -0.1290
  18       -0.1290
  19        0.1284
  20        0.1284
  21        0.6441
  22        0.6441
  23        2.6957
  24        2.6957
  25        8.4029
  26        8.4029
 
  0.4166667E+00  0.4166667E+00  0.0000000E+00  0.6944444E-02
   1       -2.6256
   2       -1.7049
   3       -1.7049
   4       -1.3153
   5       -0.9443
   6       -0.9443
   7       -0.9104
   8       -0.8934
   9       -0.8009
  10       -0.7841
  11       -0.7841
  12       -0.5984
  13       -0.2585
  14       -0.1841
  15       -0.1779
  16       -0.1584
  17       -0.1584
  18        0.0028
  19        0.0028
  20        0.0811
  21        0.6367
  22        1.3887
  23        1.3887
  24        2.5941
  25        8.2675
  26        9.3463
 
  0.5000000E+00  0.4166667E+00  0.0000000E+00  0.6944444E-02
   1       -2.1394
   2       -2.1394
   3       -1.4688
   4       -1.4688
   5       -0.9132
   6       -0.9132
   7       -0.8703
   8       -0.8703
   9       -0.8388
  10       -0.8388
  11       -0.6796
  12       -0.6796
  13       -0.2315
  14       -0.2315
  15       -0.2006
  16       -0.2006
  17       -0.0988
  18       -0.0988
  19        0.0317
  20        0.0317
  21        0.9339
  22        0.9339
  23        1.9098
  24        1.9098
  25        9.1020
  26        9.1020
 
  0.5000000E+00  0.5000000E+00  0.0000000E+00  0.1736111E-02
   1       -1.7685
   2       -1.7685
   3       -1.7685
   4       -1.7685
   5       -0.8860
   6       -0.8860
   7       -0.8860
   8       -0.8860
   9       -0.7418
  10       -0.7418
  11       -0.7418
  12       -0.7418
  13       -0.2453
  14       -0.2453
  15       -0.2453
  16       -0.2453
  17       -0.0458
  18       -0.0458
  19       -0.0458
  20       -0.0458
  21        1.3353
  22        1.3353
  23        1.3353
  24        1.3353
  25        9.9181
  26        9.9181
 
  0.8333333E-01  0.8333333E-01  0.8333333E-01  0.4629630E-02
   1       -5.4944
   2       -1.7301
   3       -1.7301
   4       -1.7301
   5       -1.4368
   6       -1.4368
   7       -1.4368
   8       -0.6150
   9       -0.5528
  10       -0.5528
  11       -0.0559
  12       -0.0559
  13        0.2409
  14        0.2409
  15        0.2409
  16        0.2618
  17        0.2618
  18        0.2618
  19        0.3895
  20        0.3895
  21        0.3895
  22        3.1824
  23        3.1824
  24        3.1824
  25        7.8893
  26        7.8893
 
  0.1666667E+00  0.8333333E-01  0.8333333E-01  0.1388889E-01
   1       -5.2886
   2       -1.7504
   3       -1.6505
   4       -1.6505
   5       -1.3946
   6       -1.3906
   7       -1.3906
   8       -0.6523
   9       -0.5223
  10       -0.5195
  11       -0.0933
  12       -0.0335
  13        0.0453
  14        0.0453
  15        0.1506
  16        0.2128
  17        0.2165
  18        0.2165
  19        0.3612
  20        0.3826
  21        0.3826
  22        2.1521
  23        3.5418
  24        3.5418
  25        8.0196
  26        8.0196
 
  0.2500000E+00  0.8333333E-01  0.8333333E-01  0.1388889E-01
   1       -4.9500
   2       -1.8396
   3       -1.5314
   4       -1.5314
   5       -1.3273
   6       -1.3133
   7       -1.3133
   8       -0.7195
   9       -0.4678
  10       -0.4648
  11       -0.2041
  12       -0.2041
  13       -0.1458
  14       -0.0068
  15        0.0021
  16        0.1339
  17        0.1434
  18        0.1434
  19        0.3207
  20        0.3770
  21        0.3770
  22        1.1955
  23        4.0599
  24        4.0599
  25        8.2346
  26        8.2346
 
  0.3333333E+00  0.8333333E-01  0.8333333E-01  0.1388889E-01
   1       -4.4861
   2       -2.1028
   3       -1.3938
   4       -1.3938
   5       -1.2391
   6       -1.2071
   7       -1.2071
   8       -0.8090
   9       -0.4585
  10       -0.4585
  11       -0.4120
  12       -0.3900
  13       -0.2231
  14       -0.1851
  15        0.0331
  16        0.0482
  17        0.0521
  18        0.0521
  19        0.2718
  20        0.3738
  21        0.3738
  22        0.5404
  23        4.6894
  24        4.6894
  25        8.0259
  26        8.0259
 
  0.4166667E+00  0.8333333E-01  0.8333333E-01  0.1388889E-01
   1       -3.9127
   2       -2.6123
   3       -1.2706
   4       -1.2706
   5       -1.1360
   6       -1.0776
   7       -1.0776
   8       -0.9132
   9       -0.6914
  10       -0.6914
  11       -0.4063
  12       -0.3878
  13       -0.2976
  14       -0.1443
  15       -0.0789
  16       -0.0308
  17       -0.0308
  18        0.1017
  19        0.1908
  20        0.2170
  21        0.3723
  22        0.3723
  23        5.4064
  24        5.4064
  25        7.0846
  26        7.0846
 
  0.5000000E+00  0.8333333E-01  0.8333333E-01  0.6944444E-02
   1       -3.2631
   2       -3.2631
   3       -1.2174
   4       -1.2174
   5       -1.0248
   6       -1.0248
   7       -0.9596
   8       -0.9596
   9       -0.8486
  10       -0.8486
  11       -0.4278
  12       -0.4278
  13       -0.1919
  14       -0.1919
  15       -0.0661
  16       -0.0661
  17       -0.0135
  18       -0.0135
  19        0.1592
  20        0.1592
  21        0.3719
  22        0.3719
  23        6.1577
  24        6.1577
  25        6.2532
  26        6.2532
 
  0.1666667E+00  0.1666667E+00  0.8333333E-01  0.1388889E-01
   1       -5.0853
   2       -1.6644
   3       -1.6644
   4       -1.5799
   5       -1.3505
   6       -1.3505
   7       -1.3476
   8       -0.6743
   9       -0.5037
  10       -0.4995
  11       -0.0980
  12       -0.0772
  13       -0.0625
  14       -0.0625
  15       -0.0311
  16        0.1531
  17        0.1740
  18        0.1740
  19        0.3575
  20        0.3575
  21        0.3627
  22        2.4915
  23        2.4915
  24        3.8659
  25        8.1433
  26        9.0221
 
  0.2500000E+00  0.1666667E+00  0.8333333E-01  0.2777778E-01
   1       -4.7509
   2       -1.7414
   3       -1.5357
   4       -1.4752
   5       -1.2863
   6       -1.2767
   7       -1.2766
   8       -0.7268
   9       -0.4682
  10       -0.4589
  11       -0.3129
  12       -0.2720
  13       -0.2255
  14       -0.1326
  15        0.0092
  16        0.0859
  17        0.0948
  18        0.1182
  19        0.3201
  20        0.3419
  21        0.3429
  22        1.5223
  23        2.9621
  24        4.3480
  25        7.7707
  26        8.4520
 
  0.3333333E+00  0.1666667E+00  0.8333333E-01  0.2777778E-01
   1       -4.2939
   2       -1.9850
   3       -1.3860
   4       -1.3508
   5       -1.2025
   6       -1.1871
   7       -1.1765
   8       -0.8046
   9       -0.5533
  10       -0.4869
  11       -0.4443
  12       -0.4031
  13       -0.3941
  14       -0.1492
  15       -0.0073
  16        0.0093
  17        0.0397
  18        0.0696
  19        0.2655
  20        0.3289
  21        0.3292
  22        0.8206
  23        3.5266
  24        4.9462
  25        6.7264
  26        8.2790
 
  0.4166667E+00  0.1666667E+00  0.8333333E-01  0.2777778E-01
   1       -3.7310
   2       -2.4692
   3       -1.2435
   4       -1.2215
   5       -1.1074
   6       -1.1053
   7       -1.0696
   8       -0.8989
   9       -0.7547
  10       -0.6849
  11       -0.5025
  12       -0.4628
  13       -0.3148
  14       -0.1164
  15       -0.0918
  16       -0.0592
  17       -0.0398
  18        0.1431
  19        0.1787
  20        0.3216
  21        0.3221
  22        0.4185
  23        4.1759
  24        5.5761
  25        5.8422
  26        7.3172
 
  0.5000000E+00  0.1666667E+00  0.8333333E-01  0.1388889E-01
   1       -3.0974
   2       -3.0974
   3       -1.1592
   4       -1.1592
   5       -1.0446
   6       -1.0446
   7       -1.0017
   8       -1.0017
   9       -0.8195
  10       -0.8195
  11       -0.5030
  12       -0.5030
  13       -0.2213
  14       -0.2213
  15       -0.0818
  16       -0.0818
  17        0.0380
  18        0.0380
  19        0.2372
  20        0.2372
  21        0.3196
  22        0.3196
  23        4.9129
  24        4.9129
  25        6.4481
  26        6.4481
 
  0.2500000E+00  0.2500000E+00  0.8333333E-01  0.1388889E-01
   1       -4.4243
   2       -1.5951
   3       -1.5951
   4       -1.3967
   5       -1.2172
   6       -1.2172
   7       -1.2134
   8       -0.7539
   9       -0.4661
  10       -0.4588
  11       -0.4588
  12       -0.4334
  13       -0.3904
  14       -0.1446
  15        0.0164
  16        0.0547
  17        0.0547
  18        0.0580
  19        0.2937
  20        0.2937
  21        0.3055
  22        1.9493
  23        1.9493
  24        4.7863
  25        6.5949
  26        8.6845
 
  0.3333333E+00  0.2500000E+00  0.8333333E-01  0.2777778E-01
   1       -3.9801
   2       -1.8093
   3       -1.4275
   4       -1.3078
   5       -1.1401
   6       -1.1361
   7       -1.1225
   8       -0.8067
   9       -0.6661
  10       -0.5818
  11       -0.5391
  12       -0.4726
  13       -0.3868
  14       -0.1501
  15       -0.0526
  16       -0.0396
  17       -0.0053
  18        0.1423
  19        0.2284
  20        0.2669
  21        0.2742
  22        1.1748
  23        2.4551
  24        5.2581
  25        5.6183
  26        8.6611
 
  0.4166667E+00  0.2500000E+00  0.8333333E-01  0.2777778E-01
   1       -3.4373
   2       -2.2497
   3       -1.2719
   4       -1.2146
   5       -1.0827
   6       -1.0533
   7       -1.0312
   8       -0.8795
   9       -0.8145
  10       -0.6847
  11       -0.6157
  12       -0.5122
  13       -0.3240
  14       -0.1447
  15       -0.1078
  16       -0.0968
  17       -0.0745
  18        0.1341
  19        0.2507
  20        0.2534
  21        0.2541
  22        0.6824
  23        3.0462
  24        4.5422
  25        6.0659
  26        7.6944
 
  0.5000000E+00  0.2500000E+00  0.8333333E-01  0.1388889E-01
   1       -2.8346
   2       -2.8346
   3       -1.1734
   4       -1.1734
   5       -1.0522
   6       -1.0522
   7       -0.9642
   8       -0.9642
   9       -0.7998
  10       -0.7998
  11       -0.5748
  12       -0.5748
  13       -0.2429
  14       -0.2429
  15       -0.1189
  16       -0.1189
  17        0.0130
  18        0.0130
  19        0.2465
  20        0.2465
  21        0.4106
  22        0.4106
  23        3.7380
  24        3.7380
  25        6.8285
  26        6.8285
 
  0.3333333E+00  0.3333333E+00  0.8333333E-01  0.1388889E-01
   1       -3.5572
   2       -1.6097
   3       -1.6097
   4       -1.2830
   5       -1.0581
   6       -1.0513
   7       -1.0513
   8       -0.8245
   9       -0.7298
  10       -0.7298
  11       -0.6133
  12       -0.4991
  13       -0.3678
  14       -0.1566
  15       -0.1187
  16       -0.0846
  17       -0.0846
  18        0.1896
  19        0.1896
  20        0.2225
  21        0.2587
  22        1.5964
  23        1.5964
  24        4.4087
  25        5.9388
  26        9.1773
 
  0.4166667E+00  0.3333333E+00  0.8333333E-01  0.2777778E-01
   1       -3.0487
   2       -1.9864
   3       -1.4329
   4       -1.2797
   5       -0.9877
   6       -0.9792
   7       -0.9509
   8       -0.8618
   9       -0.8267
  10       -0.7057
  11       -0.6984
  12       -0.5493
  13       -0.3326
  14       -0.1803
  15       -0.1702
  16       -0.1403
  17       -0.1151
  18        0.0911
  19        0.1656
  20        0.1832
  21        0.4135
  22        1.0000
  23        2.1062
  24        3.4978
  25        6.5842
  26        8.2061
 
  0.5000000E+00  0.3333333E+00  0.8333333E-01  0.1388889E-01
   1       -2.4995
   2       -2.4995
   3       -1.3202
   4       -1.3202
   5       -0.9412
   6       -0.9412
   7       -0.9150
   8       -0.9150
   9       -0.7896
  10       -0.7896
  11       -0.6291
  12       -0.6291
  13       -0.2690
  14       -0.2690
  15       -0.1795
  16       -0.1795
  17       -0.0212
  18       -0.0212
  19        0.1633
  20        0.1633
  21        0.6359
  22        0.6359
  23        2.7324
  24        2.7324
  25        7.3419
  26        7.3419
 
  0.4166667E+00  0.4166667E+00  0.8333333E-01  0.1388889E-01
   1       -2.5967
   2       -1.7281
   3       -1.7281
   4       -1.3775
   5       -0.8927
   6       -0.8869
   7       -0.8869
   8       -0.8539
   9       -0.7698
  10       -0.7698
  11       -0.7317
  12       -0.5938
  13       -0.3337
  14       -0.2279
  15       -0.2238
  16       -0.2238
  17       -0.0963
  18        0.0687
  19        0.0687
  20        0.1202
  21        0.6247
  22        1.4012
  23        1.4012
  24        2.6234
  25        7.2245
  26        8.8434
 
  0.5000000E+00  0.4166667E+00  0.8333333E-01  0.1388889E-01
   1       -2.1339
   2       -2.1339
   3       -1.5210
   4       -1.5210
   5       -0.8611
   6       -0.8611
   7       -0.8250
   8       -0.8250
   9       -0.7931
  10       -0.7931
  11       -0.6723
  12       -0.6723
  13       -0.2976
  14       -0.2976
  15       -0.2498
  16       -0.2498
  17       -0.0278
  18       -0.0278
  19        0.0787
  20        0.0787
  21        0.9288
  22        0.9288
  23        1.9294
  24        1.9294
  25        7.9782
  26        7.9782
 
  0.5000000E+00  0.5000000E+00  0.8333333E-01  0.3472222E-02
   1       -1.7934
   2       -1.7934
   3       -1.7934
   4       -1.7934
   5       -0.8166
   6       -0.8166
   7       -0.8166
   8       -0.8166
   9       -0.7307
  10       -0.7307
  11       -0.7307
  12       -0.7307
  13       -0.2982
  14       -0.2982
  15       -0.2982
  16       -0.2982
  17        0.0083
  18        0.0083
  19        0.0083
  20        0.0083
  21        1.3393
  22        1.3393
  23        1.3393
  24        1.3393
  25        8.7318
  26        8.7318
 
  0.1666667E+00  0.1666667E+00  0.1666667E+00  0.4629630E-02
   1       -4.8849
   2       -1.5920
   3       -1.5920
   4       -1.5920
   5       -1.3076
   6       -1.3076
   7       -1.3076
   8       -0.6876
   9       -0.4913
  10       -0.4913
  11       -0.1789
  12       -0.1789
  13       -0.1789
  14       -0.0595
  15       -0.0595
  16        0.0839
  17        0.0839
  18        0.0839
  19        0.3656
  20        0.3656
  21        0.3656
  22        2.7844
  23        2.7844
  24        2.7844
  25        9.1646
  26        9.1646
 
  0.2500000E+00  0.1666667E+00  0.1666667E+00  0.1388889E-01
   1       -4.5558
   2       -1.6641
   3       -1.4871
   4       -1.4871
   5       -1.2427
   6       -1.2359
   7       -1.2359
   8       -0.7261
   9       -0.4697
  10       -0.4663
  11       -0.3640
  12       -0.3640
  13       -0.3326
  14       -0.0901
  15       -0.0064
  16       -0.0024
  17        0.0223
  18        0.0223
  19        0.3492
  20        0.3492
  21        0.3528
  22        1.7810
  23        3.2137
  24        3.2137
  25        8.0193
  26        8.0193
 
  0.3333333E+00  0.1666667E+00  0.1666667E+00  0.1388889E-01
   1       -4.1074
   2       -1.8926
   3       -1.3671
   4       -1.3671
   5       -1.1584
   6       -1.1469
   7       -1.1469
   8       -0.7904
   9       -0.5538
  10       -0.5538
  11       -0.4842
  12       -0.4584
  13       -0.4252
  14       -0.1049
  15       -0.0844
  16       -0.0389
  17       -0.0389
  18        0.0661
  19        0.3210
  20        0.3259
  21        0.3259
  22        1.0123
  23        3.7460
  24        3.7460
  25        6.9565
  26        6.9565
 
  0.4166667E+00  0.1666667E+00  0.1666667E+00  0.1388889E-01
   1       -3.5582
   2       -2.3474
   3       -1.2460
   4       -1.2460
   5       -1.0852
   6       -1.0852
   7       -1.0635
   8       -0.8729
   9       -0.6973
  10       -0.6973
  11       -0.5535
  12       -0.4879
  13       -0.3666
  14       -0.2022
  15       -0.0987
  16       -0.0987
  17        0.0053
  18        0.1389
  19        0.2719
  20        0.3087
  21        0.3087
  22        0.5067
  23        4.3607
  24        4.3607
  25        6.0218
  26        6.0218
 
  0.5000000E+00  0.1666667E+00  0.1666667E+00  0.6944444E-02
   1       -2.9457
   2       -2.9457
   3       -1.1637
   4       -1.1637
   5       -1.0966
   6       -1.0966
   7       -0.9661
   8       -0.9661
   9       -0.7467
  10       -0.7467
  11       -0.5370
  12       -0.5370