       N       E                     dE             d eps       ncg     rms          rms(c)
DAV:   1    -0.967736864479E+02   -0.96774E+02   -0.35258E+00   432   0.403E+00    0.977E-01
DAV:   2    -0.967004121293E+02    0.73274E-01   -0.25652E-01   512   0.255E+00    0.456E-01
DAV:   3    -0.966968561950E+02    0.35559E-02   -0.31638E-02   428   0.736E-01    0.227E-01
DAV:   4    -0.966968295121E+02    0.26683E-04   -0.35843E-03   464   0.164E-01    0.113E-01
DAV:   5    -0.966968455823E+02   -0.16070E-04   -0.38140E-04   536   0.871E-02    0.346E-02
DAV:   6    -0.966968466173E+02   -0.10350E-05   -0.77288E-05   456   0.531E-02
   1 F= -.96696847E+02 E0= -.96639179E+02  d E =-.173002E+00
