  32  32   0   0
  0.1202155E+02  0.7272832E-09  0.7272832E-09  0.7272832E-09  0.5000000E-15
  1.000000000000000E-004
  CAR 
 unknown system                          
     14.64478170     -6.53633665  301      3.63906211      1.00000000
     -6.536  0.0000E+00  0.0000E+00
     -6.466  0.0000E+00  0.0000E+00
     -6.395  0.0000E+00  0.0000E+00
     -6.325  0.0000E+00  0.0000E+00
     -6.254  0.0000E+00  0.0000E+00
     -6.183  0.0000E+00  0.0000E+00
     -6.113  0.0000E+00  0.0000E+00
     -6.042  0.0000E+00  0.0000E+00
     -5.972  0.0000E+00  0.0000E+00
     -5.901  0.0000E+00  0.0000E+00
     -5.830  0.0000E+00  0.0000E+00
     -5.760  0.0000E+00  0.0000E+00
     -5.689  0.0000E+00  0.0000E+00
     -5.618  0.8662E-11  0.6116E-12
     -5.548  0.8257E-01  0.5830E-02
     -5.477  0.4956E+00  0.4082E-01
     -5.407  0.9975E+00  0.1112E+00
     -5.336  0.7370E+00  0.1633E+00
     -5.265  0.1751E+01  0.2869E+00
     -5.195  0.2570E+01  0.4683E+00
     -5.124  0.1427E-06  0.4723E+00
     -5.054  0.9914E+00  0.5423E+00
     -4.983  0.2510E+01  0.7195E+00
     -4.912  0.2541E+01  0.8989E+00
     -4.842  0.1978E+01  0.1039E+01
     -4.771  0.2048E+01  0.1183E+01
     -4.701  0.3964E+01  0.1464E+01
     -4.630  0.3734E-02  0.1464E+01
     -4.559  0.1814E+01  0.1592E+01
     -4.489  0.5277E+01  0.1964E+01
     -4.418  0.2320E+01  0.2128E+01
     -4.348  0.1985E+01  0.2268E+01
     -4.277  0.4430E+01  0.2581E+01
     -4.206  0.1514E+01  0.2688E+01
     -4.136  0.1979E+01  0.2828E+01
     -4.065  0.2493E+01  0.3004E+01
     -3.995  0.6393E+01  0.3455E+01
     -3.924  0.2180E+01  0.3609E+01
     -3.853  0.5922E+01  0.4027E+01
     -3.783  0.3964E+01  0.4309E+01
     -3.712  0.3174E+00  0.4331E+01
     -3.642  0.4542E+01  0.4652E+01
     -3.571  0.4035E+01  0.4939E+01
     -3.500  0.5605E+01  0.5335E+01
     -3.430  0.2607E+01  0.5519E+01
     -3.359  0.6107E+01  0.5953E+01
     -3.289  0.3782E+00  0.5980E+01
     -3.218  0.9215E+01  0.6631E+01
     -3.147  0.5690E+01  0.7043E+01
     -3.077  0.2033E+01  0.7186E+01
     -3.006  0.6314E+01  0.7632E+01
     -2.936  0.4172E+01  0.7927E+01
     -2.865  0.4733E+00  0.7961E+01
     -2.794  0.9212E+01  0.8611E+01
     -2.724  0.6007E+01  0.9037E+01
     -2.653  0.2581E+01  0.9226E+01
     -2.583  0.1321E+02  0.1016E+02
     -2.512  0.5772E+01  0.1057E+02
     -2.441  0.2900E+01  0.1079E+02
     -2.371  0.4457E+01  0.1110E+02
     -2.300  0.6515E+01  0.1156E+02
     -2.230  0.8584E+01  0.1217E+02
     -2.159  0.5149E+01  0.1253E+02
     -2.088  0.1005E+02  0.1324E+02
     -2.018  0.1101E+02  0.1402E+02
     -1.947  0.9955E+01  0.1472E+02
     -1.876  0.1041E+01  0.1480E+02
     -1.806  0.1077E+02  0.1556E+02
     -1.735  0.9365E+01  0.1622E+02
     -1.665  0.1868E+02  0.1754E+02
     -1.594  0.1059E+02  0.1830E+02
     -1.523  0.1160E+02  0.1912E+02
     -1.453  0.1488E+02  0.2018E+02
     -1.382  0.1214E+02  0.2105E+02
     -1.312  0.2645E+02  0.2292E+02
     -1.241  0.1892E+02  0.2426E+02
     -1.170  0.3591E+02  0.2680E+02
     -1.100  0.2001E+02  0.2822E+02
     -1.029  0.4638E+02  0.3150E+02
     -0.959  0.4028E+02  0.3437E+02
     -0.888  0.3988E+02  0.3719E+02
     -0.817  0.4385E+02  0.4029E+02
     -0.747  0.3507E+02  0.4279E+02
     -0.676  0.4863E+02  0.4623E+02
     -0.606  0.5738E+02  0.5028E+02
     -0.535  0.6966E+02  0.5522E+02
     -0.464  0.6437E+02  0.5979E+02
     -0.394  0.8287E+02  0.6565E+02
     -0.323  0.8028E+02  0.7133E+02
     -0.253  0.7390E+02  0.7657E+02
     -0.182  0.6537E+02  0.8121E+02
     -0.111  0.6895E+02  0.8612E+02
     -0.041  0.7169E+02  0.9120E+02
      0.030  0.6695E+02  0.9597E+02
      0.100  0.6369E+02  0.1005E+03
      0.171  0.7949E+02  0.1061E+03
      0.242  0.8202E+02  0.1119E+03
      0.312  0.8997E+02  0.1183E+03
      0.383  0.1079E+03  0.1260E+03
      0.453  0.1112E+03  0.1339E+03
      0.524  0.9424E+02  0.1406E+03
      0.595  0.1242E+03  0.1494E+03
      0.665  0.1247E+03  0.1582E+03
      0.736  0.1514E+03  0.1689E+03
      0.806  0.1476E+03  0.1794E+03
      0.877  0.1331E+03  0.1889E+03
      0.948  0.9809E+02  0.1958E+03
      1.018  0.1043E+03  0.2032E+03
      1.089  0.8253E+02  0.2091E+03
      1.159  0.8289E+02  0.2150E+03
      1.230  0.9532E+02  0.2217E+03
      1.301  0.1089E+03  0.2295E+03
      1.371  0.1264E+03  0.2385E+03
      1.442  0.1166E+03  0.2467E+03
      1.512  0.1249E+03  0.2556E+03
      1.583  0.1034E+03  0.2629E+03
      1.654  0.1014E+03  0.2701E+03
      1.724  0.1170E+03  0.2784E+03
      1.795  0.9183E+02  0.2849E+03
      1.866  0.1309E+03  0.2942E+03
      1.936  0.1561E+03  0.3052E+03
      2.007  0.2138E+03  0.3204E+03
      2.077  0.1364E+03  0.3301E+03
      2.148  0.6196E+02  0.3345E+03
      2.219  0.1331E+02  0.3354E+03
      2.289  0.2890E+02  0.3375E+03
      2.360  0.4053E+01  0.3377E+03
      2.430  0.1160E+02  0.3386E+03
      2.501  0.1138E+02  0.3394E+03
      2.572  0.1944E+02  0.3407E+03
      2.642  0.1252E+02  0.3416E+03
      2.713  0.6220E+01  0.3421E+03
      2.783  0.1178E+02  0.3429E+03
      2.854  0.1082E+02  0.3437E+03
      2.925  0.1695E+02  0.3449E+03
      2.995  0.8267E+01  0.3455E+03
      3.066  0.8064E+01  0.3460E+03
      3.136  0.9960E+01  0.3467E+03
      3.207  0.2911E+01  0.3469E+03
      3.278  0.1859E+02  0.3483E+03
      3.348  0.2107E+02  0.3498E+03
      3.419  0.3576E+01  0.3500E+03
      3.489  0.9073E+01  0.3507E+03
      3.560  0.8697E+01  0.3513E+03
      3.631  0.6974E+01  0.3518E+03
      3.701  0.6032E+01  0.3522E+03
      3.772  0.1247E+02  0.3531E+03
      3.842  0.2546E+01  0.3533E+03
      3.913  0.2030E+02  0.3547E+03
      3.984  0.3656E+01  0.3549E+03
      4.054  0.1250E+02  0.3558E+03
      4.125  0.2076E+02  0.3573E+03
      4.195  0.2726E+01  0.3575E+03
      4.266  0.3712E+01  0.3578E+03
      4.337  0.6713E+01  0.3582E+03
      4.407  0.8817E+01  0.3589E+03
      4.478  0.2026E+01  0.3590E+03
      4.548  0.1347E+02  0.3600E+03
      4.619  0.9609E+01  0.3606E+03
      4.690  0.1633E+02  0.3618E+03
      4.760  0.5003E+01  0.3622E+03
      4.831  0.5311E+01  0.3625E+03
      4.901  0.1202E+02  0.3634E+03
      4.972  0.6902E+01  0.3639E+03
      5.043  0.9286E+01  0.3645E+03
      5.113  0.7353E+01  0.3650E+03
      5.184  0.5426E+01  0.3654E+03
      5.254  0.9047E+01  0.3661E+03
      5.325  0.1178E+01  0.3662E+03
      5.396  0.1824E+02  0.3674E+03
      5.466  0.4090E+01  0.3677E+03
      5.537  0.1078E+02  0.3685E+03
      5.608  0.1128E+02  0.3693E+03
      5.678  0.3458E+01  0.3695E+03
      5.749  0.5242E+01  0.3699E+03
      5.819  0.7133E+01  0.3704E+03
      5.890  0.8522E+01  0.3710E+03
      5.961  0.1095E+02  0.3718E+03
      6.031  0.5356E+01  0.3722E+03
      6.102  0.6564E+01  0.3726E+03
      6.172  0.1951E+01  0.3728E+03
      6.243  0.3672E+01  0.3730E+03
      6.314  0.1354E+02  0.3740E+03
      6.384  0.1349E+02  0.3749E+03
      6.455  0.1194E-04  0.3749E+03
      6.525  0.2860E+01  0.3751E+03
      6.596  0.4039E+01  0.3754E+03
      6.667  0.1292E+02  0.3763E+03
      6.737  0.4404E+01  0.3766E+03
      6.808  0.9209E+01  0.3773E+03
      6.878  0.2244E+01  0.3775E+03
      6.949  0.2704E-01  0.3775E+03
      7.020  0.5722E+01  0.3779E+03
      7.090  0.8179E+01  0.3784E+03
      7.161  0.2420E+01  0.3786E+03
      7.231  0.1041E+02  0.3793E+03
      7.302  0.1534E+00  0.3794E+03
      7.373  0.8081E+01  0.3799E+03
      7.443  0.1244E+02  0.3808E+03
      7.514  0.6508E+01  0.3813E+03
      7.584  0.9726E+01  0.3820E+03
      7.655  0.6108E+01  0.3824E+03
      7.726  0.8302E+01  0.3830E+03
      7.796  0.7989E+01  0.3835E+03
      7.867  0.1157E+02  0.3844E+03
      7.937  0.1027E+02  0.3851E+03
      8.008  0.8550E+01  0.3857E+03
      8.079  0.7572E+01  0.3862E+03
      8.149  0.7191E+01  0.3867E+03
      8.220  0.1175E+02  0.3876E+03
      8.290  0.1035E+02  0.3883E+03
      8.361  0.1529E+02  0.3894E+03
      8.432  0.6091E+01  0.3898E+03
      8.502  0.2490E+01  0.3900E+03
      8.573  0.1068E+02  0.3907E+03
      8.643  0.1106E+02  0.3915E+03
      8.714  0.6251E+01  0.3920E+03
      8.785  0.1414E+02  0.3930E+03
      8.855  0.8786E+01  0.3936E+03
      8.926  0.9422E+01  0.3943E+03
      8.996  0.6452E+01  0.3947E+03
      9.067  0.1165E+02  0.3956E+03
      9.138  0.1205E+02  0.3964E+03
      9.208  0.1982E+01  0.3966E+03
      9.279  0.3968E+01  0.3968E+03
      9.350  0.7033E+01  0.3973E+03
      9.420  0.1243E+02  0.3982E+03
      9.491  0.9829E+01  0.3989E+03
      9.561  0.8388E+01  0.3995E+03
      9.632  0.9846E+01  0.4002E+03
      9.703  0.5838E+01  0.4006E+03
      9.773  0.1023E+02  0.4013E+03
      9.844  0.5802E+01  0.4018E+03
      9.914  0.6767E+01  0.4022E+03
      9.985  0.5957E+01  0.4026E+03
     10.056  0.1021E+02  0.4034E+03
     10.126  0.1115E+02  0.4042E+03
     10.197  0.1184E+01  0.4043E+03
     10.267  0.1115E+02  0.4050E+03
     10.338  0.8487E+01  0.4056E+03
     10.409  0.5135E+01  0.4060E+03
     10.479  0.3721E+01  0.4063E+03
     10.550  0.5348E+01  0.4067E+03
     10.620  0.9794E+01  0.4074E+03
     10.691  0.8012E+01  0.4079E+03
     10.762  0.1186E+02  0.4088E+03
     10.832  0.1260E+02  0.4097E+03
     10.903  0.7798E+01  0.4102E+03
     10.973  0.7665E+01  0.4108E+03
     11.044  0.8109E+01  0.4113E+03
     11.115  0.1099E+02  0.4121E+03
     11.185  0.7137E+01  0.4126E+03
     11.256  0.1272E+02  0.4135E+03
     11.326  0.1597E+02  0.4147E+03
     11.397  0.4024E+01  0.4150E+03
     11.468  0.1197E+02  0.4158E+03
     11.538  0.1614E+02  0.4169E+03
     11.609  0.6030E+01  0.4174E+03
     11.679  0.1503E+02  0.4184E+03
     11.750  0.3640E+01  0.4187E+03
     11.821  0.1528E+02  0.4198E+03
     11.891  0.7238E+01  0.4203E+03
     11.962  0.6899E+01  0.4208E+03
     12.032  0.1228E+02  0.4217E+03
     12.103  0.1969E+02  0.4231E+03
     12.174  0.3937E+01  0.4233E+03
     12.244  0.9070E+01  0.4240E+03
     12.315  0.1033E+02  0.4247E+03
     12.385  0.1783E+02  0.4260E+03
     12.456  0.9947E+01  0.4267E+03
     12.527  0.4675E+01  0.4270E+03
     12.597  0.9395E+01  0.4277E+03
     12.668  0.1724E+02  0.4289E+03
     12.738  0.6233E+01  0.4293E+03
     12.809  0.1050E+02  0.4301E+03
     12.880  0.5430E+01  0.4305E+03
     12.950  0.5205E+01  0.4308E+03
     13.021  0.3224E+01  0.4311E+03
     13.091  0.6714E+01  0.4315E+03
     13.162  0.1160E+01  0.4316E+03
     13.233  0.2756E-01  0.4316E+03
     13.303  0.3276E+01  0.4319E+03
     13.374  0.0000E+00  0.4319E+03
     13.445  0.0000E+00  0.4319E+03
     13.515  0.0000E+00  0.4319E+03
     13.586  0.0000E+00  0.4319E+03
     13.656  0.1534E-01  0.4319E+03
     13.727  0.1967E+01  0.4320E+03
     13.798  0.0000E+00  0.4320E+03
     13.868  0.0000E+00  0.4320E+03
     13.939  0.0000E+00  0.4320E+03
     14.009  0.0000E+00  0.4320E+03
     14.080  0.0000E+00  0.4320E+03
     14.151  0.0000E+00  0.4320E+03
     14.221  0.0000E+00  0.4320E+03
     14.292  0.0000E+00  0.4320E+03
     14.362  0.0000E+00  0.4320E+03
     14.433  0.0000E+00  0.4320E+03
     14.504  0.0000E+00  0.4320E+03
     14.574  0.0000E+00  0.4320E+03
     14.645  0.0000E+00  0.4320E+03
