   32   32    1    1
  0.1202155E+02  0.7272832E-09  0.7272832E-09  0.7272832E-09  0.5000000E-15
  1.000000000000000E-004
  CAR 
 unknown system                          
  352   40  216
 
  0.0000000E+00  0.0000000E+00  0.0000000E+00  0.2915452E-02
   1       -5.5736
   2       -2.8596
   3       -2.8419
   4       -2.8418
   5       -2.8418
   6       -2.8418
   7       -2.8247
   8       -1.3535
   9       -1.3535
  10       -1.3534
  11       -1.3533
  12       -1.1524
  13       -1.1515
  14       -1.1513
  15       -0.9953
  16       -0.9839
  17       -0.9839
  18       -0.9775
  19       -0.9765
  20       -0.9764
  21       -0.9761
  22       -0.9761
  23       -0.9747
  24       -0.9687
  25       -0.9687
  26       -0.9562
  27       -0.7110
  28       -0.7106
  29       -0.7106
  30       -0.4398
  31       -0.4286
  32       -0.4286
  33       -0.4286
  34       -0.4285
  35       -0.4187
  36       -0.0624
  37       -0.0524
  38       -0.0524
  39       -0.0515
  40       -0.0514
  41       -0.0432
  42        0.1336
  43        0.1414
  44        0.1414
  45        0.1549
  46        0.1549
  47        0.1550
  48        0.1550
  49        0.1557
  50        0.1561
  51        0.1561
  52        0.1562
  53        0.1577
  54        0.1577
  55        0.1584
  56        0.1584
  57        0.1587
  58        0.1589
  59        0.1596
  60        0.1596
  61        0.1598
  62        0.1601
  63        0.1716
  64        0.1716
  65        0.1834
  66        0.3469
  67        0.3602
  68        0.3602
  69        0.3610
  70        0.3629
  71        0.3629
  72        0.3630
  73        0.3636
  74        0.3637
  75        0.3659
  76        0.3659
  77        0.3789
  78        0.6133
  79        0.6137
  80        0.6137
  81        0.6145
  82        0.6146
  83        0.6146
  84        0.6149
  85        0.6154
  86        0.6423
  87        0.6423
  88        0.6431
  89        0.9995
  90        1.0072
  91        1.0090
  92        1.0090
  93        1.0091
  94        1.0173
  95        1.1238
  96        1.1279
  97        1.1309
  98        1.1309
  99        1.1341
 100        1.1341
 101        1.1341
 102        1.1342
 103        1.1367
 104        1.1367
 105        1.1424
 106        1.1426
 107        1.2753
 108        1.2753
 109        1.2852
 110        1.2852
 111        1.2864
 112        1.2865
 113        1.2870
 114        1.2870
 115        1.2876
 116        1.2876
 117        1.2961
 118        1.2961
 119        1.4043
 120        1.4092
 121        1.4092
 122        1.4107
 123        1.4109
 124        1.4155
 125        1.4335
 126        1.4335
 127        1.4397
 128        1.4401
 129        1.4420
 130        1.4423
 131        1.4424
 132        1.4424
 133        1.4428
 134        1.4449
 135        1.4485
 136        1.4531
 137        1.4545
 138        1.4545
 139        1.7081
 140        1.7129
 141        1.7130
 142        1.7130
 143        1.7130
 144        1.7176
 145        1.9829
 146        1.9831
 147        1.9833
 148        1.9965
 149        1.9968
 150        1.9968
 151        1.9968
 152        1.9970
 153        1.9970
 154        1.9970
 155        1.9974
 156        2.1293
 157        2.1325
 158        2.1330
 159        2.1330
 160        2.1332
 161        2.1332
 162        2.1336
 163        2.1338
 164        2.1338
 165        2.1339
 166        2.1340
 167        2.1375
 168        2.6959
 169        2.6966
 170        2.6966
 171        2.6968
 172        3.2982
 173        3.2995
 174        3.2995
 175        3.3048
 176        3.3062
 177        3.3063
 178        3.3063
 179        3.3063
 180        3.3082
 181        3.3132
 182        3.3132
 183        3.3145
 184        5.1652
 185        5.1652
 186        5.1668
 187        7.3024
 188        7.3024
 189        7.3027
 190        7.3030
 191        9.7663
 192        9.7663
 193        9.7860
 194        9.7860
 195        9.7882
 196        9.7882
 197        9.7884
 198        9.7898
 199        9.7903
 200        9.7903
 201        9.8095
 202        9.8095
 203       10.6351
 204       10.6363
 205       10.6363
 206       11.8574
 207       11.8739
 208       11.8739
 209       11.8744
 210       11.8744
 211       11.8880
 212       12.3182
 213       12.3187
 214       12.3202
 215       12.3204
 216       12.3217
 
  0.1428571E+00  0.0000000E+00  0.0000000E+00  0.5830904E-02
   1       -5.5123
   2       -3.4941
   3       -2.7924
   4       -2.7920
   5       -2.7920
   6       -2.7920
   7       -2.2038
   8       -1.3472
   9       -1.3420
  10       -1.3420
  11       -1.3415
  12       -1.3396
  13       -1.3393
  14       -1.3393
  15       -1.3343
  16       -1.1519
  17       -1.1232
  18       -1.1229
  19       -1.0044
  20       -1.0042
  21       -1.0042
  22       -1.0042
  23       -0.6949
  24       -0.6936
  25       -0.6936
  26       -0.6659
  27       -0.6659
  28       -0.6659
  29       -0.6655
  30       -0.4780
  31       -0.4762
  32       -0.4067
  33       -0.4067
  34       -0.4067
  35       -0.4062
  36       -0.2017
  37       -0.0801
  38       -0.0801
  39       -0.0461
  40       -0.0444
  41       -0.0443
  42       -0.0443
  43        0.0983
  44        0.1224
  45        0.1269
  46        0.1269
  47        0.1285
  48        0.1315
  49        0.1322
  50        0.1324
  51        0.1324
  52        0.1561
  53        0.1583
  54        0.1583
  55        0.1583
  56        0.1774
  57        0.1778
  58        0.1778
  59        0.1838
  60        0.2242
  61        0.2248
  62        0.2248
  63        0.2285
  64        0.2357
  65        0.2358
  66        0.2366
  67        0.2366
  68        0.3772
  69        0.3772
  70        0.3775
  71        0.3779
  72        0.4286
  73        0.4286
  74        0.4536
  75        0.4544
  76        0.4544
  77        0.4552
  78        0.6032
  79        0.6032
  80        0.6035
  81        0.6041
  82        0.6253
  83        0.6288
  84        0.6293
  85        0.6293
  86        0.6301
  87        0.6566
  88        0.6566
  89        0.9335
  90        0.9347
  91        0.9348
  92        0.9348
  93        1.0362
  94        1.0724
  95        1.0737
  96        1.0737
  97        1.0742
  98        1.0997
  99        1.1285
 100        1.1285
 101        1.1449
 102        1.1455
 103        1.1455
 104        1.1474
 105        1.1860
 106        1.1860
 107        1.1869
 108        1.1879
 109        1.2860
 110        1.2860
 111        1.2863
 112        1.2868
 113        1.3453
 114        1.3453
 115        1.3459
 116        1.3465
 117        1.3717
 118        1.3717
 119        1.3718
 120        1.3720
 121        1.4101
 122        1.4108
 123        1.4108
 124        1.4108
 125        1.4323
 126        1.4493
 127        1.4512
 128        1.4543
 129        1.4543
 130        1.4565
 131        1.5039
 132        1.5043
 133        1.5043
 134        1.5056
 135        1.5395
 136        1.5396
 137        1.5406
 138        1.5406
 139        1.6535
 140        1.7331
 141        1.7332
 142        1.7332
 143        1.7332
 144        1.7727
 145        1.8018
 146        1.8021
 147        1.8021
 148        1.8022
 149        1.9620
 150        1.9622
 151        1.9763
 152        1.9796
 153        1.9797
 154        1.9797
 155        1.9802
 156        2.0270
 157        2.0270
 158        2.1072
 159        2.1072
 160        2.1072
 161        2.1072
 162        2.1083
 163        2.1083
 164        2.1294
 165        2.1328
 166        2.1337
 167        2.1375
 168        2.8217
 169        2.8217
 170        2.8218
 171        2.8225
 172        2.8704
 173        2.8706
 174        2.8712
 175        2.8712
 176        3.2991
 177        3.2993
 178        3.2993
 179        3.2994
 180        3.8761
 181        3.8761
 182        3.8763
 183        3.8763
 184        4.7722
 185        5.3265
 186        5.3265
 187        7.4785
 188        7.4785
 189        7.4788
 190        7.4790
 191        8.8234
 192        8.8234
 193        9.0302
 194        9.0302
 195        9.0308
 196        9.0317
 197        9.8707
 198        9.8707
 199        9.8708
 200        9.8708
 201       10.6594
 202       10.6594
 203       10.8126
 204       10.8126
 205       11.1515
 206       11.6085
 207       11.6086
 208       12.1195
 209       12.1195
 210       12.1200
 211       12.1201
 212       12.2621
 213       12.2630
 214       12.2630
 215       12.2635
 216       12.4187
 
  0.2857143E+00  0.0000000E+00  0.0000000E+00  0.5830904E-02
   1       -5.3293
   2       -4.0956
   3       -2.6453
   4       -2.6447
   5       -2.6447
   6       -2.6447
   7       -1.7290
   8       -1.7278
   9       -1.7277
  10       -1.7277
  11       -1.6806
  12       -1.2998
  13       -1.2998
  14       -1.2996
  15       -1.2993
  16       -1.1618
  17       -1.0735
  18       -1.0733
  19       -1.0731
  20       -1.0731
  21       -1.0409
  22       -1.0405
  23       -0.6473
  24       -0.6424
  25       -0.6424
  26       -0.6000
  27       -0.5995
  28       -0.4248
  29       -0.4248
  30       -0.4246
  31       -0.4244
  32       -0.3449
  33       -0.3441
  34       -0.3441
  35       -0.3441
  36       -0.3420
  37       -0.2755
  38       -0.2755
  39       -0.0261
  40       -0.0249
  41       -0.0249
  42       -0.0242
  43        0.0649
  44        0.0659
  45        0.0659
  46        0.0660
  47        0.0868
  48        0.0887
  49        0.0887
  50        0.0893
  51        0.0903
  52        0.0907
  53        0.0907
  54        0.0913
  55        0.1599
  56        0.1644
  57        0.1644
  58        0.1647
  59        0.1838
  60        0.1843
  61        0.1843
  62        0.1891
  63        0.2470
  64        0.3974
  65        0.3974
  66        0.3977
  67        0.3980
  68        0.4280
  69        0.4283
  70        0.4283
  71        0.4287
  72        0.5224
  73        0.5231
  74        0.5231
  75        0.5232
  76        0.5707
  77        0.5708
  78        0.5708
  79        0.5719
  80        0.5734
  81        0.6746
  82        0.6751
  83        0.6751
  84        0.6762
  85        0.6992
  86        0.6992
  87        0.7356
  88        0.7356
  89        0.8078
  90        0.8084
  91        0.8089
  92        0.8089
  93        0.9603
  94        0.9610
  95        0.9610
  96        0.9612
  97        0.9876
  98        0.9876
  99        1.1191
 100        1.2119
 101        1.2128
 102        1.2132
 103        1.2132
 104        1.2673
 105        1.2673
 106        1.2676
 107        1.2679
 108        1.2867
 109        1.2867
 110        1.2867
 111        1.2870
 112        1.3264
 113        1.3264
 114        1.3266
 115        1.3268
 116        1.3844
 117        1.3966
 118        1.3968
 119        1.3988
 120        1.3988
 121        1.4048
 122        1.4071
 123        1.4071
 124        1.4090
 125        1.4224
 126        1.4299
 127        1.4299
 128        1.4300
 129        1.4308
 130        1.4736
 131        1.5536
 132        1.5540
 133        1.5964
 134        1.6215
 135        1.6215
 136        1.6217
 137        1.6225
 138        1.6225
 139        1.6237
 140        1.6591
 141        1.6591
 142        1.6593
 143        1.6593
 144        1.7610
 145        1.7610
 146        1.8248
 147        1.8251
 148        1.8252
 149        1.8252
 150        1.8295
 151        1.9007
 152        1.9010
 153        1.9287
 154        1.9289
 155        1.9289
 156        1.9293
 157        1.9564
 158        2.0319
 159        2.0319
 160        2.0321
 161        2.0321
 162        2.0366
 163        2.0366
 164        2.1294
 165        2.1329
 166        2.1336
 167        2.1375
 168        2.5269
 169        2.5269
 170        2.5269
 171        2.5271
 172        3.0086
 173        3.0093
 174        3.0094
 175        3.0094
 176        3.2757
 177        3.2760
 178        3.2760
 179        3.2761
 180        3.8871
 181        4.6130
 182        4.6130
 183        4.6133
 184        4.6133
 185        5.7573
 186        5.7573
 187        7.7961
 188        7.7961
 189        7.7970
 190        7.7971
 191        7.9235
 192        7.9235
 193        7.9863
 194        7.9868
 195        7.9879
 196        7.9879
 197       10.1136
 198       10.1136
 199       10.1137
 200       10.1137
 201       10.7303
 202       10.7303
 203       10.9654
 204       10.9657
 205       10.9657
 206       10.9660
 207       11.2881
 208       11.2882
 209       11.6711
 210       11.6711
 211       11.6717
 212       11.6718
 213       11.8909
 214       11.8909
 215       12.2896
 216       12.2896
 
  0.4285714E+00  0.0000000E+00  0.0000000E+00  0.5830904E-02
   1       -5.0277
   2       -4.6127
   3       -2.4088
   4       -2.4075
   5       -2.4075
   6       -2.4075
   7       -2.0942
   8       -2.0941
   9       -2.0941
  10       -2.0934
  11       -1.3580
  12       -1.2374
  13       -1.2374
  14       -1.2371
  15       -1.2367
  16       -1.2100
  17       -1.1573
  18       -1.1570
  19       -1.1564
  20       -1.1564
  21       -0.9140
  22       -0.9132
  23       -0.7574
  24       -0.7574
  25       -0.5704
  26       -0.5565
  27       -0.5565
  28       -0.4664
  29       -0.4341
  30       -0.4341
  31       -0.2626
  32       -0.2621
  33       -0.2621
  34       -0.2603
  35       -0.2576
  36       -0.2574
  37       -0.2560
  38       -0.2560
  39       -0.0369
  40       -0.0358
  41       -0.0356
  42       -0.0356
  43       -0.0247
  44       -0.0247
  45       -0.0246
  46       -0.0222
  47        0.0041
  48        0.0066
  49        0.0066
  50        0.0074
  51        0.0467
  52        0.0470
  53        0.0470
  54        0.0470
  55        0.1653
  56        0.1723
  57        0.1723
  58        0.1731
  59        0.1813
  60        0.1823
  61        0.1823
  62        0.1901
  63        0.3777
  64        0.4654
  65        0.4654
  66        0.4656
  67        0.4660
  68        0.4886
  69        0.5222
  70        0.5222
  71        0.5226
  72        0.5227
  73        0.5958
  74        0.5965
  75        0.5965
  76        0.5975
  77        0.6890
  78        0.6890
  79        0.6898
  80        0.6900
  81        0.6923
  82        0.6936
  83        0.6938
  84        0.6938
  85        0.7493
  86        0.7496
  87        0.7496
  88        0.7502
  89        0.7698
  90        0.7698
  91        0.8477
  92        0.8477
  93        0.8478
  94        0.8478
  95        0.8671
  96        0.8671
  97        1.0400
  98        1.0402
  99        1.0404
 100        1.0404
 101        1.0720
 102        1.0720
 103        1.2177
 104        1.2899
 105        1.2899
 106        1.2902
 107        1.2911
 108        1.2985
 109        1.2999
 110        1.2999
 111        1.3006
 112        1.3020
 113        1.3025
 114        1.3034
 115        1.3034
 116        1.3122
 117        1.3399
 118        1.3401
 119        1.3401
 120        1.3405
 121        1.3735
 122        1.3738
 123        1.3746
 124        1.3746
 125        1.3863
 126        1.3863
 127        1.3875
 128        1.3883
 129        1.4236
 130        1.4236
 131        1.5046
 132        1.5471
 133        1.6812
 134        1.6816
 135        1.7422
 136        1.7422
 137        1.7422
 138        1.7425
 139        1.7827
 140        1.7827
 141        1.7907
 142        1.7907
 143        1.7909
 144        1.7910
 145        1.8032
 146        1.8039
 147        1.8477
 148        1.8480
 149        1.8482
 150        1.8482
 151        1.8812
 152        1.9209
 153        1.9209
 154        1.9211
 155        1.9211
 156        1.9238
 157        1.9249
 158        1.9249
 159        2.0052
 160        2.0061
 161        2.0061
 162        2.0061
 163        2.0330
 164        2.1294
 165        2.1330
 166        2.1335
 167        2.1374
 168        2.2434
 169        2.2435
 170        2.2435
 171        2.2437
 172        2.8999
 173        3.1449
 174        3.1450
 175        3.1453
 176        3.1453
 177        3.2291
 178        3.2291
 179        3.2293
 180        3.2300
 181        5.5254
 182        5.5254
 183        5.5258
 184        5.5259
 185        6.3682
 186        6.3682
 187        6.5988
 188        6.5988
 189        6.5989
 190        6.5992
 191        7.1013
 192        7.1013
 193        8.7735
 194        8.7735
 195        8.7737
 196        8.7738
 197        9.7835
 198        9.7835
 199        9.7838
 200        9.7838
 201       10.5051
 202       10.5051
 203       10.5051
 204       10.5052
 205       10.8537
 206       10.8538
 207       11.0296
 208       11.0296
 209       11.0299
 210       11.0299
 211       11.0369
 212       11.0369
 213       12.5256
 214       12.5256
 215       12.5258
 216       12.5258
 
  0.0000000E+00  0.1428571E+00  0.0000000E+00  0.1166181E-01
   1       -5.5123
   2       -3.4940
   3       -2.8053
   4       -2.7920
   5       -2.7919
   6       -2.7791
   7       -2.2039
   8       -1.3550
   9       -1.3465
  10       -1.3431
  11       -1.3406
  12       -1.3396
  13       -1.3376
  14       -1.3349
  15       -1.3280
  16       -1.1520
  17       -1.1236
  18       -1.1229
  19       -1.0106
  20       -1.0052
  21       -1.0031
  22       -0.9972
  23       -0.6953
  24       -0.6941
  25       -0.6938
  26       -0.6741
  27       -0.6659
  28       -0.6656
  29       -0.6570
  30       -0.4776
  31       -0.4763
  32       -0.4140
  33       -0.4067
  34       -0.4065
  35       -0.3992
  36       -0.2017
  37       -0.0809
  38       -0.0791
  39       -0.0520
  40       -0.0454
  41       -0.0445
  42       -0.0372
  43        0.0973
  44        0.1195
  45        0.1232
  46        0.1284
  47        0.1298
  48        0.1303
  49        0.1325
  50        0.1365
  51        0.1389
  52        0.1493
  53        0.1576
  54        0.1583
  55        0.1667
  56        0.1711
  57        0.1772
  58        0.1775
  59        0.1858
  60        0.2198
  61        0.2208
  62        0.2262
  63        0.2314
  64        0.2315
  65        0.2367
  66        0.2384
  67        0.2434
  68        0.3714
  69        0.3753
  70        0.3791
  71        0.3812
  72        0.4273
  73        0.4285
  74        0.4494
  75        0.4548
  76        0.4549
  77        0.4608
  78        0.6013
  79        0.6024
  80        0.6035
  81        0.6036
  82        0.6244
  83        0.6296
  84        0.6300
  85        0.6304
  86        0.6311
  87        0.6566
  88        0.6575
  89        0.9267
  90        0.9345
  91        0.9349
  92        0.9421
  93        1.0366
  94        1.0721
  95        1.0739
  96        1.0742
  97        1.0753
  98        1.1017
  99        1.1283
 100        1.1291
 101        1.1409
 102        1.1454
 103        1.1462
 104        1.1495
 105        1.1819
 106        1.1856
 107        1.1859
 108        1.1901
 109        1.2785
 110        1.2863
 111        1.2866
 112        1.2925
 113        1.3388
 114        1.3457
 115        1.3464
 116        1.3518
 117        1.3652
 118        1.3719
 119        1.3723
 120        1.3780
 121        1.4067
 122        1.4109
 123        1.4121
 124        1.4146
 125        1.4323
 126        1.4473
 127        1.4518
 128        1.4540
 129        1.4547
 130        1.4576
 131        1.4985
 132        1.5040
 133        1.5041
 134        1.5110
 135        1.5346
 136        1.5395
 137        1.5408
 138        1.5451
 139        1.6536
 140        1.7295
 141        1.7332
 142        1.7332
 143        1.7368
 144        1.7725
 145        1.7979
 146        1.8008
 147        1.8038
 148        1.8064
 149        1.9619
 150        1.9623
 151        1.9760
 152        1.9784
 153        1.9796
 154        1.9796
 155        1.9806
 156        2.0266
 157        2.0273
 158        2.1049
 159        2.1066
 160        2.1072
 161        2.1074
 162        2.1085
 163        2.1105
 164        2.1331
 165        2.1333
 166        2.1338
 167        2.1339
 168        2.8176
 169        2.8215
 170        2.8217
 171        2.8271
 172        2.8666
 173        2.8704
 174        2.8707
 175        2.8754
 176        3.2935
 177        3.2988
 178        3.3000
 179        3.3053
 180        3.8698
 181        3.8761
 182        3.8762
 183        3.8827
 184        4.7707
 185        5.3265
 186        5.3280
 187        7.4762
 188        7.4780
 189        7.4794
 190        7.4814
 191        8.8233
 192        8.8235
 193        9.0185
 194        9.0307
 195        9.0308
 196        9.0434
 197        9.8534
 198        9.8706
 199        9.8716
 200        9.8874
 201       10.6570
 202       10.6594
 203       10.8125
 204       10.8131
 205       11.1533
 206       11.6075
 207       11.6086
 208       12.1049
 209       12.1199
 210       12.1204
 211       12.1316
 212       12.2544
 213       12.2628
 214       12.2640
 215       12.2723
 216       12.4157
 
  0.1428571E+00  0.1428571E+00  0.0000000E+00  0.2332362E-01
   1       -5.4511
   2       -3.4467
   3       -3.4346
   4       -2.7434
   5       -2.7431
   6       -2.1635
   7       -2.1529
   8       -1.8035
   9       -1.3762
  10       -1.3758
  11       -1.3505
  12       -1.3500
  13       -1.3418
  14       -1.3413
  15       -1.2792
  16       -1.2788
  17       -1.1234
  18       -1.1228
  19       -1.0952
  20       -0.9263
  21       -0.9204
  22       -0.7209
  23       -0.7188
  24       -0.7124
  25       -0.7095
  26       -0.6782
  27       -0.6771
  28       -0.6767
  29       -0.4764
  30       -0.4647
  31       -0.4570
  32       -0.4553
  33       -0.4478
  34       -0.3843
  35       -0.3841
  36       -0.1951
  37       -0.1896
  38       -0.0943
  39       -0.0881
  40       -0.0748
  41       -0.0712
  42       -0.0370
  43       -0.0369
  44        0.0760
  45        0.0774
  46        0.0915
  47        0.0957
  48        0.1031
  49        0.1083
  50        0.1302
  51        0.1492
  52        0.1763
  53        0.1772
  54        0.1827
  55        0.1833
  56        0.1932
  57        0.1941
  58        0.2236
  59        0.2280
  60        0.2300
  61        0.2325
  62        0.2531
  63        0.2717
  64        0.2746
  65        0.2766
  66        0.2810
  67        0.3162
  68        0.3227
  69        0.3915
  70        0.3996
  71        0.4242
  72        0.4264
  73        0.4613
  74        0.4631
  75        0.4670
  76        0.4688
  77        0.5625
  78        0.5687
  79        0.5695
  80        0.6075
  81        0.6076
  82        0.6149
  83        0.6414
  84        0.6414
  85        0.6561
  86        0.6565
  87        0.6639
  88        0.6699
  89        0.8881
  90        0.8889
  91        0.9517
  92        0.9528
  93        0.9940
  94        1.0014
  95        1.0709
  96        1.0725
  97        1.0729
  98        1.0745
  99        1.1134
 100        1.1245
 101        1.1261
 102        1.1288
 103        1.1310
 104        1.1343
 105        1.1348
 106        1.2027
 107        1.2073
 108        1.2106
 109        1.2286
 110        1.2297
 111        1.2364
 112        1.2378
 113        1.2729
 114        1.4063
 115        1.4064
 116        1.4270
 117        1.4371
 118        1.4383
 119        1.4416
 120        1.4456
 121        1.4471
 122        1.4474
 123        1.4499
 124        1.4507
 125        1.4521
 126        1.4526
 127        1.4555
 128        1.4569
 129        1.4612
 130        1.4928
 131        1.5000
 132        1.5263
 133        1.5329
 134        1.5897
 135        1.5899
 136        1.5927
 137        1.5932
 138        1.5950
 139        1.5968
 140        1.6069
 141        1.6632
 142        1.6675
 143        1.7155
 144        1.7155
 145        1.7425
 146        1.7425
 147        1.8077
 148        1.8081
 149        1.9403
 150        1.9419
 151        1.9434
 152        1.9454
 153        1.9881
 154        1.9883
 155        1.9908
 156        1.9909
 157        2.0110
 158        2.0124
 159        2.0843
 160        2.0844
 161        2.1043
 162        2.1058
 163        2.1070
 164        2.1079
 165        2.1088
 166        2.1106
 167        2.1178
 168        2.5189
 169        2.5675
 170        2.5676
 171        2.8571
 172        2.8575
 173        2.8612
 174        2.8616
 175        3.2316
 176        3.2320
 177        3.3450
 178        3.3513
 179        3.8732
 180        3.8754
 181        3.8790
 182        3.8813
 183        4.5340
 184        4.9293
 185        4.9316
 186        5.4788
 187        7.3359
 188        7.3360
 189        7.9288
 190        7.9290
 191        8.1648
 192        8.1733
 193        8.9044
 194        8.9163
 195        8.9263
 196        8.9272
 197        9.2988
 198        9.2994
 199        9.9310
 200        9.9505
 201       10.6827
 202       10.8866
 203       10.8960
 204       11.1801
 205       11.1833
 206       11.4818
 207       11.4844
 208       11.4871
 209       11.4903
 210       11.5585
 211       11.7022
 212       11.7027
 213       12.3340
 214       12.3487
 215       12.7861
 216       12.7902
 
  0.2857143E+00  0.1428571E+00  0.0000000E+00  0.2332362E-01
   1       -5.2687
   2       -4.0396
   3       -3.2823
   4       -2.5994
   5       -2.5990
   6       -2.2623
   7       -2.0242
   8       -1.7125
   9       -1.7121
  10       -1.6401
  11       -1.3900
  12       -1.3897
  13       -1.3578
  14       -1.3573
  15       -1.2271
  16       -1.1944
  17       -1.1942
  18       -1.1312
  19       -1.0391
  20       -1.0143
  21       -0.8293
  22       -0.8291
  23       -0.6312
  24       -0.6272
  25       -0.6271
  26       -0.5925
  27       -0.5876
  28       -0.5777
  29       -0.4856
  30       -0.4854
  31       -0.4129
  32       -0.3857
  33       -0.3455
  34       -0.3305
  35       -0.3211
  36       -0.3207
  37       -0.2754
  38       -0.2658
  39       -0.1643
  40       -0.1248
  41       -0.0544
  42       -0.0164
  43       -0.0156
  44       -0.0104
  45       -0.0090
  46       -0.0014
  47        0.0151
  48        0.0551
  49        0.0949
  50        0.0949
  51        0.1154
  52        0.1248
  53        0.1261
  54        0.1555
  55        0.1926
  56        0.2240
  57        0.2247
  58        0.2465
  59        0.2691
  60        0.2707
  61        0.2908
  62        0.2911
  63        0.3075
  64        0.3151
  65        0.3365
  66        0.3372
  67        0.4058
  68        0.4146
  69        0.4471
  70        0.4478
  71        0.4939
  72        0.4940
  73        0.5126
  74        0.5128
  75        0.5303
  76        0.5305
  77        0.5675
  78        0.5942
  79        0.5946
  80        0.6359
  81        0.6793
  82        0.6797
  83        0.6957
  84        0.7020
  85        0.7096
  86        0.7118
  87        0.7124
  88        0.7250
  89        0.7890
  90        0.7899
  91        0.8227
  92        0.8475
  93        0.9399
  94        0.9532
  95        0.9534
  96        0.9879
  97        1.0181
  98        1.0187
  99        1.1098
 100        1.1103
 101        1.1314
 102        1.1471
 103        1.1660
 104        1.2011
 105        1.2014
 106        1.2042
 107        1.2105
 108        1.2161
 109        1.2189
 110        1.2730
 111        1.2743
 112        1.2979
 113        1.2982
 114        1.3183
 115        1.3261
 116        1.3537
 117        1.3539
 118        1.3858
 119        1.3932
 120        1.3937
 121        1.4302
 122        1.4393
 123        1.4399
 124        1.4527
 125        1.4584
 126        1.4671
 127        1.4706
 128        1.5197
 129        1.5198
 130        1.5451
 131        1.5592
 132        1.5624
 133        1.5831
 134        1.5834
 135        1.6036
 136        1.6218
 137        1.6369
 138        1.6965
 139        1.6999
 140        1.7009
 141        1.7036
 142        1.7040
 143        1.7078
 144        1.7131
 145        1.7206
 146        1.7422
 147        1.8148
 148        1.8150
 149        1.8687
 150        1.8824
 151        1.9090
 152        1.9248
 153        1.9369
 154        1.9376
 155        1.9642
 156        1.9645
 157        1.9729
 158        1.9777
 159        2.0203
 160        2.0207
 161        2.0320
 162        2.0327
 163        2.0365
 164        2.1038
 165        2.1070
 166        2.1084
 167        2.1116
 168        2.2469
 169        2.5148
 170        2.5149
 171        2.5863
 172        2.5866
 173        2.8253
 174        2.8254
 175        2.9174
 176        3.5724
 177        3.5729
 178        3.8748
 179        3.8753
 180        3.9985
 181        4.0532
 182        4.6244
 183        4.6247
 184        5.3426
 185        5.3471
 186        5.8914
 187        7.0106
 188        7.3582
 189        7.5629
 190        7.5632
 191        7.8175
 192        7.8181
 193        8.0195
 194        8.6263
 195        8.6264
 196        8.6510
 197        9.1680
 198        9.3952
 199        9.3953
 200       10.2202
 201       10.2203
 202       10.7537
 203       10.7901
 204       10.8012
 205       10.8020
 206       10.8666
 207       11.1245
 208       11.2734
 209       11.4099
 210       11.8102
 211       11.8107
 212       11.8363
 213       11.9671
 214       11.9776
 215       12.4501
 216       12.6340
 
  0.4285714E+00  0.1428571E+00  0.0000000E+00  0.2332362E-01
   1       -4.9681
   2       -4.5546
   3       -3.0250
   4       -2.6788
   5       -2.3681
   6       -2.3677
   7       -2.0639
   8       -2.0639
   9       -1.8108
  10       -1.5355
  11       -1.3883
  12       -1.3873
  13       -1.3730
  14       -1.3723
  15       -1.3205
  16       -1.1776
  17       -1.0865
  18       -1.0863
  19       -0.9610
  20       -0.9608
  21       -0.9095
  22       -0.8893
  23       -0.7498
  24       -0.7351
  25       -0.5554
  26       -0.5436
  27       -0.5425
  28       -0.4530
  29       -0.4260
  30       -0.4220