 vasp.4.6.28 25Jul05 complex 
 executed on             LinuxIFC date 2016.01.20  17:28:44
 running on    8 nodes
 distr:  one band on    1 nodes,    8 groups


--------------------------------------------------------------------------------------------------------


 INCAR:
 POTCAR:   PAW_PBE Cu 05Jan2001                   
 POTCAR:   PAW_PBE Cu 05Jan2001                   
   VRHFIN =Cu: d10 p1                                                           
   LEXCH  = PE                                                                  
   EATOM  =  1390.9800 eV,  102.2341 Ry                                         
                                                                                
   TITEL  = PAW_PBE Cu 05Jan2001                                                
   LULTRA =        F    use ultrasoft PP ?                                      
   IUNSCR =        1    unscreen: 0-lin 1-nonlin 2-no                           
   RPACOR =    2.000    partial core radius                                     
   POMASS =   63.546; ZVAL   =   11.000    mass and valenz                      
   RCORE  =    2.300    outmost cutoff radius                                   
   RWIGS  =    2.480; RWIGS  =    1.312    wigner-seitz radius (au A)           
   ENMAX  =  273.214; ENMIN  =  204.910 eV                                      
   RCLOC  =    1.712    cutoff for local pot                                    
   LCOR   =        T    correct aug charges                                     
   LPAW   =        T    paw PP                                                  
   EAUG   =  516.456                                                            
   DEXC   =    -.008                                                            
   RMAX   =    2.789    core radius for proj-oper                               
   RAUG   =    1.300    factor for augmentation sphere                          
   RDEP   =    2.302    radius for radial grids                                 
   QCUT   =   -4.481; QGAM   =    8.962    optimization parameters              
                                                                                
   Description                                                                  
     l     E      TYP  RCUT    TYP  RCUT                                        
     2   .000     23  2.300                                                     
     2   .000     23  2.300                                                     
     0   .000     23  2.300                                                     
     0   .000     23  2.300                                                     
     1  -.200     23  2.300                                                     
     1   .000     23  2.300                                                     
     3   .000      7   .000                                                     
  local pseudopotential read in
  partial core-charges read in
  atomic valenz-charges read in
  non local Contribution for L=           2  read in
    real space projection operators read in
  non local Contribution for L=           2  read in
    real space projection operators read in
  non local Contribution for L=           0  read in
    real space projection operators read in
  non local Contribution for L=           0  read in
    real space projection operators read in
  non local Contribution for L=           1  read in
    real space projection operators read in
  non local Contribution for L=           1  read in
    real space projection operators read in
    PAW grid and wavefunctions read in
 
   number of l-projection  operators is LMAX  =           6
   number of lm-projection operators is LMMAX =          18
 

 ----------------------------------------------------------------------------- 
|                                                                             |
|  ADVICE TO THIS USER RUNNING 'VASP/VAMP'   (HEAR YOUR MASTER'S VOICE ...):  |
|                                                                             |
|      You have a (more or less) 'large supercell' and for larger cells       |
|      it might be more efficient to use real space projection operators      |
|      So try LREAL= Auto  in the INCAR   file.                               |
|      Mind: If you want to do an extremely accurate calculations keep the    |
|      reciprocal projection scheme          (i.e. LREAL=.FALSE.)             |
|                                                                             |
 ----------------------------------------------------------------------------- 

 PAW_PBE Cu 05Jan2001                   :
 energy of atom  1       EATOM=-1390.9800
 kinetic energy error for atom=    0.0032 (will be added to EATOM!!)
 
 EXHCAR: internal setup
 exchange correlation table for  LEXCH =        8
   RHO(1)=    0.500       N(1)  =     2000
   RHO(2)=  100.500       N(2)  =     4000
 
 POSCAR: Cu                                      
  positions in direct lattice
  No initial velocities read in
 


--------------------------------------------------------------------------------------------------------


 ion  position               nearest neighbor table
   1  0.008  0.000  0.000-   9 2.53  11 2.53  17 2.53  21 2.53  25 2.57  27 2.57  29 2.57  31 2.57
                            10 2.61  18 2.61  12 2.61  22 2.61
   2  0.500  0.000  0.000-   9 2.57  10 2.57  11 2.57  12 2.57  17 2.57  18 2.57  21 2.57  22 2.57
                            26 2.57  28 2.57  30 2.57  32 2.57
   3  0.000  0.500  0.000-   9 2.57  10 2.57  11 2.57  12 2.57  19 2.57  20 2.57  23 2.57  24 2.57
                            25 2.57  27 2.57  29 2.57  31 2.57
   4  0.500  0.500  0.000-   9 2.57  10 2.57  11 2.57  12 2.57  19 2.57  20 2.57  23 2.57  24 2.57
                            26 2.57  28 2.57  30 2.57  32 2.57
   5  0.000  0.000  0.500-  13 2.57  14 2.57  15 2.57  16 2.57  17 2.57  18 2.57  21 2.57  22 2.57
                            25 2.57  27 2.57  29 2.57  31 2.57
   6  0.500  0.000  0.500-  13 2.57  14 2.57  15 2.57  16 2.57  17 2.57  18 2.57  21 2.57  22 2.57
                            26 2.57  28 2.57  30 2.57  32 2.57
   7  0.000  0.500  0.500-  13 2.57  14 2.57  15 2.57  16 2.57  19 2.57  20 2.57  23 2.57  24 2.57
                            25 2.57  27 2.57  29 2.57  31 2.57
   8  0.500  0.500  0.500-  13 2.57  14 2.57  15 2.57  16 2.57  19 2.57  20 2.57  23 2.57  24 2.57
                            26 2.57  28 2.57  30 2.57  32 2.57
   9  0.250  0.250  0.000-   1 2.53   2 2.57   3 2.57   4 2.57  17 2.57  19 2.57  21 2.57  23 2.57
                            25 2.57  26 2.57  29 2.57  30 2.57
  10  0.750  0.250  0.000-   2 2.57   3 2.57   4 2.57  18 2.57  20 2.57  22 2.57  24 2.57  25 2.57
                            26 2.57  29 2.57  30 2.57   1 2.61
  11  0.250  0.750  0.000-   1 2.53   2 2.57   3 2.57   4 2.57  17 2.57  19 2.57  21 2.57  23 2.57
                            27 2.57  28 2.57  31 2.57  32 2.57
  12  0.750  0.750  0.000-   2 2.57   3 2.57   4 2.57  18 2.57  20 2.57  22 2.57  24 2.57  27 2.57
                            28 2.57  31 2.57  32 2.57   1 2.61
  13  0.250  0.250  0.500-   5 2.57   6 2.57   7 2.57   8 2.57  17 2.57  19 2.57  21 2.57  23 2.57
                            25 2.57  26 2.57  29 2.57  30 2.57
  14  0.750  0.250  0.500-   5 2.57   6 2.57   7 2.57   8 2.57  18 2.57  20 2.57  22 2.57  24 2.57
                            25 2.57  26 2.57  29 2.57  30 2.57
  15  0.250  0.750  0.500-   5 2.57   6 2.57   7 2.57   8 2.57  17 2.57  19 2.57  21 2.57  23 2.57
                            27 2.57  28 2.57  31 2.57  32 2.57
  16  0.750  0.750  0.500-   5 2.57   6 2.57   7 2.57   8 2.57  18 2.57  20 2.57  22 2.57  24 2.57
                            27 2.57  28 2.57  31 2.57  32 2.57
  17  0.250  0.000  0.250-   1 2.53   2 2.57   5 2.57   6 2.57   9 2.57  11 2.57  13 2.57  15 2.57
                            25 2.57  26 2.57  27 2.57  28 2.57
  18  0.750  0.000  0.250-   2 2.57   5 2.57   6 2.57  10 2.57  12 2.57  14 2.57  16 2.57  25 2.57
                            26 2.57  27 2.57  28 2.57   1 2.61
  19  0.250  0.500  0.250-   3 2.57   4 2.57   7 2.57   8 2.57   9 2.57  11 2.57  13 2.57  15 2.57
                            25 2.57  26 2.57  27 2.57  28 2.57
  20  0.750  0.500  0.250-   3 2.57   4 2.57   7 2.57   8 2.57  10 2.57  12 2.57  14 2.57  16 2.57
                            25 2.57  26 2.57  27 2.57  28 2.57
  21  0.250  0.000  0.750-   1 2.53   2 2.57   5 2.57   6 2.57   9 2.57  11 2.57  13 2.57  15 2.57
                            29 2.57  30 2.57  31 2.57  32 2.57
  22  0.750  0.000  0.750-   2 2.57   5 2.57   6 2.57  10 2.57  12 2.57  14 2.57  16 2.57  29 2.57
                            30 2.57  31 2.57  32 2.57   1 2.61
  23  0.250  0.500  0.750-   3 2.57   4 2.57   7 2.57   8 2.57   9 2.57  11 2.57  13 2.57  15 2.57
                            29 2.57  30 2.57  31 2.57  32 2.57
  24  0.750  0.500  0.750-   3 2.57   4 2.57   7 2.57   8 2.57  10 2.57  12 2.57  14 2.57  16 2.57
                            29 2.57  30 2.57  31 2.57  32 2.57
  25  0.000  0.250  0.250-   3 2.57   5 2.57   7 2.57   9 2.57  10 2.57  13 2.57  14 2.57  17 2.57
                            18 2.57  19 2.57  20 2.57   1 2.57
  26  0.500  0.250  0.250-   2 2.57   4 2.57   6 2.57   8 2.57   9 2.57  10 2.57  13 2.57  14 2.57
                            17 2.57  18 2.57  19 2.57  20 2.57
  27  0.000  0.750  0.250-   3 2.57   5 2.57   7 2.57  11 2.57  12 2.57  15 2.57  16 2.57  17 2.57
                            18 2.57  19 2.57  20 2.57   1 2.57
  28  0.500  0.750  0.250-   2 2.57   4 2.57   6 2.57   8 2.57  11 2.57  12 2.57  15 2.57  16 2.57
                            17 2.57  18 2.57  19 2.57  20 2.57
  29  0.000  0.250  0.750-   3 2.57   5 2.57   7 2.57   9 2.57  10 2.57  13 2.57  14 2.57  21 2.57
                            22 2.57  23 2.57  24 2.57   1 2.57
  30  0.500  0.250  0.750-   2 2.57   4 2.57   6 2.57   8 2.57   9 2.57  10 2.57  13 2.57  14 2.57
                            21 2.57  22 2.57  23 2.57  24 2.57
  31  0.000  0.750  0.750-   3 2.57   5 2.57   7 2.57  11 2.57  12 2.57  15 2.57  16 2.57  21 2.57
                            22 2.57  23 2.57  24 2.57   1 2.57
  32  0.500  0.750  0.750-   2 2.57   4 2.57   6 2.57   8 2.57  11 2.57  12 2.57  15 2.57  16 2.57
                            21 2.57  22 2.57  23 2.57  24 2.57
 
  LATTYP: Found a simple cubic cell.
 ALAT       =     7.2728316235
  
  Lattice vectors:
  
 A1 = (   7.2728316235,   0.0000000000,   0.0000000000)
 A2 = (   0.0000000000,   7.2728316235,   0.0000000000)
 A3 = (   0.0000000000,   0.0000000000,   7.2728316235)
 Subroutine PRICEL returns:
 Original cell was already a primitive cell.
 

Analysis of symmetry for initial positions (statically):

 Routine SETGRP: Setting up the symmetry group for a 
 simple cubic supercell.


 Subroutine GETGRP returns: Found  8 space group operations
 (whereof  8 operations were pure point group operations)
 out of a pool of 48 trial point group operations.


The static configuration has the point symmetry C_4v.

Analysis of symmetry for dynamics (positions and initial velocities):

 Subroutine DYNSYM returns: Found  8 space group operations
 (whereof  8 operations were pure point group operations)
 out of a pool of  8 trial space group operations
 (whereof  8 operations were pure point group operations)
 and found also     1 'primitive' translations


The dynamic configuration has the point symmetry C_4v.
 
 
 KPOINTS: Automatic mesh                          

Automatic generation of k-mesh.
 generate k-points for:   7   7   7
 
 Subroutine IBZKPT returns following result:
 ===========================================
 
 Found     40 irreducible k-points:
 
 Following reciprocal coordinates:
            Coordinates               Weight
  0.000000  0.000000  0.000000      1.000000
  0.142857  0.000000  0.000000      2.000000
  0.285714  0.000000  0.000000      2.000000
  0.428571  0.000000  0.000000      2.000000
  0.000000  0.142857  0.000000      4.000000
  0.142857  0.142857  0.000000      8.000000
  0.285714  0.142857  0.000000      8.000000
  0.428571  0.142857  0.000000      8.000000
  0.000000  0.285714  0.000000      4.000000
  0.142857  0.285714  0.000000      8.000000
  0.285714  0.285714  0.000000      8.000000
  0.428571  0.285714  0.000000      8.000000
  0.000000  0.428571  0.000000      4.000000
  0.142857  0.428571  0.000000      8.000000
  0.285714  0.428571  0.000000      8.000000
  0.428571  0.428571  0.000000      8.000000
  0.000000  0.142857  0.142857      4.000000
  0.142857  0.142857  0.142857      8.000000
  0.285714  0.142857  0.142857      8.000000
  0.428571  0.142857  0.142857      8.000000
  0.000000  0.285714  0.142857      8.000000
  0.142857  0.285714  0.142857     16.000000
  0.285714  0.285714  0.142857     16.000000
  0.428571  0.285714  0.142857     16.000000
  0.000000  0.428571  0.142857      8.000000
  0.142857  0.428571  0.142857     16.000000
  0.285714  0.428571  0.142857     16.000000
  0.428571  0.428571  0.142857     16.000000
  0.000000  0.285714  0.285714      4.000000
  0.142857  0.285714  0.285714      8.000000
  0.285714  0.285714  0.285714      8.000000
  0.428571  0.285714  0.285714      8.000000
  0.000000  0.428571  0.285714      8.000000
  0.142857  0.428571  0.285714     16.000000
  0.285714  0.428571  0.285714     16.000000
  0.428571  0.428571  0.285714     16.000000
  0.000000  0.428571  0.428571      4.000000
  0.142857  0.428571  0.428571      8.000000
  0.285714  0.428571  0.428571      8.000000
  0.428571  0.428571  0.428571      8.000000
 
 Following cartesian coordinates:
            Coordinates               Weight
  0.000000  0.000000  0.000000      1.000000
  0.019643  0.000000  0.000000      2.000000
  0.039285  0.000000  0.000000      2.000000
  0.058928  0.000000  0.000000      2.000000
  0.000000  0.019643  0.000000      4.000000
  0.019643  0.019643  0.000000      8.000000
  0.039285  0.019643  0.000000      8.000000
  0.058928  0.019643  0.000000      8.000000
  0.000000  0.039285  0.000000      4.000000
  0.019643  0.039285  0.000000      8.000000
  0.039285  0.039285  0.000000      8.000000
  0.058928  0.039285  0.000000      8.000000
  0.000000  0.058928  0.000000      4.000000
  0.019643  0.058928  0.000000      8.000000
  0.039285  0.058928  0.000000      8.000000
  0.058928  0.058928  0.000000      8.000000
  0.000000  0.019643  0.019643      4.000000
  0.019643  0.019643  0.019643      8.000000
  0.039285  0.019643  0.019643      8.000000
  0.058928  0.019643  0.019643      8.000000
  0.000000  0.039285  0.019643      8.000000
  0.019643  0.039285  0.019643     16.000000
  0.039285  0.039285  0.019643     16.000000
  0.058928  0.039285  0.019643     16.000000
  0.000000  0.058928  0.019643      8.000000
  0.019643  0.058928  0.019643     16.000000
  0.039285  0.058928  0.019643     16.000000
  0.058928  0.058928  0.019643     16.000000
  0.000000  0.039285  0.039285      4.000000
  0.019643  0.039285  0.039285      8.000000
  0.039285  0.039285  0.039285      8.000000
  0.058928  0.039285  0.039285      8.000000
  0.000000  0.058928  0.039285      8.000000
  0.019643  0.058928  0.039285     16.000000
  0.039285  0.058928  0.039285     16.000000
  0.058928  0.058928  0.039285     16.000000
  0.000000  0.058928  0.058928      4.000000
  0.019643  0.058928  0.058928      8.000000
  0.039285  0.058928  0.058928      8.000000
  0.058928  0.058928  0.058928      8.000000
 


--------------------------------------------------------------------------------------------------------




 Dimension of arrays:
   k-Points           NKPTS =     40   number of bands    NBANDS=    216
   number of dos      NEDOS =    301   number of ions     NIONS =     32
   non local maximal  LDIM  =      6   non local SUM 2l+1 LMDIM =     18
   total plane-waves  NPLWV = 157464
   max r-space proj   IRMAX =      1   max aug-charges    IRDMAX= 115115
   dimension x,y,z NGX =    54 NGY =   54 NGZ =   54
   dimension x,y,z NGXF=   108 NGYF=  108 NGZF=  108
   support grid    NGXF=   216 NGYF=  216 NGZF=  216
   ions per type =              32
 NGX,Y,Z   is equivalent  to a cutoff of  12.34, 12.34, 12.34 a.u.
 NGXF,Y,Z  is equivalent  to a cutoff of  24.69, 24.69, 24.69 a.u.


 I would recommend the setting:
   dimension x,y,z NGX =    53 NGY =   53 NGZ =   53
 SYSTEM =  unknown system                          
 POSCAR =  Cu                                      

 Startparameter for this run:
   NWRITE =      2    write-flag & timer
   PREC   = accura    medium, high low
   ISTART =      0    job   : 0-new  1-cont  2-samecut
   ICHARG =      2    charge: 1-file 2-atom 10-const
   ISPIN  =      1    spin polarized calculation?
   LNONCOLLINEAR =      F non collinear calculations
   LSORBIT =      F    spin-orbit coupling
   INIWAV =      1    electr: 0-lowe 1-rand  2-diag
   LASPH  =      F    aspherical Exc in radial PAW
   METAGGA=      F    non-selfconsistent MetaGGA calc.

 Electronic Relaxation 1
   ENCUT  =  500.0 eV  36.75 Ry    6.06 a.u.  13.26 13.26 13.26*2*pi/ulx,y,z
   ENINI  =  500.0     initial cutoff
   ENAUG  =  516.5 eV  augmentation charge cutoff
   NELM   =     60;   NELMIN=  2; NELMDL=  0     # of ELM steps 
   EDIFF  = 0.1E-07   stopping-criterion for ELM
   LREAL  =      F    real-space projection
   LCOMPAT=      F    compatible to vasp.4.4
   LREAL_COMPAT= F    compatible to vasp.4.5.1-3
   GGA_COMPAT  = T    GGA compatible to vasp.4.4-vasp.4.6
   LMAXPAW     = -100 max onsite density
   LMAXMIX     =    2 max onsite mixed and CHGCAR
   VOSKOWN=      0    Vosko Wilk Nusair interpolation
   ROPT   =    0.00000
 Ionic relaxation
   EDIFFG = 0.1E-06   stopping-criterion for IOM
   NSW    =      0    number of steps for IOM
   NBLOCK =      1;   KBLOCK =      1    inner block; outer block 
   IBRION =     -1    ionic relax: 0-MD 1-quasi-New 2-CG
   NFREE  =      0    steps in history (QN), initial steepest desc. (CG)
   ISIF   =      2    stress and relaxation
   IWAVPR =     10    prediction:  0-non 1-charg 2-wave 3-comb
   ISYM   =      2    0-nonsym 1-usesym 2-fastsym
   LCORR  =      T    Harris-Foulkes like correction to forces

   POTIM  =   0.50    time-step for ionic-motion
   TEIN   =    0.0    initial temperature
   TEBEG  =    0.0;   TEEND  =   0.0 temperature during run
   SMASS  =  -3.00    Nose mass-parameter (am)
   estimated Nose-frequenzy (Omega)   =  0.10E-29 period in steps =****** mass=  -0.121E-26a.u.
   NPACO  =    256;   APACO  = 16.0  distance and # of slots for P.C.
   PSTRESS=    0.0 pullay stress

  Mass of Ions in am
   POMASS =  63.55
  Ionic Valenz
   ZVAL   =  11.00
  Atomic Wigner-Seitz radii
   RWIGS  =  -1.00
   NELECT =     352.0000    total number of electrons
   NUPDOWN=      -1.0000    fix difference up-down

 DOS related values:
   EMIN   =  10.00;   EMAX   =-10.00  energy-range for DOS
   ISMEAR =     0;   SIGMA  =   0.01  broadening in eV -4-tet -1-fermi 0-gaus

 Electronic relaxation 2 (details)
   IALGO  =     38    algorithm
   LDIAG  =      T    sub-space diagonalisation
   IMIX   =      4    mixing-type and parameters
     AMIX     =   0.40;   BMIX     =  1.00
     AMIX_MAG =   1.60;   BMIX_MAG =  1.00
     AMIN     =   0.10
     WC   =   100.;   INIMIX=   1;  MIXPRE=   1

 Intra band minimization:
   WEIMIN = 0.0000     energy-eigenvalue tresh-hold
   EBREAK =  0.12E-10  absolut break condition
   DEPER  =   0.30     relativ break condition  

   TIME   =   0.10     timestep for ELM

  volume/ion in A,a.u.               =      12.02        81.13
  Fermi-wavevector in a.u.,eV,Ry     =   1.589347 34.368661  2.526025

 Second variation
   LSECVAR=     F    do a second variation
 
 Write flags
   LWAVE  =      F    write WAVECAR
   LCHARG =      F    write CHGCAR
   LVTOT  =      F    write LOCPOT, local potential
   LELF   =      F    write electronic localiz. function (ELF)
   LORBIT =      0    0 simple, 1 ext, 2 COOP (PROOUT)


 Dipole corrections
   IDIPOL =      0    1-x, 2-y, 3-z
   LDIPOL =      F    correct potential



--------------------------------------------------------------------------------------------------------


 Static calculation
 charge density will be updated during run
 non-spin polarized calculation
 Variant of blocked Davidson
 Davidson routine will perform the subspace rotation
 performe sub-space diagonalisation
    after iterative eigenvector-optimisation
 modified Broyden-mixing scheme, WC =      100.0
 initial mixing is a Kerker type mixing with AMIX =  0.4000 and BMIX =      1.0000
 Hartree-type preconditioning will be used
 using additional bands           40
 reciprocal scheme for non local part
 use partial core corrections
 calculate Harris-corrections to forces 
   (improved forces if not selfconsistent)
 use gradient corrections 
 use of overlap-Matrix (Vanderbilt PP)
 Gauss-broadening in eV      SIGMA  =   0.01


--------------------------------------------------------------------------------------------------------


  energy-cutoff  :      500.00
  volume of cell :      384.69
      direct lattice vectors                 reciprocal lattice vectors
     7.272831623  0.000000000  0.000000000     0.137498027  0.000000000  0.000000000
     0.000000000  7.272831623  0.000000000     0.000000000  0.137498027  0.000000000
     0.000000000  0.000000000  7.272831623     0.000000000  0.000000000  0.137498027

  length of vectors
     7.272831623  7.272831623  7.272831623     0.137498027  0.137498027  0.137498027


 
 k-points in units of 2pi/SCALE and weight: Automatic mesh                          
   0.00000000  0.00000000  0.00000000       0.003
   0.01964258  0.00000000  0.00000000       0.006
   0.03928515  0.00000000  0.00000000       0.006
   0.05892773  0.00000000  0.00000000       0.006
   0.00000000  0.01964258  0.00000000       0.012
   0.01964258  0.01964258  0.00000000       0.023
   0.03928515  0.01964258  0.00000000       0.023
   0.05892773  0.01964258  0.00000000       0.023
   0.00000000  0.03928515  0.00000000       0.012
   0.01964258  0.03928515  0.00000000       0.023
   0.03928515  0.03928515  0.00000000       0.023
   0.05892773  0.03928515  0.00000000       0.023
   0.00000000  0.05892773  0.00000000       0.012
   0.01964258  0.05892773  0.00000000       0.023
   0.03928515  0.05892773  0.00000000       0.023
   0.05892773  0.05892773  0.00000000       0.023
   0.00000000  0.01964258  0.01964258       0.012
   0.01964258  0.01964258  0.01964258       0.023
   0.03928515  0.01964258  0.01964258       0.023
   0.05892773  0.01964258  0.01964258       0.023
   0.00000000  0.03928515  0.01964258       0.023
   0.01964258  0.03928515  0.01964258       0.047
   0.03928515  0.03928515  0.01964258       0.047
   0.05892773  0.03928515  0.01964258       0.047
   0.00000000  0.05892773  0.01964258       0.023
   0.01964258  0.05892773  0.01964258       0.047
   0.03928515  0.05892773  0.01964258       0.047
   0.05892773  0.05892773  0.01964258       0.047
   0.00000000  0.03928515  0.03928515       0.012
   0.01964258  0.03928515  0.03928515       0.023
   0.03928515  0.03928515  0.03928515       0.023
   0.05892773  0.03928515  0.03928515       0.023
   0.00000000  0.05892773  0.03928515       0.023
   0.01964258  0.05892773  0.03928515       0.047
   0.03928515  0.05892773  0.03928515       0.047
   0.05892773  0.05892773  0.03928515       0.047
   0.00000000  0.05892773  0.05892773       0.012
   0.01964258  0.05892773  0.05892773       0.023
   0.03928515  0.05892773  0.05892773       0.023
   0.05892773  0.05892773  0.05892773       0.023
 
 k-points in reciprocal lattice and weights: Automatic mesh                          
   0.00000000  0.00000000  0.00000000       0.003
   0.14285714  0.00000000  0.00000000       0.006
   0.28571429  0.00000000  0.00000000       0.006
   0.42857143  0.00000000  0.00000000       0.006
   0.00000000  0.14285714  0.00000000       0.012
   0.14285714  0.14285714  0.00000000       0.023
   0.28571429  0.14285714  0.00000000       0.023
   0.42857143  0.14285714  0.00000000       0.023
   0.00000000  0.28571429  0.00000000       0.012
   0.14285714  0.28571429  0.00000000       0.023
   0.28571429  0.28571429  0.00000000       0.023
   0.42857143  0.28571429  0.00000000       0.023
   0.00000000  0.42857143  0.00000000       0.012
   0.14285714  0.42857143  0.00000000       0.023
   0.28571429  0.42857143  0.00000000       0.023
   0.42857143  0.42857143  0.00000000       0.023
   0.00000000  0.14285714  0.14285714       0.012
   0.14285714  0.14285714  0.14285714       0.023
   0.28571429  0.14285714  0.14285714       0.023
   0.42857143  0.14285714  0.14285714       0.023
   0.00000000  0.28571429  0.14285714       0.023
   0.14285714  0.28571429  0.14285714       0.047
   0.28571429  0.28571429  0.14285714       0.047
   0.42857143  0.28571429  0.14285714       0.047
   0.00000000  0.42857143  0.14285714       0.023
   0.14285714  0.42857143  0.14285714       0.047
   0.28571429  0.42857143  0.14285714       0.047
   0.42857143  0.42857143  0.14285714       0.047
   0.00000000  0.28571429  0.28571429       0.012
   0.14285714  0.28571429  0.28571429       0.023
   0.28571429  0.28571429  0.28571429       0.023
   0.42857143  0.28571429  0.28571429       0.023
   0.00000000  0.42857143  0.28571429       0.023
   0.14285714  0.42857143  0.28571429       0.047
   0.28571429  0.42857143  0.28571429       0.047
   0.42857143  0.42857143  0.28571429       0.047
   0.00000000  0.42857143  0.42857143       0.012
   0.14285714  0.42857143  0.42857143       0.023
   0.28571429  0.42857143  0.42857143       0.023
   0.42857143  0.42857143  0.42857143       0.023
 
 position of ions in fractional coordinates (direct lattice) 
   0.00750000  0.00000000  0.00000000
   0.50000000  0.00000000  0.00000000
   0.00000000  0.50000000  0.00000000
   0.50000000  0.50000000  0.00000000
   0.00000000  0.00000000  0.50000000
   0.50000000  0.00000000  0.50000000
   0.00000000  0.50000000  0.50000000
   0.50000000  0.50000000  0.50000000
   0.25000000  0.25000000  0.00000000
   0.75000000  0.25000000  0.00000000
   0.25000000  0.75000000  0.00000000
   0.75000000  0.75000000  0.00000000
   0.25000000  0.25000000  0.50000000
   0.75000000  0.25000000  0.50000000
   0.25000000  0.75000000  0.50000000
   0.75000000  0.75000000  0.50000000
   0.25000000  0.00000000  0.25000000
   0.75000000  0.00000000  0.25000000
   0.25000000  0.50000000  0.25000000
   0.75000000  0.50000000  0.25000000
   0.25000000  0.00000000  0.75000000
   0.75000000  0.00000000  0.75000000
   0.25000000  0.50000000  0.75000000
   0.75000000  0.50000000  0.75000000
   0.00000000  0.25000000  0.25000000
   0.50000000  0.25000000  0.25000000
   0.00000000  0.75000000  0.25000000
   0.50000000  0.75000000  0.25000000
   0.00000000  0.25000000  0.75000000
   0.50000000  0.25000000  0.75000000
   0.00000000  0.75000000  0.75000000
   0.50000000  0.75000000  0.75000000
 
 position of ions in cartesian coordinates  (Angst):
   0.05454624  0.00000000  0.00000000
   3.63641581  0.00000000  0.00000000
   0.00000000  3.63641581  0.00000000
   3.63641581  3.63641581  0.00000000
   0.00000000  0.00000000  3.63641581
   3.63641581  0.00000000  3.63641581
   0.00000000  3.63641581  3.63641581
   3.63641581  3.63641581  3.63641581
   1.81820791  1.81820791  0.00000000
   5.45462372  1.81820791  0.00000000
   1.81820791  5.45462372  0.00000000
   5.45462372  5.45462372  0.00000000
   1.81820791  1.81820791  3.63641581
   5.45462372  1.81820791  3.63641581
   1.81820791  5.45462372  3.63641581
   5.45462372  5.45462372  3.63641581
   1.81820791  0.00000000  1.81820791
   5.45462372  0.00000000  1.81820791
   1.81820791  3.63641581  1.81820791
   5.45462372  3.63641581  1.81820791
   1.81820791  0.00000000  5.45462372
   5.45462372  0.00000000  5.45462372
   1.81820791  3.63641581  5.45462372
   5.45462372  3.63641581  5.45462372
   0.00000000  1.81820791  1.81820791
   3.63641581  1.81820791  1.81820791
   0.00000000  5.45462372  1.81820791
   3.63641581  5.45462372  1.81820791
   0.00000000  1.81820791  5.45462372
   3.63641581  1.81820791  5.45462372
   0.00000000  5.45462372  5.45462372
   3.63641581  5.45462372  5.45462372
 


--------------------------------------------------------------------------------------------------------


 k-point  1 :  0.00000.00000.0000  plane waves:   9771
 k-point  2 :  0.14290.00000.0000  plane waves:   9759
 k-point  3 :  0.28570.00000.0000  plane waves:   9758
 k-point  4 :  0.42860.00000.0000  plane waves:   9782
 k-point  5 :  0.00000.14290.0000  plane waves:   9759
 k-point  6 :  0.14290.14290.0000  plane waves:   9761
 k-point  7 :  0.28570.14290.0000  plane waves:   9762
 k-point  8 :  0.42860.14290.0000  plane waves:   9784
 k-point  9 :  0.00000.28570.0000  plane waves:   9758
 k-point 10 :  0.14290.28570.0000  plane waves:   9762
 k-point 11 :  0.28570.28570.0000  plane waves:   9731
 k-point 12 :  0.42860.28570.0000  plane waves:   9769
 k-point 13 :  0.00000.42860.0000  plane waves:   9782
 k-point 14 :  0.14290.42860.0000  plane waves:   9784
 k-point 15 :  0.28570.42860.0000  plane waves:   9769
 k-point 16 :  0.42860.42860.0000  plane waves:   9748
 k-point 17 :  0.00000.14290.1429  plane waves:   9761
 k-point 18 :  0.14290.14290.1429  plane waves:   9777
 k-point 19 :  0.28570.14290.1429  plane waves:   9765
 k-point 20 :  0.42860.14290.1429  plane waves:   9767
 k-point 21 :  0.00000.28570.1429  plane waves:   9762
 k-point 22 :  0.14290.28570.1429  plane waves:   9765
 k-point 23 :  0.28570.28570.1429  plane waves:   9760
 k-point 24 :  0.42860.28570.1429  plane waves:   9773
 k-point 25 :  0.00000.42860.1429  plane waves:   9784
 k-point 26 :  0.14290.42860.1429  plane waves:   9767
 k-point 27 :  0.28570.42860.1429  plane waves:   9773
 k-point 28 :  0.42860.42860.1429  plane waves:   9767
 k-point 29 :  0.00000.28570.2857  plane waves:   9731
 k-point 30 :  0.14290.28570.2857  plane waves:   9760
 k-point 31 :  0.28570.28570.2857  plane waves:   9762
 k-point 32 :  0.42860.28570.2857  plane waves:   9775
 k-point 33 :  0.00000.42860.2857  plane waves:   9769
 k-point 34 :  0.14290.42860.2857  plane waves:   9773
 k-point 35 :  0.28570.42860.2857  plane waves:   9775
 k-point 36 :  0.42860.42860.2857  plane waves:   9759
 k-point 37 :  0.00000.42860.4286  plane waves:   9748
 k-point 38 :  0.14290.42860.4286  plane waves:   9767
 k-point 39 :  0.28570.42860.4286  plane waves:   9759
 k-point 40 :  0.42860.42860.4286  plane waves:   9787

 maximum and minimum number of plane-waves per node :   9787  9731

 maximum number of plane-waves:   9787
 maximal index in each direction: 
   IXMAX= 13   IYMAX= 13   IZMAX= 13
   IXMIN=-13   IYMIN=-13   IZMIN=-13

 NGX is ok and might be reduce to  54
 NGY is ok and might be reduce to  54
 NGZ is ok and might be reduce to  54

 parallel 3dFFT wavefunction:
    minimum data exchange during FFTs selected (reduces bandwidth)
 parallel 3dFFT charge:
    minimum data exchange during FFTs selected (reduces bandwidth)

 For storing wavefunctions 1350.00 MBYTES are necessary
 For predicting wavefunctions   73.63 MBYTES are necessary
Broyden mixing: mesh for mixing (old mesh)
   NGX = 27   NGY = 27   NGZ = 27
  (NGX  =108   NGY  =108   NGZ  =108)
 gives a total of  19683 points
 initial charge density was supplied:
 charge density of overlapping atoms calculated
 number of electron  352.0000000 magnetization 
 keeping initial charge density in first step


--------------------------------------------------------------------------------------------------------


 Maximum index for augmentation-charges        14000 (set IRDMAX)


--------------------------------------------------------------------------------------------------------


 First call to EWALD:  gamma=   0.244
 Maximum number of real-space cells 3x 3x 3
 Maximum number of reciprocal cells 3x 3x 3

    FEWALD:  VPU time    0.01: CPU time    0.01


----------------------------------------- Iteration    1(   1)  ---------------------------------------


    POTLOK:  VPU time    0.34: CPU time    0.34
    SETDIJ:  VPU time    0.76: CPU time    0.76
    EDDAV :  VPU time  243.23: CPU time  244.00
    DOS   :  VPU time    0.00: CPU time   -0.00
    ------------------------------------------
      LOOP:  VPU time  244.39: CPU time  245.16

 eigenvalue-minimisations  : 17280
 total energy-change (2. order) : 0.3264024E+04  (-0.1450998E+05)
 number of electron  352.0000000 magnetization 
 augmentation part   352.0000000 magnetization 

 Free energy of the ion-electron system (eV)
  ---------------------------------------------------
  alpha Z        PSCENC =      3400.89143748
  Ewald energy   TEWEN  =    -35148.22571707
  -1/2 Hartree   DENC   =    -10548.67334053
  -V(xc)+E(xc)   XCENC  =      1403.29960763
  PAW double counting   =     34625.67335558   -39234.46421604
  entropy T*S    EENTRO =        -0.00051452
  eigenvalues    EBANDS =      4254.26480476
  atomic energy  EATOM  =     44511.25856501
  ---------------------------------------------------
  free energy    TOTEN  =      3264.02398230 eV

  energy without entropy =     3264.02449682  energy(sigma->0) =     3264.02423956


--------------------------------------------------------------------------------------------------------




----------------------------------------- Iteration    1(   2)  ---------------------------------------


    EDDAV :  VPU time  244.12: CPU time  244.46
    DOS   :  VPU time    0.00: CPU time   -0.00
    ------------------------------------------
      LOOP:  VPU time  244.18: CPU time  244.53

 eigenvalue-minimisations  : 17280
 total energy-change (2. order) :-0.2949492E+04  (-0.2829012E+04)
 number of electron  352.0000000 magnetization 
 augmentation part   352.0000000 magnetization 

 Free energy of the ion-electron system (eV)
  ---------------------------------------------------
  alpha Z        PSCENC =      3400.89143748
  Ewald energy   TEWEN  =    -35148.22571707
  -1/2 Hartree   DENC   =    -10548.67334053
  -V(xc)+E(xc)   XCENC  =      1403.29960763
  PAW double counting   =     34625.67335558   -39234.46421604
  entropy T*S    EENTRO =        -0.00026029
  eigenvalues    EBANDS =      1304.77278818
  atomic energy  EATOM  =     44511.25856501
  ---------------------------------------------------
  free energy    TOTEN  =       314.53221995 eV

  energy without entropy =      314.53248023  energy(sigma->0) =      314.53235009


--------------------------------------------------------------------------------------------------------




----------------------------------------- Iteration    1(   3)  ---------------------------------------


    EDDAV :  VPU time  243.89: CPU time  244.73
    DOS   :  VPU time    0.00: CPU time   -0.00
    ------------------------------------------
      LOOP:  VPU time  243.94: CPU time  244.79

 eigenvalue-minimisations  : 17288
 total energy-change (2. order) :-0.4372167E+03  (-0.3946231E+03)
 number of electron  352.0000000 magnetization 
 augmentation part   352.0000000 magnetization 

 Free energy of the ion-electron system (eV)
  ---------------------------------------------------
  alpha Z        PSCENC =      3400.89143748
  Ewald energy   TEWEN  =    -35148.22571707
  -1/2 Hartree   DENC   =    -10548.67334053
  -V(xc)+E(xc)   XCENC  =      1403.29960763
  PAW double counting   =     34625.67335558   -39234.46421604
  entropy T*S    EENTRO =        -0.00112105
  eigenvalues    EBANDS =       867.55692460
  atomic energy  EATOM  =     44511.25856501
  ---------------------------------------------------
  free energy    TOTEN  =      -122.68450439 eV

  energy without entropy =     -122.68338334  energy(sigma->0) =     -122.68394387


--------------------------------------------------------------------------------------------------------




----------------------------------------- Iteration    1(   4)  ---------------------------------------


    EDDAV :  VPU time  257.15: CPU time  257.26
    DOS   :  VPU time    0.00: CPU time   -0.00
    ------------------------------------------
      LOOP:  VPU time  257.21: CPU time  257.31

 eigenvalue-minimisations  : 18424
 total energy-change (2. order) :-0.2381185E+02  (-0.2329454E+02)
 number of electron  352.0000000 magnetization 
 augmentation part   352.0000000 magnetization 

 Free energy of the ion-electron system (eV)
  ---------------------------------------------------
  alpha Z        PSCENC =      3400.89143748
  Ewald energy   TEWEN  =    -35148.22571707
  -1/2 Hartree   DENC   =    -10548.67334053
  -V(xc)+E(xc)   XCENC  =      1403.29960763
  PAW double counting   =     34625.67335558   -39234.46421604
  entropy T*S    EENTRO =        -0.00112150
  eigenvalues    EBANDS =       843.74507977
  atomic energy  EATOM  =     44511.25856501
  ---------------------------------------------------
  free energy    TOTEN  =      -146.49634968 eV

  energy without entropy =     -146.49522818  energy(sigma->0) =     -146.49578893


--------------------------------------------------------------------------------------------------------




----------------------------------------- Iteration    1(   5)  ---------------------------------------


    EDDAV :  VPU time  256.46: CPU time  256.83
    DOS   :  VPU time    0.00: CPU time   -0.00
    CHARGE:  VPU time    9.85: CPU time    9.87
    MIXING:  VPU time    0.01: CPU time    0.01
    ------------------------------------------
      LOOP:  VPU time  266.38: CPU time  266.78

 eigenvalue-minimisations  : 18448
 total energy-change (2. order) :-0.1904379E+00  (-0.1901367E+00)
 number of electron  351.9999998 magnetization 
 augmentation part   214.2809107 magnetization 

 Broyden mixing:
  rms(total) = 0.39376E+01    rms(broyden)= 0.39375E+01
  rms(prec ) = 0.58167E+01
  weight for this iteration     100.00

 Free energy of the ion-electron system (eV)
  ---------------------------------------------------
  alpha Z        PSCENC =      3400.89143748
  Ewald energy   TEWEN  =    -35148.22571707
  -1/2 Hartree   DENC   =    -10548.67334053
  -V(xc)+E(xc)   XCENC  =      1403.29960763
  PAW double counting   =     34625.67335558   -39234.46421604
  entropy T*S    EENTRO =        -0.00112085
  eigenvalues    EBANDS =       843.55464121
  atomic energy  EATOM  =     44511.25856501
  ---------------------------------------------------
  free energy    TOTEN  =      -146.68678758 eV

  energy without entropy =     -146.68566673  energy(sigma->0) =     -146.68622715


--------------------------------------------------------------------------------------------------------




----------------------------------------- Iteration    1(   6)  ---------------------------------------


    POTLOK:  VPU time    0.33: CPU time    0.33
    SETDIJ:  VPU time    0.74: CPU time    0.74
    EDDAV :  VPU time  256.70: CPU time  256.80
    DOS   :  VPU time    0.00: CPU time   -0.00
    CHARGE:  VPU time    9.43: CPU time    9.43
    MIXING:  VPU time    0.01: CPU time    0.01
    ------------------------------------------
      LOOP:  VPU time  267.26: CPU time  267.38

 eigenvalue-minimisations  : 18584
 total energy-change (2. order) : 0.1747893E+02  (-0.2641310E+02)
 number of electron  351.9999999 magnetization 
 augmentation part   238.6098165 magnetization 

 Broyden mixing:
  rms(total) = 0.17762E+01    rms(broyden)= 0.17761E+01
  rms(prec ) = 0.24665E+01
  weight for this iteration     100.00

 eigenvalues of (default mixing * dielectric matrix)
  average eigenvalue GAMMA=   0.6911
  0.6911

 Free energy of the ion-electron system (eV)
  ---------------------------------------------------
  alpha Z        PSCENC =      3400.89143748
  Ewald energy   TEWEN  =    -35148.22571707
  -1/2 Hartree   DENC   =     -9753.55771254
  -V(xc)+E(xc)   XCENC  =      1363.04391404
  PAW double counting   =     33842.65876018   -38193.33086289
  entropy T*S    EENTRO =        -0.00065680
  eigenvalues    EBANDS =      -151.94558288
  atomic energy  EATOM  =     44511.25856501
  ---------------------------------------------------
  free energy    TOTEN  =      -129.20785547 eV

  energy without entropy =     -129.20719867  energy(sigma->0) =     -129.20752707


--------------------------------------------------------------------------------------------------------




----------------------------------------- Iteration    1(   7)  ---------------------------------------


    POTLOK:  VPU time    0.37: CPU time    0.37
    SETDIJ:  VPU time    0.73: CPU time    0.73
    EDDAV :  VPU time  260.71: CPU time  263.35
    DOS   :  VPU time    0.00: CPU time   -0.00
    CHARGE:  VPU time    9.31: CPU time    9.41
    MIXING:  VPU time    0.01: CPU time    0.01
    ------------------------------------------
      LOOP:  VPU time  271.18: CPU time  273.95

 eigenvalue-minimisations  : 19264
 total energy-change (2. order) : 0.9847189E+01  (-0.4581150E+01)
 number of electron  351.9999998 magnetization 
 augmentation part   229.8204003 magnetization 

 Broyden mixing:
  rms(total) = 0.29147E+00    rms(broyden)= 0.29142E+00
  rms(prec ) = 0.44422E+00
  weight for this iteration     100.00

 eigenvalues of (default mixing * dielectric matrix)
  average eigenvalue GAMMA=   1.2818
  1.9085  0.6550

 Free energy of the ion-electron system (eV)
  ---------------------------------------------------
  alpha Z        PSCENC =      3400.89143748
  Ewald energy   TEWEN  =    -35148.22571707
  -1/2 Hartree   DENC   =     -9972.09063804
  -V(xc)+E(xc)   XCENC  =      1374.59693277
  PAW double counting   =     34502.78279456   -39043.16804487
  entropy T*S    EENTRO =        -0.00077240
  eigenvalues    EBANDS =       254.59477611
  atomic energy  EATOM  =     44511.25856501
  ---------------------------------------------------
  free energy    TOTEN  =      -119.36066645 eV

  energy without entropy =     -119.35989405  energy(sigma->0) =     -119.36028025


--------------------------------------------------------------------------------------------------------




----------------------------------------- Iteration    1(   8)  ---------------------------------------


    POTLOK:  VPU time    0.33: CPU time    0.34
    SETDIJ:  VPU time    0.74: CPU time    0.74
    EDDAV :  VPU time  251.20: CPU time  251.63
    DOS   :  VPU time    0.00: CPU time   -0.00
    CHARGE:  VPU time    9.53: CPU time    9.54
    MIXING:  VPU time    0.01: CPU time    0.01
    ------------------------------------------
      LOOP:  VPU time  261.86: CPU time  262.33

 eigenvalue-minimisations  : 18096
 total energy-change (2. order) : 0.2455473E+00  (-0.6009345E-01)
 number of electron  351.9999998 magnetization 
 augmentation part   229.4647430 magnetization 

 Broyden mixing:
  rms(total) = 0.20854E+00    rms(broyden)= 0.20854E+00
  rms(prec ) = 0.31357E+00
  weight for this iteration     100.00

 eigenvalues of (default mixing * dielectric matrix)
  average eigenvalue GAMMA=   1.0280
  2.0405  0.6388  0.4047

 Free energy of the ion-electron system (eV)
  ---------------------------------------------------
  alpha Z        PSCENC =      3400.89143748
  Ewald energy   TEWEN  =    -35148.22571707
  -1/2 Hartree   DENC   =     -9894.96073660
  -V(xc)+E(xc)   XCENC  =      1371.09409465
  PAW double counting   =     34932.22498000   -39550.25056840
  entropy T*S    EENTRO =        -0.00075132
  eigenvalues    EBANDS =       258.85357713
  atomic energy  EATOM  =     44511.25856501
  ---------------------------------------------------
  free energy    TOTEN  =      -119.11511913 eV

  energy without entropy =     -119.11436781  energy(sigma->0) =     -119.11474347


--------------------------------------------------------------------------------------------------------




----------------------------------------- Iteration    1(   9)  ---------------------------------------


    POTLOK:  VPU time    0.33: CPU time    0.33
    SETDIJ:  VPU time    0.73: CPU time    0.74
    EDDAV :  VPU time  257.43: CPU time  257.78
    DOS   :  VPU time    0.00: CPU time   -0.00
    CHARGE:  VPU time    9.94: CPU time    9.96
    MIXING:  VPU time    0.01: CPU time    0.01
    ------------------------------------------
      LOOP:  VPU time  268.50: CPU time  268.88

 eigenvalue-minimisations  : 18688
 total energy-change (2. order) : 0.4413273E-01  (-0.5937894E-02)
 number of electron  351.9999998 magnetization 
 augmentation part   229.6199129 magnetization 

 Broyden mixing:
  rms(total) = 0.14973E+00    rms(broyden)= 0.14973E+00
  rms(prec ) = 0.22360E+00
  weight for this iteration     100.00

 eigenvalues of (default mixing * dielectric matrix)
  average eigenvalue GAMMA=   1.1542
  2.5758  1.0175  0.6845  0.3392

 Free energy of the ion-electron system (eV)
  ---------------------------------------------------
  alpha Z        PSCENC =      3400.89143748
  Ewald energy   TEWEN  =    -35148.22571707
  -1/2 Hartree   DENC   =     -9879.20298689
  -V(xc)+E(xc)   XCENC  =      1370.33689178
  PAW double counting   =     34969.83136028   -39592.84441826
  entropy T*S    EENTRO =        -0.00077399
  eigenvalues    EBANDS =       248.88465526
  atomic energy  EATOM  =     44511.25856501
  ---------------------------------------------------
  free energy    TOTEN  =      -119.07098641 eV

  energy without entropy =     -119.07021242  energy(sigma->0) =     -119.07059941


--------------------------------------------------------------------------------------------------------




----------------------------------------- Iteration    1(  10)  ---------------------------------------


    POTLOK:  VPU time    0.33: CPU time    0.33
    SETDIJ:  VPU time    0.74: CPU time    0.74
    EDDAV :  VPU time  263.33: CPU time  263.70
    DOS   :  VPU time   -0.00: CPU time   -0.00
    CHARGE:  VPU time    9.94: CPU time    9.96
    MIXING:  VPU time    0.01: CPU time    0.01
    ------------------------------------------
      LOOP:  VPU time  274.40: CPU time  274.80

 eigenvalue-minimisations  : 19248
 total energy-change (2. order) : 0.4262395E-01  (-0.1360547E-01)
 number of electron  351.9999998 magnetization 
 augmentation part   230.1860243 magnetization 

 Broyden mixing:
  rms(total) = 0.99743E-02    rms(broyden)= 0.99647E-02
  rms(prec ) = 0.14472E-01
  weight for this iteration     100.00

 eigenvalues of (default mixing * dielectric matrix)
  average eigenvalue GAMMA=   1.1235
  2.5990  1.2668  0.7074  0.7074  0.3367

 Free energy of the ion-electron system (eV)
  ---------------------------------------------------
  alpha Z        PSCENC =      3400.89143748
  Ewald energy   TEWEN  =    -35148.22571707
  -1/2 Hartree   DENC   =     -9844.01368866
  -V(xc)+E(xc)   XCENC  =      1368.63361831
  PAW double counting   =     35043.89798026   -39675.01011079
  entropy T*S    EENTRO =        -0.00104916
  eigenvalues    EBANDS =       223.54060218
  atomic energy  EATOM  =     44511.25856501
  ---------------------------------------------------
  free energy    TOTEN  =      -119.02836245 eV

  energy without entropy =     -119.02731329  energy(sigma->0) =     -119.02783787


--------------------------------------------------------------------------------------------------------




----------------------------------------- Iteration    1(  11)  ---------------------------------------


    POTLOK:  VPU time    0.33: CPU time    0.33
    SETDIJ:  VPU time    0.74: CPU time    0.74
    EDDAV :  VPU time  257.06: CPU time  257.44
    DOS   :  VPU time    0.00: CPU time   -0.00
    CHARGE:  VPU time    9.94: CPU time    9.95
    MIXING:  VPU time    0.01: CPU time    0.01
    ------------------------------------------
      LOOP:  VPU time  268.13: CPU time  268.52

 eigenvalue-minimisations  : 18704
 total energy-change (2. order) :-0.5543101E-03  (-0.5461108E-03)
 number of electron  351.9999998 magnetization 
 augmentation part   230.1855181 magnetization 

 Broyden mixing:
  rms(total) = 0.90253E-02    rms(broyden)= 0.90249E-02
  rms(prec ) = 0.13423E-01
  weight for this iteration     100.00

 eigenvalues of (default mixing * dielectric matrix)
  average eigenvalue GAMMA=   1.1765
  2.5436  2.2663  0.8856  0.6987  0.3155  0.3491

 Free energy of the ion-electron system (eV)
  ---------------------------------------------------
  alpha Z        PSCENC =      3400.89143748
  Ewald energy   TEWEN  =    -35148.22571707
  -1/2 Hartree   DENC   =     -9844.59173703
  -V(xc)+E(xc)   XCENC  =      1368.66119909
  PAW double counting   =     35049.26111806   -39680.20297770
  entropy T*S    EENTRO =        -0.00104505
  eigenvalues    EBANDS =       223.92024045
  atomic energy  EATOM  =     44511.25856501
  ---------------------------------------------------
  free energy    TOTEN  =      -119.02891676 eV

  energy without entropy =     -119.02787171  energy(sigma->0) =     -119.02839424


--------------------------------------------------------------------------------------------------------




----------------------------------------- Iteration    1(  12)  ---------------------------------------


    POTLOK:  VPU time    0.33: CPU time    0.33
    SETDIJ:  VPU time    0.74: CPU time    0.74
    EDDAV :  VPU time  255.64: CPU time  255.99
    DOS   :  VPU time   -0.00: CPU time   -0.00
    CHARGE:  VPU time    9.72: CPU time    9.73
    MIXING:  VPU time    0.01: CPU time    0.01
    ------------------------------------------
      LOOP:  VPU time  266.50: CPU time  266.86

 eigenvalue-minimisations  : 18560
 total energy-change (2. order) : 0.6507713E-04  (-0.7609894E-04)
 number of electron  351.9999998 magnetization 
 augmentation part   230.1650976 magnetization 

 Broyden mixing:
  rms(total) = 0.17516E-02    rms(broyden)= 0.17514E-02
  rms(prec ) = 0.23468E-02
  weight for this iteration     100.00

 eigenvalues of (default mixing * dielectric matrix)
  average eigenvalue GAMMA=   1.1551
  2.5792  2.3835  0.8760  0.8760  0.6883  0.3505  0.3318

 Free energy of the ion-electron system (eV)
  ---------------------------------------------------
  alpha Z        PSCENC =      3400.89143748
  Ewald energy   TEWEN  =    -35148.22571707
  -1/2 Hartree   DENC   =     -9846.07181835
  -V(xc)+E(xc)   XCENC  =      1368.73162242
  PAW double counting   =     35054.31757169   -39684.84906732
  entropy T*S    EENTRO =        -0.00103562
  eigenvalues    EBANDS =       224.91959008
  atomic energy  EATOM  =     44511.25856501
  ---------------------------------------------------
  free energy    TOTEN  =      -119.02885169 eV

  energy without entropy =     -119.02781607  energy(sigma->0) =     -119.02833388


--------------------------------------------------------------------------------------------------------




----------------------------------------- Iteration    1(  13)  ---------------------------------------


    POTLOK:  VPU time    0.33: CPU time    0.33
    SETDIJ:  VPU time    0.73: CPU time    0.73
    EDDAV :  VPU time  253.47: CPU time  253.57
    DOS   :  VPU time    0.00: CPU time   -0.00
    CHARGE:  VPU time    9.46: CPU time    9.46
    MIXING:  VPU time    0.01: CPU time    0.02
    ------------------------------------------
      LOOP:  VPU time  264.06: CPU time  264.17

 eigenvalue-minimisations  : 18336
 total energy-change (2. order) :-0.4306325E-04  (-0.1418915E-04)
 number of electron  351.9999998 magnetization 
 augmentation part   230.1664018 magnetization 

 Broyden mixing:
  rms(total) = 0.19200E-02    rms(broyden)= 0.19199E-02
  rms(prec ) = 0.28722E-02
  weight for this iteration     100.00

 eigenvalues of (default mixing * dielectric matrix)
  average eigenvalue GAMMA=   1.0838
  2.5751  2.3992  0.8060  0.7150  0.7500  0.7500  0.3521  0.3228

 Free energy of the ion-electron system (eV)
  ---------------------------------------------------
  alpha Z        PSCENC =      3400.89143748
  Ewald energy   TEWEN  =    -35148.22571707
  -1/2 Hartree   DENC   =     -9845.68923238
  -V(xc)+E(xc)   XCENC  =      1368.71201618
  PAW double counting   =     35060.39515825   -39691.03121244
  entropy T*S    EENTRO =        -0.00103884
  eigenvalues    EBANDS =       224.66112905
  atomic energy  EATOM  =     44511.25856501
  ---------------------------------------------------
  free energy    TOTEN  =      -119.02889475 eV

  energy without entropy =     -119.02785591  energy(sigma->0) =     -119.02837533


--------------------------------------------------------------------------------------------------------




----------------------------------------- Iteration    1(  14)  ---------------------------------------


    POTLOK:  VPU time    0.38: CPU time    0.50
    SETDIJ:  VPU time    0.74: CPU time    0.74
    EDDAV :  VPU time  256.18: CPU time  256.64
    DOS   :  VPU time    0.00: CPU time   -0.00
    CHARGE:  VPU time    9.71: CPU time    9.73
    MIXING:  VPU time    0.01: CPU time    0.01
    ------------------------------------------
      LOOP:  VPU time  267.09: CPU time  267.69

 eigenvalue-minimisations  : 18624
 total energy-change (2. order) : 0.7902905E-05  (-0.2077707E-05)
 number of electron  351.9999998 magnetization 
 augmentation part   230.1653400 magnetization 

 Broyden mixing:
  rms(total) = 0.14842E-02    rms(broyden)= 0.14841E-02
  rms(prec ) = 0.22395E-02
  weight for this iteration     100.00

 eigenvalues of (default mixing * dielectric matrix)
  average eigenvalue GAMMA=   1.1470
  2.5901  2.3173  1.4025  1.4025  0.8980  0.6956  0.3300  0.3433  0.3433

 Free energy of the ion-electron system (eV)
  ---------------------------------------------------
  alpha Z        PSCENC =      3400.89143748
  Ewald energy   TEWEN  =    -35148.22571707
  -1/2 Hartree   DENC   =     -9845.83390950
  -V(xc)+E(xc)   XCENC  =      1368.71855678
  PAW double counting   =     35060.77506515   -39691.32983412
  entropy T*S    EENTRO =        -0.00103840
  eigenvalues    EBANDS =       224.71798784
  atomic energy  EATOM  =     44511.25856501
  ---------------------------------------------------
  free energy    TOTEN  =      -119.02888685 eV

  energy without entropy =     -119.02784844  energy(sigma->0) =     -119.02836764


--------------------------------------------------------------------------------------------------------




----------------------------------------- Iteration    1(  15)  ---------------------------------------


    POTLOK:  VPU time    0.35: CPU time    0.39
    SETDIJ:  VPU time    0.74: CPU time    0.74
    EDDAV :  VPU time  258.51: CPU time  259.02
    DOS   :  VPU time    0.00: CPU time   -0.00
    CHARGE:  VPU time    9.83: CPU time    9.85
    MIXING:  VPU time    0.01: CPU time    0.01
    ------------------------------------------
      LOOP:  VPU time  269.50: CPU time  270.09

 eigenvalue-minimisations  : 18824
 total energy-change (2. order) : 0.1355934E-04  (-0.7368060E-06)
 number of electron  351.9999998 magnetization 
 augmentation part   230.1627876 magnetization 

 Broyden mixing:
  rms(total) = 0.52100E-03    rms(broyden)= 0.52098E-03
  rms(prec ) = 0.79520E-03
  weight for this iteration     100.00

 eigenvalues of (default mixing * dielectric matrix)
  average eigenvalue GAMMA=   1.1894
  2.4990  2.4990  1.9736  1.4253  0.6929  0.8911  0.8911  0.3560  0.3276  0.3382

 Free energy of the ion-electron system (eV)
  ---------------------------------------------------
  alpha Z        PSCENC =      3400.89143748
  Ewald energy   TEWEN  =    -35148.22571707
  -1/2 Hartree   DENC   =     -9846.07653278
  -V(xc)+E(xc)   XCENC  =      1368.72977436
  PAW double counting   =     35061.09027459   -39691.54291071
  entropy T*S    EENTRO =        -0.00103706
  eigenvalues    EBANDS =       224.84727291
  atomic energy  EATOM  =     44511.25856501
  ---------------------------------------------------
  free energy    TOTEN  =      -119.02887329 eV

  energy without entropy =     -119.02783623  energy(sigma->0) =     -119.02835476


--------------------------------------------------------------------------------------------------------




----------------------------------------- Iteration    1(  16)  ---------------------------------------


    POTLOK:  VPU time    0.33: CPU time    0.34
    SETDIJ:  VPU time    0.74: CPU time    0.74
    EDDAV :  VPU time  264.76: CPU time  265.12
    DOS   :  VPU time   -0.00: CPU time   -0.00
    CHARGE:  VPU time    9.72: CPU time    9.73
    MIXING:  VPU time    0.02: CPU time    0.02
    ------------------------------------------
      LOOP:  VPU time  275.62: CPU time  276.02

 eigenvalue-minimisations  : 19472
 total energy-change (2. order) : 0.4270260E-06  (-0.8942081E-06)
 number of electron  351.9999998 magnetization 
 augmentation part   230.1595994 magnetization 

 Broyden mixing:
  rms(total) = 0.36299E-03    rms(broyden)= 0.36296E-03
  rms(prec ) = 0.54773E-03
  weight for this iteration     100.00

 eigenvalues of (default mixing * dielectric matrix)
  average eigenvalue GAMMA=   1.1375
  2.5467  2.5467  2.1461  1.3388  0.9238  0.9238  0.6935  0.3234  0.3652  0.3522
  0.3522

 Free energy of the ion-electron system (eV)
  ---------------------------------------------------
  alpha Z        PSCENC =      3400.89143748
  Ewald energy   TEWEN  =    -35148.22571707
  -1/2 Hartree   DENC   =     -9846.17076891
  -V(xc)+E(xc)   XCENC  =      1368.73428232
  PAW double counting   =     35061.85168422   -39692.33034049
  entropy T*S    EENTRO =        -0.00103580
  eigenvalues    EBANDS =       224.96302040
  atomic energy  EATOM  =     44511.25856501
  ---------------------------------------------------
  free energy    TOTEN  =      -119.02887286 eV

  energy without entropy =     -119.02783706  energy(sigma->0) =     -119.02835496


--------------------------------------------------------------------------------------------------------




----------------------------------------- Iteration    1(  17)  ---------------------------------------


    POTLOK:  VPU time    0.46: CPU time    0.47
    SETDIJ:  VPU time    0.74: CPU time    0.74
    EDDAV :  VPU time  255.24: CPU time  255.35
    DOS   :  VPU time   -0.00: CPU time   -0.00
    CHARGE:  VPU time    9.66: CPU time    9.67
    MIXING:  VPU time    0.01: CPU time    0.02
    ------------------------------------------
      LOOP:  VPU time  266.17: CPU time  266.30

 eigenvalue-minimisations  : 18536
 total energy-change (2. order) :-0.9969881E-06  (-0.1331282E-06)
 number of electron  351.9999998 magnetization 
 augmentation part   230.1596235 magnetization 

 Broyden mixing:
  rms(total) = 0.27593E-03    rms(broyden)= 0.27592E-03
  rms(prec ) = 0.41041E-03
  weight for this iteration     100.00

 eigenvalues of (default mixing * dielectric matrix)
  average eigenvalue GAMMA=   1.1306
  2.5415  2.5415  1.7841  1.7841  0.9139  0.9787  0.9787  0.6937  0.3534  0.3307
  0.3333  0.3333

 Free energy of the ion-electron system (eV)
  ---------------------------------------------------
  alpha Z        PSCENC =      3400.89143748
  Ewald energy   TEWEN  =    -35148.22571707
  -1/2 Hartree   DENC   =     -9846.15812322
  -V(xc)+E(xc)   XCENC  =      1368.73363666
  PAW double counting   =     35061.96618936   -39692.44845449
  entropy T*S    EENTRO =        -0.00103590
  eigenvalues    EBANDS =       224.95462831
  atomic energy  EATOM  =     44511.25856501
  ---------------------------------------------------
  free energy    TOTEN  =      -119.02887386 eV

  energy without entropy =     -119.02783796  energy(sigma->0) =     -119.02835591


--------------------------------------------------------------------------------------------------------




----------------------------------------- Iteration    1(  18)  ---------------------------------------


    POTLOK:  VPU time    0.41: CPU time    0.43
    SETDIJ:  VPU time    0.73: CPU time    0.74
    EDDAV :  VPU time  252.28: CPU time  254.80
    DOS   :  VPU time    0.00: CPU time   -0.00
    CHARGE:  VPU time    9.73: CPU time    9.82
    MIXING:  VPU time    0.02: CPU time    0.02
    ------------------------------------------
      LOOP:  VPU time  263.21: CPU time  265.88

 eigenvalue-minimisations  : 18536
 total energy-change (2. order) :-0.2107954E-05  (-0.5340752E-07)
 number of electron  351.9999998 magnetization 
 augmentation part   230.1606918 magnetization 

 Broyden mixing:
  rms(total) = 0.43944E-04    rms(broyden)= 0.43907E-04
  rms(prec ) = 0.66752E-04
  weight for this iteration     100.00

 eigenvalues of (default mixing * dielectric matrix)
  average eigenvalue GAMMA=   1.1473
  2.5551  2.5551  1.8249  1.8249  1.2096  1.2096  0.9064  0.6925  0.7803  0.3565
  0.3416  0.3294  0.3294

 Free energy of the ion-electron system (eV)
  ---------------------------------------------------
  alpha Z        PSCENC =      3400.89143748
  Ewald energy   TEWEN  =    -35148.22571707
  -1/2 Hartree   DENC   =     -9846.10671388
  -V(xc)+E(xc)   XCENC  =      1368.73106072
  PAW double counting   =     35062.03355557   -39692.51276394
  entropy T*S    EENTRO =        -0.00103648
  eigenvalues    EBANDS =       224.90273664
  atomic energy  EATOM  =     44511.25856501
  ---------------------------------------------------
  free energy    TOTEN  =      -119.02887596 eV

  energy without entropy =     -119.02783948  energy(sigma->0) =     -119.02835772


--------------------------------------------------------------------------------------------------------




----------------------------------------- Iteration    1(  19)  ---------------------------------------


    POTLOK:  VPU time    0.33: CPU time    0.33
    SETDIJ:  VPU time    0.74: CPU time    0.74
    EDDAV :  VPU time  247.24: CPU time  248.09
    DOS   :  VPU time    0.00: CPU time   -0.00
    CHARGE:  VPU time    9.09: CPU time    9.13
    MIXING:  VPU time    0.02: CPU time    0.02
    ------------------------------------------
      LOOP:  VPU time  257.48: CPU time  258.38

 eigenvalue-minimisations  : 17856
 total energy-change (2. order) :-0.3593232E-06  (-0.9829175E-08)
 number of electron  351.9999998 magnetization 
 augmentation part   230.1607162 magnetization 

 Broyden mixing:
  rms(total) = 0.50407E-04    rms(broyden)= 0.50382E-04
  rms(prec ) = 0.74805E-04
  weight for this iteration     100.00

 eigenvalues of (default mixing * dielectric matrix)
  average eigenvalue GAMMA=   1.1596
  2.6199  2.6199  2.1851  1.7621  1.7621  1.0130  0.9378  0.9378  0.6933  0.3567
  0.3284  0.3284  0.3448  0.3448

 Free energy of the ion-electron system (eV)
  ---------------------------------------------------
  alpha Z        PSCENC =      3400.89143748
  Ewald energy   TEWEN  =    -35148.22571707
  -1/2 Hartree   DENC   =     -9846.10805265
  -V(xc)+E(xc)   XCENC  =      1368.73110589
  PAW double counting   =     35062.07378849   -39692.55356102
  entropy T*S    EENTRO =        -0.00103646
  eigenvalues    EBANDS =       224.90459403
  atomic energy  EATOM  =     44511.25856501
  ---------------------------------------------------
  free energy    TOTEN  =      -119.02887632 eV

  energy without entropy =     -119.02783986  energy(sigma->0) =     -119.02835809


--------------------------------------------------------------------------------------------------------




----------------------------------------- Iteration    1(  20)  ---------------------------------------


    POTLOK:  VPU time    0.40: CPU time    0.41
    SETDIJ:  VPU time    0.73: CPU time    0.74
    EDDAV :  VPU time  198.90: CPU time  200.92
    DOS   :  VPU time    0.00: CPU time   -0.00
    CHARGE:  VPU time    9.45: CPU time    9.55
    MIXING:  VPU time    0.02: CPU time    0.02
    ------------------------------------------
      LOOP:  VPU time  209.56: CPU time  211.71

 eigenvalue-minimisations  : 13296
 total energy-change (2. order) :-0.8688221E-07  (-0.3449221E-08)
 number of electron  351.9999998 magnetization 
 augmentation part   230.1605828 magnetization 

 Broyden mixing:
  rms(total) = 0.23680E-04    rms(broyden)= 0.23629E-04
  rms(prec ) = 0.32031E-04
  weight for this iteration     100.00

 eigenvalues of (default mixing * dielectric matrix)
  average eigenvalue GAMMA=   1.1540
  2.5930  2.5930  2.1319  2.1319  1.7357  0.9568  0.9568  0.9328  0.8961  0.6934
  0.3553  0.3453  0.3363  0.3261  0.3261

 Free energy of the ion-electron system (eV)
  ---------------------------------------------------
  alpha Z        PSCENC =      3400.89143748
  Ewald energy   TEWEN  =    -35148.22571707
  -1/2 Hartree   DENC   =     -9846.11366339
  -V(xc)+E(xc)   XCENC  =      1368.73137562
  PAW double counting   =     35062.09978115   -39692.58131241
  entropy T*S    EENTRO =        -0.00103638
  eigenvalues    EBANDS =       224.91169360
  atomic energy  EATOM  =     44511.25856501
  ---------------------------------------------------
  free energy    TOTEN  =      -119.02887641 eV

  energy without entropy =     -119.02784003  energy(sigma->0) =     -119.02835822


--------------------------------------------------------------------------------------------------------




----------------------------------------- Iteration    1(  21)  ---------------------------------------


    POTLOK:  VPU time    0.41: CPU time    0.45
    SETDIJ:  VPU time    0.73: CPU time    0.74
    EDDAV :  VPU time  161.36: CPU time  163.00
    DOS   :  VPU time    0.00: CPU time   -0.00
    CHARGE:  VPU time    8.83: CPU time    8.92
    MIXING:  VPU time    0.02: CPU time    0.02
    ------------------------------------------
      LOOP:  VPU time  171.40: CPU time  173.20

 eigenvalue-minimisations  :  9616
 total energy-change (2. order) :-0.1526496E-06  (-0.4673445E-09)
 number of electron  351.9999998 magnetization 
 augmentation part   230.1605411 magnetization 

 Broyden mixing:
  rms(total) = 0.10616E-04    rms(broyden)= 0.10503E-04
  rms(prec ) = 0.15286E-04
  weight for this iteration     100.00

 eigenvalues of (default mixing * dielectric matrix)
  average eigenvalue GAMMA=   1.1439
  2.5748  2.5748  2.3665  2.3665  1.4416  1.1608  1.1608  0.9265  0.9265  0.6933
  0.4271  0.3554  0.3409  0.3409  0.3265  0.3197

 Free energy of the ion-electron system (eV)
  ---------------------------------------------------
  alpha Z        PSCENC =      3400.89143748
  Ewald energy   TEWEN  =    -35148.22571707
  -1/2 Hartree   DENC   =     -9846.11282218
  -V(xc)+E(xc)   XCENC  =      1368.73134123
  PAW double counting   =     35062.10784114   -39692.59158285
  entropy T*S    EENTRO =        -0.00103637
  eigenvalues    EBANDS =       224.91309706
  atomic energy  EATOM  =     44511.25856501
  ---------------------------------------------------
  free energy    TOTEN  =      -119.02887656 eV

  energy without entropy =     -119.02784020  energy(sigma->0) =     -119.02835838


--------------------------------------------------------------------------------------------------------




----------------------------------------- Iteration    1(  22)  ---------------------------------------


    POTLOK:  VPU time    0.40: CPU time    0.45
    SETDIJ:  VPU time    0.74: CPU time    0.74
    EDDAV :  VPU time  162.90: CPU time  163.12
    DOS   :  VPU time    0.00: CPU time   -0.00
    CHARGE:  VPU time    9.33: CPU time    9.34
    MIXING:  VPU time    0.02: CPU time    0.02
    ------------------------------------------
      LOOP:  VPU time  173.45: CPU time  173.73

 eigenvalue-minimisations  :  9600
 total energy-change (2. order) :-0.1400476E-06  (-0.1777203E-09)
 number of electron  351.9999998 magnetization 
 augmentation part   230.1605391 magnetization 

 Broyden mixing:
  rms(total) = 0.83266E-05    rms(broyden)= 0.81821E-05
  rms(prec ) = 0.11606E-04
  weight for this iteration     100.00

 eigenvalues of (default mixing * dielectric matrix)
  average eigenvalue GAMMA=   1.1528
  2.5824  2.5398  2.2639  2.2639  1.6198  1.6198  1.1740  0.9403  0.9453  0.9453
  0.6934  0.3548  0.3451  0.3451  0.3266  0.3266  0.3123

 Free energy of the ion-electron system (eV)
  ---------------------------------------------------
  alpha Z        PSCENC =      3400.89143748
  Ewald energy   TEWEN  =    -35148.22571707
  -1/2 Hartree   DENC   =     -9846.11141628
  -V(xc)+E(xc)   XCENC  =      1368.73127368
  PAW double counting   =     35062.11418383   -39692.59903420
  entropy T*S    EENTRO =        -0.00103637
  eigenvalues    EBANDS =       224.91286723
  atomic energy  EATOM  =     44511.25856501
  ---------------------------------------------------
  free energy    TOTEN  =      -119.02887670 eV

  energy without entropy =     -119.02784033  energy(sigma->0) =     -119.02835852


--------------------------------------------------------------------------------------------------------




----------------------------------------- Iteration    1(  23)  ---------------------------------------


    POTLOK:  VPU time    0.72: CPU time    0.76
    SETDIJ:  VPU time    0.73: CPU time    0.73
    EDDAV :  VPU time  162.84: CPU time  163.07
    DOS   :  VPU time    0.00: CPU time   -0.00
    CHARGE:  VPU time    9.63: CPU time    9.65
    MIXING:  VPU time    0.02: CPU time    0.02
    ------------------------------------------
      LOOP:  VPU time  173.99: CPU time  174.29

 eigenvalue-minimisations  :  9600
 total energy-change (2. order) :-0.1006629E-06  (-0.1604993E-09)
 number of electron  351.9999998 magnetization 
 augmentation part   230.1605728 magnetization 

 Broyden mixing:
  rms(total) = 0.47945E-05    rms(broyden)= 0.45390E-05
  rms(prec ) = 0.66560E-05
  weight for this iteration     100.00

 eigenvalues of (default mixing * dielectric matrix)
  average eigenvalue GAMMA=   1.1840
  2.4998  2.4998  2.5877  2.5877  2.0175  1.4247  1.2771  0.9743  0.9471  0.9471
  0.6934  0.8569  0.3554  0.3428  0.3428  0.3280  0.3280  0.3024

 Free energy of the ion-electron system (eV)
  ---------------------------------------------------
  alpha Z        PSCENC =      3400.89143748
  Ewald energy   TEWEN  =    -35148.22571707
  -1/2 Hartree   DENC   =     -9846.10983179
  -V(xc)+E(xc)   XCENC  =      1368.73119182
  PAW double counting   =     35062.11765383   -39692.60236447
  entropy T*S    EENTRO =        -0.00103639
  eigenvalues    EBANDS =       224.91122477
  atomic energy  EATOM  =     44511.25856501
  ---------------------------------------------------
  free energy    TOTEN  =      -119.02887680 eV

  energy without entropy =     -119.02784042  energy(sigma->0) =     -119.02835861


--------------------------------------------------------------------------------------------------------




----------------------------------------- Iteration    1(  24)  ---------------------------------------


    POTLOK:  VPU time    0.33: CPU time    0.33
    SETDIJ:  VPU time    0.74: CPU time    0.74
    EDDAV :  VPU time  162.34: CPU time  162.40
    DOS   :  VPU time    0.00: CPU time   -0.00
    ------------------------------------------
      LOOP:  VPU time  163.46: CPU time  163.53

 eigenvalue-minimisations  :  9576
 total energy-change (2. order) :-0.9291398E-08  (-0.3788680E-10)
 number of electron  351.9999998 magnetization 
 augmentation part   230.1605728 magnetization 

 Free energy of the ion-electron system (eV)
  ---------------------------------------------------
  alpha Z        PSCENC =      3400.89143748
  Ewald energy   TEWEN  =    -35148.22571707
  -1/2 Hartree   DENC   =     -9846.10978101
  -V(xc)+E(xc)   XCENC  =      1368.73118626
  PAW double counting   =     35062.11701871   -39692.60134937
  entropy T*S    EENTRO =        -0.00103639
  eigenvalues    EBANDS =       224.91079959
  atomic energy  EATOM  =     44511.25856501
  ---------------------------------------------------
  free energy    TOTEN  =      -119.02887681 eV

  energy without entropy =     -119.02784042  energy(sigma->0) =     -119.02835862


--------------------------------------------------------------------------------------------------------




 average (electrostatic) potential at core
  the test charge radii are     1.0053
  (the norm of the test charge is              1.0000)
       1 -40.0434       2 -40.0419       3 -40.0418       4 -40.0418       5 -40.0418
       6 -40.0418       7 -40.0418       8 -40.0418       9 -40.0496      10 -40.0345
      11 -40.0496      12 -40.0345      13 -40.0421      14 -40.0417      15 -40.0421
      16 -40.0417      17 -40.0496      18 -40.0345      19 -40.0421      20 -40.0417
      21 -40.0496      22 -40.0345      23 -40.0421      24 -40.0417      25 -40.0417
      26 -40.0419      27 -40.0417      28 -40.0419      29 -40.0417      30 -40.0419
      31 -40.0417      32 -40.0419
 
 
 
 E-fermi :   3.6391     XC(G=0): -12.6972     alpha+bet : -9.4615
   add alpha+bet to get absolut eigen values

 k-point   1 :       0.0000    0.0000    0.0000
  band No.  band energies     occupation 
      1      -5.5736      2.00000
      2      -2.8596      2.00000
      3      -2.8419      2.00000
      4      -2.8418      2.00000
      5      -2.8418      2.00000
      6      -2.8418      2.00000
      7      -2.8247      2.00000
      8      -1.3535      2.00000
      9      -1.3535      2.00000
     10      -1.3534      2.00000
     11      -1.3533      2.00000
     12      -1.1524      2.00000
     13      -1.1515      2.00000
     14      -1.1513      2.00000
     15      -0.9953      2.00000
     16      -0.9839      2.00000
     17      -0.9839      2.00000
     18      -0.9775      2.00000
     19      -0.9765      2.00000
     20      -0.9764      2.00000
     21      -0.9761      2.00000
     22      -0.9761      2.00000
     23      -0.9747      2.00000
     24      -0.9687      2.00000
     25      -0.9687      2.00000
     26      -0.9562      2.00000
     27      -0.7110      2.00000
     28      -0.7106      2.00000
     29      -0.7106      2.00000
     30      -0.4398      2.00000
     31      -0.4286      2.00000
     32      -0.4286      2.00000
     33      -0.4286      2.00000
     34      -0.4285      2.00000
     35      -0.4187      2.00000
     36      -0.0624      2.00000
     37      -0.0524      2.00000
     38      -0.0524      2.00000
     39      -0.0515      2.00000
     40      -0.0514      2.00000
     41      -0.0432      2.00000
     42       0.1336      2.00000
     43       0.1414      2.00000
     44       0.1414      2.00000
     45       0.1549      2.00000
     46       0.1549      2.00000
     47       0.1550      2.00000
     48       0.1550      2.00000
     49       0.1557      2.00000
     50       0.1561      2.00000
     51       0.1561      2.00000
     52       0.1562      2.00000
     53       0.1577      2.00000
     54       0.1577      2.00000
     55       0.1584      2.00000
     56       0.1584      2.00000
     57       0.1587      2.00000
     58       0.1589      2.00000
     59       0.1596      2.00000
     60       0.1596      2.00000
     61       0.1598      2.00000
     62       0.1601      2.00000
     63       0.1716      2.00000
     64       0.1716      2.00000
     65       0.1834      2.00000
     66       0.3469      2.00000
     67       0.3602      2.00000
     68       0.3602      2.00000
     69       0.3610      2.00000
     70       0.3629      2.00000
     71       0.3629      2.00000
     72       0.3630      2.00000
     73       0.3636      2.00000
     74       0.3637      2.00000
     75       0.3659      2.00000
     76       0.3659      2.00000
     77       0.3789      2.00000
     78       0.6133      2.00000
     79       0.6137      2.00000
     80       0.6137      2.00000
     81       0.6145      2.00000
     82       0.6146      2.00000
     83       0.6146      2.00000
     84       0.6149      2.00000
     85       0.6154      2.00000
     86       0.6423      2.00000
     87       0.6423      2.00000
     88       0.6431      2.00000
     89       0.9995      2.00000
     90       1.0072      2.00000
     91       1.0090      2.00000
     92       1.0090      2.00000
     93       1.0091      2.00000
     94       1.0173      2.00000
     95       1.1238      2.00000
     96       1.1279      2.00000
     97       1.1309      2.00000
     98       1.1309      2.00000
     99       1.1341      2.00000
    100       1.1341      2.00000
    101       1.1341      2.00000
    102       1.1342      2.00000
    103       1.1367      2.00000
    104       1.1367      2.00000
    105       1.1424      2.00000
    106       1.1426      2.00000
    107       1.2753      2.00000
    108       1.2753      2.00000
    109       1.2852      2.00000
    110       1.2852      2.00000
    111       1.2864      2.00000
    112       1.2865      2.00000
    113       1.2870      2.00000
    114       1.2870      2.00000
    115       1.2876      2.00000
    116       1.2876      2.00000
    117       1.2961      2.00000
    118       1.2961      2.00000
    119       1.4043      2.00000
    120       1.4092      2.00000
    121       1.4092      2.00000
    122       1.4107      2.00000
    123       1.4109      2.00000
    124       1.4155      2.00000
    125       1.4335      2.00000
    126       1.4335      2.00000
    127       1.4397      2.00000
    128       1.4401      2.00000
    129       1.4420      2.00000
    130       1.4423      2.00000
    131       1.4424      2.00000
    132       1.4424      2.00000
    133       1.4428      2.00000
    134       1.4449      2.00000
    135       1.4485      2.00000
    136       1.4531      2.00000
    137       1.4545      2.00000
    138       1.4545      2.00000
    139       1.7081      2.00000
    140       1.7129      2.00000
    141       1.7130      2.00000
    142       1.7130      2.00000
    143       1.7130      2.00000
    144       1.7176      2.00000
    145       1.9829      2.00000
    146       1.9831      2.00000
    147       1.9833      2.00000
    148       1.9965      2.00000
    149       1.9968      2.00000
    150       1.9968      2.00000
    151       1.9968      2.00000
    152       1.9970      2.00000
    153       1.9970      2.00000
    154       1.9970      2.00000
    155       1.9974      2.00000
    156       2.1293      2.00000
    157       2.1325      2.00000
    158       2.1330      2.00000
    159       2.1330      2.00000
    160       2.1332      2.00000
    161       2.1332      2.00000
    162       2.1336      2.00000
    163       2.1338      2.00000
    164       2.1338      2.00000
    165       2.1339      2.00000
    166       2.1340      2.00000
    167       2.1375      2.00000
    168       2.6959      2.00000
    169       2.6966      2.00000
    170       2.6966      2.00000
    171       2.6968      2.00000
    172       3.2982      2.00000
    173       3.2995      2.00000
    174       3.2995      2.00000
    175       3.3048      2.00000
    176       3.3062      2.00000
    177       3.3063      2.00000
    178       3.3063      2.00000
    179       3.3063      2.00000
    180       3.3082      2.00000
    181       3.3132      2.00000
    182       3.3132      2.00000
    183       3.3145      2.00000
    184       5.1652      0.00000
    185       5.1652      0.00000
    186       5.1668      0.00000
    187       7.3024      0.00000
    188       7.3024      0.00000
    189       7.3027      0.00000
    190       7.3030      0.00000
    191       9.7663      0.00000
    192       9.7663      0.00000
    193       9.7860      0.00000
    194       9.7860      0.00000
    195       9.7882      0.00000
    196       9.7882      0.00000
    197       9.7884      0.00000
    198       9.7898      0.00000
    199       9.7903      0.00000
    200       9.7903      0.00000
    201       9.8095      0.00000
    202       9.8095      0.00000
    203      10.6351      0.00000
    204      10.6363      0.00000
    205      10.6363      0.00000
    206      11.8574      0.00000
    207      11.8739      0.00000
    208      11.8739      0.00000
    209      11.8744      0.00000
    210      11.8744      0.00000
    211      11.8880      0.00000
[...]
     72       0.6186      2.00000
     73       0.6199      2.00000
     74       0.6442      2.00000
     75       0.6481      2.00000
     76       0.6523      2.00000
     77       0.6861      2.00000
     78       0.6864      2.00000
     79       0.6913      2.00000
     80       0.6920      2.00000
     81       0.6945      2.00000
     82       0.6948      2.00000
     83       0.6996      2.00000
     84       0.7045      2.00000
     85       0.7088      2.00000
     86       0.7712      2.00000
     87       0.7719      2.00000
     88       0.7844      2.00000
     89       0.7868      2.00000
     90       0.7911      2.00000
     91       0.7984      2.00000
     92       0.7993      2.00000
     93       0.8024      2.00000
     94       0.8034      2.00000
     95       0.8037      2.00000
     96       0.8057      2.00000
     97       0.8067      2.00000
     98       0.8083      2.00000
     99       0.8129      2.00000
    100       0.8150      2.00000
    101       0.8166      2.00000
    102       0.8423      2.00000
    103       0.8442      2.00000
    104       0.8448      2.00000
    105       1.1142      2.00000
    106       1.1146      2.00000
    107       1.1151      2.00000
    108       1.2169      2.00000
    109       1.2174      2.00000
    110       1.2221      2.00000
    111       1.2226      2.00000
    112       1.2257      2.00000
    113       1.2268      2.00000
    114       1.2304      2.00000
    115       1.2356      2.00000
    116       1.2407      2.00000
    117       1.2983      2.00000
    118       1.3037      2.00000
    119       1.3091      2.00000
    120       1.3383      2.00000
    121       1.3387      2.00000
    122       1.3423      2.00000
    123       1.3423      2.00000
    124       1.3462      2.00000
    125       1.3462      2.00000
    126       1.4258      2.00000
    127       1.4270      2.00000
    128       1.4271      2.00000
    129       1.4486      2.00000
    130       1.4522      2.00000
    131       1.4552      2.00000
    132       1.4649      2.00000
    133       1.4654      2.00000
    134       1.4826      2.00000
    135       1.4875      2.00000
    136       1.4913      2.00000
    137       1.5630      2.00000
    138       1.5668      2.00000
    139       1.5708      2.00000
    140       1.6120      2.00000
    141       1.6121      2.00000
    142       1.6333      2.00000
    143       1.6362      2.00000
    144       1.6389      2.00000
    145       2.0045      2.00000
    146       2.0049      2.00000
    147       2.0066      2.00000
    148       2.0171      2.00000
    149       2.0185      2.00000
    150       2.0195      2.00000
    151       2.0196      2.00000
    152       2.0201      2.00000
    153       2.0203      2.00000
    154       2.0211      2.00000
    155       2.0213      2.00000
    156       2.0215      2.00000
    157       2.0220      2.00000
    158       2.0224      2.00000
    159       2.0242      2.00000
    160       2.0269      2.00000
    161       2.0269      2.00000
    162       2.0279      2.00000
    163       2.0359      2.00000
    164       2.0366      2.00000
    165       2.0378      2.00000
    166       2.0457      2.00000
    167       2.0458      2.00000
    168       2.0465      2.00000
    169       3.7273      0.00000
    170       3.7323      0.00000
    171       3.7370      0.00000
    172       4.0951      0.00000
    173       4.0977      0.00000
    174       4.1031      0.00000
    175       4.1031      0.00000
    176       4.1080      0.00000
    177       4.1112      0.00000
    178       4.3920      0.00000
    179       4.3931      0.00000
    180       4.3933      0.00000
    181       4.6885      0.00000
    182       4.6896      0.00000
    183       4.6910      0.00000
    184       5.1112      0.00000
    185       5.1157      0.00000
    186       5.1208      0.00000
    187       5.1211      0.00000
    188       5.1259      0.00000
    189       5.1307      0.00000
    190       5.4549      0.00000
    191       5.4610      0.00000
    192       5.4677      0.00000
    193       9.0258      0.00000
    194       9.0287      0.00000
    195       9.0309      0.00000
    196       9.4645      0.00000
    197       9.4671      0.00000
    198       9.4701      0.00000
    199      10.0723      0.00000
    200      10.0759      0.00000
    201      10.0852      0.00000
    202      10.0852      0.00000
    203      10.0936      0.00000
    204      10.0971      0.00000
    205      10.5361      0.00000
    206      10.5386      0.00000
    207      10.5467      0.00000
    208      10.5468      0.00000
    209      10.5555      0.00000
    210      10.5579      0.00000
    211      11.1852      0.00000
    212      11.1882      0.00000
    213      11.1906      0.00000
    214      11.6548      0.00000
    215      11.6584      0.00000
    216      11.6616      0.00000


--------------------------------------------------------------------------------------------------------


 soft charge-density along one line, spin component           1
         0         1         2         3         4         5         6         7         8         9
 total charge-density along one line
 
 pseudopotential strength for first ion, spin component:           1
 -6.510   0.000   0.000   0.000  -0.000  -0.224  -0.000  -0.000
  0.000  -6.510  -0.000  -0.000  -0.000  -0.000  -0.224   0.000
  0.000  -0.000  -6.492   0.000  -0.000  -0.000   0.000  -0.232
  0.000  -0.000   0.000  -6.510  -0.000  -0.000   0.000  -0.000
 -0.000  -0.000  -0.000  -0.000  -6.492   0.000   0.000   0.000
 -0.224  -0.000  -0.000  -0.000   0.000   1.669   0.000   0.000
 -0.000  -0.224   0.000   0.000   0.000   0.000   1.669  -0.000
 -0.000   0.000  -0.232  -0.000   0.000   0.000  -0.000   1.672
 -0.000   0.000  -0.000  -0.224   0.000   0.000  -0.000   0.000
  0.000   0.000   0.000   0.000  -0.232  -0.000  -0.000  -0.000
  0.000  -0.000   0.000   0.000  -0.000   0.000  -0.000  -0.000
 -0.000   0.000  -0.000  -0.000   0.000   0.000  -0.000   0.000
  0.000   0.000   0.000  -0.000   0.000   0.000  -0.000   0.000
 -0.000  -0.000   0.000   0.000   0.000  -0.000   0.000  -0.000
 -0.000  -0.000  -0.000   0.000   0.000  -0.000  -0.000  -0.000
 -0.000  -0.000  -0.000   0.000   0.000  -0.000   0.000   0.000
  0.000  -0.000   0.000  -0.000  -0.000  -0.000  -0.000  -0.000
  0.000   0.000  -0.000  -0.000   0.000  -0.000  -0.000   0.000
 total augmentation occupancy for first ion, spin component:           1
  1.904  -0.000  -0.003  -0.001  -0.001  -0.014  -0.000   0.001   0.000   0.000   0.007   0.000   0.006   0.000  -0.000  -0.000
 -0.000   1.906  -0.000  -0.001  -0.003  -0.000  -0.017   0.001   0.001   0.001   0.005   0.000  -0.000   0.000  -0.000  -0.000
 -0.003  -0.000   1.921  -0.000  -0.003   0.001   0.001  -0.061   0.001   0.003   0.012   0.002   0.000  -0.000  -0.001  -0.000
 -0.001  -0.001  -0.000   1.909   0.001   0.000   0.001   0.001  -0.020   0.000   0.003  -0.000   0.000   0.006  -0.000  -0.000
 -0.001  -0.003  -0.003   0.001   1.910   0.000   0.001   0.003   0.000  -0.054   0.007   0.001   0.000   0.000   0.001   0.000
 -0.014  -0.000   0.001   0.000   0.000   0.075   0.000   0.001  -0.000  -0.000  -0.002   0.000   0.006  -0.000   0.000  -0.000
 -0.000  -0.017   0.001   0.001   0.001   0.000   0.078  -0.001  -0.000   0.001  -0.001   0.001   0.000  -0.000   0.000   0.000
  0.001   0.001  -0.061   0.001   0.003   0.001  -0.001   0.074  -0.001  -0.001  -0.007   0.000   0.000   0.000  -0.002   0.000
  0.000   0.001   0.001  -0.020   0.000  -0.000  -0.000  -0.001   0.080  -0.001   0.001   0.001  -0.000   0.006   0.000   0.000
  0.000   0.001   0.003   0.000  -0.054  -0.000   0.001  -0.001  -0.001   0.072  -0.004   0.000  -0.000  -0.000   0.003   0.000
  0.007   0.005   0.012   0.003   0.007  -0.002  -0.001  -0.007   0.001  -0.004   1.202  -0.352  -0.000   0.000   0.018   0.000
  0.000   0.000   0.002  -0.000   0.001   0.000   0.001   0.000   0.001   0.000  -0.352   0.149   0.000   0.000  -0.005  -0.000
  0.006  -0.000   0.000   0.000   0.000   0.006   0.000   0.000  -0.000  -0.000  -0.000   0.000   0.187  -0.001   0.001  -0.013
  0.000   0.000  -0.000   0.006   0.000  -0.000  -0.000   0.000   0.006  -0.000   0.000   0.000  -0.001   0.189  -0.002  -0.000
 -0.000  -0.000  -0.001  -0.000   0.001   0.000   0.000  -0.002   0.000   0.003   0.018  -0.005   0.001  -0.002   0.188  -0.000
 -0.000  -0.000  -0.000  -0.000   0.000  -0.000   0.000   0.000   0.000   0.000   0.000  -0.000  -0.013  -0.000  -0.000   0.001
 -0.000  -0.000  -0.000  -0.000   0.000   0.000   0.000  -0.000  -0.000   0.000   0.000  -0.000  -0.000  -0.013  -0.000   0.000
  0.000  -0.000   0.000   0.000  -0.000  -0.000  -0.000   0.000  -0.000  -0.000  -0.001   0.001  -0.000  -0.000  -0.013   0.000


------------------------ aborting loop because EDIFF is reached ----------------------------------------




--------------------------------------------------------------------------------------------------------


    CHARGE:  VPU time    9.79: CPU time    9.80
    FORLOC:  VPU time    0.03: CPU time    0.03
    FORNL :  VPU time   51.28: CPU time   51.29
    STRESS:  VPU time  113.50: CPU time  113.54
    FORCOR:  VPU time    0.32: CPU time    0.33
    FORHAR:  VPU time    0.10: CPU time    0.11
    MIXING:  VPU time    0.02: CPU time    0.02


--------------------------------------------------------------------------------------------------------



  FREE ENERGIE OF THE ION-ELECTRON SYSTEM (eV)
  ---------------------------------------------------
  free  energy   TOTEN  =      -119.028877 eV

  energy  without entropy=     -119.027840  energy(sigma->0) =     -119.028359
 

  FORCE on cell =-STRESS in cart. coord.  units (eV/reduce length):
  Direction    X        Y        Z        XY       YZ       ZX
  --------------------------------------------------------------------------------------
  Alpha Z   3400.89   3400.89   3400.89
  Ewald   -11717.21 -11715.58 -11715.58     -0.00     -0.00     -0.00
  Hartree   3281.26   3282.43   3282.43     -0.00     -0.00     -0.00
  E(xc)    -2004.38  -2004.38  -2004.38     -0.00     -0.00     -0.00
  Local     3888.11   3885.33   3885.33     -0.00     -0.00     -0.00
  n-local  -1171.75  -1174.67  -1168.81      1.84      1.01      0.20
  augment   1809.18   1809.18   1809.18     -0.00     -0.00     -0.00
  Kinetic   2513.88   2511.46   2516.31      0.22     -1.10     -2.41
  -------------------------------------------------------------------------------------
  Total       -0.01     -0.00     -0.00     -0.00      0.00      0.00
  in kB       -0.02     -0.00     -0.00     -0.00      0.00      0.00
  external pressure =       -0.01 kB  Pullay stress =        0.00 kB


 VOLUME and BASIS-vectors are now :
 -----------------------------------------------------------------------------
  energy-cutoff  :      500.00
  volume of cell :      384.69
      direct lattice vectors                 reciprocal lattice vectors
     7.272831623  0.000000000  0.000000000     0.137498027  0.000000000  0.000000000
     0.000000000  7.272831623  0.000000000     0.000000000  0.137498027  0.000000000
     0.000000000  0.000000000  7.272831623     0.000000000  0.000000000  0.137498027

  length of vectors
     7.272831623  7.272831623  7.272831623     0.137498027  0.137498027  0.137498027


 FORCES acting on ions
    electron-ion (+dipol)            ewald-force                    non-local-force                 convergence-correction
 -----------------------------------------------------------------------------------------------
   0.318E+02 -.229E-12 0.324E-05   -.321E+02 -.497E-13 0.355E-13   -.131E+00 0.000E+00 -.542E-19   0.208E-04 0.502E-13 -.421E-13
   -.836E+01 -.206E-12 -.329E-05   0.847E+01 0.213E-13 0.163E-12   -.101E+00 0.108E-18 -.407E-19   -.667E-05 0.107E-12 -.117E-12
   0.265E+01 0.988E-12 0.339E-09   -.268E+01 -.444E-14 0.124E-12   0.239E-01 0.000E+00 0.102E-19   -.217E-06 -.699E-13 -.974E-13
   -.214E+01 -.463E-11 0.342E-09   0.211E+01 0.924E-13 0.163E-12   0.387E-01 -.108E-18 0.000E+00   0.489E-05 -.537E-13 -.141E-12
   0.265E+01 -.231E-12 0.161E-07   -.268E+01 0.400E-13 0.462E-13   0.239E-01 0.000E+00 -.407E-19   0.369E-05 0.301E-13 -.506E-14
   -.214E+01 -.223E-12 0.161E-07   0.211E+01 -.355E-13 0.711E-14   0.387E-01 0.000E+00 -.542E-19   0.426E-05 0.842E-13 -.307E-13
   0.111E+01 0.986E-12 -.626E-10   -.111E+01 0.133E-13 -.178E-13   -.732E-02 -.542E-19 0.542E-19   -.629E-05 -.529E-13 -.555E-13
   -.104E+01 -.448E-11 -.699E-10   0.103E+01 0.924E-13 -.107E-12   0.438E-02 0.000E+00 0.136E-19   0.279E-05 -.460E-13 -.953E-13
   -.398E+01 -.794E+01 0.104E-08   0.400E+01 0.799E+01 0.711E-14   0.269E-01 0.549E-02 0.000E+00   -.105E-04 -.140E-04 -.145E-12
   -.415E+01 0.756E+01 0.104E-08   0.416E+01 -.759E+01 0.107E-13   0.315E-01 -.102E-01 0.813E-19   -.108E-05 0.352E-05 -.932E-13
   -.398E+01 0.794E+01 0.104E-08   0.400E+01 -.799E+01 0.782E-13   0.269E-01 -.549E-02 -.271E-19   -.105E-04 0.140E-04 -.101E-12
   -.415E+01 -.756E+01 0.104E-08   0.416E+01 0.759E+01 0.192E-12   0.315E-01 0.102E-01 -.678E-19   -.108E-05 -.352E-05 -.608E-13
   -.776E-01 -.643E+00 -.137E-09   0.914E-01 0.645E+00 0.995E-13   -.123E-01 -.113E-02 0.000E+00   0.308E-05 0.836E-06 -.531E-13
   -.155E+00 0.637E+00 -.142E-09   0.169E+00 -.639E+00 -.107E-13   -.124E-01 0.109E-02 -.203E-19   -.447E-05 0.414E-05 -.365E-13
   -.776E-01 0.643E+00 -.137E-09   0.914E-01 -.645E+00 -.782E-13   -.123E-01 0.113E-02 -.339E-20   0.308E-05 -.836E-06 -.354E-13
   -.155E+00 -.637E+00 -.142E-09   0.169E+00 0.639E+00 -.782E-13   -.124E-01 -.109E-02 0.136E-19   -.447E-05 -.414E-05 -.225E-13
   -.398E+01 -.228E-12 -.794E+01   0.400E+01 -.453E-13 0.799E+01   0.269E-01 0.108E-18 0.549E-02   -.111E-04 0.461E-13 -.135E-04
   -.415E+01 -.244E-12 0.756E+01   0.416E+01 -.109E-12 -.759E+01   0.315E-01 0.542E-19 -.102E-01   -.174E-05 0.535E-13 0.302E-05
   -.776E-01 0.872E-12 -.643E+00   0.914E-01 -.790E-13 0.645E+00   -.123E-01 0.000E+00 -.113E-02   0.324E-05 -.637E-13 0.136E-05
   -.155E+00 0.388E-11 0.637E+00   0.169E+00 -.293E-13 -.639E+00   -.124E-01 0.000E+00 0.109E-02   -.430E-05 -.309E-13 0.364E-05
   -.398E+01 -.233E-12 0.794E+01   0.400E+01 -.364E-13 -.799E+01   0.269E-01 0.000E+00 -.549E-02   -.111E-04 0.530E-13 0.135E-04
   -.415E+01 -.215E-12 -.756E+01   0.416E+01 -.150E-12 0.759E+01   0.315E-01 -.163E-18 0.102E-01   -.174E-05 0.625E-13 -.302E-05
   -.776E-01 0.124E-11 0.643E+00   0.914E-01 -.773E-13 -.645E+00   -.123E-01 0.000E+00 0.113E-02   0.324E-05 -.657E-13 -.136E-05
   -.155E+00 0.345E-11 -.637E+00   0.169E+00 -.773E-13 0.639E+00   -.124E-01 0.542E-19 -.109E-02   -.430E-05 -.411E-13 -.364E-05
   0.503E+01 0.119E+00 0.119E+00   -.505E+01 -.119E+00 -.119E+00   0.183E-01 -.265E-03 -.265E-03   0.461E-05 -.530E-05 -.532E-05
   -.282E+01 -.350E-01 -.350E-01   0.284E+01 0.357E-01 0.357E-01   -.244E-01 -.633E-03 -.633E-03   0.264E-05 0.306E-05 0.307E-05
   0.503E+01 -.119E+00 0.119E+00   -.505E+01 0.119E+00 -.119E+00   0.183E-01 0.265E-03 -.265E-03   0.461E-05 0.530E-05 -.532E-05
   -.282E+01 0.350E-01 -.350E-01   0.284E+01 -.357E-01 0.357E-01   -.244E-01 0.633E-03 -.633E-03   0.264E-05 -.306E-05 0.307E-05
   0.503E+01 0.119E+00 -.119E+00   -.505E+01 -.119E+00 0.119E+00   0.183E-01 -.265E-03 0.265E-03   0.461E-05 -.530E-05 0.532E-05
   -.282E+01 -.350E-01 0.350E-01   0.284E+01 0.357E-01 -.357E-01   -.244E-01 -.633E-03 0.633E-03   0.264E-05 0.306E-05 -.307E-05
   0.503E+01 -.119E+00 -.119E+00   -.505E+01 0.119E+00 0.119E+00   0.183E-01 0.265E-03 0.265E-03   0.461E-05 0.530E-05 0.532E-05
   -.282E+01 0.350E-01 0.350E-01   0.284E+01 -.357E-01 -.357E-01   -.244E-01 0.633E-03 0.633E-03   0.264E-05 -.306E-05 -.307E-05
 -----------------------------------------------------------------------------------------------
   -.240E-03 0.363E-10 0.448E-08   0.799E-13 0.189E-13 0.284E-13   0.290E-03 0.000E+00 -.217E-18   -.147E-05 -.442E-12 -.239E-11
 
 
 POSITION                                       TOTAL-FORCE (eV/Angst)
 -----------------------------------------------------------------------------------
      0.05455      0.00000      0.00000        -0.357425      0.000000      0.000000
      3.63642      0.00000      0.00000         0.006235     -0.000000      0.000000
      0.00000      3.63642      0.00000        -0.002331      0.000000     -0.000000
      3.63642      3.63642      0.00000         0.000291     -0.000000     -0.000000
      0.00000      0.00000      3.63642        -0.002331      0.000000      0.000000
      3.63642      0.00000      3.63642         0.000291      0.000000      0.000000
      0.00000      3.63642      3.63642         0.000149      0.000000     -0.000000
      3.63642      3.63642      3.63642        -0.001634      0.000000      0.000000
      1.81821      1.81821      0.00000         0.047140      0.055136     -0.000000
      5.45462      1.81821      0.00000         0.039678     -0.044643     -0.000000
      1.81821      5.45462      0.00000         0.047140     -0.055136     -0.000000
      5.45462      5.45462      0.00000         0.039678      0.044643      0.000000
      1.81821      1.81821      3.63642         0.001538      0.001077      0.000000
      5.45462      1.81821      3.63642         0.001516     -0.001106      0.000000
      1.81821      5.45462      3.63642         0.001538     -0.001077     -0.000000
      5.45462      5.45462      3.63642         0.001516      0.001106      0.000000
      1.81821      0.00000      1.81821         0.047140      0.000000      0.055136
      5.45462      0.00000      1.81821         0.039678     -0.000000     -0.044643
      1.81821      3.63642      1.81821         0.001538      0.000000      0.001077
      5.45462      3.63642      1.81821         0.001516      0.000000     -0.001106
      1.81821      0.00000      5.45462         0.047140     -0.000000     -0.055136
      5.45462      0.00000      5.45462         0.039678      0.000000      0.044643
      1.81821      3.63642      5.45462         0.001538      0.000000     -0.001077
      5.45462      3.63642      5.45462         0.001516      0.000000      0.001106
      0.00000      1.81821      1.81821        -0.004158     -0.000534     -0.000534
      3.63642      1.81821      1.81821         0.003475      0.000053      0.000053
      0.00000      5.45462      1.81821        -0.004158      0.000534     -0.000534
      3.63642      5.45462      1.81821         0.003475     -0.000053      0.000053
      0.00000      1.81821      5.45462        -0.004158     -0.000534      0.000534
      3.63642      1.81821      5.45462         0.003475      0.000053     -0.000053
      0.00000      5.45462      5.45462        -0.004158      0.000534      0.000534
      3.63642      5.45462      5.45462         0.003475     -0.000053     -0.000053
 -----------------------------------------------------------------------------------
    total drift:                                0.000049      0.000000      0.000000


--------------------------------------------------------------------------------------------------------



 mean value of Nose-termostat <S>:     1.000 mean value of <T> :     0.000
 mean temperature <T/S>/<1/S>  :     0.000

     LOOP+:  VPU time 6064.03: CPU time 6081.46
  
  
 General timing and accounting informations for this job:
 ========================================================
  
                  Total CPU time used (sec):     6106.209
                            User time (sec):     5797.449
                          System time (sec):      308.760
                         Elapsed time (sec):     6123.715
  
                   Maximum memory used (kb):     2471388.
                   Average memory used (kb):           0.
  
                          Minor page faults:       413029
                          Major page faults:            0
                 Voluntary context switches:         1116
