 running on    8 nodes
 distr:  one band on    1 nodes,    8 groups
 vasp.4.6.28 25Jul05 complex 
 POSCAR found :  1 types and   32 ions

 ----------------------------------------------------------------------------- 
|                                                                             |
|  ADVICE TO THIS USER RUNNING 'VASP/VAMP'   (HEAR YOUR MASTER'S VOICE ...):  |
|                                                                             |
|      You have a (more or less) 'large supercell' and for larger cells       |
|      it might be more efficient to use real space projection operators      |
|      So try LREAL= Auto  in the INCAR   file.                               |
|      Mind: If you want to do an extremely accurate calculations keep the    |
|      reciprocal projection scheme          (i.e. LREAL=.FALSE.)             |
|                                                                             |
 ----------------------------------------------------------------------------- 

 LDA part: xc-table for Pade appr. of Perdew
 generate k-points for:   7   7   7
 POSCAR, INCAR and KPOINTS ok, starting setup
 FFT: planning ...           1
 reading WAVECAR
 WARNING: random wavefunctions but no delay for mixing, default for NELMDL
 entering main loop
       N       E                     dE             d eps       ncg     rms          rms(c)
DAV:   1     0.326402398230E+04    0.32640E+04   -0.14510E+05 17280   0.244E+03
DAV:   2     0.314532219946E+03   -0.29495E+04   -0.28290E+04 17280   0.545E+02
DAV:   3    -0.122684504389E+03   -0.43722E+03   -0.39462E+03 17288   0.214E+02
DAV:   4    -0.146496349679E+03   -0.23812E+02   -0.23295E+02 18424   0.604E+01
DAV:   5    -0.146686787577E+03   -0.19044E+00   -0.19014E+00 18448   0.569E+00    0.394E+01
DAV:   6    -0.129207855471E+03    0.17479E+02   -0.26413E+02 18584   0.928E+01    0.178E+01
DAV:   7    -0.119360666450E+03    0.98472E+01   -0.45811E+01 19264   0.391E+01    0.291E+00
DAV:   8    -0.119115119133E+03    0.24555E+00   -0.60093E-01 18096   0.366E+00    0.209E+00
DAV:   9    -0.119070986407E+03    0.44133E-01   -0.59379E-02 18688   0.296E+00    0.150E+00
DAV:  10    -0.119028362453E+03    0.42624E-01   -0.13605E-01 19248   0.198E+00    0.997E-02
DAV:  11    -0.119028916763E+03   -0.55431E-03   -0.54611E-03 18704   0.461E-01    0.903E-02
DAV:  12    -0.119028851686E+03    0.65077E-04   -0.76099E-04 18560   0.271E-01    0.175E-02
DAV:  13    -0.119028894749E+03   -0.43063E-04   -0.14189E-04 18336   0.583E-02    0.192E-02
DAV:  14    -0.119028886846E+03    0.79029E-05   -0.20777E-05 18624   0.558E-02    0.148E-02
DAV:  15    -0.119028873287E+03    0.13559E-04   -0.73681E-06 18824   0.298E-02    0.521E-03
DAV:  16    -0.119028872860E+03    0.42703E-06   -0.89421E-06 19472   0.181E-02    0.363E-03
DAV:  17    -0.119028873857E+03   -0.99699E-06   -0.13313E-06 18536   0.115E-02    0.276E-03
DAV:  18    -0.119028875965E+03   -0.21080E-05   -0.53408E-07 18536   0.559E-03    0.439E-04
DAV:  19    -0.119028876324E+03   -0.35932E-06   -0.98292E-08 17856   0.250E-03    0.504E-04
DAV:  20    -0.119028876411E+03   -0.86882E-07   -0.34492E-08 13296   0.185E-03    0.237E-04
DAV:  21    -0.119028876564E+03   -0.15265E-06   -0.46734E-09  9616   0.565E-04    0.106E-04
DAV:  22    -0.119028876704E+03   -0.14005E-06   -0.17772E-09  9600   0.362E-04    0.833E-05
DAV:  23    -0.119028876804E+03   -0.10066E-06   -0.16050E-09  9600   0.319E-04    0.479E-05
DAV:  24    -0.119028876814E+03   -0.92914E-08   -0.37887E-10  9576   0.135E-04
   1 F= -.11902888E+03 E0= -.11902836E+03  d E =-.103639E-02
