   4   4   0   0
  0.1600608E+02  0.4000507E-09  0.4000507E-09  0.4000507E-09  0.5000000E-15
  1.000000000000000E-004
  CAR 
 unknown system                          
     20.64393324     -6.96026120  301      1.56887125      1.00000000
     -6.960  0.0000E+00  0.0000E+00
     -6.868  0.0000E+00  0.0000E+00
     -6.776  0.0000E+00  0.0000E+00
     -6.684  0.0000E+00  0.0000E+00
     -6.592  0.0000E+00  0.0000E+00
     -6.500  0.0000E+00  0.0000E+00
     -6.408  0.0000E+00  0.0000E+00
     -6.316  0.0000E+00  0.0000E+00
     -6.224  0.0000E+00  0.0000E+00
     -6.132  0.0000E+00  0.0000E+00
     -6.040  0.0000E+00  0.0000E+00
     -5.948  0.0000E+00  0.0000E+00
     -5.856  0.0000E+00  0.0000E+00
     -5.764  0.8728E-19  0.8031E-20
     -5.672  0.1980E-01  0.1822E-02
     -5.580  0.9870E-01  0.1184E-01
     -5.488  0.1477E+00  0.2705E-01
     -5.396  0.2039E+00  0.4815E-01
     -5.304  0.1981E+00  0.6772E-01
     -5.212  0.2978E+00  0.9757E-01
     -5.120  0.2646E+00  0.1246E+00
     -5.028  0.2378E+00  0.1514E+00
     -4.936  0.2960E+00  0.1923E+00
     -4.844  0.3028E+00  0.2242E+00
     -4.752  0.3950E+00  0.2642E+00
     -4.660  0.4111E+00  0.3040E+00
     -4.568  0.4444E+00  0.3451E+00
     -4.476  0.3674E+00  0.3910E+00
     -4.384  0.2948E+00  0.4289E+00
     -4.292  0.5199E+00  0.4845E+00
     -4.200  0.5253E+00  0.5412E+00
     -4.108  0.4091E+00  0.5792E+00
     -4.016  0.5084E+00  0.6387E+00
     -3.924  0.5819E+00  0.7053E+00
     -3.832  0.4626E+00  0.7580E+00
     -3.740  0.6835E+00  0.8238E+00
     -3.648  0.5811E+00  0.8809E+00
     -3.556  0.7359E+00  0.9595E+00
     -3.464  0.7094E+00  0.1026E+01
     -3.372  0.6553E+00  0.1091E+01
     -3.280  0.9235E+00  0.1180E+01
     -3.188  0.6269E+00  0.1246E+01
     -3.096  0.6811E+00  0.1321E+01
     -3.004  0.1052E+01  0.1424E+01
     -2.912  0.7768E+00  0.1506E+01
     -2.820  0.1075E+01  0.1613E+01
     -2.728  0.9165E+00  0.1704E+01
     -2.636  0.1059E+01  0.1819E+01
     -2.544  0.1232E+01  0.1954E+01
     -2.452  0.1090E+01  0.2063E+01
     -2.360  0.1549E+01  0.2225E+01
     -2.268  0.1568E+01  0.2380E+01
     -2.176  0.1992E+01  0.2585E+01
     -2.084  0.2077E+01  0.2809E+01
     -1.992  0.3298E+01  0.3150E+01
     -1.899  0.3346E+01  0.3515E+01
     -1.807  0.4899E+01  0.4014E+01
     -1.715  0.5817E+01  0.4616E+01
     -1.623  0.5925E+01  0.5227E+01
     -1.531  0.7014E+01  0.5955E+01
     -1.439  0.9877E+01  0.6985E+01
     -1.347  0.1145E+02  0.8183E+01
     -1.255  0.1206E+02  0.9448E+01
     -1.163  0.1141E+02  0.1062E+02
     -1.071  0.1166E+02  0.1185E+02
     -0.979  0.1194E+02  0.1311E+02
     -0.887  0.1569E+02  0.1477E+02
     -0.795  0.1781E+02  0.1665E+02
     -0.703  0.1988E+02  0.1879E+02
     -0.611  0.2424E+02  0.2133E+02
     -0.519  0.2302E+02  0.2385E+02
     -0.427  0.1577E+02  0.2556E+02
     -0.335  0.1511E+02  0.2711E+02
     -0.243  0.2008E+02  0.2918E+02
     -0.151  0.2182E+02  0.3151E+02
     -0.059  0.1870E+02  0.3345E+02
      0.033  0.1878E+02  0.3540E+02
      0.125  0.2354E+02  0.3786E+02
      0.217  0.2996E+02  0.4112E+02
      0.309  0.6518E+01  0.4187E+02
      0.401  0.2237E+01  0.4210E+02
      0.493  0.1774E+01  0.4228E+02
      0.585  0.1459E+01  0.4245E+02
      0.677  0.1572E+01  0.4261E+02
      0.769  0.1684E+01  0.4278E+02
      0.861  0.1436E+01  0.4293E+02
      0.953  0.1407E+01  0.4306E+02
      1.045  0.1283E+01  0.4322E+02
      1.137  0.1020E+01  0.4333E+02
      1.229  0.1634E+01  0.4349E+02
      1.321  0.1308E+01  0.4363E+02
      1.413  0.8996E+00  0.4373E+02
      1.505  0.1332E+01  0.4388E+02
      1.597  0.1356E+01  0.4403E+02
      1.689  0.9775E+00  0.4413E+02
      1.781  0.1520E+01  0.4429E+02
      1.873  0.1221E+01  0.4441E+02
      1.965  0.1159E+01  0.4454E+02
      2.057  0.9053E+00  0.4464E+02
      2.149  0.1139E+01  0.4477E+02
      2.241  0.1276E+01  0.4489E+02
      2.333  0.1080E+01  0.4501E+02
      2.425  0.8143E+00  0.4510E+02
      2.517  0.1306E+01  0.4525E+02
      2.609  0.1083E+01  0.4536E+02
      2.701  0.9555E+00  0.4546E+02
      2.793  0.9695E+00  0.4557E+02
      2.885  0.1072E+01  0.4569E+02
      2.977  0.1011E+01  0.4579E+02
      3.069  0.1001E+01  0.4590E+02
      3.161  0.8080E+00  0.4599E+02
      3.253  0.8165E+00  0.4609E+02
      3.345  0.1186E+01  0.4622E+02
      3.437  0.9590E+00  0.4632E+02
      3.529  0.8833E+00  0.4641E+02
      3.621  0.8601E+00  0.4651E+02
      3.713  0.9501E+00  0.4660E+02
      3.805  0.7957E+00  0.4670E+02
      3.897  0.1059E+01  0.4680E+02
      3.989  0.7153E+00  0.4688E+02
      4.081  0.7667E+00  0.4696E+02
      4.173  0.1174E+01  0.4709E+02
      4.265  0.1305E+01  0.4722E+02
      4.357  0.1348E+01  0.4736E+02
      4.449  0.1281E+01  0.4748E+02
      4.541  0.1063E+01  0.4758E+02
      4.634  0.1447E+01  0.4773E+02
      4.726  0.1182E+01  0.4786E+02
      4.818  0.1236E+01  0.4798E+02
      4.910  0.1232E+01  0.4812E+02
      5.002  0.1053E+01  0.4824E+02
      5.094  0.1075E+01  0.4836E+02
      5.186  0.1314E+01  0.4849E+02
      5.278  0.1131E+01  0.4861E+02
      5.370  0.1411E+01  0.4875E+02
      5.462  0.9004E+00  0.4886E+02
      5.554  0.1066E+01  0.4897E+02
      5.646  0.1014E+01  0.4907E+02
      5.738  0.1215E+01  0.4920E+02
      5.830  0.1231E+01  0.4932E+02
      5.922  0.9124E+00  0.4942E+02
      6.014  0.1130E+01  0.4954E+02
      6.106  0.1030E+01  0.4965E+02
      6.198  0.1132E+01  0.4977E+02
      6.290  0.6571E+00  0.4984E+02
      6.382  0.1293E+01  0.4998E+02
      6.474  0.8376E+00  0.5009E+02
      6.566  0.9869E+00  0.5019E+02
      6.658  0.1007E+01  0.5029E+02
      6.750  0.8965E+00  0.5038E+02
      6.842  0.1140E+01  0.5050E+02
      6.934  0.9644E+00  0.5060E+02
      7.026  0.1579E+01  0.5076E+02
      7.118  0.1266E+01  0.5089E+02
      7.210  0.1397E+01  0.5103E+02
      7.302  0.9818E+00  0.5115E+02
      7.394  0.1324E+01  0.5129E+02
      7.486  0.1308E+01  0.5142E+02
      7.578  0.1315E+01  0.5157E+02
      7.670  0.1172E+01  0.5170E+02
      7.762  0.1745E+01  0.5188E+02
      7.854  0.1169E+01  0.5200E+02
      7.946  0.1349E+01  0.5215E+02
      8.038  0.1341E+01  0.5229E+02
      8.130  0.1292E+01  0.5243E+02
      8.222  0.1516E+01  0.5259E+02
      8.314  0.1365E+01  0.5273E+02
      8.406  0.1599E+01  0.5290E+02
      8.498  0.1680E+01  0.5306E+02
      8.590  0.1432E+01  0.5321E+02
      8.682  0.1186E+01  0.5333E+02
      8.774  0.9300E+00  0.5345E+02
      8.866  0.1531E+01  0.5361E+02
      8.958  0.1518E+01  0.5377E+02
      9.050  0.1612E+01  0.5393E+02
      9.142  0.1292E+01  0.5408E+02
      9.234  0.1531E+01  0.5425E+02
      9.326  0.1357E+01  0.5439E+02
      9.418  0.1382E+01  0.5455E+02
      9.510  0.1541E+01  0.5469E+02
      9.602  0.1397E+01  0.5485E+02
      9.694  0.1471E+01  0.5500E+02
      9.786  0.1206E+01  0.5514E+02
      9.878  0.1768E+01  0.5532E+02
      9.970  0.1420E+01  0.5548E+02
     10.062  0.1530E+01  0.5564E+02
     10.154  0.1336E+01  0.5581E+02
     10.246  0.1497E+01  0.5597E+02
     10.338  0.1274E+01  0.5611E+02
     10.430  0.1266E+01  0.5624E+02
     10.522  0.1789E+01  0.5644E+02
     10.614  0.1758E+01  0.5661E+02
     10.706  0.1272E+01  0.5676E+02
     10.798  0.1464E+01  0.5693E+02
     10.890  0.1858E+01  0.5712E+02
     10.982  0.1141E+01  0.5723E+02
     11.074  0.1970E+01  0.5744E+02
     11.166  0.1135E+01  0.5758E+02
     11.259  0.1734E+01  0.5776E+02
     11.351  0.1741E+01  0.5794E+02
     11.443  0.1560E+01  0.5811E+02
     11.535  0.1425E+01  0.5826E+02
     11.627  0.1522E+01  0.5842E+02
     11.719  0.1623E+01  0.5859E+02
     11.811  0.1904E+01  0.5880E+02
     11.903  0.1404E+01  0.5896E+02
     11.995  0.1766E+01  0.5913E+02
     12.087  0.1972E+01  0.5933E+02
     12.179  0.1675E+01  0.5950E+02
     12.271  0.1768E+01  0.5969E+02
     12.363  0.1653E+01  0.5985E+02
     12.455  0.1971E+01  0.6005E+02
     12.547  0.1851E+01  0.6025E+02
     12.639  0.2092E+01  0.6046E+02
     12.731  0.1203E+01  0.6059E+02
     12.823  0.1714E+01  0.6078E+02
     12.915  0.1767E+01  0.6096E+02
     13.007  0.1549E+01  0.6114E+02
     13.099  0.1114E+01  0.6127E+02
     13.191  0.1629E+01  0.6143E+02
     13.283  0.1465E+01  0.6159E+02
     13.375  0.1190E+01  0.6172E+02
     13.467  0.1149E+01  0.6185E+02
     13.559  0.9890E+00  0.6194E+02
     13.651  0.1391E+01  0.6208E+02
     13.743  0.7133E+00  0.6215E+02
     13.835  0.1313E+01  0.6230E+02
     13.927  0.7242E+00  0.6238E+02
     14.019  0.5921E+00  0.6245E+02
     14.111  0.6895E+00  0.6253E+02
     14.203  0.8993E+00  0.6263E+02
     14.295  0.5820E+00  0.6269E+02
     14.387  0.7737E+00  0.6277E+02
     14.479  0.4952E+00  0.6283E+02
     14.571  0.6007E+00  0.6289E+02
     14.663  0.6155E+00  0.6295E+02
     14.755  0.3071E+00  0.6300E+02
     14.847  0.5550E+00  0.6306E+02
     14.939  0.5224E+00  0.6311E+02
     15.031  0.6584E+00  0.6318E+02
     15.123  0.3642E+00  0.6322E+02
     15.215  0.2684E+00  0.6325E+02
     15.307  0.3789E+00  0.6329E+02
     15.399  0.3976E+00  0.6334E+02
     15.491  0.3508E+00  0.6338E+02
     15.583  0.2471E+00  0.6341E+02
     15.675  0.3270E+00  0.6345E+02
     15.767  0.2597E+00  0.6347E+02
     15.859  0.4525E+00  0.6352E+02
     15.951  0.2891E+00  0.6354E+02
     16.043  0.2070E+00  0.6358E+02
     16.135  0.7557E-01  0.6359E+02
     16.227  0.3728E+00  0.6363E+02
     16.319  0.2627E+00  0.6365E+02
     16.411  0.6308E-04  0.6366E+02
     16.503  0.1640E+00  0.6368E+02
     16.595  0.3117E+00  0.6371E+02
     16.687  0.2220E+00  0.6374E+02
     16.779  0.1631E-01  0.6374E+02
     16.871  0.3611E+00  0.6378E+02
     16.963  0.7546E-01  0.6379E+02
     17.055  0.7594E-01  0.6380E+02
     17.147  0.1890E+00  0.6382E+02
     17.239  0.2264E+00  0.6384E+02
     17.331  0.8940E-01  0.6385E+02
     17.423  0.1133E+00  0.6387E+02
     17.515  0.7784E-01  0.6387E+02
     17.607  0.1202E+00  0.6389E+02
     17.699  0.1803E-01  0.6389E+02
     17.791  0.1843E+00  0.6391E+02
     17.884  0.7547E-01  0.6392E+02
     17.976  0.3759E-01  0.6392E+02
     18.068  0.1418E+00  0.6394E+02
     18.160  0.9880E-02  0.6394E+02
     18.252  0.1258E-01  0.6395E+02
     18.344  0.1509E+00  0.6396E+02
     18.436  0.3772E-01  0.6396E+02
     18.528  0.7547E-01  0.6397E+02
     18.620  0.3774E-01  0.6397E+02
     18.712  0.3290E-01  0.6398E+02
     18.804  0.8334E-02  0.6398E+02
     18.896  0.7522E-01  0.6399E+02
     18.988  0.3774E-01  0.6399E+02
     19.080  0.1273E-01  0.6399E+02
     19.172  0.4382E-01  0.6400E+02
     19.264  0.9419E-02  0.6400E+02
     19.356  0.6995E-08  0.6400E+02
     19.448  0.6289E-02  0.6400E+02
     19.540  0.0000E+00  0.6400E+02
     19.632  0.0000E+00  0.6400E+02
     19.724  0.0000E+00  0.6400E+02
     19.816  0.0000E+00  0.6400E+02
     19.908  0.0000E+00  0.6400E+02
     20.000  0.0000E+00  0.6400E+02
     20.092  0.0000E+00  0.6400E+02
     20.184  0.0000E+00  0.6400E+02
     20.276  0.0000E+00  0.6400E+02
     20.368  0.0000E+00  0.6400E+02
     20.460  0.0000E+00  0.6400E+02
     20.552  0.0000E+00  0.6400E+02
     20.644  0.0000E+00  0.6400E+02
