    4    4    1    1
  0.1600608E+02  0.4000507E-09  0.4000507E-09  0.4000507E-09  0.5000000E-15
  1.000000000000000E-004
  CAR 
 unknown system                          
   44  455   32
 
  0.0000000E+00  0.0000000E+00  0.0000000E+00  0.7233796E-04
   1       -5.7055
   2       -1.8469
   3       -1.8469
   4       -1.8469
   5       -1.5593
   6       -1.5593
   7       -1.5593
   8       -0.6996
   9       -0.6996
  10       -0.6996
  11       -0.1848
  12       -0.1848
  13        0.1596
  14        0.1596
  15        0.1596
  16        0.2556
  17        0.2556
  18        0.2556
  19        0.2556
  20        0.2556
  21        0.2556
  22        3.2950
  23        3.2950
  24        3.2950
  25        6.7853
  26        6.7853
  27        6.7853
  28       12.5350
  29       12.5350
  30       12.5350
  31       12.5350
  32       12.5350
 
  0.4166667E-01  0.0000000E+00  0.0000000E+00  0.4340278E-03
   1       -5.6885
   2       -1.8477
   3       -1.8401
   4       -1.8401
   5       -1.5557
   6       -1.5555
   7       -1.5555
   8       -0.7033
   9       -0.6964
  10       -0.6964
  11       -0.1882
  12       -0.1833
  13        0.1552
  14        0.1552
  15        0.1581
  16        0.2355
  17        0.2355
  18        0.2503
  19        0.2503
  20        0.2556
  21        0.2556
  22        3.1395
  23        3.3312
  24        3.3312
  25        6.7932
  26        6.7932
  27        6.9768
  28       12.4027
  29       12.4027
  30       12.4364
  31       12.4364
  32       12.5585
 
  0.8333333E-01  0.0000000E+00  0.0000000E+00  0.4340278E-03
   1       -5.6375
   2       -1.8507
   3       -1.8198
   4       -1.8198
   5       -1.5451
   6       -1.5440
   7       -1.5440
   8       -0.7146
   9       -0.6868
  10       -0.6868
  11       -0.1983
  12       -0.1790
  13        0.1421
  14        0.1421
  15        0.1536
  16        0.1780
  17        0.1780
  18        0.2346
  19        0.2346
  20        0.2556
  21        0.2556
  22        2.7501
  23        3.4367
  24        3.4367
  25        6.8172
  26        6.8172
  27        7.4750
  28       12.0559
  29       12.0559
  30       12.1691
  31       12.1691
  32       12.6286
 
  0.1250000E+00  0.0000000E+00  0.0000000E+00  0.4340278E-03
   1       -5.5526
   2       -1.8585
   3       -1.7868
   4       -1.7868
   5       -1.5274
   6       -1.5247
   7       -1.5247
   8       -0.7331
   9       -0.6709
  10       -0.6709
  11       -0.2150
  12       -0.1718
  13        0.0904
  14        0.0904
  15        0.1205
  16        0.1205
  17        0.1463
  18        0.2091
  19        0.2091
  20        0.2557
  21        0.2557
  22        2.2508
  23        3.6045
  24        3.6045
  25        6.8577
  26        6.8577
  27        8.1580
  28       11.5846
  29       11.5846
  30       11.7931
  31       11.7931
  32       12.7448
 
  0.1666667E+00  0.0000000E+00  0.0000000E+00  0.4340278E-03
   1       -5.4342
   2       -1.8757
   3       -1.7423
   4       -1.7423
   5       -1.5032
   6       -1.4976
   7       -1.4976
   8       -0.7585
   9       -0.6488
  10       -0.6488
  11       -0.2376
  12       -0.1620
  13       -0.0187
  14       -0.0187
  15        0.0910
  16        0.0910
  17        0.1362
  18        0.1744
  19        0.1744
  20        0.2557
  21        0.2557
  22        1.7212
  23        3.8255
  24        3.8255
  25        6.9153
  26        6.9153
  27        8.9504
  28       11.0534
  29       11.0534
  30       11.3621
  31       11.3621
  32       12.9061
 
  0.2083333E+00  0.0000000E+00  0.0000000E+00  0.4340278E-03
   1       -5.2829
   2       -1.9098
   3       -1.6882
   4       -1.6882
   5       -1.4726
   6       -1.4626
   7       -1.4626
   8       -0.7905
   9       -0.6207
  10       -0.6207
  11       -0.2654
  12       -0.1496
  13       -0.1409
  14       -0.1409
  15        0.0544
  16        0.0544
  17        0.1235
  18        0.1318
  19        0.1318
  20        0.2558
  21        0.2558
  22        1.2051
  23        4.0915
  24        4.0915
  25        6.9908
  26        6.9908
  27        9.8154
  28       10.4979
  29       10.4979
  30       10.9124
  31       10.9124
  32       13.1113
 
  0.2500000E+00  0.0000000E+00  0.0000000E+00  0.4340278E-03
   1       -5.0993
   2       -1.9726
   3       -1.6269
   4       -1.6269
   5       -1.4363
   6       -1.4194
   7       -1.4194
   8       -0.8283
   9       -0.5867
  10       -0.5867
  11       -0.2974
  12       -0.2696
  13       -0.2696
  14       -0.1349
  15        0.0119
  16        0.0119
  17        0.0823
  18        0.0823
  19        0.1085
  20        0.2558
  21        0.2558
  22        0.7316
  23        4.3955
  24        4.3955
  25        7.0851
  26        7.0851
  27        9.9367
  28        9.9367
  29       10.4665
  30       10.4665
  31       10.7345
  32       13.3590
 
  0.2916667E+00  0.0000000E+00  0.0000000E+00  0.4340278E-03
   1       -4.8845
   2       -2.0796
   3       -1.5615
   4       -1.5615
   5       -1.3947
   6       -1.3681
   7       -1.3681
   8       -0.8713
   9       -0.5472
  10       -0.5472
  11       -0.3999
  12       -0.3999
  13       -0.3322
  14       -0.1182
  15       -0.0346
  16       -0.0346
  17        0.0274
  18        0.0274
  19        0.0914
  20        0.2559
  21        0.2559
  22        0.3254
  23        4.7323
  24        4.7323
  25        7.1990
  26        7.1990
  27        9.3799
  28        9.3799
  29       10.0384
  30       10.0384
  31       11.6978
  32       13.6474
 
  0.3333333E+00  0.0000000E+00  0.0000000E+00  0.4340278E-03
   1       -4.6399
   2       -2.2464
   3       -1.4961
   4       -1.4961
   5       -1.3487
   6       -1.3082
   7       -1.3082
   8       -0.9187
   9       -0.5283
  10       -0.5283
  11       -0.5025
  12       -0.5025
  13       -0.3680
  14       -0.0996
  15       -0.0824
  16       -0.0824
  17       -0.0315
  18       -0.0315
  19        0.0065
  20        0.0726
  21        0.2559
  22        0.2559
  23        5.0982
  24        5.0982
  25        7.3330
  26        7.3330
  27        8.8334
  28        8.8334
  29        9.6375
  30        9.6375
  31       12.6996
  32       13.9748
 
  0.3750000E+00  0.0000000E+00  0.0000000E+00  0.4340278E-03
   1       -4.3675
   2       -2.4787
   3       -1.4356
   4       -1.4356
   5       -1.2988
   6       -1.2399
   7       -1.2399
   8       -0.9697
   9       -0.6522
  10       -0.6522
  11       -0.4530
  12       -0.4530
  13       -0.4022
  14       -0.2167
  15       -0.1277
  16       -0.1277
  17       -0.0932
  18       -0.0932
  19       -0.0795
  20        0.0522
  21        0.2560
  22        0.2560
  23        5.4902
  24        5.4902
  25        7.4857
  26        7.4857
  27        8.3006
  28        8.3006
  29        9.2714
  30        9.2714
  31       13.7360
  32       14.3395
 
  0.4166667E+00  0.0000000E+00  0.0000000E+00  0.4340278E-03
   1       -4.0703
   2       -2.7662
   3       -1.3857
   4       -1.3857
   5       -1.2460
   6       -1.1629
   7       -1.1629
   8       -1.0234
   9       -0.7699
  10       -0.7699
  11       -0.4312
  12       -0.3992
  13       -0.3992
  14       -0.3536
  15       -0.1658
  16       -0.1658
  17       -0.1562
  18       -0.1562
  19       -0.0583
  20        0.0308
  21        0.2560
  22        0.2560
  23        5.9064
  24        5.9064
  25        7.6513
  26        7.6513
  27        7.7840
  28        7.7840
  29        8.9505
  30        8.9505
  31       14.7397
  32       14.7406
 
  0.4583333E+00  0.0000000E+00  0.0000000E+00  0.4340278E-03
   1       -3.7527
   2       -3.0875
   3       -1.3526
   4       -1.3526
   5       -1.1911
   6       -1.0789
   7       -1.0773
   8       -1.0773
   9       -0.8805
  10       -0.8805
  11       -0.4502
  12       -0.4249
  13       -0.3418
  14       -0.3418
  15       -0.2194
  16       -0.2194
  17       -0.1916
  18       -0.1916
  19       -0.0363
  20        0.0087
  21        0.2560
  22        0.2560
  23        6.3451
  24        6.3451
  25        7.2850
  26        7.2850
  27        7.8082
  28        7.8082
  29        8.6994
  30        8.6994
  31       15.1737
  32       15.1737
 
  0.5000000E+00  0.0000000E+00  0.0000000E+00  0.2170139E-03
   1       -3.4216
   2       -3.4216
   3       -1.3409
   4       -1.3409
   5       -1.1351
   6       -1.1351
   7       -0.9831
   8       -0.9831
   9       -0.9831
  10       -0.9831
  11       -0.4518
  12       -0.4518
  13       -0.2816
  14       -0.2816
  15       -0.2816
  16       -0.2816
  17       -0.2008
  18       -0.2008
  19       -0.0138
  20       -0.0138
  21        0.2560
  22        0.2560
  23        6.8050
  24        6.8050
  25        6.8050
  26        6.8050
  27        7.8852
  28        7.8852
  29        8.5908
  30        8.5908
  31       15.6396
  32       15.6396
 
  0.4166667E-01  0.4166667E-01  0.0000000E+00  0.8680556E-03
   1       -5.6715
   2       -1.8408
   3       -1.8408
   4       -1.8333
   5       -1.5519
   6       -1.5519
   7       -1.5517
   8       -0.7054
   9       -0.6949
  10       -0.6933
  11       -0.1891
  12       -0.1842
  13        0.1508
  14        0.1532
  15        0.1532
  16        0.2193
  17        0.2304
  18        0.2304
  19        0.2503
  20        0.2503
  21        0.2522
  22        3.1750
  23        3.1750
  24        3.3669
  25        6.8012
  26        6.9857
  27        6.9857
  28       12.0682
  29       12.4257
  30       12.4257
  31       12.4595
  32       12.4595
 
  0.8333333E-01  0.4166667E-01  0.0000000E+00  0.1736111E-02
   1       -5.6205
   2       -1.8437
   3       -1.8203
   4       -1.8132
   5       -1.5413
   6       -1.5405
   7       -1.5402
   8       -0.7157
   9       -0.6862
  10       -0.6839
  11       -0.1983
  12       -0.1807
  13        0.1366
  14        0.1379
  15        0.1471
  16        0.1649
  17        0.1759
  18        0.2156
  19        0.2346
  20        0.2503
  21        0.2503
  22        2.7846
  23        3.2783
  24        3.4713
  25        6.8253
  26        7.0124
  27        7.4855
  28       11.6016
  29       12.0780
  30       12.1914
  31       12.4945
  32       12.5118
 
  0.1250000E+00  0.4166667E-01  0.0000000E+00  0.1736111E-02
   1       -5.5357
   2       -1.8512
   3       -1.7871
   4       -1.7804
   5       -1.5238
   6       -1.5213
   7       -1.5211
   8       -0.7339
   9       -0.6706
  10       -0.6684
  11       -0.2146
  12       -0.1735
  13        0.0764
  14        0.0794
  15        0.1165
  16        0.1262
  17        0.1359
  18        0.1925
  19        0.2091
  20        0.2499
  21        0.2504
  22        2.2855
  23        3.4419
  24        3.6374
  25        6.8660
  26        7.0575
  27        8.1697
  28       11.0773
  29       11.6060
  30       11.8144
  31       12.2505
  32       12.6086
 
  0.1666667E+00  0.4166667E-01  0.0000000E+00  0.1736111E-02
   1       -5.4174
   2       -1.8680
   3       -1.7423
   4       -1.7364
   5       -1.4996
   6       -1.4943
   7       -1.4942
   8       -0.7591
   9       -0.6486
  10       -0.6470
  11       -0.2369
  12       -0.1634
  13       -0.0303
  14       -0.0277
  15        0.0873
  16        0.0938
  17        0.1161
  18        0.1648
  19        0.1744
  20        0.2497
  21        0.2504
  22        1.7575
  23        3.6565
  24        3.8567
  25        6.9237
  26        7.1217
  27        8.9628
  28       10.5304
  29       11.0743
  30       11.3825
  31       11.8718
  32       12.7671
 
  0.2083333E+00  0.4166667E-01  0.0000000E+00  0.1736111E-02
   1       -5.2662
   2       -1.9016
   3       -1.6878
   4       -1.6827
   5       -1.4692
   6       -1.4595
   7       -1.4594
   8       -0.7908
   9       -0.6205
  10       -0.6197
  11       -0.2642
  12       -0.1522
  13       -0.1506
  14       -0.1481
  15        0.0510
  16        0.0566
  17        0.0815
  18        0.1317
  19        0.1392
  20        0.2497
  21        0.2504
  22        1.2454
  23        3.9135
  24        4.1209
  25        6.9994
  26        7.2059
  27        9.8280
  28        9.9804
  29       10.5185
  30       10.9322
  31       11.4367
  32       12.9680
 
  0.2500000E+00  0.4166667E-01  0.0000000E+00  0.1736111E-02
   1       -5.0828
   2       -1.9637
   3       -1.6260
   4       -1.6218
   5       -1.4331
   6       -1.4166
   7       -1.4165
   8       -0.8283
   9       -0.5870
  10       -0.5866
  11       -0.2954
  12       -0.2807
  13       -0.2752
  14       -0.1355
  15        0.0089
  16        0.0139
  17        0.0297
  18        0.0823
  19        0.1173
  20        0.2498
  21        0.2504
  22        0.7806
  23        4.2058
  24        4.4233
  25        7.0938
  26        7.3111
  27        9.4379
  28        9.9571
  29       10.4861
  30       10.7470
  31       10.9833
  32       13.2103
 
  0.2916667E+00  0.4166667E-01  0.0000000E+00  0.1736111E-02
   1       -4.8682
   2       -2.0699
   3       -1.5600
   4       -1.5568
   5       -1.3917
   6       -1.3659
   7       -1.3654
   8       -0.8711
   9       -0.5496
  10       -0.5471
  11       -0.4106
  12       -0.4041
  13       -0.3286
  14       -0.1182
  15       -0.0412
  16       -0.0371
  17       -0.0327
  18        0.0273
  19        0.0952
  20        0.2499
  21        0.2504
  22        0.3947
  23        4.5280
  24        4.7588
  25        7.2073
  26        7.4381
  27        8.9093
  28        9.4003
  29       10.0582
  30       10.5342
  31       11.7098
  32       13.4923
 
  0.3333333E+00  0.4166667E-01  0.0000000E+00  0.1736111E-02
   1       -4.6239
   2       -2.2357
   3       -1.4939
   4       -1.4916
   5       -1.3459
   6       -1.3071
   7       -1.3059
   8       -0.9183
   9       -0.5383
  10       -0.5312
  11       -0.5093
  12       -0.5024
  13       -0.3606
  14       -0.1452
  15       -0.0990
  16       -0.0844
  17       -0.0805
  18       -0.0316
  19        0.0620
  20        0.1344
  21        0.2500
  22        0.2504
  23        4.8761
  24        5.1234
  25        7.3383
  26        7.5869
  27        8.3997
  28        8.8539
  29        9.6587
  30       10.1034
  31       12.7103
  32       13.8132
 
  0.3750000E+00  0.4166667E-01  0.0000000E+00  0.1736111E-02
   1       -4.3518
   2       -2.4670
   3       -1.4326
   4       -1.4309
   5       -1.2963
   6       -1.2402
   7       -1.2379
   8       -0.9690
   9       -0.6614
  10       -0.6540
  11       -0.4729
  12       -0.4529
  13       -0.3822
  14       -0.2798
  15       -0.1292
  16       -0.1260
  17       -0.0933
  18       -0.0782
  19       -0.0389
  20        0.0642
  21        0.2501
  22        0.2504
  23        5.2471
  24        5.5144
  25        7.4709
  26        7.7549
  27        7.9266
  28        8.3214
  29        9.2968
  30        9.7008
  31       13.7419
  32       14.1700
 
  0.4166667E+00  0.4166667E-01  0.0000000E+00  0.1736111E-02
   1       -4.0550
   2       -2.7535
   3       -1.3820
   4       -1.3807
   5       -1.2438
   6       -1.1651
   7       -1.1613
   8       -1.0224
   9       -0.7783
  10       -0.7709
  11       -0.4621
  12       -0.3992
  13       -0.3881
  14       -0.3691
  15       -0.1668
  16       -0.1644
  17       -0.1563
  18       -0.1265
  19       -0.0562
  20        0.0381
  21        0.2501
  22        0.2504
  23        5.6387
  24        5.9297
  25        7.3485
  26        7.7446
  27        7.8050
  28        7.9304
  29        8.9890
  30        9.3355
  31       14.5563
  32       14.5844
 
  0.4583333E+00  0.4166667E-01  0.0000000E+00  0.1736111E-02
   1       -3.7379
   2       -3.0740
   3       -1.3481
   4       -1.3474
   5       -1.1892
   6       -1.0814
   7       -1.0775
   8       -1.0762
   9       -0.8877
  10       -0.8806
  11       -0.4710
  12       -0.4488
  13       -0.3419
  14       -0.3225
  15       -0.2195
  16       -0.1988
  17       -0.1919
  18       -0.1907
  19       -0.0333
  20        0.0140
  21        0.2502
  22        0.2503
  23        6.0490
  24        6.3677
  25        6.9168
  26        7.3065
  27        7.8985
  28        8.0660
  29        8.7859
  30        9.0220
  31       14.9769
  32       15.0205
 
  0.5000000E+00  0.4166667E-01  0.0000000E+00  0.8680556E-03
   1       -3.4074
   2       -3.4074
   3       -1.3359
   4       -1.3359
   5       -1.1335
   6       -1.1335
   7       -0.9889
   8       -0.9889
   9       -0.9825
  10       -0.9825
  11       -0.4717
  12       -0.4717
  13       -0.2817
  14       -0.2817
  15       -0.2639
  16       -0.2639
  17       -0.2005
  18       -0.2005
  19       -0.0098
  20       -0.0098
  21        0.2503
  22        0.2503
  23        6.4762
  24        6.4762
  25        6.8270
  26        6.8270
  27        8.0491
  28        8.0491
  29        8.8021
  30        8.8021
  31       15.4285
  32       15.4722
 
  0.8333333E-01  0.8333333E-01  0.0000000E+00  0.8680556E-03
   1       -5.5696
   2       -1.8228
   3       -1.8228
   4       -1.7935
   5       -1.5300
   6       -1.5300
   7       -1.5290
   8       -0.7225
   9       -0.6809
  10       -0.6753
  11       -0.2019
  12       -0.1819
  13        0.1199
  14        0.1199
  15        0.1203
  16        0.1253
  17        0.1698
  18        0.1698
  19        0.2346
  20        0.2346
  21        0.2419
  22        2.8847
  23        2.8847
  24        3.5725
  25        6.8498
  26        7.5171
  27        7.5171
  28       11.0425
  29       12.1443
  30       12.1443
  31       12.2578
  32       12.2578
 
  0.1250000E+00  0.8333333E-01  0.0000000E+00  0.1736111E-02
   1       -5.4850
   2       -1.8295
   3       -1.7888
   4       -1.7616
   5       -1.5127
   6       -1.5111
   7       -1.5102
   8       -0.7381
   9       -0.6675
  10       -0.6610
  11       -0.2152
  12       -0.1766
  13        0.0438
  14        0.0458
  15        0.0912
  16        0.1046
  17        0.1318
  18        0.1603
  19        0.2090
  20        0.2346
  21        0.2370
  22        2.3850
  23        3.0419
  24        3.7341
  25        6.8909
  26        7.5702
  27        8.2048
  28       10.4634
  29       11.6700
  30       11.8780
  31       12.2540
  32       12.3679
 
  0.1666667E+00  0.8333333E-01  0.0000000E+00  0.1736111E-02
   1       -5.3670
   2       -1.8452
   3       -1.7430
   4       -1.7187
   5       -1.4889
   6       -1.4845
   7       -1.4838
   8       -0.7618
   9       -0.6466
  10       -0.6413
  11       -0.2358
  12       -0.1663
  13       -0.0618
  14       -0.0561
  15        0.0504
  16        0.0763
  17        0.0988
  18        0.1477
  19        0.1743
  20        0.2345
  21        0.2347
  22        1.8601
  23        3.2461
  24        3.9485
  25        6.9492
  26        7.6453
  27        8.9998
  28        9.8845
  29       11.1367
  30       11.4437
  31       12.4061
  32       12.4627
 
  0.2083333E+00  0.8333333E-01  0.0000000E+00  0.1736111E-02
   1       -5.2163
   2       -1.8772
   3       -1.6872
   4       -1.6663
   5       -1.4590
   6       -1.4501
   7       -1.4498
   8       -0.7924
   9       -0.6192
  10       -0.6166
  11       -0.2616
  12       -0.1839
  13       -0.1704
  14       -0.1527
  15       -0.0037
  16        0.0410
  17        0.0612
  18        0.1315
  19        0.1318
  20        0.2335
  21        0.2344
  22        1.3556
  23        3.4884
  24        4.2078
  25        7.0253
  26        7.7432
  27        9.3170
  28        9.8656
  29       10.5799
  30       10.9917
  31       12.1131
  32       12.5993
 
  0.2500000E+00  0.8333333E-01  0.0000000E+00  0.1736111E-02
   1       -5.0334
   2       -1.9372
   3       -1.6238
   4       -1.6069
   5       -1.4234
   6       -1.4081
   7       -1.4078
   8       -0.8291
   9       -0.5876
  10       -0.5857
  11       -0.3121
  12       -0.2923
  13       -0.2905
  14       -0.1361
  15       -0.0732
  16        0.0001
  17        0.0185
  18        0.0820
  19        0.1122
  20        0.2330
  21        0.2344
  22        0.9042
  23        3.7620
  24        4.5058
  25        7.1194
  26        7.8642
  27        8.7682
  28       10.0181
  29       10.5451
  30       10.7840
  31       11.7043
  32       12.8319
 
  0.2916667E+00  0.8333333E-01  0.0000000E+00  0.1736111E-02
   1       -4.8194
   2       -2.0409
   3       -1.5560
   4       -1.5430
   5       -1.3827
   6       -1.3592
   7       -1.3574
   8       -0.8709
   9       -0.5558
  10       -0.5465
  11       -0.4410
  12       -0.4167
  13       -0.3197
  14       -0.1620
  15       -0.1171
  16       -0.0447
  17       -0.0280
  18        0.0271
  19        0.0875
  20        0.2328
  21        0.2342
  22        0.5369
  23        4.0619
  24        4.8373
  25        7.2291
  26        8.0078
  27        8.2450
  28        9.4613
  29       10.1189
  30       11.2753
  31       11.7444
  32       13.1021
 
  0.3333333E+00  0.8333333E-01  0.0000000E+00  0.1736111E-02
   1       -4.5758
   2       -2.2038
   3       -1.4878
   4       -1.4783
   5       -1.3376
   6       -1.3033
   7       -1.2988
   8       -0.9171
   9       -0.5672
  10       -0.5400
  11       -0.5253
  12       -0.5020
  13       -0.3437
  14       -0.2696
  15       -0.0959
  16       -0.0906
  17       -0.0760
  18       -0.0319
  19        0.0530
  20        0.2328
  21        0.2341
  22        0.2795
  23        4.3848
  24        5.1985
  25        7.3308
  26        7.7741
  27        8.1707
  28        8.9152
  29        9.7260
  30       10.8487
  31       12.7376
  32       13.4078
 
  0.3750000E+00  0.8333333E-01  0.0000000E+00  0.1736111E-02
   1       -4.3048
   2       -2.4321
   3       -1.4243
   4       -1.4172
   5       -1.2887
   6       -1.2409
   7       -1.2319
   8       -0.9669
   9       -0.6882
  10       -0.6596
  11       -0.5048
  12       -0.4527
  13       -0.3769
  14       -0.3516
  15       -0.1339
  16       -0.1219
  17       -0.0936
  18       -0.0729
  19       -0.0047
  20        0.1367
  21        0.2329
  22        0.2340
  23        4.7286
  24        5.5865
  25        7.1593
  26        7.6224
  27        8.3391
  28        8.3833
  29        9.3861
  30       10.4380
  31       13.7046
  32       13.7472
 
  0.4166667E+00  0.8333333E-01  0.0000000E+00  0.1736111E-02
   1       -4.0091
   2       -2.7157
   3       -1.3712
   4       -1.3660
   5       -1.2371
   6       -1.1715
   7       -1.1566
   8       -1.0194
   9       -0.8025
  10       -0.7737
  11       -0.5028
  12       -0.4568
  13       -0.3991
  14       -0.3320
  15       -0.1699
  16       -0.1611
  17       -0.1566
  18       -0.0849
  19       -0.0482
  20        0.0731
  21        0.2330
  22        0.2338
  23        5.0919
  24        5.9992
  25        6.7300
  26        7.7744
  27        7.8679
  28        8.4568
  29        9.1593
  30       10.0525
  31       14.1181
  32       14.2192
 
  0.4583333E+00  0.8333333E-01  0.0000000E+00  0.1736111E-02
   1       -3.6936
   2       -3.0336
   3       -1.3350
   4       -1.3320
   5       -1.1834
   6       -1.0935
   7       -1.0736
   8       -1.0730
   9       -0.9087
  10       -0.8811
  11       -0.5113
  12       -0.5003
  13       -0.3419
  14       -0.2887
  15       -0.2197
  16       -0.1933
  17       -0.1886
  18       -0.1626
  19       -0.0221
  20        0.0359
  21        0.2332
  22        0.2336
  23        5.4742
  24        6.2948
  25        6.4350
  26        7.3705
  27        7.9760
  28        8.3955
  29        9.1760
  30        9.7007
  31       14.5185
  32       14.6369
 
  0.5000000E+00  0.8333333E-01  0.0000000E+00  0.8680556E-03
   1       -3.3648
   2       -3.3648
   3       -1.3211
   4       -1.3211
   5       -1.1285
   6       -1.1285
   7       -1.0059
   8       -1.0059
   9       -0.9810
  10       -0.9810
  11       -0.5147
  12       -0.5147
  13       -0.2818
  14       -0.2818
  15       -0.2309
  16       -0.2309
  17       -0.2000
  18       -0.2000
  19        0.0056
  20        0.0056
  21        0.2334
  22        0.2334
  23        5.8753
  24        5.8753
  25        6.8925
  26        6.8925
  27        8.1961
  28        8.1961
  29        9.3957
  30        9.3957
  31       14.9466
  32       14.9469
 
  0.1250000E+00  0.1250000E+00  0.0000000E+00  0.8680556E-03
   1       -5.4008
   2       -1.7943
   3       -1.7943
   4       -1.7311
   5       -1.4943
   6       -1.4943
   7       -1.4920
   8       -0.7495
   9       -0.6580
  10       -0.6488
  11       -0.2221
  12       -0.1756
  13       -0.0191
  14        0.0038
  15        0.0038
  16        0.0850
  17        0.1319
  18        0.1319
  19        0.2089
  20        0.2089
  21        0.2249
  22        2.5391
  23        2.5391
  24        3.8895
  25        6.9327
  26        8.2636
  27        8.2636
  28        9.8493
  29       11.7759
  30       11.7759
  31       11.9834
  32       11.9834
 
  0.1666667E+00  0.1250000E+00  0.0000000E+00  0.1736111E-02
   1       -5.2833
   2       -1.8080
   3       -1.7467
   4       -1.6900
   5       -1.4711
   6       -1.4683
   7       -1.4664
   8       -0.7695
   9       -0.6402
  10       -0.6321
  11       -0.2381
  12       -0.1670
  13       -0.1083
  14       -0.1059
  15       -0.0495
  16        0.0580
  17        0.1008
  18        0.1259
  19        0.1741
  20        0.2087
  21        0.2167
  22        2.0153
  23        2.7366
  24        4.0967
  25        6.9918
  26        8.3462
  27        9.0614
  28        9.2481
  29       11.2400
  30       11.5454
  31       11.9227
  32       12.1301
 
  0.2083333E+00  0.1250000E+00  0.0000000E+00  0.1736111E-02
   1       -5.1332
   2       -1.8374
   3       -1.6886
   4       -1.6399
   5       -1.4419
   6       -1.4347
   7       -1.4335
   8       -0.7973
   9       -0.6148
  10       -0.6114
  11       -0.2605
  12       -0.2322
  13       -0.2091
  14       -0.1526
  15       -0.1154
  16        0.0245
  17        0.0642
  18        0.1138
  19        0.1312
  20        0.2085
  21        0.2119
  22        1.5151
  23        2.9683
  24        4.3490
  25        7.0680
  26        8.4523
  27        8.6676
  28        9.9275
  29       10.6817
  30       11.0912
  31       12.1090
  32       12.3172
 
  0.2500000E+00  0.1250000E+00  0.0000000E+00  0.1736111E-02
   1       -4.9512
   2       -1.8940
   3       -1.6225
   4       -1.5829
   5       -1.4072
   6       -1.3936
   7       -1.3935
   8       -0.8316
   9       -0.5879
  10       -0.5826
  11       -0.3604
  12       -0.3217
  13       -0.2859
  14       -0.1954
  15       -0.1340
  16       -0.0146
  17        0.0222
  18        0.0816
  19        0.0956
  20        0.2082
  21        0.2090
  22        1.0696
  23        3.2278
  24        4.6402
  25        7.1584
  26        8.1158
  27        8.5808
  28       10.1192
  29       10.6452
  30       10.8433
  31       12.3333
  32       12.4327
 
  0.2916667E+00  0.1250000E+00  0.0000000E+00  0.1736111E-02
   1       -4.7383
   2       -1.9935
   3       -1.5516
   4       -1.5213
   5       -1.3676
   6       -1.3475
   7       -1.3443
   8       -0.8715
   9       -0.5639
  10       -0.5443
  11       -0.4880
  12       -0.4384
  13       -0.3102
  14       -0.2888
  15       -0.1121
  16       -0.0573
  17       -0.0238
  18        0.0266
  19        0.0703
  20        0.2074
  21        0.2080
  22        0.7043
  23        3.5112
  24        4.9657
  25        7.2320
  26        7.6272
  27        8.7269
  28        9.5623
  29       10.2261
  30       11.7947
  31       12.0490
  32       12.5939
 
  0.3333333E+00  0.1250000E+00  0.0000000E+00  0.1736111E-02
   1       -4.4962
   2       -2.1517
   3       -1.4798
   4       -1.4577
   5       -1.3237
   6       -1.2962
   7       -1.2872
   8       -0.9159
   9       -0.6118
  10       -0.5552
  11       -0.5441
  12       -0.5005
  13       -0.3872
  14       -0.3269
  15       -0.1011
  16       -0.0873
  17       -0.0716
  18       -0.0324
  19        0.0357
  20        0.2065
  21        0.2077
  22        0.4346
  23        3.8161
  24        5.3215
  25        6.9886
  26        7.5045
  27        8.8728
  28        9.0167
  29        9.8604
  30       11.6450
  31       12.7389
  32       12.8887
 
  0.3750000E+00  0.1250000E+00  0.0000000E+00  0.1736111E-02
   1       -4.2267
   2       -2.3750
   3       -1.4123
   4       -1.3959
   5       -1.2762
   6       -1.2411
   7       -1.2221
   8       -0.9639
   9       -0.7297
  10       -0.6693
  11       -0.5356
  12       -0.4731
  13       -0.4517
  14       -0.3269
  15       -0.1421
  16       -0.1176
  17       -0.0940
  18       -0.0599
  19       -0.0122
  20        0.2061
  21        0.2073
  22        0.2572
  23        4.1413
  24        5.7049
  25        6.5323
  26        7.6455
  27        8.4858
  28        8.9451
  29        9.6268
  30       11.2433
  31       13.2161
  32       13.3495
 
  0.4166667E+00  0.1250000E+00  0.0000000E+00  0.1736111E-02
   1       -3.9332
   2       -2.6537
   3       -1.3550
   4       -1.3425
   5       -1.2259
   6       -1.1813
   7       -1.1489
   8       -1.0147
   9       -0.8402
  10       -0.7788
  11       -0.5410
  12       -0.5310
  13       -0.3986
  14       -0.3046
  15       -0.1756
  16       -0.1578
  17       -0.1570
  18       -0.0745
  19       -0.0300
  20        0.1507
  21        0.2060
  22        0.2070
  23        4.4866
  24        6.0803
  25        6.1137
  26        7.8337
  27        7.9718
  28        8.8125
  29        9.6598
  30       10.8569
  31       13.5741
  32       13.7416
 
  0.4583333E+00  0.1250000E+00  0.0000000E+00  0.1736111E-02
   1       -3.6202
   2       -2.9672
   3       -1.3145
   4       -1.3069
   5       -1.1738
   6       -1.1132
   7       -1.0677
   8       -1.0672
   9       -0.9419
  10       -0.8822
  11       -0.5586