       N       E                     dE             d eps       ncg     rms          rms(c)
DAV:   1     0.355250691006E+03    0.35525E+03   -0.30939E+04 86048   0.315E+03
DAV:   2     0.953053661276E+01   -0.34572E+03   -0.32989E+03 85184   0.465E+02
DAV:   3    -0.170601644737E+02   -0.26591E+02   -0.25730E+02 93640   0.151E+02
DAV:   4    -0.174402980988E+02   -0.38013E+00   -0.37978E+00 95448   0.184E+01
DAV:   5    -0.174410591662E+02   -0.76107E-03   -0.76106E-03 95248   0.763E-01    0.133E+01
DAV:   6    -0.161013540041E+02    0.13397E+01   -0.26915E+01 93104   0.800E+01    0.786E+00
DAV:   7    -0.143709369022E+02    0.17304E+01   -0.58259E+00 96800   0.364E+01    0.790E-01
DAV:   8    -0.143576082739E+02    0.13329E-01   -0.81147E-02 98072   0.303E+00    0.828E-01
DAV:   9    -0.143445129850E+02    0.13095E-01   -0.36619E-02 97976   0.288E+00    0.833E-02
DAV:  10    -0.143444834974E+02    0.29488E-04   -0.91597E-04 95864   0.381E-01    0.122E-02
DAV:  11    -0.143444848783E+02   -0.13809E-05   -0.14294E-05 97152   0.387E-02    0.310E-03
DAV:  12    -0.143444879002E+02   -0.30219E-05   -0.11393E-07103088   0.389E-03    0.896E-04
DAV:  13    -0.143444886620E+02   -0.76178E-06   -0.32732E-08 78104   0.227E-03    0.894E-05
DAV:  14    -0.143444886445E+02    0.17418E-07   -0.22275E-09 56304   0.454E-04    0.182E-05
DAV:  15    -0.143444886272E+02    0.17318E-07   -0.14323E-10 53256   0.139E-04    0.140E-05
DAV:  16    -0.143444886198E+02    0.74424E-08   -0.10653E-11 51568   0.320E-05
   1 F= -.14344489E+02 E0= -.14344450E+02  d E =-.767731E-04
